<event>
 6    1  0.1383644E-005  0.1366809E+03  0.7818608E-02  0.1267827E+00
          2   -1    0    0  502    0  0.00000000000E+00  0.00000000000E+00  0.29303358735E+03  0.29303358735E+03  0.00000000000E+00 0.  1.
          1   -1    0    0  501    0 -0.00000000000E+00 -0.00000000000E+00 -0.28256124534E+03  0.28256124534E+03  0.00000000000E+00 0.  1.
          2    1    1    2  501    0  0.14310166888E+02  0.10500432580E+03  0.18182941253E+03  0.21045813022E+03  0.00000000000E+00 0.  1.
          1    1    1    2  502    0  0.12098318264E+02 -0.10938615565E+03 -0.20514003874E+03  0.23279633985E+03  0.00000000000E+00 0.  1.
         22    1    1    2    0    0 -0.43797266447E+02 -0.23628522925E+02 -0.31715948171E+02  0.59011939573E+02  0.00000000000E+00 0.  1.
         22    1    1    2    0    0  0.17388781296E+02  0.28010352775E+02  0.65498916393E+02  0.73328423044E+02  0.00000000000E+00 0.  1.
</event>
<event>
 6    1  0.1383644E-005  0.3132033E+02  0.7818608E-02  0.1651174E+00
          2   -1    0    0  502    0  0.00000000000E+00  0.00000000000E+00  0.44296603794E+02  0.44296603794E+02  0.00000000000E+00 0. -1.
          1   -1    0    0  501    0 -0.00000000000E+00 -0.00000000000E+00 -0.97061639088E+03  0.97061639088E+03  0.00000000000E+00 0.  1.
          2    1    1    2  501    0  0.24293480349E+02  0.44778509585E+01 -0.55645876203E+01  0.25321709501E+02  0.00000000000E+00 0. -1.
          1    1    1    2  502    0 -0.52107007724E+02  0.16126636366E+02 -0.82229034080E+03  0.82409745372E+03  0.00000000000E+00 0.  1.
         22    1    1    2    0    0  0.15365715963E+02 -0.22204323448E+02 -0.12935932231E+03  0.13214753678E+03  0.00000000000E+00 0.  1.
         22    1    1    2    0    0  0.12447811412E+02  0.15998361234E+01  0.30894463648E+02  0.33346294677E+02  0.00000000000E+00 0. -1.
</event>
<event>
 6    1  0.1383644E-005  0.4868692E+02  0.7818608E-02  0.1459520E+00
          2   -1    0    0  502    0  0.00000000000E+00  0.00000000000E+00  0.22540978495E+03  0.22540978495E+03  0.00000000000E+00 0.  1.
          1   -1    0    0  501    0 -0.00000000000E+00 -0.00000000000E+00 -0.73693141822E+02  0.73693141822E+02  0.00000000000E+00 0.  1.
          2    1    1    2  501    0  0.20870911871E+02 -0.21196520629E+02  0.14321361707E+03  0.14627039196E+03  0.00000000000E+00 0.  1.
          1    1    1    2  502    0 -0.16826925776E+02 -0.10812757264E+02 -0.91463812905E+01  0.21993577277E+02  0.00000000000E+00 0.  1.
         22    1    1    2    0    0  0.17526266550E+02 -0.14456047623E+02  0.60136451062E+02  0.64284835525E+02  0.00000000000E+00 0.  1.
         22    1    1    2    0    0 -0.21570252646E+02  0.46465325516E+02 -0.42487043709E+02  0.66554122018E+02  0.00000000000E+00 0.  1.
</event>
<event>
 6    1  0.1383644E-005  0.5698592E+02  0.7818608E-02  0.1431654E+00
          2   -1    0    0  502    0  0.00000000000E+00  0.00000000000E+00  0.12737824879E+03  0.12737824879E+03  0.00000000000E+00 0.  1.
          1   -1    0    0  501    0 -0.00000000000E+00 -0.00000000000E+00 -0.21434951328E+03  0.21434951328E+03  0.00000000000E+00 0.  1.
          2    1    1    2  501    0  0.54441386580E+02  0.13267411519E+01  0.32364120774E+02  0.63348726335E+02  0.00000000000E+00 0.  1.
          1    1    1    2  502    0 -0.71375204935E+02 -0.74890237565E+02 -0.44132549451E+02  0.11247510606E+03  0.00000000000E+00 0.  1.
         22    1    1    2    0    0  0.15231400268E+02  0.29479659565E+02  0.34375708757E+02  0.47777978555E+02  0.00000000000E+00 0.  1.
         22    1    1    2    0    0  0.17024180864E+01  0.44083836848E+02 -0.10957854457E+03  0.11812595112E+03  0.00000000000E+00 0.  1.
</event>
<event>
 6    1  0.1383644E-005  0.3987139E+02  0.7818608E-02  0.1553915E+00
          2   -1    0    0  502    0  0.00000000000E+00  0.00000000000E+00  0.90265752305E+02  0.90265752305E+02  0.00000000000E+00 0.  1.
          1   -1    0    0  501    0 -0.00000000000E+00 -0.00000000000E+00 -0.18709983373E+03  0.18709983373E+03  0.00000000000E+00 0. -1.
          2    1    1    2  501    0  0.36629750105E+02  0.33427401117E+02  0.27155640551E+02  0.56538115921E+02  0.00000000000E+00 0.  1.
          1    1    1    2  502    0 -0.38545719475E+01 -0.47158158335E+02 -0.64750636476E+02  0.80195975875E+02  0.00000000000E+00 0. -1.
         22    1    1    2    0    0 -0.13750421577E+02 -0.94827727756E+01 -0.93559448536E+02  0.95038768318E+02  0.00000000000E+00 0. -1.
         22    1    1    2    0    0 -0.19024756580E+02  0.23213529993E+02  0.34320363038E+02  0.45592725919E+02  0.00000000000E+00 0.  1.
</event>
<event>
 6    1  0.1383644E-005  0.2345238E+03  0.7818608E-02  0.1257175E+00
          2   -1    0    0  502    0  0.00000000000E+00  0.00000000000E+00  0.79568458713E+02  0.79568458713E+02  0.00000000000E+00 0. -1.
          1   -1    0    0  501    0 -0.00000000000E+00 -0.00000000000E+00 -0.11066385567E+04  0.11066385567E+04  0.00000000000E+00 0. -1.
          2    1    1    2  501    0  0.38803516801E+02 -0.22564780513E+02 -0.13184348641E+03  0.13927522086E+03  0.00000000000E+00 0. -1.
          1    1    1    2  502    0  0.14269543077E+01 -0.93789668917E+02 -0.86035974364E+03  0.86545792888E+03  0.00000000000E+00 0. -1.
         22    1    1    2    0    0 -0.31275671723E+02  0.10816473609E+03  0.29157461756E+02  0.11630965288E+03  0.00000000000E+00 0. -1.
         22    1    1    2    0    0 -0.89547993864E+01  0.81897133359E+01 -0.64024329693E+02  0.65164212796E+02  0.00000000000E+00 0. -1.
</event>
<event>
 6    1  0.1383644E-005  0.6027938E+02  0.7818608E-02  0.1476641E+00
          2   -1    0    0  502    0  0.00000000000E+00  0.00000000000E+00  0.30549776623E+03  0.30549776623E+03  0.00000000000E+00 0. -1.
          1   -1    0    0  501    0 -0.00000000000E+00 -0.00000000000E+00 -0.19493377440E+03  0.19493377440E+03  0.00000000000E+00 0. -1.
          2    1    1    2  501    0 -0.41708640483E+02  0.21370615592E+02  0.22292297370E+03  0.22779588694E+03  0.00000000000E+00 0. -1.
          1    1    1    2  502    0  0.72758352055E+02 -0.20916198838E+02 -0.12268670459E+03  0.14416411707E+03  0.00000000000E+00 0. -1.
         22    1    1    2    0    0 -0.18103729761E+02  0.75898136286E+00 -0.57046005683E+02  0.59854555786E+02  0.00000000000E+00 0. -1.
         22    1    1    2    0    0 -0.12945981811E+02 -0.12133981174E+01  0.67373728406E+02  0.68616980838E+02  0.00000000000E+00 0. -1.
</event>
<event>
 6    1  0.1383644E-005  0.2857088E+02  0.7818608E-02  0.1640467E+00
          2   -1    0    0  502    0  0.00000000000E+00  0.00000000000E+00  0.69139782696E+02  0.69139782696E+02  0.00000000000E+00 0. -1.
          1   -1    0    0  501    0 -0.00000000000E+00 -0.00000000000E+00 -0.14301127971E+03  0.14301127971E+03  0.00000000000E+00 0.  1.
          2    1    1    2  501    0  0.41319612104E+01  0.32608169873E+02 -0.48960472005E+01  0.33231568186E+02  0.00000000000E+00 0. -1.
          1    1    1    2  502    0  0.73440734930E+01 -0.31175464059E+02 -0.45823250123E+02  0.55907201921E+02  0.00000000000E+00 0.  1.
         22    1    1    2    0    0 -0.18881134731E+02  0.13650340422E+02  0.46152419026E+02  0.51699853233E+02  0.00000000000E+00 0. -1.
         22    1    1    2    0    0  0.74051000272E+01 -0.15083046235E+02 -0.69304618719E+02  0.71312439069E+02  0.00000000000E+00 0.  1.
</event>
<event>
 6    1  0.1383644E-005  0.6884699E+02  0.7818608E-02  0.1449010E+00
          2   -1    0    0  502    0  0.00000000000E+00  0.00000000000E+00  0.29144561464E+03  0.29144561464E+03  0.00000000000E+00 0.  1.
          1   -1    0    0  501    0 -0.00000000000E+00 -0.00000000000E+00 -0.15966361614E+03  0.15966361614E+03  0.00000000000E+00 0. -1.
          2    1    1    2  501    0  0.49668366714E+02 -0.98915284746E+02  0.15520005576E+03  0.19062590988E+03  0.00000000000E+00 0.  1.
          1    1    1    2  502    0 -0.83496042594E+02  0.66033909603E+02 -0.63985640800E+02  0.12420236944E+03  0.00000000000E+00 0. -1.
         22    1    1    2    0    0  0.36164664815E+02  0.21939537338E+02  0.82591423681E+02  0.92793154626E+02  0.00000000000E+00 0.  1.
         22    1    1    2    0    0 -0.23369889359E+01  0.10941837805E+02 -0.42023840150E+02  0.43487796826E+02  0.00000000000E+00 0.  1.
</event>
<event>
 6    1  0.1383644E-005  0.5295614E+02  0.7818608E-02  0.1432388E+00
          2   -1    0    0  502    0  0.00000000000E+00  0.00000000000E+00  0.11087670962E+03  0.11087670962E+03  0.00000000000E+00 0.  1.
          1   -1    0    0  501    0 -0.00000000000E+00 -0.00000000000E+00 -0.23525702685E+03  0.23525702685E+03  0.00000000000E+00 0. -1.
          2    1    1    2  501    0  0.53800696911E+01 -0.30480020630E+02  0.47411576123E+02  0.56620087937E+02  0.00000000000E+00 0.  1.
          1    1    1    2  502    0 -0.13769728245E+02  0.31944978557E+02 -0.16078802442E+03  0.16450798116E+03  0.00000000000E+00 0. -1.
         22    1    1    2    0    0  0.69495684609E+01  0.16457758479E+02 -0.65357543968E+02  0.67755168581E+02  0.00000000000E+00 0.  1.
         22    1    1    2    0    0  0.14400900928E+01 -0.17922716406E+02  0.54353675027E+02  0.57250498790E+02  0.00000000000E+00 0.  1.
</event>
<event>
 6    1  0.1383644E-005  0.1058864E+03  0.7818608E-02  0.1315717E+00
          2   -1    0    0  502    0  0.00000000000E+00  0.00000000000E+00  0.49592405810E+03  0.49592405810E+03  0.00000000000E+00 0.  1.
          1   -1    0    0  501    0 -0.00000000000E+00 -0.00000000000E+00 -0.48990077633E+02  0.48990077633E+02  0.00000000000E+00 0. -1.
          2    1    1    2  501    0  0.78076675335E+02  0.12738223268E+02  0.23206776881E+03  0.24518091052E+03  0.00000000000E+00 0.  1.
          1    1    1    2  502    0 -0.52845310229E+02 -0.42973473963E+02  0.41808925091E+02  0.79920788878E+02  0.00000000000E+00 0. -1.
         22    1    1    2    0    0  0.14124680010E+02  0.41402357306E+02  0.17346984564E+03  0.17890066831E+03  0.00000000000E+00 0.  1.
         22    1    1    2    0    0 -0.39356045116E+02 -0.11167106610E+02 -0.41255908093E+00  0.40911768016E+02  0.00000000000E+00 0. -1.
</event>
<event>
 6    1  0.1383644E-005  0.1127265E+03  0.7818608E-02  0.1381133E+00
          2   -1    0    0  502    0  0.00000000000E+00  0.00000000000E+00  0.20534261130E+03  0.20534261130E+03  0.00000000000E+00 0. -1.
          1   -1    0    0  501    0 -0.00000000000E+00 -0.00000000000E+00 -0.13913025247E+03  0.13913025247E+03  0.00000000000E+00 0. -1.
          2    1    1    2  501    0  0.43905147438E+02  0.33472422024E+01  0.79406933815E+02  0.90798277186E+02  0.00000000000E+00 0. -1.
          1    1    1    2  502    0 -0.10246432476E+03  0.12562759816E+02 -0.38711143215E+02  0.11025113783E+03  0.00000000000E+00 0. -1.
         22    1    1    2    0    0  0.67223694631E+02 -0.78482856610E+01  0.70014300602E+02  0.97378760499E+02  0.00000000000E+00 0. -1.
         22    1    1    2    0    0 -0.86645173069E+01 -0.80617163570E+01 -0.44497732371E+02  0.46044688260E+02  0.00000000000E+00 0.  1.
</event>
<event>
 6    1  0.1383644E-005  0.1132349E+03  0.7818608E-02  0.1314718E+00
          2   -1    0    0  502    0  0.00000000000E+00  0.00000000000E+00  0.11063855064E+04  0.11063855064E+04  0.00000000000E+00 0.  1.
          1   -1    0    0  501    0 -0.00000000000E+00 -0.00000000000E+00 -0.21733025371E+02  0.21733025371E+02  0.00000000000E+00 0.  1.
          2    1    1    2  501    0 -0.26771112891E+02  0.40113934755E+02  0.61532544198E+03  0.61721245920E+03  0.00000000000E+00 0.  1.
          1    1    1    2  502    0  0.53005105088E+02 -0.54780806470E+02  0.14593701523E+03  0.16464534714E+03  0.00000000000E+00 0.  1.
         22    1    1    2    0    0  0.31977125393E+02  0.17429270444E+02  0.30130626825E+02  0.47267014814E+02  0.00000000000E+00 0.  1.
         22    1    1    2    0    0 -0.58211117589E+02 -0.27623987282E+01  0.29325939699E+03  0.29899371060E+03  0.00000000000E+00 0.  1.
</event>
<event>
 6    1  0.1383644E-005  0.2101694E+03  0.7818608E-02  0.1259754E+00
          2   -1    0    0  502    0  0.00000000000E+00  0.00000000000E+00  0.25297938025E+03  0.25297938025E+03  0.00000000000E+00 0. -1.
          1   -1    0    0  501    0 -0.00000000000E+00 -0.00000000000E+00 -0.78789689026E+03  0.78789689026E+03  0.00000000000E+00 0. -1.
          2    1    1    2  501    0  0.24207882484E+02  0.82386248666E+01  0.20303741132E+03  0.20464136167E+03  0.00000000000E+00 0. -1.
          1    1    1    2  502    0  0.50244485957E+02  0.64008504975E+02 -0.64638815080E+03  0.65149001417E+03  0.00000000000E+00 0. -1.
         22    1    1    2    0    0 -0.63364992564E+01 -0.14720237380E+02 -0.94194760949E+02  0.95548362632E+02  0.00000000000E+00 0. -1.
         22    1    1    2    0    0 -0.68115869185E+02 -0.57526892461E+02  0.26279904195E+01  0.89196532022E+02  0.00000000000E+00 0. -1.
</event>
<event>
 6    1  0.1383644E-005  0.1114876E+03  0.7818608E-02  0.1285340E+00
          2   -1    0    0  502    0  0.00000000000E+00  0.00000000000E+00  0.54732744131E+03  0.54732744131E+03  0.00000000000E+00 0. -1.
          1   -1    0    0  501    0 -0.00000000000E+00 -0.00000000000E+00 -0.53798281911E+02  0.53798281911E+02  0.00000000000E+00 0. -1.
          2    1    1    2  501    0  0.29231980737E+02 -0.62090651448E+02  0.16432221010E+03  0.17807736079E+03  0.00000000000E+00 0. -1.
          1    1    1    2  502    0 -0.68016312686E+02  0.28504891791E+02  0.69083654743E+01  0.74070730798E+02  0.00000000000E+00 0. -1.
         22    1    1    2    0    0  0.89975789534E+01  0.64967309500E+02  0.82935748789E+02  0.10573573737E+03  0.00000000000E+00 0. -1.
         22    1    1    2    0    0  0.29786752996E+02 -0.31381549842E+02  0.23936283504E+03  0.24324189426E+03  0.00000000000E+00 0. -1.
</event>
<event>
 6    1  0.1383644E-005  0.1165391E+03  0.7818608E-02  0.1249739E+00
          2   -1    0    0  502    0  0.00000000000E+00  0.00000000000E+00  0.34732801677E+03  0.34732801677E+03  0.00000000000E+00 0. -1.
          1   -1    0    0  501    0 -0.00000000000E+00 -0.00000000000E+00 -0.50239870242E+03  0.50239870242E+03  0.00000000000E+00 0.  1.
          2    1    1    2  501    0  0.20581619182E+02  0.79769659442E+02  0.21862212752E+03  0.23362884295E+03  0.00000000000E+00 0. -1.
          1    1    1    2  502    0 -0.28512311804E+02 -0.96549467027E+02 -0.45647132818E+03  0.46744071812E+03  0.00000000000E+00 0.  1.
         22    1    1    2    0    0 -0.90199889857E+01 -0.95813032727E+01 -0.29385242414E+02  0.32197112377E+02  0.00000000000E+00 0. -1.
         22    1    1    2    0    0  0.16950681608E+02  0.26361110858E+02  0.11216375743E+03  0.11646004574E+03  0.00000000000E+00 0. -1.
</event>
<event>
 6    1  0.1383644E-005  0.9960592E+02  0.7818608E-02  0.1325499E+00
          2   -1    0    0  502    0  0.00000000000E+00  0.00000000000E+00  0.79065337784E+03  0.79065337784E+03  0.00000000000E+00 0.  1.
          1   -1    0    0  501    0 -0.00000000000E+00 -0.00000000000E+00 -0.39610151902E+03  0.39610151902E+03  0.00000000000E+00 0.  1.
          2    1    1    2  501    0 -0.73858992860E-01 -0.78783656198E+02  0.69699278476E+03  0.70143125961E+03  0.00000000000E+00 0.  1.
          1    1    1    2  502    0 -0.25663701406E+02  0.61242424810E+02 -0.34597595004E+03  0.35229053091E+03  0.00000000000E+00 0.  1.
         22    1    1    2    0    0  0.26837939981E+02  0.35034792464E+02 -0.32624646173E+02  0.54882412879E+02  0.00000000000E+00 0.  1.
         22    1    1    2    0    0 -0.11003795827E+01 -0.17493561076E+02  0.76159670265E+02  0.78150693466E+02  0.00000000000E+00 0.  1.
</event>
<event>
 6    1  0.1383644E-005  0.6607973E+02  0.7818608E-02  0.1429685E+00
          2   -1    0    0  502    0  0.00000000000E+00  0.00000000000E+00  0.58393743897E+03  0.58393743897E+03  0.00000000000E+00 0. -1.
          1   -1    0    0  501    0 -0.00000000000E+00 -0.00000000000E+00 -0.11298712637E+03  0.11298712637E+03  0.00000000000E+00 0. -1.
          2    1    1    2  501    0 -0.35081420503E+02  0.98905635052E+02  0.42596593321E+03  0.43870264071E+03  0.00000000000E+00 0. -1.
          1    1    1    2  502    0  0.19598788186E+02 -0.11486128985E+03 -0.17123116130E+02  0.11777278764E+03  0.00000000000E+00 0. -1.
         22    1    1    2    0    0 -0.12676747024E+02 -0.82201927788E+01 -0.34118414268E+02  0.37314041279E+02  0.00000000000E+00 0. -1.
         22    1    1    2    0    0  0.28159379341E+02  0.24175847572E+02  0.96225909782E+02  0.10313509570E+03  0.00000000000E+00 0.  1.
</event>
<event>
 6    1  0.1383644E-005  0.1135790E+03  0.7818608E-02  0.1313703E+00
          2   -1    0    0  502    0  0.00000000000E+00  0.00000000000E+00  0.43728560023E+03  0.43728560023E+03  0.00000000000E+00 0.  1.
          1   -1    0    0  501    0 -0.00000000000E+00 -0.00000000000E+00 -0.44921216646E+02  0.44921216646E+02  0.00000000000E+00 0.  1.
          2    1    1    2  501    0  0.28807241284E+02  0.45172614879E+02  0.18696829633E+03  0.19449310044E+03  0.00000000000E+00 0.  1.
          1    1    1    2  502    0 -0.19469522344E+02 -0.74627483867E+02  0.82597763394E+02  0.11300758455E+03  0.00000000000E+00 0.  1.
         22    1    1    2    0    0  0.33826846158E+02 -0.14376633301E+02 -0.66989590095E+00  0.36761282167E+02  0.00000000000E+00 0.  1.
         22    1    1    2    0    0 -0.43164565097E+02  0.43831502288E+02  0.12346821976E+03  0.13794484972E+03  0.00000000000E+00 0.  1.
</event>
<event>
 6    1  0.1383644E-005  0.9110426E+02  0.7818608E-02  0.1361388E+00
          2   -1    0    0  502    0  0.00000000000E+00  0.00000000000E+00  0.30186866160E+03  0.30186866160E+03  0.00000000000E+00 0.  1.
          1   -1    0    0  501    0 -0.00000000000E+00 -0.00000000000E+00 -0.89594481686E+02  0.89594481686E+02  0.00000000000E+00 0.  1.
          2    1    1    2  501    0  0.88259954469E+01  0.49140202099E+02  0.11318301693E+03  0.12370550909E+03  0.00000000000E+00 0.  1.
          1    1    1    2  502    0 -0.55269612729E+02 -0.94169307889E+02  0.26949985940E+02  0.11246728583E+03  0.00000000000E+00 0.  1.
         22    1    1    2    0    0  0.15147746672E+02  0.27126847289E+02 -0.32290122377E+02  0.44810401429E+02  0.00000000000E+00 0.  1.
         22    1    1    2    0    0  0.31295870610E+02  0.17902258501E+02  0.10443129942E+03  0.11047994693E+03  0.00000000000E+00 0.  1.
</event>
<event>
 6    1  0.1383644E-005  0.1036229E+03  0.7818608E-02  0.1275096E+00
          2   -1    0    0  502    0  0.00000000000E+00  0.00000000000E+00  0.70656871321E+02  0.70656871321E+02  0.00000000000E+00 0. -1.
          1   -1    0    0  501    0 -0.00000000000E+00 -0.00000000000E+00 -0.40318344163E+03  0.40318344163E+03  0.00000000000E+00 0. -1.
          2    1    1    2  501    0 -0.12593294428E+02 -0.67204520940E+02  0.77479338405E+01  0.68811838939E+02  0.00000000000E+00 0. -1.
          1    1    1    2  502    0  0.18728692036E+02  0.73291255564E+02 -0.21680384163E+03  0.22962203246E+03  0.00000000000E+00 0. -1.
         22    1    1    2    0    0 -0.45219737380E+01  0.22833886243E+02 -0.14009067424E+03  0.14201137848E+03  0.00000000000E+00 0. -1.
         22    1    1    2    0    0 -0.16134238700E+01 -0.28920620868E+02  0.16620011721E+02  0.33395063071E+02  0.00000000000E+00 0. -1.
</event>
<event>
 6    1  0.1383644E-005  0.5305249E+02  0.7818608E-02  0.1449098E+00
          2   -1    0    0  502    0  0.00000000000E+00  0.00000000000E+00  0.10857956001E+03  0.10857956001E+03  0.00000000000E+00 0. -1.
          1   -1    0    0  501    0 -0.00000000000E+00 -0.00000000000E+00 -0.16994637488E+03  0.16994637488E+03  0.00000000000E+00 0.  1.
          2    1    1    2  501    0  0.23621221185E+02 -0.15185233975E+02  0.40841567062E+02  0.49563968982E+02  0.00000000000E+00 0. -1.
          1    1    1    2  502    0  0.16489819022E+02  0.38074701720E+02 -0.80515835377E+02  0.90578125334E+02  0.00000000000E+00 0.  1.
         22    1    1    2    0    0  0.31057691034E+02  0.95132179200E+01  0.30347284222E+02  0.44452661869E+02  0.00000000000E+00 0.  1.
         22    1    1    2    0    0 -0.71168731241E+02 -0.32402685665E+02 -0.52039830775E+02  0.93931178699E+02  0.00000000000E+00 0.  1.
</event>
<event>
 6    1  0.1383644E-005  0.8164454E+02  0.7818608E-02  0.1436269E+00
          2   -1    0    0  502    0  0.00000000000E+00  0.00000000000E+00  0.20201925563E+03  0.20201925563E+03  0.00000000000E+00 0.  1.
          1   -1    0    0  501    0 -0.00000000000E+00 -0.00000000000E+00 -0.18780778322E+03  0.18780778322E+03  0.00000000000E+00 0.  1.
          2    1    1    2  501    0  0.55459348906E+02 -0.11407204613E+02  0.11020553159E+03  0.12389964847E+03  0.00000000000E+00 0.  1.
          1    1    1    2  502    0 -0.80371564636E+02 -0.13162319519E+01 -0.11164685401E+03  0.13757303834E+03  0.00000000000E+00 0.  1.
         22    1    1    2    0    0  0.23971056056E+02 -0.39265040682E+00  0.69190020682E+02  0.73225846971E+02  0.00000000000E+00 0.  1.
         22    1    1    2    0    0  0.94115967379E+00  0.13116086972E+02 -0.53537225849E+02  0.55128505064E+02  0.00000000000E+00 0. -1.
</event>
<event>
 6    1  0.1383644E-005  0.9789673E+02  0.7818608E-02  0.1412614E+00
          2   -1    0    0  502    0  0.00000000000E+00  0.00000000000E+00  0.34554444868E+03  0.34554444868E+03  0.00000000000E+00 0.  1.
          1   -1    0    0  501    0 -0.00000000000E+00 -0.00000000000E+00 -0.37997856945E+02  0.37997856945E+02  0.00000000000E+00 0. -1.
          2    1    1    2  501    0  0.27898215999E+02 -0.97275857541E+01  0.69685281910E+02  0.75689992043E+02  0.00000000000E+00 0.  1.
          1    1    1    2  502    0  0.75208618776E+01 -0.48813707282E+02  0.75808725010E+02  0.90478197206E+02  0.00000000000E+00 0. -1.
         22    1    1    2    0    0 -0.88713299310E+01 -0.64185540530E+01 -0.19703285119E+02  0.22541467906E+02  0.00000000000E+00 0. -1.
         22    1    1    2    0    0 -0.26547747945E+02  0.64959847089E+02  0.18175586993E+03  0.19483264847E+03  0.00000000000E+00 0. -1.
</event>
<event>
 6    1  0.1383644E-005  0.1037763E+03  0.7818608E-02  0.1326153E+00
          2   -1    0    0  502    0  0.00000000000E+00  0.00000000000E+00  0.91270198545E+02  0.91270198545E+02  0.00000000000E+00 0.  1.
          1   -1    0    0  501    0 -0.00000000000E+00 -0.00000000000E+00 -0.25749204941E+03  0.25749204941E+03  0.00000000000E+00 0.  1.
          2    1    1    2  501    0 -0.29706319239E+02  0.11363782450E+01  0.13947942769E+02  0.32837506996E+02  0.00000000000E+00 0.  1.
          1    1    1    2  502    0  0.79036618893E+02  0.58119577910E+02 -0.11946799031E+03  0.15458742889E+03  0.00000000000E+00 0.  1.
         22    1    1    2    0    0  0.21419861612E+02 -0.32080464732E+02 -0.74880966151E+02  0.84232569595E+02  0.00000000000E+00 0.  1.
         22    1    1    2    0    0 -0.70750161266E+02 -0.27175491423E+02  0.14179162828E+02  0.77104742472E+02  0.00000000000E+00 0.  1.
</event>
<event>
 6    1  0.1383644E-005  0.9071367E+02  0.7818608E-02  0.1309649E+00
          2   -1    0    0  502    0  0.00000000000E+00  0.00000000000E+00  0.14907212697E+04  0.14907212697E+04  0.00000000000E+00 0. -1.
          1   -1    0    0  501    0 -0.00000000000E+00 -0.00000000000E+00 -0.11202151707E+03  0.11202151707E+03  0.00000000000E+00 0. -1.
          2    1    1    2  501    0 -0.28882659989E+02 -0.85720969377E+02  0.12908152167E+04  0.12939807635E+04  0.00000000000E+00 0. -1.
          1    1    1    2  502    0 -0.64311586272E+02  0.13474271316E+02  0.11600828707E+03  0.13332463683E+03  0.00000000000E+00 0. -1.
         22    1    1    2    0    0  0.10254231271E+03  0.78028019240E+02 -0.59693334305E+02  0.14200912591E+03  0.00000000000E+00 0. -1.
         22    1    1    2    0    0 -0.93480664480E+01 -0.57813211790E+01  0.31569583154E+02  0.33428260521E+02  0.00000000000E+00 0. -1.
</event>
<event>
 6    1  0.1383644E-005  0.1132491E+03  0.7818608E-02  0.1355300E+00
          2   -1    0    0  502    0  0.00000000000E+00  0.00000000000E+00  0.16254458173E+03  0.16254458173E+03  0.00000000000E+00 0. -1.
          1   -1    0    0  501    0 -0.00000000000E+00 -0.00000000000E+00 -0.10505340499E+03  0.10505340499E+03  0.00000000000E+00 0. -1.
          2    1    1    2  501    0  0.26908080004E+02  0.14094955284E+02  0.91478474343E+01  0.31723739481E+02  0.00000000000E+00 0. -1.
          1    1    1    2  502    0  0.32804915446E+02  0.52378532466E+02 -0.27885911812E+02  0.67803371732E+02  0.00000000000E+00 0. -1.
         22    1    1    2    0    0 -0.11806442813E+02 -0.13483810350E+02 -0.33002285308E+02  0.37554707681E+02  0.00000000000E+00 0. -1.
         22    1    1    2    0    0 -0.47906552637E+02 -0.52989677400E+02  0.10923152643E+03  0.13051616782E+03  0.00000000000E+00 0. -1.
</event>
<event>
 6    1  0.1383644E-005  0.9329084E+02  0.7818608E-02  0.1415881E+00
          2   -1    0    0  502    0  0.00000000000E+00  0.00000000000E+00  0.26647834022E+03  0.26647834022E+03  0.00000000000E+00 0. -1.
          1   -1    0    0  501    0 -0.00000000000E+00 -0.00000000000E+00 -0.24497203094E+03  0.24497203094E+03  0.00000000000E+00 0.  1.
          2    1    1    2  501    0 -0.32101588077E+02  0.21282570132E+02  0.17117612369E+03  0.17545576385E+03  0.00000000000E+00 0. -1.
          1    1    1    2  502    0  0.71778476911E+02 -0.30613175577E+02 -0.18681700289E+03  0.20245964742E+03  0.00000000000E+00 0.  1.
         22    1    1    2    0    0  0.14736962475E+01 -0.11937313089E+02 -0.40979576285E+02  0.42708276679E+02  0.00000000000E+00 0. -1.
         22    1    1    2    0    0 -0.41150585082E+02  0.21267918534E+02  0.78126764755E+02  0.90826683207E+02  0.00000000000E+00 0. -1.
</event>
<event>
 6    1  0.1383644E-005  0.8282463E+02  0.7818608E-02  0.1445230E+00
          2   -1    0    0  502    0  0.00000000000E+00  0.00000000000E+00  0.91363794164E+02  0.91363794164E+02  0.00000000000E+00 0.  1.
          1   -1    0    0  501    0 -0.00000000000E+00 -0.00000000000E+00 -0.19138786127E+03  0.19138786127E+03  0.00000000000E+00 0. -1.
          2    1    1    2  501    0 -0.15016696447E+02  0.16596503910E+02  0.57337530525E+01  0.23104567476E+02  0.00000000000E+00 0.  1.
          1    1    1    2  502    0 -0.21644548978E+02 -0.58867459160E+02 -0.10144392249E+03  0.11926748785E+03  0.00000000000E+00 0. -1.
         22    1    1    2    0    0  0.72248387723E+01 -0.83192111621E+01 -0.59154163406E+02  0.60171609733E+02  0.00000000000E+00 0. -1.
         22    1    1    2    0    0  0.29436406653E+02  0.50590166413E+02  0.54840265733E+02  0.80207990375E+02  0.00000000000E+00 0.  1.
</event>
<event>
 6    1  0.1383644E-005  0.1154649E+03  0.7818608E-02  0.1368975E+00
          2   -1    0    0  502    0  0.00000000000E+00  0.00000000000E+00  0.36544056696E+03  0.36544056696E+03  0.00000000000E+00 0.  1.
          1   -1    0    0  501    0 -0.00000000000E+00 -0.00000000000E+00 -0.59189175082E+02  0.59189175082E+02  0.00000000000E+00 0.  1.
          2    1    1    2  501    0 -0.20261654918E+02  0.77316116818E+01  0.80134984391E+01  0.23119875355E+02  0.00000000000E+00 0.  1.
          1    1    1    2  502    0  0.40316376080E+02  0.56369722981E+02 -0.15543034103E+01  0.69320788428E+02  0.00000000000E+00 0.  1.
         22    1    1    2    0    0 -0.68189717342E+01 -0.11590884394E+02 -0.10590704088E+02  0.17117534566E+02  0.00000000000E+00 0.  1.
         22    1    1    2    0    0 -0.13235749428E+02 -0.52510450269E+02  0.31038290093E+03  0.31507154369E+03  0.00000000000E+00 0.  1.
</event>
<event>
 6    1  0.1383644E-005  0.1300604E+03  0.7818608E-02  0.1305675E+00
          2   -1    0    0  502    0  0.00000000000E+00  0.00000000000E+00  0.87125991127E+03  0.87125991127E+03  0.00000000000E+00 0. -1.
          1   -1    0    0  501    0 -0.00000000000E+00 -0.00000000000E+00 -0.11806316235E+03  0.11806316235E+03  0.00000000000E+00 0. -1.
          2    1    1    2  501    0  0.63713553818E+02 -0.12991326026E+03  0.22708345182E+03  0.26926523396E+03  0.00000000000E+00 0. -1.
          1    1    1    2  502    0 -0.96558272730E+02  0.21739816349E+03  0.84344232055E+02  0.25238742243E+03  0.00000000000E+00 0. -1.
         22    1    1    2    0    0 -0.11354937134E+02 -0.14721893769E+02  0.85458668831E+00  0.18611799264E+02  0.00000000000E+00 0. -1.
         22    1    1    2    0    0  0.44199656046E+02 -0.72763009459E+02  0.44091447836E+03  0.44905861796E+03  0.00000000000E+00 0. -1.
</event>
<event>
 6    1  0.1383644E-005  0.1048826E+03  0.7818608E-02  0.1315828E+00
          2   -1    0    0  502    0  0.00000000000E+00  0.00000000000E+00  0.30478940376E+03  0.30478940376E+03  0.00000000000E+00 0. -1.
          1   -1    0    0  501    0 -0.00000000000E+00 -0.00000000000E+00 -0.18880991574E+03  0.18880991574E+03  0.00000000000E+00 0. -1.
          2    1    1    2  501    0  0.57566291529E+02 -0.43234872230E+02  0.16908832569E+03  0.18377702245E+03  0.00000000000E+00 0. -1.
          1    1    1    2  502    0 -0.12091894661E+03  0.64865811427E+02  0.40457095705E+02  0.14305852555E+03  0.00000000000E+00 0. -1.
         22    1    1    2    0    0  0.22502446449E+02 -0.29395938515E+01  0.28652377123E+02  0.36550786900E+02  0.00000000000E+00 0.  1.
         22    1    1    2    0    0  0.40850208628E+02 -0.18691345346E+02 -0.12221831050E+03  0.13021298460E+03  0.00000000000E+00 0.  1.
</event>
<event>
 6    1  0.1383644E-005  0.2038742E+03  0.7818608E-02  0.1245985E+00
          2   -1    0    0  502    0  0.00000000000E+00  0.00000000000E+00  0.21286811335E+03  0.21286811335E+03  0.00000000000E+00 0. -1.
          1   -1    0    0  501    0 -0.00000000000E+00 -0.00000000000E+00 -0.24935448063E+03  0.24935448063E+03  0.00000000000E+00 0. -1.
          2    1    1    2  501    0 -0.27601165053E+02 -0.66441042675E+01 -0.23422498014E+02  0.36804644368E+02  0.00000000000E+00 0. -1.
          1    1    1    2  502    0  0.14888356826E+03 -0.45067109162E+02 -0.13669745218E+03  0.20708344854E+03  0.00000000000E+00 0. -1.
         22    1    1    2    0    0  0.62614165705E+01 -0.22220940381E+02 -0.38876404551E+01  0.23411306611E+02  0.00000000000E+00 0.  1.
         22    1    1    2    0    0 -0.12754381978E+03  0.73932153811E+02  0.12752122336E+03  0.19492319446E+03  0.00000000000E+00 0. -1.
</event>
<event>
 6    1  0.1383644E-005  0.4971795E+02  0.7818608E-02  0.1513201E+00
          2   -1    0    0  502    0  0.00000000000E+00  0.00000000000E+00  0.80975229121E+02  0.80975229121E+02  0.00000000000E+00 0. -1.
          1   -1    0    0  501    0 -0.00000000000E+00 -0.00000000000E+00 -0.15857410275E+03  0.15857410275E+03  0.00000000000E+00 0.  1.
          2    1    1    2  501    0  0.82402060073E+01  0.31250964151E+02  0.30394145014E+02  0.44365840536E+02  0.00000000000E+00 0. -1.
          1    1    1    2  502    0 -0.87163643905E+00 -0.38436159294E+02 -0.40351099540E+02  0.55734274243E+02  0.00000000000E+00 0.  1.
         22    1    1    2    0    0  0.10838117414E+02  0.14082808723E+02  0.32710340854E+02  0.37225753040E+02  0.00000000000E+00 0. -1.
         22    1    1    2    0    0 -0.18206686982E+02 -0.68976135797E+01 -0.10035225996E+03  0.10222346405E+03  0.00000000000E+00 0.  1.
</event>
<event>
 6    1  0.1383644E-005  0.3175172E+03  0.7818608E-02  0.1192828E+00
          2   -1    0    0  502    0  0.00000000000E+00  0.00000000000E+00  0.67259499829E+03  0.67259499829E+03  0.00000000000E+00 0. -1.
          1   -1    0    0  501    0 -0.00000000000E+00 -0.00000000000E+00 -0.89792245369E+02  0.89792245369E+02  0.00000000000E+00 0. -1.
          2    1    1    2  501    0  0.11513038349E+03 -0.18132733983E+00  0.76149540342E+02  0.13803546854E+03  0.00000000000E+00 0. -1.
          1    1    1    2  502    0  0.14014979307E+02 -0.13513736185E+03  0.23832612731E+03  0.27433167730E+03  0.00000000000E+00 0. -1.
         22    1    1    2    0    0 -0.12979449355E+03  0.15399634858E+03  0.26162603221E+03  0.33016611979E+03  0.00000000000E+00 0. -1.
         22    1    1    2    0    0  0.64913075787E+00 -0.18677659389E+02  0.67010530617E+01  0.19853978018E+02  0.00000000000E+00 0.  1.
</event>
<event>
 6    1  0.1383644E-005  0.4854930E+02  0.7818608E-02  0.1464459E+00
          2   -1    0    0  502    0  0.00000000000E+00  0.00000000000E+00  0.39620220273E+03  0.39620220273E+03  0.00000000000E+00 0.  1.
          1   -1    0    0  501    0 -0.00000000000E+00 -0.00000000000E+00 -0.11070499053E+03  0.11070499053E+03  0.00000000000E+00 0. -1.
          2    1    1    2  501    0  0.34710674725E+02  0.99639556528E+01  0.30479923126E+03  0.30693107163E+03  0.00000000000E+00 0.  1.
          1    1    1    2  502    0 -0.13721344696E+02 -0.31112338447E+02 -0.58445237302E+02  0.67617295622E+02  0.00000000000E+00 0. -1.
         22    1    1    2    0    0  0.12089508439E+02 -0.35616110016E+01  0.75984615950E+02  0.77022744357E+02  0.00000000000E+00 0.  1.
         22    1    1    2    0    0 -0.33078838468E+02  0.24709993796E+02 -0.36841397710E+02  0.55336081656E+02  0.00000000000E+00 0. -1.
</event>
<event>
 6    1  0.1383644E-005  0.1739584E+03  0.7818608E-02  0.1272388E+00
          2   -1    0    0  502    0  0.00000000000E+00  0.00000000000E+00  0.33685894651E+03  0.33685894651E+03  0.00000000000E+00 0.  1.
          1   -1    0    0  501    0 -0.00000000000E+00 -0.00000000000E+00 -0.15187745955E+03  0.15187745955E+03  0.00000000000E+00 0. -1.
          2    1    1    2  501    0  0.84505514155E+02 -0.90176033035E+02  0.85258309709E+02  0.15013952921E+03  0.00000000000E+00 0.  1.
          1    1    1    2  502    0 -0.91634070772E+02  0.13037198673E+03  0.12592186986E+03  0.20310089896E+03  0.00000000000E+00 0. -1.
         22    1    1    2    0    0 -0.10363564842E+02  0.19520324321E+02 -0.60522631578E+02  0.64431634086E+02  0.00000000000E+00 0. -1.
         22    1    1    2    0    0  0.17492121459E+02 -0.59716278017E+02  0.34323938970E+02  0.71064343800E+02  0.00000000000E+00 0.  1.
</event>
<event>
 6    1  0.1383644E-005  0.1281288E+03  0.7818608E-02  0.1363260E+00
          2   -1    0    0  502    0  0.00000000000E+00  0.00000000000E+00  0.83458605499E+03  0.83458605499E+03  0.00000000000E+00 0. -1.
          1   -1    0    0  501    0 -0.00000000000E+00 -0.00000000000E+00 -0.87437453624E+02  0.87437453624E+02  0.00000000000E+00 0. -1.
          2    1    1    2  501    0 -0.55904153242E+02  0.36821273591E+02  0.41167121815E+02  0.78586337598E+02  0.00000000000E+00 0. -1.
          1    1    1    2  502    0  0.11492774480E+03 -0.20400210073E+02  0.69638217974E+03  0.70609680310E+03  0.00000000000E+00 0. -1.
         22    1    1    2    0    0 -0.68045015022E+02 -0.10439592910E+02  0.56592363490E+02  0.89116804110E+02  0.00000000000E+00 0.  1.
         22    1    1    2    0    0  0.90214234680E+01 -0.59814706079E+01 -0.46993063678E+02  0.48223563803E+02  0.00000000000E+00 0. -1.
</event>
<event>
 6    1  0.1383644E-005  0.3167603E+02  0.7818608E-02  0.1630407E+00
          2   -1    0    0  502    0  0.00000000000E+00  0.00000000000E+00  0.13807412407E+03  0.13807412407E+03  0.00000000000E+00 0.  1.
          1   -1    0    0  501    0 -0.00000000000E+00 -0.00000000000E+00 -0.25418023310E+03  0.25418023310E+03  0.00000000000E+00 0. -1.
          2    1    1    2  501    0  0.34095938390E+02 -0.92138292467E+01 -0.97382831538E+01  0.36636891556E+02  0.00000000000E+00 0.  1.
          1    1    1    2  502    0 -0.15917926342E+02  0.17464471412E+02 -0.19706981968E+03  0.19848149024E+03  0.00000000000E+00 0. -1.
         22    1    1    2    0    0 -0.31224000451E+02  0.32565119602E+01  0.11946537413E+03  0.12352132889E+03  0.00000000000E+00 0.  1.
         22    1    1    2    0    0  0.13045988403E+02 -0.11507154125E+02 -0.28763380339E+02  0.33614646480E+02  0.00000000000E+00 0. -1.
</event>
<event>
 6    1  0.1383644E-005  0.1518145E+03  0.7818608E-02  0.1199562E+00
          2   -1    0    0  502    0  0.00000000000E+00  0.00000000000E+00  0.53745494534E+02  0.53745494534E+02  0.00000000000E+00 0.  1.
          1   -1    0    0  501    0 -0.00000000000E+00 -0.00000000000E+00 -0.12816970789E+04  0.12816970789E+04  0.00000000000E+00 0.  1.
          2    1    1    2  501    0  0.10124572762E+03 -0.92416975888E+02 -0.18410941887E+03  0.22953839093E+03  0.00000000000E+00 0.  1.
          1    1    1    2  502    0  0.85171903829E+02  0.10847496758E+03 -0.40204796281E+03  0.42504545192E+03  0.00000000000E+00 0.  1.
         22    1    1    2    0    0  0.14220302815E+02 -0.67203615197E+01 -0.11919082683E+02  0.19734355908E+02  0.00000000000E+00 0.  1.
         22    1    1    2    0    0 -0.20063793426E+03 -0.93376301768E+01 -0.62987512004E+03  0.66112437472E+03  0.00000000000E+00 0.  1.
</event>
<event>
 6    1  0.1383644E-005  0.4822126E+02  0.7818608E-02  0.1455625E+00
          2   -1    0    0  502    0  0.00000000000E+00  0.00000000000E+00  0.28422088235E+03  0.28422088235E+03  0.00000000000E+00 0. -1.
          1   -1    0    0  501    0 -0.00000000000E+00 -0.00000000000E+00 -0.13628493082E+03  0.13628493082E+03  0.00000000000E+00 0. -1.
          2    1    1    2  501    0  0.10448256235E+02 -0.25257870494E+02  0.18011039467E+03  0.18217266630E+03  0.00000000000E+00 0. -1.
          1    1    1    2  502    0 -0.14292544499E+02  0.30471415698E+02 -0.91444273104E+02  0.97441464923E+02  0.00000000000E+00 0. -1.
         22    1    1    2    0    0 -0.12441101086E+02  0.69500403665E+01 -0.38488745746E+02  0.41042266098E+02  0.00000000000E+00 0. -1.
         22    1    1    2    0    0  0.16285389350E+02 -0.12163585570E+02  0.97758575708E+02  0.99849415846E+02  0.00000000000E+00 0. -1.
</event>
<event>
 6    1  0.1383644E-005  0.8542544E+02  0.7818608E-02  0.1367069E+00
          2   -1    0    0  502    0  0.00000000000E+00  0.00000000000E+00  0.12967353628E+03  0.12967353628E+03  0.00000000000E+00 0. -1.
          1   -1    0    0  501    0 -0.00000000000E+00 -0.00000000000E+00 -0.19713807505E+03  0.19713807505E+03  0.00000000000E+00 0. -1.
          2    1    1    2  501    0  0.44790465275E+02 -0.30847870450E+02  0.25360261145E+01  0.54444543522E+02  0.00000000000E+00 0. -1.
          1    1    1    2  502    0 -0.45925756175E+02  0.70576796473E+02  0.48958203852E+02  0.97402079059E+02  0.00000000000E+00 0. -1.
         22    1    1    2    0    0  0.27123530017E+02 -0.17380719495E+02  0.15824786452E+02  0.35891491429E+02  0.00000000000E+00 0. -1.
         22    1    1    2    0    0 -0.25988239117E+02 -0.22348206527E+02 -0.13478355519E+03  0.13907349732E+03  0.00000000000E+00 0. -1.
</event>
<event>
 6    1  0.1383644E-005  0.5407758E+02  0.7818608E-02  0.1508359E+00
          2   -1    0    0  502    0  0.00000000000E+00  0.00000000000E+00  0.53390303706E+02  0.53390303706E+02  0.00000000000E+00 0. -1.
          1   -1    0    0  501    0 -0.00000000000E+00 -0.00000000000E+00 -0.21989724719E+03  0.21989724719E+03  0.00000000000E+00 0.  1.
          2    1    1    2  501    0  0.19066139232E+02  0.15256552466E+02 -0.17298920339E+01  0.24480044624E+02  0.00000000000E+00 0. -1.
          1    1    1    2  502    0 -0.12205668310E+02  0.46646132579E+02 -0.32696832640E+02  0.58257384838E+02  0.00000000000E+00 0.  1.
         22    1    1    2    0    0 -0.21737901506E+02 -0.55605297632E+02 -0.15293173009E+03  0.16417246893E+03  0.00000000000E+00 0.  1.
         22    1    1    2    0    0  0.14877430585E+02 -0.62973874132E+01  0.20851511279E+02  0.26377652505E+02  0.00000000000E+00 0.  1.
</event>
<event>
 6    1  0.1383644E-005  0.2515147E+03  0.7818608E-02  0.1226211E+00
          2   -1    0    0  502    0  0.00000000000E+00  0.00000000000E+00  0.56262962453E+03  0.56262962453E+03  0.00000000000E+00 0. -1.
          1   -1    0    0  501    0 -0.00000000000E+00 -0.00000000000E+00 -0.29868780399E+03  0.29868780399E+03  0.00000000000E+00 0. -1.
          2    1    1    2  501    0  0.17162910279E+03 -0.13591616848E+03  0.39773836767E+03  0.45401053170E+03  0.00000000000E+00 0. -1.
          1    1    1    2  502    0 -0.19611737154E+03  0.16327385095E+03 -0.94206347665E+02  0.27202060540E+03  0.00000000000E+00 0. -1.
         22    1    1    2    0    0 -0.47451484470E+01 -0.17799119018E+02 -0.81357362493E+02  0.83416697989E+02  0.00000000000E+00 0. -1.
         22    1    1    2    0    0  0.29233417192E+02 -0.95585634559E+01  0.41767163028E+02  0.51869593438E+02  0.00000000000E+00 0.  1.
</event>
<event>
 6    1  0.1383644E-005  0.7432363E+02  0.7818608E-02  0.1403970E+00
          2   -1    0    0  502    0  0.00000000000E+00  0.00000000000E+00  0.22557932493E+03  0.22557932493E+03  0.00000000000E+00 0. -1.
          1   -1    0    0  501    0 -0.00000000000E+00 -0.00000000000E+00 -0.14743160333E+03  0.14743160333E+03  0.00000000000E+00 0. -1.
          2    1    1    2  501    0 -0.32936527899E+01 -0.23242687167E+02  0.77189378342E+02  0.80680051960E+02  0.00000000000E+00 0. -1.
          1    1    1    2  502    0  0.78335649082E+02  0.32365715537E+02 -0.84705449618E+02  0.11982915611E+03  0.00000000000E+00 0. -1.
         22    1    1    2    0    0 -0.28107414866E+02  0.55300888318E+01 -0.33211601586E+02  0.43859082673E+02  0.00000000000E+00 0. -1.
         22    1    1    2    0    0 -0.46934581426E+02 -0.14653117201E+02  0.11887539447E+03  0.12864263752E+03  0.00000000000E+00 0. -1.
</event>
<event>
 6    1  0.1383644E-005  0.5726021E+02  0.7818608E-02  0.1444421E+00
          2   -1    0    0  502    0  0.00000000000E+00  0.00000000000E+00  0.11832819452E+03  0.11832819452E+03  0.00000000000E+00 0.  1.
          1   -1    0    0  501    0 -0.00000000000E+00 -0.00000000000E+00 -0.28066594246E+03  0.28066594246E+03  0.00000000000E+00 0. -1.
          2    1    1    2  501    0 -0.15319673476E+02  0.15205790089E+02  0.78563491882E+02  0.81474724328E+02  0.00000000000E+00 0.  1.
          1    1    1    2  502    0 -0.30200087348E+02 -0.55509946417E+02 -0.57136860731E+02  0.85194015525E+02  0.00000000000E+00 0. -1.
         22    1    1    2    0    0  0.48785842091E+02  0.30224551297E+02 -0.20267778908E+03  0.21064631038E+03  0.00000000000E+00 0. -1.
         22    1    1    2    0    0 -0.32660812670E+01  0.10079605031E+02  0.18913409989E+02  0.21679086739E+02  0.00000000000E+00 0. -1.
</event>
<event>
 6    1  0.1383644E-005  0.1182538E+03  0.7818608E-02  0.1374067E+00
          2   -1    0    0  502    0  0.00000000000E+00  0.00000000000E+00  0.81078265086E+02  0.81078265086E+02  0.00000000000E+00 0. -1.
          1   -1    0    0  501    0 -0.00000000000E+00 -0.00000000000E+00 -0.70722738953E+03  0.70722738953E+03  0.00000000000E+00 0. -1.
          2    1    1    2  501    0  0.47964662819E+01 -0.75890152235E+02 -0.30013922631E+03  0.30962215112E+03  0.00000000000E+00 0. -1.
          1    1    1    2  502    0 -0.51046296170E+02 -0.52749061881E+02 -0.27664929920E+03  0.28622198139E+03  0.00000000000E+00 0. -1.
         22    1    1    2    0    0  0.88671307384E+01  0.73367232850E+01 -0.63691524094E+02  0.64722977044E+02  0.00000000000E+00 0. -1.
         22    1    1    2    0    0  0.37382699150E+02  0.12130249083E+03  0.14330925162E+02  0.12773854506E+03  0.00000000000E+00 0. -1.
</event>
<event>
 6    1  0.1383644E-005  0.9720008E+02  0.7818608E-02  0.1351281E+00
          2   -1    0    0  502    0  0.00000000000E+00  0.00000000000E+00  0.22383564703E+03  0.22383564703E+03  0.00000000000E+00 0. -1.
          1   -1    0    0  501    0 -0.00000000000E+00 -0.00000000000E+00 -0.22748477050E+03  0.22748477050E+03  0.00000000000E+00 0. -1.
          2    1    1    2  501    0 -0.37523564203E+02 -0.92112912245E+02  0.13556219969E+03  0.16813660059E+03  0.00000000000E+00 0. -1.
          1    1    1    2  502    0 -0.46284682162E+02  0.67438915545E+02 -0.78941346014E+01  0.82174183865E+02  0.00000000000E+00 0. -1.
         22    1    1    2    0    0  0.11319881619E+03  0.32236939183E+02 -0.12138309940E+03  0.16907705064E+03  0.00000000000E+00 0. -1.
         22    1    1    2    0    0 -0.29390569824E+02 -0.75629424833E+01 -0.99340891587E+01  0.31932582435E+02  0.00000000000E+00 0.  1.
</event>
<event>
 6    1  0.1383644E-005  0.6130410E+02  0.7818608E-02  0.1417841E+00
          2   -1    0    0  502    0  0.00000000000E+00  0.00000000000E+00  0.21092888782E+03  0.21092888782E+03  0.00000000000E+00 0. -1.
          1   -1    0    0  501    0 -0.00000000000E+00 -0.00000000000E+00 -0.25151983683E+03  0.25151983683E+03  0.00000000000E+00 0.  1.
          2    1    1    2  501    0 -0.24308396218E+02 -0.26189082838E+02  0.10751976919E+03  0.11330166351E+03  0.00000000000E+00 0. -1.
          1    1    1    2  502    0  0.69004318339E+02  0.11106548170E+01 -0.19569689951E+03  0.20750929132E+03  0.00000000000E+00 0.  1.
         22    1    1    2    0    0 -0.21175385074E+02  0.35252282888E+02 -0.35725284484E+02  0.54473996854E+02  0.00000000000E+00 0.  1.
         22    1    1    2    0    0 -0.23520537046E+02 -0.10173854867E+02  0.83311465792E+02  0.87163772970E+02  0.00000000000E+00 0.  1.
</event>
<event>
 6    1  0.1383644E-005  0.9557241E+02  0.7818608E-02  0.1310912E+00
          2   -1    0    0  502    0  0.00000000000E+00  0.00000000000E+00  0.60414857365E+02  0.60414857365E+02  0.00000000000E+00 0.  1.
          1   -1    0    0  501    0 -0.00000000000E+00 -0.00000000000E+00 -0.36935569895E+03  0.36935569895E+03  0.00000000000E+00 0. -1.
          2    1    1    2  501    0 -0.76748394508E+02  0.18922664291E+01 -0.32798257103E+02  0.83484264390E+02  0.00000000000E+00 0.  1.
          1    1    1    2  502    0  0.54507695101E+02 -0.43720707940E+02 -0.11918033659E+03  0.13815405082E+03  0.00000000000E+00 0. -1.
         22    1    1    2    0    0  0.49273106507E+02  0.42213101188E+02 -0.16710334384E+03  0.17925767057E+03  0.00000000000E+00 0. -1.
         22    1    1    2    0    0 -0.27032407100E+02 -0.38465967707E+00  0.10141095944E+02  0.28874570536E+02  0.00000000000E+00 0.  1.
</event>
<event>
 6    1  0.1383644E-005  0.3103026E+02  0.7818608E-02  0.1604811E+00
          2   -1    0    0  502    0  0.00000000000E+00  0.00000000000E+00  0.19547418482E+03  0.19547418482E+03  0.00000000000E+00 0.  1.
          1   -1    0    0  501    0 -0.00000000000E+00 -0.00000000000E+00 -0.60344864210E+02  0.60344864210E+02  0.00000000000E+00 0.  1.
          2    1    1    2  501    0 -0.18986770422E+02 -0.99460706094E+01  0.49958567779E+02  0.54362489514E+02  0.00000000000E+00 0.  1.
          1    1    1    2  502    0  0.28287421393E+01  0.25675419783E+02  0.73291160207E+02  0.77709865060E+02  0.00000000000E+00 0.  1.
         22    1    1    2    0    0  0.32554419443E+02 -0.11618785591E+02 -0.49336198837E+02  0.60239911351E+02  0.00000000000E+00 0.  1.
         22    1    1    2    0    0 -0.16396391160E+02 -0.41105635834E+01  0.61215791459E+02  0.63506783103E+02  0.00000000000E+00 0. -1.
</event>
<event>
 6    1  0.1383644E-005  0.2691396E+02  0.7818608E-02  0.1667623E+00
          2   -1    0    0  502    0  0.00000000000E+00  0.00000000000E+00  0.25137048651E+03  0.25137048651E+03  0.00000000000E+00 0.  1.
          1   -1    0    0  501    0 -0.00000000000E+00 -0.00000000000E+00 -0.21052267958E+03  0.21052267958E+03  0.00000000000E+00 0. -1.
          2    1    1    2  501    0  0.31777111179E+02 -0.15901453696E+02  0.17247459621E+03  0.17609692604E+03  0.00000000000E+00 0.  1.
          1    1    1    2  502    0 -0.35007886405E+02  0.39788207707E+02 -0.14856299971E+03  0.15773274380E+03  0.00000000000E+00 0. -1.
         22    1    1    2    0    0 -0.63783906140E+01 -0.16393675918E+02  0.70741426707E+02  0.72895719556E+02  0.00000000000E+00 0.  1.
         22    1    1    2    0    0  0.96091658401E+01 -0.74930780933E+01 -0.53805216267E+02  0.55167776690E+02  0.00000000000E+00 0.  1.
</event>
<event>
 6    1  0.1383644E-005  0.5219479E+02  0.7818608E-02  0.1437041E+00
          2   -1    0    0  502    0  0.00000000000E+00  0.00000000000E+00  0.43983803096E+02  0.43983803096E+02  0.00000000000E+00 0.  1.
          1   -1    0    0  501    0 -0.00000000000E+00 -0.00000000000E+00 -0.39142786272E+03  0.39142786272E+03  0.00000000000E+00 0.  1.
          2    1    1    2  501    0  0.26607812880E+02 -0.28658043792E+02  0.98583868633E+01  0.40329232224E+02  0.00000000000E+00 0.  1.
          1    1    1    2  502    0 -0.34010307837E+01 -0.25094244278E+02 -0.26212188877E+02  0.36446768746E+02  0.00000000000E+00 0.  1.
         22    1    1    2    0    0 -0.31601194165E+01 -0.13955331335E+02  0.50385436296E+01  0.15169856601E+02  0.00000000000E+00 0. -1.
         22    1    1    2    0    0 -0.20046662679E+02  0.67707619406E+02 -0.33612880124E+03  0.34346580824E+03  0.00000000000E+00 0.  1.
</event>
<event>
 6    1  0.1383644E-005  0.7396770E+02  0.7818608E-02  0.1469202E+00
          2   -1    0    0  502    0  0.00000000000E+00  0.00000000000E+00  0.28987755979E+03  0.28987755979E+03  0.00000000000E+00 0. -1.
          1   -1    0    0  501    0 -0.00000000000E+00 -0.00000000000E+00 -0.11262032532E+03  0.11262032532E+03  0.00000000000E+00 0.  1.
          2    1    1    2  501    0  0.43172619133E+02  0.20133755490E+02  0.19952633275E+03  0.20513410398E+03  0.00000000000E+00 0. -1.
          1    1    1    2  502    0 -0.55228479123E+02 -0.33602060153E+02 -0.28133153851E+02  0.70503600606E+02  0.00000000000E+00 0.  1.
         22    1    1    2    0    0 -0.10610627147E+02  0.25159119119E+01 -0.57580383357E+02  0.58603888683E+02  0.00000000000E+00 0.  1.
         22    1    1    2    0    0  0.22666487137E+02  0.10952392751E+02  0.63444438923E+02  0.68256291844E+02  0.00000000000E+00 0. -1.
</event>
<event>
 6    1  0.1383644E-005  0.5225785E+02  0.7818608E-02  0.1514808E+00
          2   -1    0    0  502    0  0.00000000000E+00  0.00000000000E+00  0.17310764333E+03  0.17310764333E+03  0.00000000000E+00 0. -1.
          1   -1    0    0  501    0 -0.00000000000E+00 -0.00000000000E+00 -0.64794727187E+02  0.64794727187E+02  0.00000000000E+00 0.  1.
          2    1    1    2  501    0  0.17059691338E+02  0.14640639723E+02  0.36013266993E+02  0.42453937385E+02  0.00000000000E+00 0. -1.
          1    1    1    2  502    0 -0.13418050444E+02 -0.25533612520E+02 -0.22660015622E+02  0.36680863595E+02  0.00000000000E+00 0.  1.
         22    1    1    2    0    0 -0.99072941913E+01 -0.13078031697E+02 -0.28478935365E+02  0.32866991812E+02  0.00000000000E+00 0.  1.
         22    1    1    2    0    0  0.62656532978E+01  0.23971004494E+02  0.12343860014E+03  0.12590057773E+03  0.00000000000E+00 0. -1.
</event>
<event>
 6    1  0.1383644E-005  0.7864185E+02  0.7818608E-02  0.1383238E+00
          2   -1    0    0  502    0  0.00000000000E+00  0.00000000000E+00  0.43109981935E+03  0.43109981935E+03  0.00000000000E+00 0. -1.
          1   -1    0    0  501    0 -0.00000000000E+00 -0.00000000000E+00 -0.38450588961E+02  0.38450588961E+02  0.00000000000E+00 0.  1.
          2    1    1    2  501    0  0.36100377255E+02  0.54418823607E+01  0.10184702297E+03  0.10819273270E+03  0.00000000000E+00 0. -1.
          1    1    1    2  502    0 -0.80263701340E+02  0.12820896382E+02  0.99842158700E+02  0.12874429615E+03  0.00000000000E+00 0.  1.
         22    1    1    2    0    0  0.36028336780E+02  0.14423947435E+02  0.19487602962E+03  0.19870268803E+03  0.00000000000E+00 0. -1.
         22    1    1    2    0    0  0.81349873051E+01 -0.32686726178E+02 -0.39159809011E+01  0.33910691428E+02  0.00000000000E+00 0. -1.
</event>
<event>
 6    1  0.1383644E-005  0.4244704E+02  0.7818608E-02  0.1491406E+00
          2   -1    0    0  502    0  0.00000000000E+00  0.00000000000E+00  0.39402240942E+03  0.39402240942E+03  0.00000000000E+00 0. -1.
          1   -1    0    0  501    0 -0.00000000000E+00 -0.00000000000E+00 -0.61174765236E+02  0.61174765236E+02  0.00000000000E+00 0. -1.
          2    1    1    2  501    0  0.42506844633E+02  0.44603326311E+02  0.22292132104E+03  0.23127949311E+03  0.00000000000E+00 0. -1.
          1    1    1    2  502    0 -0.32778380985E+02 -0.44008662631E+02  0.85711912851E+00  0.54880955711E+02  0.00000000000E+00 0. -1.
         22    1    1    2    0    0 -0.11341393420E+01 -0.25745806803E+02 -0.22864929618E+02  0.34451964334E+02  0.00000000000E+00 0.  1.
         22    1    1    2    0    0 -0.85943243061E+01  0.25151143124E+02  0.13193413363E+03  0.13458476150E+03  0.00000000000E+00 0.  1.
</event>
<event>
 6    1  0.1383644E-005  0.1454449E+03  0.7818608E-02  0.1280879E+00
          2   -1    0    0  502    0  0.00000000000E+00  0.00000000000E+00  0.41354766244E+03  0.41354766244E+03  0.00000000000E+00 0. -1.
          1   -1    0    0  501    0 -0.00000000000E+00 -0.00000000000E+00 -0.33634573126E+02  0.33634573126E+02  0.00000000000E+00 0. -1.
          2    1    1    2  501    0 -0.51175847491E+01  0.32194885091E+02  0.13799343125E+02  0.35399465679E+02  0.00000000000E+00 0. -1.
          1    1    1    2  502    0 -0.36949202146E+01  0.44619084445E+02  0.71127383736E+02  0.84045344006E+02  0.00000000000E+00 0. -1.
         22    1    1    2    0    0  0.39756069474E+02 -0.85514079457E+02  0.27290759709E+03  0.28874168281E+03  0.00000000000E+00 0. -1.
         22    1    1    2    0    0 -0.30943564510E+02  0.87001099216E+01  0.22078765362E+02  0.38995743065E+02  0.00000000000E+00 0. -1.
</event>
<event>
 6    1  0.1383644E-005  0.5270411E+02  0.7818608E-02  0.1543124E+00
          2   -1    0    0  502    0  0.00000000000E+00  0.00000000000E+00  0.22494791059E+03  0.22494791059E+03  0.00000000000E+00 0. -1.
          1   -1    0    0  501    0 -0.00000000000E+00 -0.00000000000E+00 -0.97349532998E+02  0.97349532998E+02  0.00000000000E+00 0.  1.
          2    1    1    2  501    0 -0.61676228948E+01 -0.34804955349E+02  0.12359006393E+03  0.12854543318E+03  0.00000000000E+00 0. -1.
          1    1    1    2  502    0 -0.46614685606E+01  0.42485211340E+02 -0.46244839154E+02  0.62970688580E+02  0.00000000000E+00 0.  1.
         22    1    1    2    0    0  0.41593432059E+01 -0.16429726033E+02  0.88950373937E+02  0.90550566299E+02  0.00000000000E+00 0. -1.
         22    1    1    2    0    0  0.66697482495E+01  0.87494700414E+01 -0.38697221123E+02  0.40230755529E+02  0.00000000000E+00 0.  1.
</event>
<event>
 6    1  0.1383644E-005  0.2038630E+03  0.7818608E-02  0.1147461E+00
          2   -1    0    0  502    0  0.00000000000E+00  0.00000000000E+00  0.99590702860E+03  0.99590702860E+03  0.00000000000E+00 0. -1.
          1   -1    0    0  501    0 -0.00000000000E+00 -0.00000000000E+00 -0.10155000162E+03  0.10155000162E+03  0.00000000000E+00 0. -1.
          2    1    1    2  501    0  0.34093933489E+02  0.66138223986E+02  0.23389207338E+03  0.24544278959E+03  0.00000000000E+00 0. -1.
          1    1    1    2  502    0 -0.73843909346E+02 -0.17261781336E+03  0.20106250053E+02  0.18882291632E+03  0.00000000000E+00 0. -1.
         22    1    1    2    0    0  0.13605668616E+01 -0.11504845412E+02  0.69507507777E+00  0.11605849366E+02  0.00000000000E+00 0. -1.
         22    1    1    2    0    0  0.38389408995E+02  0.11798443479E+03  0.63966362847E+03  0.65158547495E+03  0.00000000000E+00 0.  1.
</event>
<event>
 6    1  0.1383644E-005  0.3962611E+02  0.7818608E-02  0.1538524E+00
          2   -1    0    0  502    0  0.00000000000E+00  0.00000000000E+00  0.29231158849E+03  0.29231158849E+03  0.00000000000E+00 0. -1.
          1   -1    0    0  501    0 -0.00000000000E+00 -0.00000000000E+00 -0.12014719190E+03  0.12014719190E+03  0.00000000000E+00 0.  1.
          2    1    1    2  501    0  0.14214647359E+02 -0.22208818379E+02  0.20978604317E+03  0.21143668490E+03  0.00000000000E+00 0. -1.
          1    1    1    2  502    0  0.12959925073E+01  0.47125541000E+02  0.28753272478E+02  0.55219986321E+02  0.00000000000E+00 0.  1.
         22    1    1    2    0    0  0.64302769266E+01 -0.83703720872E+01  0.37187089551E+02  0.38656063166E+02  0.00000000000E+00 0. -1.
         22    1    1    2    0    0 -0.21940916793E+02 -0.16546350534E+02 -0.10356200861E+03  0.10714604600E+03  0.00000000000E+00 0.  1.
</event>
<event>
 6    1  0.1383644E-005  0.4552753E+02  0.7818608E-02  0.1489576E+00
          2   -1    0    0  502    0  0.00000000000E+00  0.00000000000E+00  0.66800739115E+03  0.66800739115E+03  0.00000000000E+00 0. -1.
          1   -1    0    0  501    0 -0.00000000000E+00 -0.00000000000E+00 -0.39531802065E+02  0.39531802065E+02  0.00000000000E+00 0.  1.
          2    1    1    2  501    0  0.43005563482E+02 -0.23009294747E+02  0.39092529204E+03  0.39395620326E+03  0.00000000000E+00 0. -1.
          1    1    1    2  502    0 -0.49461794422E+02  0.42961899916E+02  0.36328198154E+02  0.74912828894E+02  0.00000000000E+00 0.  1.
         22    1    1    2    0    0 -0.17764729392E+02 -0.32630845881E+02  0.20735086274E+03  0.21065312243E+03  0.00000000000E+00 0. -1.
         22    1    1    2    0    0  0.24220960332E+02  0.12678240712E+02 -0.61287638435E+01  0.28017038623E+02  0.00000000000E+00 0.  1.
</event>
<event>
 6    1  0.1383644E-005  0.4037874E+02  0.7818608E-02  0.1513199E+00
          2   -1    0    0  502    0  0.00000000000E+00  0.00000000000E+00  0.89508995487E+02  0.89508995487E+02  0.00000000000E+00 0.  1.
          1   -1    0    0  501    0 -0.00000000000E+00 -0.00000000000E+00 -0.16791493872E+03  0.16791493872E+03  0.00000000000E+00 0.  1.
          2    1    1    2  501    0  0.22291313260E+02  0.30137345625E+01  0.51155539482E+02  0.55882684819E+02  0.00000000000E+00 0.  1.
          1    1    1    2  502    0 -0.86734544519E+01 -0.19500169947E+02 -0.33544446596E+02  0.39758210945E+02  0.00000000000E+00 0.  1.
         22    1    1    2    0    0 -0.34038350556E+02  0.12742841300E+02 -0.12270288488E+03  0.12797260360E+03  0.00000000000E+00 0.  1.
         22    1    1    2    0    0  0.20420491748E+02  0.37435940847E+01  0.26685848767E+02  0.33810434843E+02  0.00000000000E+00 0.  1.
</event>
<event>
 6    1  0.1383644E-005  0.1393068E+03  0.7818608E-02  0.1314232E+00
          2   -1    0    0  502    0  0.00000000000E+00  0.00000000000E+00  0.26106081817E+04  0.26106081817E+04  0.00000000000E+00 0.  1.
          1   -1    0    0  501    0 -0.00000000000E+00 -0.00000000000E+00 -0.58072798510E+03  0.58072798510E+03  0.00000000000E+00 0.  1.
          2    1    1    2  501    0 -0.20431652573E+03 -0.86792542258E+02  0.25189609996E+04  0.25287235329E+04  0.00000000000E+00 0.  1.
          1    1    1    2  502    0  0.27956769345E+03  0.49993707967E+02 -0.24380452329E+03  0.37429682290E+03  0.00000000000E+00 0.  1.
         22    1    1    2    0    0 -0.69067256913E+02  0.46875038976E+02 -0.25786941108E+03  0.27104277970E+03  0.00000000000E+00 0.  1.
         22    1    1    2    0    0 -0.61839108080E+01 -0.10076204685E+02  0.12593131299E+02  0.17273031281E+02  0.00000000000E+00 0. -1.
</event>
<event>
 6    1  0.1383644E-005  0.3040767E+03  0.7818608E-02  0.1083670E+00
          2   -1    0    0  502    0  0.00000000000E+00  0.00000000000E+00  0.50974211882E+03  0.50974211882E+03  0.00000000000E+00 0.  1.
          1   -1    0    0  501    0 -0.00000000000E+00 -0.00000000000E+00 -0.21778315386E+03  0.21778315386E+03  0.00000000000E+00 0.  1.
          2    1    1    2  501    0 -0.39931114104E+02  0.21223909238E+03  0.24313125328E+03  0.32519645221E+03  0.00000000000E+00 0.  1.
          1    1    1    2  502    0  0.52075893613E+02 -0.26070498714E+03  0.11233698988E+02  0.26609243696E+03  0.00000000000E+00 0.  1.
         22    1    1    2    0    0  0.22867267693E+02 -0.24811333581E+02 -0.17587941026E+02  0.38050622536E+02  0.00000000000E+00 0.  1.
         22    1    1    2    0    0 -0.35012047203E+02  0.73277228337E+02  0.55181953725E+02  0.98185760979E+02  0.00000000000E+00 0.  1.
</event>
<event>
 6    1  0.1383644E-005  0.1257872E+03  0.7818608E-02  0.1316090E+00
          2   -1    0    0  502    0  0.00000000000E+00  0.00000000000E+00  0.43124413776E+02  0.43124413776E+02  0.00000000000E+00 0.  1.
          1   -1    0    0  501    0 -0.00000000000E+00 -0.00000000000E+00 -0.56752161567E+03  0.56752161567E+03  0.00000000000E+00 0. -1.
          2    1    1    2  501    0 -0.49118226693E+02 -0.19012252353E+01 -0.57120454335E+02  0.75358882385E+02  0.00000000000E+00 0.  1.
          1    1    1    2  502    0  0.97503815686E+02  0.51172702913E+02 -0.26478488031E+03  0.28676937151E+03  0.00000000000E+00 0. -1.
         22    1    1    2    0    0  0.22538734332E+02 -0.12799938781E+02 -0.15184802883E+03  0.15404433400E+03  0.00000000000E+00 0.  1.
         22    1    1    2    0    0 -0.70924323324E+02 -0.36471538896E+02 -0.50643838420E+02  0.94473441551E+02  0.00000000000E+00 0.  1.
</event>
<event>
 6    1  0.1383644E-005  0.1072233E+03  0.7818608E-02  0.1373298E+00
          2   -1    0    0  502    0  0.00000000000E+00  0.00000000000E+00  0.13018089049E+04  0.13018089049E+04  0.00000000000E+00 0.  1.
          1   -1    0    0  501    0 -0.00000000000E+00 -0.00000000000E+00 -0.18218035582E+02  0.18218035582E+02  0.00000000000E+00 0.  1.
          2    1    1    2  501    0 -0.32883768491E+02 -0.41503198947E+01  0.74539399354E+02  0.81576279895E+02  0.00000000000E+00 0.  1.
          1    1    1    2  502    0  0.87354909943E+02 -0.25664199742E+02  0.80401166341E+03  0.80915034842E+03  0.00000000000E+00 0.  1.
         22    1    1    2    0    0  0.15539318046E+02  0.17299295452E+01 -0.16056172209E+01  0.15717540146E+02  0.00000000000E+00 0.  1.
         22    1    1    2    0    0 -0.70010459498E+02  0.28084590091E+02  0.40664542377E+03  0.41358277202E+03  0.00000000000E+00 0.  1.
</event>
<event>
 6    1  0.1383644E-005  0.8024118E+02  0.7818608E-02  0.1331164E+00
          2   -1    0    0  502    0  0.00000000000E+00  0.00000000000E+00  0.44325972343E+03  0.44325972343E+03  0.00000000000E+00 0. -1.
          1   -1    0    0  501    0 -0.00000000000E+00 -0.00000000000E+00 -0.94096160414E+02  0.94096160414E+02  0.00000000000E+00 0. -1.
          2    1    1    2  501    0  0.31281212229E+02  0.20644103493E+02  0.10086150099E+03  0.10759988676E+03  0.00000000000E+00 0. -1.
          1    1    1    2  502    0 -0.90481803303E+02 -0.60296744627E+00 -0.48694161606E+02  0.10275427813E+03  0.00000000000E+00 0. -1.
         22    1    1    2    0    0 -0.15837836372E+02 -0.34342075304E+02  0.19996349337E+03  0.20350826489E+03  0.00000000000E+00 0.  1.
         22    1    1    2    0    0  0.75038427445E+02  0.14300939257E+02  0.97032730254E+02  0.12349345407E+03  0.00000000000E+00 0. -1.
</event>
<event>
 6    1  0.1383644E-005  0.4505492E+02  0.7818608E-02  0.1535491E+00
          2   -1    0    0  502    0  0.00000000000E+00  0.00000000000E+00  0.27310518252E+03  0.27310518252E+03  0.00000000000E+00 0.  1.
          1   -1    0    0  501    0 -0.00000000000E+00 -0.00000000000E+00 -0.12071911172E+03  0.12071911172E+03  0.00000000000E+00 0.  1.
          2    1    1    2  501    0  0.61638694788E+02  0.58319618182E+02  0.16260635998E+03  0.18341574324E+03  0.00000000000E+00 0.  1.
          1    1    1    2  502    0 -0.69697128715E+02 -0.30577431493E+02 -0.22501510310E+02  0.79366157990E+02  0.00000000000E+00 0.  1.
         22    1    1    2    0    0  0.14608635319E+02 -0.19473109098E+02  0.69094770365E+02  0.73257774302E+02  0.00000000000E+00 0.  1.
         22    1    1    2    0    0 -0.65502013916E+01 -0.82690775913E+01 -0.56813549237E+02  0.57784618709E+02  0.00000000000E+00 0.  1.
</event>
<event>
 6    1  0.1383644E-005  0.1031193E+03  0.7818608E-02  0.1368654E+00
          2   -1    0    0  502    0  0.00000000000E+00  0.00000000000E+00  0.35866728549E+03  0.35866728549E+03  0.00000000000E+00 0. -1.
          1   -1    0    0  501    0 -0.00000000000E+00 -0.00000000000E+00 -0.17331632381E+03  0.17331632381E+03  0.00000000000E+00 0.  1.
          2    1    1    2  501    0 -0.99122152127E+02 -0.14908650780E+02  0.27054006194E+03  0.28851238106E+03  0.00000000000E+00 0. -1.
          1    1    1    2  502    0  0.74147944093E+02  0.22939349181E+02 -0.87307549599E+02  0.11681926027E+03  0.00000000000E+00 0.  1.
         22    1    1    2    0    0  0.79890549580E+01 -0.17216801484E+02  0.61419955331E+02  0.64285722874E+02  0.00000000000E+00 0. -1.
         22    1    1    2    0    0  0.16985153076E+02  0.91861030836E+01 -0.59301505985E+02  0.62366245092E+02  0.00000000000E+00 0.  1.
</event>
<event>
 6    1  0.1383644E-005  0.6393055E+02  0.7818608E-02  0.1421679E+00
          2   -1    0    0  502    0  0.00000000000E+00  0.00000000000E+00  0.30796549022E+03  0.30796549022E+03  0.00000000000E+00 0. -1.
          1   -1    0    0  501    0 -0.00000000000E+00 -0.00000000000E+00 -0.25556444804E+03  0.25556444804E+03  0.00000000000E+00 0.  1.
          2    1    1    2  501    0 -0.33182311824E+02 -0.69486701671E+01  0.20473938298E+03  0.20752726274E+03  0.00000000000E+00 0. -1.
          1    1    1    2  502    0  0.27078261660E+02  0.32779077976E+02 -0.21035193107E+03  0.21460576673E+03  0.00000000000E+00 0.  1.
         22    1    1    2    0    0 -0.25038837457E+02 -0.11743371441E+02  0.90262438147E+02  0.94404226040E+02  0.00000000000E+00 0. -1.
         22    1    1    2    0    0  0.31142887621E+02 -0.14087036368E+02 -0.32248847878E+02  0.46992682755E+02  0.00000000000E+00 0. -1.
</event>
<event>
 6    1  0.1383644E-005  0.1285685E+03  0.7818608E-02  0.1292971E+00
          2   -1    0    0  502    0  0.00000000000E+00  0.00000000000E+00  0.69013436432E+03  0.69013436432E+03  0.00000000000E+00 0.  1.
          1   -1    0    0  501    0 -0.00000000000E+00 -0.00000000000E+00 -0.72850700831E+02  0.72850700831E+02  0.00000000000E+00 0. -1.
          2    1    1    2  501    0  0.29717205253E+02  0.16010198032E+02  0.60202721537E+03  0.60297280766E+03  0.00000000000E+00 0.  1.
          1    1    1    2  502    0  0.17385921200E+01  0.23929569570E+02 -0.36379123031E+01  0.24266878833E+02  0.00000000000E+00 0. -1.
         22    1    1    2    0    0 -0.37057565097E+02  0.62781928830E+00 -0.45960738109E+02  0.59042753455E+02  0.00000000000E+00 0. -1.
         22    1    1    2    0    0  0.56017677237E+01 -0.40567586890E+02  0.64855098531E+02  0.76702625204E+02  0.00000000000E+00 0. -1.
</event>
<event>
 6    1  0.1383644E-005  0.1040786E+03  0.7818608E-02  0.1400174E+00
          2   -1    0    0  502    0  0.00000000000E+00  0.00000000000E+00  0.22365482774E+03  0.22365482774E+03  0.00000000000E+00 0.  1.
          1   -1    0    0  501    0 -0.00000000000E+00 -0.00000000000E+00 -0.20153417576E+03  0.20153417576E+03  0.00000000000E+00 0.  1.
          2    1    1    2  501    0  0.32324630463E+02 -0.54414893980E+02  0.93176534308E+02  0.11263981963E+03  0.00000000000E+00 0.  1.
          1    1    1    2  502    0 -0.52552146311E+02  0.89742318619E+02 -0.13397630358E+03  0.16960265845E+03  0.00000000000E+00 0.  1.
         22    1    1    2    0    0  0.91802407327E+01 -0.36127394101E+02  0.98693365173E+02  0.10549808412E+03  0.00000000000E+00 0. -1.
         22    1    1    2    0    0  0.11047275116E+02  0.79996946172E+00 -0.35772943921E+02  0.37448441295E+02  0.00000000000E+00 0.  1.
</event>
<event>
 6    1  0.1383644E-005  0.3923048E+02  0.7818608E-02  0.1534693E+00
          2   -1    0    0  502    0  0.00000000000E+00  0.00000000000E+00  0.15505025277E+03  0.15505025277E+03  0.00000000000E+00 0. -1.
          1   -1    0    0  501    0 -0.00000000000E+00 -0.00000000000E+00 -0.17945461637E+03  0.17945461637E+03  0.00000000000E+00 0. -1.
          2    1    1    2  501    0  0.39586903677E+02 -0.32313953193E+02  0.88338766845E+02  0.10205416327E+03  0.00000000000E+00 0. -1.
          1    1    1    2  502    0 -0.26351651555E+02  0.31258438301E+02 -0.10096520855E+03  0.10892875122E+03  0.00000000000E+00 0. -1.
         22    1    1    2    0    0  0.11405343758E+02  0.19881534543E+02 -0.61102301403E+02  0.65259853806E+02  0.00000000000E+00 0. -1.
         22    1    1    2    0    0 -0.24640595880E+02 -0.18826019651E+02  0.49324379508E+02  0.58262100846E+02  0.00000000000E+00 0. -1.
</event>
<event>
 6    1  0.1383644E-005  0.2315180E+02  0.7818608E-02  0.1734188E+00
          2   -1    0    0  502    0  0.00000000000E+00  0.00000000000E+00  0.14832268498E+03  0.14832268498E+03  0.00000000000E+00 0. -1.
          1   -1    0    0  501    0 -0.00000000000E+00 -0.00000000000E+00 -0.26905875506E+03  0.26905875506E+03  0.00000000000E+00 0. -1.
          2    1    1    2  501    0 -0.14628253358E+02  0.15417050508E+02  0.56508427511E+02  0.60372788758E+02  0.00000000000E+00 0. -1.
          1    1    1    2  502    0  0.36797958028E+02 -0.20349904530E+02 -0.22146001496E+03  0.22541682847E+03  0.00000000000E+00 0. -1.
         22    1    1    2    0    0 -0.61095141593E+01  0.82004442468E+01 -0.42309764155E+02  0.43528032254E+02  0.00000000000E+00 0. -1.
         22    1    1    2    0    0 -0.16060190511E+02 -0.32675902247E+01  0.86525281526E+02  0.88063790562E+02  0.00000000000E+00 0. -1.
</event>
<event>
 6    1  0.1383644E-005  0.5668174E+02  0.7818608E-02  0.1487915E+00
          2   -1    0    0  502    0  0.00000000000E+00  0.00000000000E+00  0.49332487090E+03  0.49332487090E+03  0.00000000000E+00 0. -1.
          1   -1    0    0  501    0 -0.00000000000E+00 -0.00000000000E+00 -0.98349115619E+02  0.98349115619E+02  0.00000000000E+00 0. -1.
          2    1    1    2  501    0  0.43632454360E+02  0.67484663661E+02  0.20657846909E+03  0.22165882521E+03  0.00000000000E+00 0. -1.
          1    1    1    2  502    0 -0.50463745277E+01 -0.81992852255E+02 -0.51530400507E+02  0.96972552267E+02  0.00000000000E+00 0. -1.
         22    1    1    2    0    0 -0.45861315198E+02  0.13954760247E+01  0.25051752648E+03  0.25468458662E+03  0.00000000000E+00 0. -1.
         22    1    1    2    0    0  0.72752353652E+01  0.13112712570E+02 -0.10589839787E+02  0.18358022422E+02  0.00000000000E+00 0.  1.
</event>
<event>
 6    1  0.1383644E-005  0.8138239E+02  0.7818608E-02  0.1434955E+00
          2   -1    0    0  502    0  0.00000000000E+00  0.00000000000E+00  0.49383970443E+03  0.49383970443E+03  0.00000000000E+00 0. -1.
          1   -1    0    0  501    0 -0.00000000000E+00 -0.00000000000E+00 -0.26761909812E+02  0.26761909812E+02  0.00000000000E+00 0.  1.
          2    1    1    2  501    0 -0.18677691029E+02 -0.23995634504E+02  0.71298918858E+02  0.77512466402E+02  0.00000000000E+00 0. -1.
          1    1    1    2  502    0  0.42472494680E+02  0.52409532607E+02  0.13085249533E+03  0.14721768728E+03  0.00000000000E+00 0.  1.
         22    1    1    2    0    0 -0.37320567370E+02 -0.29081700045E+02  0.27497023731E+03  0.27901111346E+03  0.00000000000E+00 0. -1.
         22    1    1    2    0    0  0.13525763719E+02  0.66780194286E+00 -0.10043856880E+02  0.16860347109E+02  0.00000000000E+00 0.  1.
</event>
<event>
 6    1  0.1383644E-005  0.5920604E+02  0.7818608E-02  0.1463784E+00
          2   -1    0    0  502    0  0.00000000000E+00  0.00000000000E+00  0.31354320579E+03  0.31354320579E+03  0.00000000000E+00 0.  1.
          1   -1    0    0  501    0 -0.00000000000E+00 -0.00000000000E+00 -0.12371271255E+03  0.12371271255E+03  0.00000000000E+00 0. -1.
          2    1    1    2  501    0 -0.31653503423E+02  0.20485126957E+02  0.98406123317E+02  0.10538192355E+03  0.00000000000E+00 0.  1.
          1    1    1    2  502    0  0.55612642921E+02 -0.38420084138E+02  0.17072598756E+03  0.18361980216E+03  0.00000000000E+00 0. -1.
         22    1    1    2    0    0 -0.10204940350E+02  0.20600092179E+02 -0.11112781395E+03  0.11348081617E+03  0.00000000000E+00 0. -1.
         22    1    1    2    0    0 -0.13754199148E+02 -0.26651349975E+01  0.31826196315E+02  0.34773376463E+02  0.00000000000E+00 0. -1.
</event>
<event>
 6    1  0.1383644E-005  0.6552133E+02  0.7818608E-02  0.1494538E+00
          2   -1    0    0  502    0  0.00000000000E+00  0.00000000000E+00  0.12409530450E+03  0.12409530450E+03  0.00000000000E+00 0.  1.
          1   -1    0    0  501    0 -0.00000000000E+00 -0.00000000000E+00 -0.85061635756E+03  0.85061635756E+03  0.00000000000E+00 0. -1.
          2    1    1    2  501    0 -0.97613178145E+01  0.18217996693E+02  0.22764025668E+02  0.30747025768E+02  0.00000000000E+00 0.  1.
          1    1    1    2  502    0  0.62483719983E+00  0.34619186573E+02 -0.80121697233E+03  0.80196478429E+03  0.00000000000E+00 0. -1.
         22    1    1    2    0    0  0.70996665086E+01 -0.42049125651E+02  0.91493309027E+02  0.10094334960E+03  0.00000000000E+00 0. -1.
         22    1    1    2    0    0  0.20368141061E+01 -0.10788057615E+02 -0.39561415427E+02  0.41056502401E+02  0.00000000000E+00 0. -1.
</event>
<event>
 6    1  0.1691847E-005  0.8965490E+02  0.7818608E-02  0.1332726E+00
          2   -1    0    0  502    0  0.00000000000E+00  0.00000000000E+00  0.95599971893E+03  0.95599971893E+03  0.00000000000E+00 0.  1.
          1   -1    0    0  501    0 -0.00000000000E+00 -0.00000000000E+00 -0.21120199646E+03  0.21120199646E+03  0.00000000000E+00 0. -1.
          2    1    1    2  501    0 -0.11577888266E+03 -0.13196631131E+03  0.72168461396E+03  0.74273046189E+03  0.00000000000E+00 0.  1.
          1    1    1    2  502    0  0.42387821106E+02  0.14420209255E+03 -0.13832871499E+03  0.20426895081E+03  0.00000000000E+00 0. -1.
         22    1    1    2    0    0  0.47236338155E+02 -0.97564288058E+00 -0.84022318042E+01  0.47987717393E+02  0.00000000000E+00 0. -1.
         22    1    1    2    0    0  0.26154723396E+02 -0.11260138365E+02  0.16984405529E+03  0.17221458530E+03  0.00000000000E+00 0.  1.
</event>
<event>
 6    1  0.1383644E-005  0.6234685E+02  0.7818608E-02  0.1452403E+00
          2   -1    0    0  502    0  0.00000000000E+00  0.00000000000E+00  0.45811295694E+02  0.45811295694E+02  0.00000000000E+00 0.  1.
          1   -1    0    0  501    0 -0.00000000000E+00 -0.00000000000E+00 -0.54985982997E+03  0.54985982997E+03  0.00000000000E+00 0. -1.
          2    1    1    2  501    0 -0.63737066275E+01 -0.22595273132E+02 -0.29021023971E+01  0.23655711835E+02  0.00000000000E+00 0.  1.
          1    1    1    2  502    0 -0.31269554127E+02  0.48252578624E+02 -0.39444620545E+03  0.39861498385E+03  0.00000000000E+00 0. -1.
         22    1    1    2    0    0  0.15202945598E+02 -0.31688723304E+02  0.22759128823E+02  0.41872218525E+02  0.00000000000E+00 0.  1.
         22    1    1    2    0    0  0.22440315157E+02  0.60314178117E+01 -0.12945935525E+03  0.13152821145E+03  0.00000000000E+00 0. -1.
</event>
<event>
 6    1  0.1383644E-005  0.2292201E+02  0.7818608E-02  0.1753679E+00
          2   -1    0    0  502    0  0.00000000000E+00  0.00000000000E+00  0.63854618208E+02  0.63854618208E+02  0.00000000000E+00 0.  1.
          1   -1    0    0  501    0 -0.00000000000E+00 -0.00000000000E+00 -0.39810971505E+03  0.39810971505E+03  0.00000000000E+00 0.  1.
          2    1    1    2  501    0 -0.10045740373E+02 -0.22495157367E+02  0.13744118810E+02  0.28210810099E+02  0.00000000000E+00 0.  1.
          1    1    1    2  502    0 -0.22513709355E+02  0.89057972877E+01 -0.29187960018E+03  0.29288202631E+03  0.00000000000E+00 0.  1.
         22    1    1    2    0    0  0.10329654289E+02  0.65286997998E+01  0.40071318758E+02  0.41893152971E+02  0.00000000000E+00 0.  1.
         22    1    1    2    0    0  0.22229795438E+02  0.70606602792E+01 -0.96190934225E+02  0.98978343873E+02  0.00000000000E+00 0. -1.
</event>
<event>
 6    1  0.1383644E-005  0.1040194E+03  0.7818608E-02  0.1285761E+00
          2   -1    0    0  502    0  0.00000000000E+00  0.00000000000E+00  0.17313000364E+03  0.17313000364E+03  0.00000000000E+00 0. -1.
          1   -1    0    0  501    0 -0.00000000000E+00 -0.00000000000E+00 -0.48890487527E+03  0.48890487527E+03  0.00000000000E+00 0. -1.
          2    1    1    2  501    0 -0.88650342563E+02  0.30152039143E+02  0.12134568811E+03  0.15327362697E+03  0.00000000000E+00 0. -1.
          1    1    1    2  502    0  0.96174825091E+02  0.51595848763E+02 -0.20038717670E+03  0.22818139534E+03  0.00000000000E+00 0. -1.
         22    1    1    2    0    0 -0.12018666108E+02 -0.17599658648E+01  0.13307735096E+02  0.18017814192E+02  0.00000000000E+00 0.  1.
         22    1    1    2    0    0  0.44941835797E+01 -0.79987922041E+02 -0.25004111814E+03  0.26256204242E+03  0.00000000000E+00 0. -1.
</event>
<event>
 6    1  0.1383644E-005  0.2055931E+03  0.7818608E-02  0.1274441E+00
          2   -1    0    0  502    0  0.00000000000E+00  0.00000000000E+00  0.29535934196E+03  0.29535934196E+03  0.00000000000E+00 0. -1.
          1   -1    0    0  501    0 -0.00000000000E+00 -0.00000000000E+00 -0.47253791939E+03  0.47253791939E+03  0.00000000000E+00 0. -1.
          2    1    1    2  501    0 -0.55640806836E+01  0.25420941568E+03 -0.17170933087E+03  0.30681831811E+03  0.00000000000E+00 0. -1.
          1    1    1    2  502    0  0.14163698140E+03 -0.89331124119E+02 -0.10035306828E+03  0.19522249499E+03  0.00000000000E+00 0. -1.
         22    1    1    2    0    0  0.41579995506E+01 -0.12179422922E+02 -0.23735801787E+02  0.27000288692E+02  0.00000000000E+00 0.  1.
         22    1    1    2    0    0 -0.14023090027E+03 -0.15269886864E+03  0.11861962351E+03  0.23885615955E+03  0.00000000000E+00 0. -1.
</event>
<event>
 6    1  0.1383644E-005  0.2505394E+02  0.7818608E-02  0.1679040E+00
          2   -1    0    0  502    0  0.00000000000E+00  0.00000000000E+00  0.27546382171E+03  0.27546382171E+03  0.00000000000E+00 0.  1.
          1   -1    0    0  501    0 -0.00000000000E+00 -0.00000000000E+00 -0.90935041981E+02  0.90935041981E+02  0.00000000000E+00 0.  1.
          2    1    1    2  501    0 -0.31415330545E+02 -0.53932712065E+01  0.18299015228E+03  0.18574554153E+03  0.00000000000E+00 0.  1.
          1    1    1    2  502    0  0.25084154985E+02  0.27236141164E+02  0.37222997200E+02  0.52503083122E+02  0.00000000000E+00 0.  1.
         22    1    1    2    0    0  0.13312428249E+02 -0.10155775559E+02 -0.80029610767E+02  0.81762455459E+02  0.00000000000E+00 0.  1.
         22    1    1    2    0    0 -0.69812526894E+01 -0.11687094397E+02  0.44345241018E+02  0.46387783580E+02  0.00000000000E+00 0.  1.
</event>
<event>
 6    1  0.1383644E-005  0.5364023E+02  0.7818608E-02  0.1450209E+00
          2   -1    0    0  502    0  0.00000000000E+00  0.00000000000E+00  0.59770105130E+02  0.59770105130E+02  0.00000000000E+00 0.  1.
          1   -1    0    0  501    0 -0.00000000000E+00 -0.00000000000E+00 -0.42925935307E+03  0.42925935307E+03  0.00000000000E+00 0.  1.
          2    1    1    2  501    0  0.43799419567E+02  0.34601829771E+02 -0.19250645987E+02  0.59044586109E+02  0.00000000000E+00 0.  1.
          1    1    1    2  502    0 -0.85328528390E+02 -0.18463966836E+01 -0.23635568931E+03  0.25129341178E+03  0.00000000000E+00 0.  1.
         22    1    1    2    0    0  0.27779036070E+02  0.41196878662E+01  0.22977379645E+02  0.36285074734E+02  0.00000000000E+00 0.  1.
         22    1    1    2    0    0  0.13750072753E+02 -0.36875120953E+02 -0.13686029229E+03  0.14240638557E+03  0.00000000000E+00 0.  1.
</event>
<event>
 6    1  0.1383644E-005  0.6364297E+02  0.7818608E-02  0.1390055E+00
          2   -1    0    0  502    0  0.00000000000E+00  0.00000000000E+00  0.40859773198E+02  0.40859773198E+02  0.00000000000E+00 0. -1.
          1   -1    0    0  501    0 -0.00000000000E+00 -0.00000000000E+00 -0.53886209156E+03  0.53886209156E+03  0.00000000000E+00 0.  1.
          2    1    1    2  501    0 -0.25082184512E+02  0.76742787543E+02 -0.91997008916E+02  0.12240106645E+03  0.00000000000E+00 0. -1.
          1    1    1    2  502    0  0.27103164282E+02 -0.36557149929E+02 -0.17940387484E+02  0.48916911474E+02  0.00000000000E+00 0.  1.
         22    1    1    2    0    0 -0.34770769606E+00 -0.67291521342E+02 -0.36933176605E+03  0.37541207114E+03  0.00000000000E+00 0.  1.
         22    1    1    2    0    0 -0.16732720736E+01  0.27105883728E+02 -0.18733155918E+02  0.32991815694E+02  0.00000000000E+00 0. -1.
</event>
<event>
 6    1  0.1383644E-005  0.8485410E+02  0.7818608E-02  0.1381822E+00
          2   -1    0    0  502    0  0.00000000000E+00  0.00000000000E+00  0.24490534384E+03  0.24490534384E+03  0.00000000000E+00 0.  1.
          1   -1    0    0  501    0 -0.00000000000E+00 -0.00000000000E+00 -0.23161437569E+03  0.23161437569E+03  0.00000000000E+00 0. -1.
          2    1    1    2  501    0 -0.52215206788E+02  0.63693182118E+02  0.14376099162E+03  0.16568183962E+03  0.00000000000E+00 0.  1.
          1    1    1    2  502    0  0.11884922084E+02 -0.45381221313E+02 -0.16580411160E+03  0.17231282612E+03  0.00000000000E+00 0. -1.
         22    1    1    2    0    0  0.14574063213E+02 -0.27771516142E+02 -0.44310228177E+02  0.54286800868E+02  0.00000000000E+00 0. -1.
         22    1    1    2    0    0  0.25756221492E+02  0.94595553370E+01  0.79644316315E+02  0.84238252914E+02  0.00000000000E+00 0. -1.
</event>
<event>
 6    1  0.1383644E-005  0.2924060E+03  0.7818608E-02  0.1142041E+00
          2   -1    0    0  502    0  0.00000000000E+00  0.00000000000E+00  0.12116577093E+04  0.12116577093E+04  0.00000000000E+00 0.  1.
          1   -1    0    0  501    0 -0.00000000000E+00 -0.00000000000E+00 -0.10423786899E+03  0.10423786899E+03  0.00000000000E+00 0.  1.
          2    1    1    2  501    0 -0.38123915152E+02 -0.24603260879E+02  0.21708477238E+03  0.22177590435E+03  0.00000000000E+00 0.  1.
          1    1    1    2  502    0  0.27547138007E+03 -0.15150566315E+03  0.39768425706E+03  0.50694301013E+03  0.00000000000E+00 0.  1.
         22    1    1    2    0    0 -0.30547300545E+02 -0.58058727812E+01  0.11893439730E+03  0.12293183718E+03  0.00000000000E+00 0. -1.
         22    1    1    2    0    0 -0.20680016437E+03  0.18191479681E+03  0.37371641353E+03  0.46424482660E+03  0.00000000000E+00 0.  1.
</event>
<event>
 6    1  0.1383644E-005  0.3364888E+02  0.7818608E-02  0.1598183E+00
          2   -1    0    0  502    0  0.00000000000E+00  0.00000000000E+00  0.10112182877E+03  0.10112182877E+03  0.00000000000E+00 0.  1.
          1   -1    0    0  501    0 -0.00000000000E+00 -0.00000000000E+00 -0.15407714606E+03  0.15407714606E+03  0.00000000000E+00 0.  1.
          2    1    1    2  501    0 -0.29052219596E+01  0.32192021194E+02  0.40021456497E+02  0.51443984326E+02  0.00000000000E+00 0.  1.
          1    1    1    2  502    0  0.21358307205E-01 -0.54696899393E+02 -0.14052859933E+02  0.56473304594E+02  0.00000000000E+00 0.  1.
         22    1    1    2    0    0 -0.17847262870E+02  0.24484219715E+01  0.29786069351E+02  0.34809905049E+02  0.00000000000E+00 0.  1.
         22    1    1    2    0    0  0.20731126523E+02  0.20056456227E+02 -0.10870998320E+03  0.11247178086E+03  0.00000000000E+00 0.  1.
</event>
<event>
 6    1  0.1383644E-005  0.8080195E+02  0.7818608E-02  0.1365041E+00
          2   -1    0    0  502    0  0.00000000000E+00  0.00000000000E+00  0.25141387660E+03  0.25141387660E+03  0.00000000000E+00 0. -1.
          1   -1    0    0  501    0 -0.00000000000E+00 -0.00000000000E+00 -0.87911869921E+02  0.87911869921E+02  0.00000000000E+00 0. -1.
          2    1    1    2  501    0 -0.22897014686E+02  0.32920923223E+02  0.99344895034E+02  0.10713294842E+03  0.00000000000E+00 0. -1.
          1    1    1    2  502    0  0.31619124672E+02 -0.79805047378E+02  0.71537803852E+01  0.86138209906E+02  0.00000000000E+00 0. -1.
         22    1    1    2    0    0  0.28517285855E+02  0.30689516096E+02 -0.28996206145E+02  0.50949602172E+02  0.00000000000E+00 0. -1.
         22    1    1    2    0    0 -0.37239395841E+02  0.16194608060E+02  0.85999537401E+02  0.95104986020E+02  0.00000000000E+00 0. -1.
</event>
<event>
 6    1  0.1383644E-005  0.1137641E+03  0.7818608E-02  0.1331507E+00
          2   -1    0    0  502    0  0.00000000000E+00  0.00000000000E+00  0.63804504382E+03  0.63804504382E+03  0.00000000000E+00 0.  1.
          1   -1    0    0  501    0 -0.00000000000E+00 -0.00000000000E+00 -0.16405339993E+02  0.16405339993E+02  0.00000000000E+00 0. -1.
          2    1    1    2  501    0  0.39169864515E+00 -0.31992298806E+02  0.95011846723E+02  0.10025423496E+03  0.00000000000E+00 0.  1.
          1    1    1    2  502    0  0.24822362647E+02 -0.21360222058E+02  0.68224795271E+02  0.75677152850E+02  0.00000000000E+00 0. -1.
         22    1    1    2    0    0 -0.28030570410E+02  0.79846507045E+02  0.43469299199E+03  0.44285344624E+03  0.00000000000E+00 0.  1.
         22    1    1    2    0    0  0.28165091179E+01 -0.26493986181E+02  0.23710069844E+02  0.35665549756E+02  0.00000000000E+00 0. -1.
</event>
<event>
 6    1  0.1383644E-005  0.4599830E+02  0.7818608E-02  0.1555919E+00
          2   -1    0    0  502    0  0.00000000000E+00  0.00000000000E+00  0.29416164725E+03  0.29416164725E+03  0.00000000000E+00 0.  1.
          1   -1    0    0  501    0 -0.00000000000E+00 -0.00000000000E+00 -0.72748590474E+02  0.72748590474E+02  0.00000000000E+00 0.  1.
          2    1    1    2  501    0  0.22740749489E+02  0.44160527156E+01  0.13830326364E+03  0.14022993954E+03  0.00000000000E+00 0.  1.
          1    1    1    2  502    0 -0.53874790670E+02  0.12645038585E+02 -0.25397381819E+02  0.60888562751E+02  0.00000000000E+00 0.  1.
         22    1    1    2    0    0  0.98776346758E+01 -0.99765449853E+01 -0.25937254675E+02  0.29493055059E+02  0.00000000000E+00 0. -1.
         22    1    1    2    0    0  0.21256406505E+02 -0.70845463155E+01  0.13444442962E+03  0.13629868037E+03  0.00000000000E+00 0.  1.
</event>
<event>
 6    1  0.1383644E-005  0.5382546E+02  0.7818608E-02  0.1510422E+00
          2   -1    0    0  502    0  0.00000000000E+00  0.00000000000E+00  0.14465548852E+03  0.14465548852E+03  0.00000000000E+00 0.  1.
          1   -1    0    0  501    0 -0.00000000000E+00 -0.00000000000E+00 -0.76697206480E+02  0.76697206480E+02  0.00000000000E+00 0.  1.
          2    1    1    2  501    0  0.68944715660E+01  0.23312897932E+02  0.46220902099E+02  0.52224484095E+02  0.00000000000E+00 0.  1.
          1    1    1    2  502    0 -0.26843537654E+02 -0.29094436382E+02  0.13857660021E+02  0.41941584179E+02  0.00000000000E+00 0.  1.
         22    1    1    2    0    0 -0.91462083656E+01 -0.13044305337E+02 -0.53979668998E+02  0.56281539552E+02  0.00000000000E+00 0. -1.
         22    1    1    2    0    0  0.29095274453E+02  0.18825843787E+02  0.61859388918E+02  0.70905087173E+02  0.00000000000E+00 0. -1.
</event>
<event>
 6    1  0.1383644E-005  0.1056083E+03  0.7818608E-02  0.1328769E+00
          2   -1    0    0  502    0  0.00000000000E+00  0.00000000000E+00  0.65766637800E+03  0.65766637800E+03  0.00000000000E+00 0.  1.
          1   -1    0    0  501    0 -0.00000000000E+00 -0.00000000000E+00 -0.24069066514E+02  0.24069066514E+02  0.00000000000E+00 0.  1.
          2    1    1    2  501    0 -0.31911453579E+01 -0.46749311352E+02  0.13669146198E+03  0.14449995605E+03  0.00000000000E+00 0.  1.
          1    1    1    2  502    0  0.30879830003E+02  0.65469654611E+02  0.17980205753E+03  0.19382626104E+03  0.00000000000E+00 0.  1.
         22    1    1    2    0    0 -0.58939424926E+02 -0.30750000820E+01  0.29758184407E+03  0.30337808977E+03  0.00000000000E+00 0.  1.
         22    1    1    2    0    0  0.31250740281E+02 -0.15645343176E+02  0.19521947899E+02  0.40031137643E+02  0.00000000000E+00 0. -1.
</event>
<event>
 6    1  0.1383644E-005  0.5404212E+02  0.7818608E-02  0.1530365E+00
          2   -1    0    0  502    0  0.00000000000E+00  0.00000000000E+00  0.65281846664E+03  0.65281846664E+03  0.00000000000E+00 0.  1.
          1   -1    0    0  501    0 -0.00000000000E+00 -0.00000000000E+00 -0.65042097298E+02  0.65042097298E+02  0.00000000000E+00 0. -1.
          2    1    1    2  501    0 -0.51860059730E+02 -0.23725242931E+02  0.52307076346E+03  0.52617048238E+03  0.00000000000E+00 0.  1.
          1    1    1    2  502    0  0.25339926552E+02 -0.26490734907E+01  0.57442753078E+02  0.62839472859E+02  0.00000000000E+00 0. -1.
         22    1    1    2    0    0  0.19195759036E+01 -0.11903538801E+02 -0.52426963627E+02  0.53795590180E+02  0.00000000000E+00 0. -1.
         22    1    1    2    0    0  0.24600557274E+02  0.38277855222E+02  0.59689816431E+02  0.75055018514E+02  0.00000000000E+00 0. -1.
</event>
<event>
 6    1  0.1383644E-005  0.4922667E+02  0.7818608E-02  0.1450084E+00
          2   -1    0    0  502    0  0.00000000000E+00  0.00000000000E+00  0.47165410676E+03  0.47165410676E+03  0.00000000000E+00 0.  1.
          1   -1    0    0  501    0 -0.00000000000E+00 -0.00000000000E+00 -0.93804069586E+02  0.93804069586E+02  0.00000000000E+00 0. -1.
          2    1    1    2  501    0  0.94206387422E+02  0.50073480169E+02  0.30643949318E+03  0.32448013781E+03  0.00000000000E+00 0.  1.
          1    1    1    2  502    0 -0.69798922214E+02 -0.63296705333E+02  0.54486988012E+02  0.10884481757E+03  0.00000000000E+00 0. -1.
         22    1    1    2    0    0 -0.35641654587E+01  0.22205770071E+02  0.70471859980E+02  0.73973526000E+02  0.00000000000E+00 0.  1.
         22    1    1    2    0    0 -0.20843299749E+02 -0.89825449074E+01 -0.53548304005E+02  0.58159694972E+02  0.00000000000E+00 0. -1.
</event>
<event>
 6    1  0.1383644E-005  0.1129238E+03  0.7818608E-02  0.1347961E+00
          2   -1    0    0  502    0  0.00000000000E+00  0.00000000000E+00  0.10121330619E+04  0.10121330619E+04  0.00000000000E+00 0. -1.
          1   -1    0    0  501    0 -0.00000000000E+00 -0.00000000000E+00 -0.89793778374E+02  0.89793778374E+02  0.00000000000E+00 0.  1.
          2    1    1    2  501    0  0.14706858712E+03  0.29594952922E+02  0.62921380884E+03  0.64685009684E+03  0.00000000000E+00 0. -1.
          1    1    1    2  502    0 -0.14029942647E+03 -0.11324885623E+03  0.93325444691E+02  0.20302431168E+03  0.00000000000E+00 0.  1.
         22    1    1    2    0    0  0.11261396519E+02  0.85111341425E+01 -0.16880423172E+02  0.22004707279E+02  0.00000000000E+00 0.  1.
         22    1    1    2    0    0 -0.18030557172E+02  0.75142769170E+02  0.21668045318E+03  0.23004772449E+03  0.00000000000E+00 0. -1.
</event>
<event>
 6    1  0.1383644E-005  0.6455531E+02  0.7818608E-02  0.1436004E+00
          2   -1    0    0  502    0  0.00000000000E+00  0.00000000000E+00  0.38882903847E+03  0.38882903847E+03  0.00000000000E+00 0. -1.
          1   -1    0    0  501    0 -0.00000000000E+00 -0.00000000000E+00 -0.16274865358E+03  0.16274865358E+03  0.00000000000E+00 0.  1.
          2    1    1    2  501    0 -0.36110771501E+02 -0.13482317305E+02  0.29482778180E+03  0.29733681511E+03  0.00000000000E+00 0. -1.
          1    1    1    2  502    0  0.43396348328E+02  0.29090921720E+02 -0.11113799104E+03  0.12280544706E+03  0.00000000000E+00 0.  1.
         22    1    1    2    0    0 -0.18439115021E+02 -0.19320690059E+02  0.84028122676E+02  0.88170377268E+02  0.00000000000E+00 0. -1.
         22    1    1    2    0    0  0.11153538194E+02  0.37120856436E+01 -0.41637528543E+02  0.43265052609E+02  0.00000000000E+00 0.  1.
</event>
<event>
 6    1  0.1383644E-005  0.5636432E+02  0.7818608E-02  0.1490107E+00
          2   -1    0    0  502    0  0.00000000000E+00  0.00000000000E+00  0.41815257745E+03  0.41815257745E+03  0.00000000000E+00 0. -1.
          1   -1    0    0  501    0 -0.00000000000E+00 -0.00000000000E+00 -0.27943407223E+03  0.27943407223E+03  0.00000000000E+00 0. -1.
          2    1    1    2  501    0  0.37238695882E+02  0.19032644897E+02  0.34850328156E+03  0.35100356024E+03  0.00000000000E+00 0. -1.
          1    1    1    2  502    0 -0.41288063137E+02 -0.38677684988E+02 -0.20826257581E+03  0.21581002747E+03  0.00000000000E+00 0. -1.
         22    1    1    2    0    0 -0.85540847099E+01  0.16223210137E+02 -0.64190130475E+02  0.66758802886E+02  0.00000000000E+00 0.  1.
         22    1    1    2    0    0  0.12603451964E+02  0.34218299552E+01  0.62667929952E+02  0.64014259085E+02  0.00000000000E+00 0. -1.
</event>
<event>
 6    1  0.1383644E-005  0.9952402E+02  0.7818608E-02  0.1395142E+00
          2   -1    0    0  502    0  0.00000000000E+00  0.00000000000E+00  0.23911989412E+03  0.23911989412E+03  0.00000000000E+00 0. -1.
          1   -1    0    0  501    0 -0.00000000000E+00 -0.00000000000E+00 -0.16051203707E+03  0.16051203707E+03  0.00000000000E+00 0. -1.
          2    1    1    2  501    0 -0.22976536219E+01 -0.65393517734E+02  0.12851730789E+03  0.14421612185E+03  0.00000000000E+00 0. -1.
          1    1    1    2  502    0 -0.12243233497E+02  0.84148526578E+02 -0.84181527480E+02  0.11965534196E+03  0.00000000000E+00 0. -1.
         22    1    1    2    0    0  0.13694890081E+02 -0.32450885139E+02  0.80324238865E+02  0.87707430187E+02  0.00000000000E+00 0. -1.
         22    1    1    2    0    0  0.84599703766E+00  0.13695876296E+02 -0.46052162224E+02  0.48053037198E+02  0.00000000000E+00 0. -1.
</event>
<event>
 6    1  0.1383644E-005  0.4979854E+02  0.7818608E-02  0.1533834E+00
          2   -1    0    0  502    0  0.00000000000E+00  0.00000000000E+00  0.19213331833E+03  0.19213331833E+03  0.00000000000E+00 0. -1.
          1   -1    0    0  501    0 -0.00000000000E+00 -0.00000000000E+00 -0.21574624863E+03  0.21574624863E+03  0.00000000000E+00 0.  1.
          2    1    1    2  501    0 -0.16933102731E+02 -0.21019691841E+02  0.73726443203E+02  0.78512074489E+02  0.00000000000E+00 0. -1.
          1    1    1    2  502    0  0.31590494262E+02  0.22846194076E+02 -0.17809149574E+03  0.18230877315E+03  0.00000000000E+00 0.  1.
         22    1    1    2    0    0 -0.25364688997E+01  0.14502181434E+02 -0.30550912784E+02  0.33913201158E+02  0.00000000000E+00 0.  1.
         22    1    1    2    0    0 -0.12120922631E+02 -0.16328683669E+02  0.11130303502E+03  0.11314551816E+03  0.00000000000E+00 0. -1.
</event>
<event>
 6    1  0.1383644E-005  0.1120684E+03  0.7818608E-02  0.1306278E+00
          2   -1    0    0  502    0  0.00000000000E+00  0.00000000000E+00  0.13857563274E+03  0.13857563274E+03  0.00000000000E+00 0. -1.
          1   -1    0    0  501    0 -0.00000000000E+00 -0.00000000000E+00 -0.18171654118E+03  0.18171654118E+03  0.00000000000E+00 0. -1.
          2    1    1    2  501    0  0.44856277056E+02  0.18442757191E+02 -0.58485284435E+01  0.48851061085E+02  0.00000000000E+00 0. -1.
          1    1    1    2  502    0 -0.71015324417E+02 -0.54746707449E+02  0.58534543043E+02  0.10708254297E+03  0.00000000000E+00 0. -1.
         22    1    1    2    0    0  0.92675352864E+01 -0.42789010103E+02 -0.63787658518E+02  0.77366995386E+02  0.00000000000E+00 0. -1.
         22    1    1    2    0    0  0.16891512075E+02  0.79092960361E+02 -0.32039264524E+02  0.86991574478E+02  0.00000000000E+00 0. -1.
</event>
<event>
 6    1  0.1383644E-005  0.1682208E+03  0.7818608E-02  0.1285656E+00
          2   -1    0    0  502    0  0.00000000000E+00  0.00000000000E+00  0.48887002256E+02  0.48887002256E+02  0.00000000000E+00 0. -1.
          1   -1    0    0  501    0 -0.00000000000E+00 -0.00000000000E+00 -0.36050695040E+03  0.36050695040E+03  0.00000000000E+00 0. -1.
          2    1    1    2  501    0  0.27493961075E+02  0.49002206018E+01 -0.14124422539E+03  0.14397868337E+03  0.00000000000E+00 0. -1.
          1    1    1    2  502    0  0.48405475197E+01 -0.35978587289E+02 -0.11424783079E+03  0.11987683882E+03  0.00000000000E+00 0. -1.
         22    1    1    2    0    0 -0.45018384159E+02  0.16960597894E+02  0.30430444003E+02  0.56923885281E+02  0.00000000000E+00 0. -1.
         22    1    1    2    0    0  0.12683875565E+02  0.14117768794E+02 -0.86558335960E+02  0.88614545190E+02  0.00000000000E+00 0. -1.
</event>
<event>
 6    1  0.1383644E-005  0.1307358E+03  0.7818608E-02  0.1343251E+00
          2   -1    0    0  502    0  0.00000000000E+00  0.00000000000E+00  0.26228787678E+03  0.26228787678E+03  0.00000000000E+00 0.  1.
          1   -1    0    0  501    0 -0.00000000000E+00 -0.00000000000E+00 -0.19600869053E+03  0.19600869053E+03  0.00000000000E+00 0. -1.
          2    1    1    2  501    0  0.23083426093E+02 -0.32810893699E+02  0.10392595455E+03  0.11140019450E+03  0.00000000000E+00 0.  1.
          1    1    1    2  502    0  0.14879248285E+02  0.10308062580E+03 -0.13534767997E+03  0.17078056657E+03  0.00000000000E+00 0. -1.
         22    1    1    2    0    0 -0.52237900704E+02 -0.69242437447E+02  0.12093699894E+03  0.14882564001E+03  0.00000000000E+00 0.  1.
         22    1    1    2    0    0  0.14275226326E+02 -0.10272946510E+01 -0.23236087266E+02  0.27290166222E+02  0.00000000000E+00 0. -1.
</event>
<event>
 6    1  0.1383644E-005  0.6670148E+02  0.7818608E-02  0.1383879E+00
          2   -1    0    0  502    0  0.00000000000E+00  0.00000000000E+00  0.24654782362E+03  0.24654782362E+03  0.00000000000E+00 0. -1.
          1   -1    0    0  501    0 -0.00000000000E+00 -0.00000000000E+00 -0.10116363582E+03  0.10116363582E+03  0.00000000000E+00 0. -1.
          2    1    1    2  501    0  0.28505077835E+01  0.64236814156E+02 -0.13982051946E+02  0.65802670646E+02  0.00000000000E+00 0. -1.
          1    1    1    2  502    0  0.51321672882E+01 -0.25434534346E+02  0.15268634265E+03  0.15487534958E+03  0.00000000000E+00 0. -1.
         22    1    1    2    0    0 -0.42952802127E+01  0.34806323508E+02  0.33601520229E+02  0.48569452848E+02  0.00000000000E+00 0. -1.
         22    1    1    2    0    0 -0.36873948591E+01 -0.73608603318E+02 -0.26921623129E+02  0.78463986358E+02  0.00000000000E+00 0. -1.
</event>
<event>
 6    1  0.1383644E-005  0.5434073E+02  0.7818608E-02  0.1492077E+00
          2   -1    0    0  502    0  0.00000000000E+00  0.00000000000E+00  0.13634696438E+03  0.13634696438E+03  0.00000000000E+00 0. -1.
          1   -1    0    0  501    0 -0.00000000000E+00 -0.00000000000E+00 -0.62139092243E+02  0.62139092243E+02  0.00000000000E+00 0.  1.
          2    1    1    2  501    0  0.26440644668E+02  0.28095497350E+01  0.27267138596E+02  0.38085405438E+02  0.00000000000E+00 0. -1.
          1    1    1    2  502    0 -0.19161273378E+02  0.14776264987E+02  0.48144197721E+00  0.24201739417E+02  0.00000000000E+00 0.  1.
         22    1    1    2    0    0 -0.19239561337E+02  0.51355631448E+01 -0.40713884711E+02  0.45322788281E+02  0.00000000000E+00 0.  1.
         22    1    1    2    0    0  0.11960190048E+02 -0.22721377867E+02  0.87173176270E+02  0.90876123482E+02  0.00000000000E+00 0. -1.
</event>
<event>
 6    1  0.1383644E-005  0.4118275E+02  0.7818608E-02  0.1527761E+00
          2   -1    0    0  502    0  0.00000000000E+00  0.00000000000E+00  0.31988116766E+03  0.31988116766E+03  0.00000000000E+00 0.  1.
          1   -1    0    0  501    0 -0.00000000000E+00 -0.00000000000E+00 -0.82607151912E+02  0.82607151912E+02  0.00000000000E+00 0.  1.
          2    1    1    2  501    0  0.39807451758E+02 -0.30350853228E+02  0.21844005274E+02  0.54616554941E+02  0.00000000000E+00 0.  1.
          1    1    1    2  502    0 -0.44626389937E+02  0.50919776100E+02  0.20642666458E+03  0.21724710844E+03  0.00000000000E+00 0.  1.
         22    1    1    2    0    0  0.18490310463E+02  0.71948969509E+01 -0.55576851703E+02  0.59012240835E+02  0.00000000000E+00 0. -1.
         22    1    1    2    0    0 -0.13671372284E+02 -0.27763819823E+02  0.64580197599E+02  0.71612415356E+02  0.00000000000E+00 0. -1.
</event>
<event>
 6    1  0.1383644E-005  0.6621952E+02  0.7818608E-02  0.1497616E+00
          2   -1    0    0  502    0  0.00000000000E+00  0.00000000000E+00  0.89841646743E+02  0.89841646743E+02  0.00000000000E+00 0. -1.
          1   -1    0    0  501    0 -0.00000000000E+00 -0.00000000000E+00 -0.19339124508E+03  0.19339124508E+03  0.00000000000E+00 0.  1.
          2    1    1    2  501    0  0.17407903971E+02 -0.10843419024E+02  0.15543177492E+02  0.25733348468E+02  0.00000000000E+00 0. -1.
          1    1    1    2  502    0 -0.36879923185E+02 -0.18564128353E+02 -0.12299554476E+03  0.12974074004E+03  0.00000000000E+00 0.  1.
         22    1    1    2    0    0  0.25165325131E+02  0.37861374436E+02  0.57443483100E+02  0.73256610717E+02  0.00000000000E+00 0. -1.
         22    1    1    2    0    0 -0.56933059175E+01 -0.84538270591E+01 -0.53540714169E+02  0.54502192598E+02  0.00000000000E+00 0.  1.
</event>
<event>
 6    1  0.1383644E-005  0.1485103E+03  0.7818608E-02  0.1263238E+00
          2   -1    0    0  502    0  0.00000000000E+00  0.00000000000E+00  0.10660643507E+03  0.10660643507E+03  0.00000000000E+00 0. -1.
          1   -1    0    0  501    0 -0.00000000000E+00 -0.00000000000E+00 -0.61152837010E+03  0.61152837010E+03  0.00000000000E+00 0. -1.
          2    1    1    2  501    0  0.35744952290E+02 -0.31389889379E+02 -0.20966700980E+03  0.21499600408E+03  0.00000000000E+00 0. -1.
          1    1    1    2  502    0 -0.67404870569E+02  0.11294240511E+03  0.36790587383E+02  0.13657580594E+03  0.00000000000E+00 0. -1.
         22    1    1    2    0    0 -0.41985629458E+02 -0.60732363583E+01 -0.15297273379E+03  0.15874613244E+03  0.00000000000E+00 0. -1.
         22    1    1    2    0    0  0.73645547737E+02 -0.75479279368E+02 -0.17907277882E+03  0.20781686272E+03  0.00000000000E+00 0. -1.
</event>
<event>
 6    1  0.1383644E-005  0.3301462E+02  0.7818608E-02  0.1624968E+00
          2   -1    0    0  502    0  0.00000000000E+00  0.00000000000E+00  0.13829792365E+03  0.13829792365E+03  0.00000000000E+00 0. -1.
          1   -1    0    0  501    0 -0.00000000000E+00 -0.00000000000E+00 -0.17515797815E+03  0.17515797815E+03  0.00000000000E+00 0. -1.
          2    1    1    2  501    0  0.46506084556E+02  0.10166490192E+02 -0.32688907215E+02  0.57747191087E+02  0.00000000000E+00 0. -1.
          1    1    1    2  502    0 -0.37127396204E+02  0.27630291746E+01 -0.94417983149E+02  0.10149302154E+03  0.00000000000E+00 0. -1.
         22    1    1    2    0    0 -0.27329310915E+01  0.12852144558E+02 -0.29103301784E+02  0.31931938664E+02  0.00000000000E+00 0. -1.
         22    1    1    2    0    0 -0.66457572613E+01 -0.25781663924E+02  0.11935013765E+03  0.12228375052E+03  0.00000000000E+00 0. -1.
</event>
<event>
 6    1  0.1383644E-005  0.6940476E+02  0.7818608E-02  0.1445910E+00
          2   -1    0    0  502    0  0.00000000000E+00  0.00000000000E+00  0.15199291870E+03  0.15199291870E+03  0.00000000000E+00 0.  1.
          1   -1    0    0  501    0 -0.00000000000E+00 -0.00000000000E+00 -0.10981786304E+03  0.10981786304E+03  0.00000000000E+00 0.  1.
          2    1    1    2  501    0  0.18864821840E+02 -0.43198179817E+02  0.59423094335E+02  0.75848984060E+02  0.00000000000E+00 0.  1.
          1    1    1    2  502    0 -0.31812344967E+02  0.44351167208E+02 -0.24132331272E+02  0.59677640182E+02  0.00000000000E+00 0.  1.
         22    1    1    2    0    0  0.64695902363E+01  0.17371836865E+02 -0.56745559408E+02  0.59696690247E+02  0.00000000000E+00 0.  1.
         22    1    1    2    0    0  0.64779328900E+01 -0.18524824257E+02  0.63629852007E+02  0.66587467249E+02  0.00000000000E+00 0.  1.
</event>
<event>
 6    1  0.1383644E-005  0.4293642E+02  0.7818608E-02  0.1529074E+00
          2   -1    0    0  502    0  0.00000000000E+00  0.00000000000E+00  0.15482915184E+03  0.15482915184E+03  0.00000000000E+00 0.  1.
          1   -1    0    0  501    0 -0.00000000000E+00 -0.00000000000E+00 -0.11338245769E+03  0.11338245769E+03  0.00000000000E+00 0. -1.
          2    1    1    2  501    0  0.39303812196E+01 -0.28612046001E+02  0.75817180717E+02  0.81131633565E+02  0.00000000000E+00 0.  1.
          1    1    1    2  502    0 -0.19693815128E+02  0.27535264293E+02 -0.52228924654E+02  0.62240643510E+02  0.00000000000E+00 0. -1.
         22    1    1    2    0    0  0.21083229170E+02  0.12391621516E+02 -0.50094839599E+02  0.55745383580E+02  0.00000000000E+00 0. -1.
         22    1    1    2    0    0 -0.53197952622E+01 -0.11314839808E+02  0.67953277696E+02  0.69093948875E+02  0.00000000000E+00 0.  1.
</event>
<event>
 6    1  0.1383644E-005  0.9145901E+02  0.7818608E-02  0.1382071E+00
          2   -1    0    0  502    0  0.00000000000E+00  0.00000000000E+00  0.11479557458E+03  0.11479557458E+03  0.00000000000E+00 0.  1.
          1   -1    0    0  501    0 -0.00000000000E+00 -0.00000000000E+00 -0.25402076340E+03  0.25402076340E+03  0.00000000000E+00 0. -1.
          2    1    1    2  501    0  0.27706066636E+02 -0.40346859693E+02  0.48900302212E+02  0.69186232532E+02  0.00000000000E+00 0.  1.
          1    1    1    2  502    0 -0.44233067166E+02  0.65297826689E+02 -0.14103745864E+03  0.16159187832E+03  0.00000000000E+00 0. -1.
         22    1    1    2    0    0  0.48245362111E+01 -0.43372404099E+02  0.33202329180E+02  0.54834626378E+02  0.00000000000E+00 0. -1.
         22    1    1    2    0    0  0.11702464319E+02  0.18421437103E+02 -0.80290361572E+02  0.83203600748E+02  0.00000000000E+00 0.  1.
</event>
<event>
 6    1  0.1383644E-005  0.3430959E+02  0.7818608E-02  0.1588441E+00
          2   -1    0    0  502    0  0.00000000000E+00  0.00000000000E+00  0.46946900572E+03  0.46946900572E+03  0.00000000000E+00 0. -1.
          1   -1    0    0  501    0 -0.00000000000E+00 -0.00000000000E+00 -0.73997946987E+02  0.73997946987E+02  0.00000000000E+00 0.  1.
          2    1    1    2  501    0 -0.27170835283E+02  0.18968132798E+02  0.33856315195E+03  0.34018091100E+03  0.00000000000E+00 0. -1.
          1    1    1    2  502    0  0.51227075133E+02 -0.46755835348E+02  0.19302082163E+02  0.71992303350E+02  0.00000000000E+00 0.  1.
         22    1    1    2    0    0 -0.23193259756E+02  0.10915678964E+02 -0.42387649915E+02  0.49535766984E+02  0.00000000000E+00 0.  1.
         22    1    1    2    0    0 -0.86298009384E+00  0.16872023586E+02  0.79993474535E+02  0.81757971371E+02  0.00000000000E+00 0.  1.
</event>
<event>
 6    1  0.1383644E-005  0.4343931E+02  0.7818608E-02  0.1486721E+00
          2   -1    0    0  502    0  0.00000000000E+00  0.00000000000E+00  0.13020180356E+03  0.13020180356E+03  0.00000000000E+00 0.  1.
          1   -1    0    0  501    0 -0.00000000000E+00 -0.00000000000E+00 -0.26976066924E+03  0.26976066924E+03  0.00000000000E+00 0. -1.
          2    1    1    2  501    0  0.19156832422E+02 -0.11918175405E+02  0.57507683094E+02  0.61775081936E+02  0.00000000000E+00 0.  1.
          1    1    1    2  502    0 -0.12067079256E+02  0.27964196414E+02 -0.21238633846E+03  0.21455900691E+03  0.00000000000E+00 0. -1.
         22    1    1    2    0    0 -0.10083394701E+02  0.43115398329E+01 -0.52046699544E+02  0.53189502327E+02  0.00000000000E+00 0.  1.
         22    1    1    2    0    0  0.29936415349E+01 -0.20357560843E+02  0.67366489226E+02  0.70438881619E+02  0.00000000000E+00 0.  1.
</event>
<event>
 6    1  0.1383644E-005  0.5483552E+02  0.7818608E-02  0.1505779E+00
          2   -1    0    0  502    0  0.00000000000E+00  0.00000000000E+00  0.31962896335E+03  0.31962896335E+03  0.00000000000E+00 0. -1.
          1   -1    0    0  501    0 -0.00000000000E+00 -0.00000000000E+00 -0.62273480680E+02  0.62273480680E+02  0.00000000000E+00 0. -1.
          2    1    1    2  501    0 -0.45511097410E+02  0.23784359170E+01  0.18077984932E+03  0.18643570169E+03  0.00000000000E+00 0. -1.
          1    1    1    2  502    0  0.42713850471E+02  0.26323997587E+01  0.58933037043E+02  0.72832035573E+02  0.00000000000E+00 0. -1.
         22    1    1    2    0    0 -0.13233849808E+02 -0.57591644261E+01  0.68138303797E+02  0.69650062455E+02  0.00000000000E+00 0. -1.
         22    1    1    2    0    0  0.16031096747E+02  0.74832875041E+00 -0.50495707485E+02  0.52984644316E+02  0.00000000000E+00 0. -1.
</event>
<event>
 6    1  0.1383644E-005  0.2966951E+02  0.7818608E-02  0.1629946E+00
          2   -1    0    0  502    0  0.00000000000E+00  0.00000000000E+00  0.18094143242E+03  0.18094143242E+03  0.00000000000E+00 0.  1.
          1   -1    0    0  501    0 -0.00000000000E+00 -0.00000000000E+00 -0.38131278513E+03  0.38131278513E+03  0.00000000000E+00 0.  1.
          2    1    1    2  501    0 -0.12570534027E+02  0.26314170448E+02  0.61679317929E+02  0.68226037202E+02  0.00000000000E+00 0.  1.
          1    1    1    2  502    0  0.35409737491E+01 -0.37221058310E+02 -0.34263988558E+03  0.34467381228E+03  0.00000000000E+00 0.  1.
         22    1    1    2    0    0 -0.19878657938E+01  0.18854342656E+02  0.11280731008E+03  0.11438936600E+03  0.00000000000E+00 0.  1.
         22    1    1    2    0    0  0.11017426072E+02 -0.79474547949E+01 -0.32218095141E+02  0.34965002066E+02  0.00000000000E+00 0.  1.
</event>
<event>
 6    1  0.1383644E-005  0.2590167E+03  0.7818608E-02  0.1195969E+00
          2   -1    0    0  502    0  0.00000000000E+00  0.00000000000E+00  0.84281283859E+02  0.84281283859E+02  0.00000000000E+00 0. -1.
          1   -1    0    0  501    0 -0.00000000000E+00 -0.00000000000E+00 -0.95416498990E+03  0.95416498990E+03  0.00000000000E+00 0. -1.
          2    1    1    2  501    0 -0.11236379683E+03 -0.85683927611E+01 -0.49539451880E+03  0.50804996748E+03  0.00000000000E+00 0. -1.
          1    1    1    2  502    0  0.13413317897E+03 -0.10591691537E+03 -0.77624689179E+02  0.18771173387E+03  0.00000000000E+00 0. -1.
         22    1    1    2    0    0 -0.50672335082E+02  0.10043697334E+03 -0.12637146789E+03  0.16918929946E+03  0.00000000000E+00 0.  1.
         22    1    1    2    0    0  0.28902952943E+02  0.14048334793E+02 -0.17049303017E+03  0.17349527295E+03  0.00000000000E+00 0. -1.
</event>
<event>
 6    1  0.1383644E-005  0.4821782E+02  0.7818608E-02  0.1520395E+00
          2   -1    0    0  502    0  0.00000000000E+00  0.00000000000E+00  0.13138901506E+03  0.13138901506E+03  0.00000000000E+00 0.  1.
          1   -1    0    0  501    0 -0.00000000000E+00 -0.00000000000E+00 -0.53837063138E+03  0.53837063138E+03  0.00000000000E+00 0. -1.
          2    1    1    2  501    0 -0.25195564920E+02  0.15270346638E+02  0.68750810794E+02  0.74797553188E+02  0.00000000000E+00 0.  1.
          1    1    1    2  502    0  0.38062248251E+02 -0.17923904153E+02 -0.46955108252E+03  0.47143209498E+03  0.00000000000E+00 0. -1.
         22    1    1    2    0    0 -0.11284991375E+02 -0.15752798294E+02 -0.61882275968E+02  0.64845337253E+02  0.00000000000E+00 0.  1.
         22    1    1    2    0    0 -0.15816919552E+01  0.18406355809E+02  0.55700931376E+02  0.58684661026E+02  0.00000000000E+00 0.  1.
</event>
<event>
 6    1  0.1383644E-005  0.1107019E+03  0.7818608E-02  0.1328351E+00
          2   -1    0    0  502    0  0.00000000000E+00  0.00000000000E+00  0.56580233110E+03  0.56580233110E+03  0.00000000000E+00 0.  1.
          1   -1    0    0  501    0 -0.00000000000E+00 -0.00000000000E+00 -0.91143672242E+02  0.91143672242E+02  0.00000000000E+00 0.  1.
          2    1    1    2  501    0  0.50304583975E+02  0.84509355257E+02  0.41172096251E+03  0.42330430339E+03  0.00000000000E+00 0.  1.
          1    1    1    2  502    0 -0.11167334327E+02 -0.53592263265E+02  0.82022294381E+02  0.98612863326E+02  0.00000000000E+00 0.  1.
         22    1    1    2    0    0 -0.16637142741E+02 -0.10226399982E+02  0.53133183906E+02  0.56608382834E+02  0.00000000000E+00 0.  1.
         22    1    1    2    0    0 -0.22500106907E+02 -0.20690692010E+02 -0.72217781934E+02  0.78420453800E+02  0.00000000000E+00 0.  1.
</event>
<event>
 6    1  0.1383644E-005  0.1262073E+03  0.7818608E-02  0.1259798E+00
          2   -1    0    0  502    0  0.00000000000E+00  0.00000000000E+00  0.12895513720E+04  0.12895513720E+04  0.00000000000E+00 0. -1.
          1   -1    0    0  501    0 -0.00000000000E+00 -0.00000000000E+00 -0.58032273915E+02  0.58032273915E+02  0.00000000000E+00 0. -1.
          2    1    1    2  501    0 -0.11219941541E+03 -0.26787366758E+02  0.10663400723E+04  0.10725611505E+04  0.00000000000E+00 0. -1.
          1    1    1    2  502    0  0.77589542778E+02 -0.19433861844E+02  0.57804790978E+02  0.98687415584E+02  0.00000000000E+00 0. -1.
         22    1    1    2    0    0  0.52028523075E+02  0.52542323525E+02  0.70106782781E+01  0.74275248803E+02  0.00000000000E+00 0. -1.
         22    1    1    2    0    0 -0.17418650444E+02 -0.63210949230E+01  0.10036355656E+03  0.10205983103E+03  0.00000000000E+00 0.  1.
</event>
<event>
 6    1  0.1383644E-005  0.2938052E+03  0.7818608E-02  0.1196999E+00
          2   -1    0    0  502    0  0.00000000000E+00  0.00000000000E+00  0.94010468966E+03  0.94010468966E+03  0.00000000000E+00 0.  1.
          1   -1    0    0  501    0 -0.00000000000E+00 -0.00000000000E+00 -0.13575086347E+03  0.13575086347E+03  0.00000000000E+00 0.  1.
          2    1    1    2  501    0 -0.23553659528E+03  0.44261013503E+02  0.19648730445E+03  0.30990931874E+03  0.00000000000E+00 0.  1.
          1    1    1    2  502    0  0.27653606406E+03 -0.21216112863E+02  0.55177212088E+03  0.61755549674E+03  0.00000000000E+00 0.  1.
         22    1    1    2    0    0  0.20871259257E+02 -0.52812016516E+01 -0.32436960715E+02  0.38931439407E+02  0.00000000000E+00 0. -1.
         22    1    1    2    0    0 -0.61870728040E+02 -0.17763698988E+02  0.88531361571E+02  0.10945929824E+03  0.00000000000E+00 0.  1.
</event>
<event>
 6    1  0.1383644E-005  0.1233570E+03  0.7818608E-02  0.1365008E+00
          2   -1    0    0  502    0  0.00000000000E+00  0.00000000000E+00  0.16565343820E+03  0.16565343820E+03  0.00000000000E+00 0. -1.
          1   -1    0    0  501    0 -0.00000000000E+00 -0.00000000000E+00 -0.12903786780E+03  0.12903786780E+03  0.00000000000E+00 0. -1.
          2    1    1    2  501    0 -0.20739730258E+02 -0.35343414829E+01 -0.33157391556E+01  0.21298406209E+02  0.00000000000E+00 0. -1.
          1    1    1    2  502    0  0.78314536024E+02  0.67376991686E+02 -0.27806093739E+02  0.10698600100E+03  0.00000000000E+00 0. -1.
         22    1    1    2    0    0 -0.69213439159E+02 -0.65665724368E+02  0.96270320985E+02  0.13553767823E+03  0.00000000000E+00 0. -1.
         22    1    1    2    0    0  0.11638633392E+02  0.18230741645E+01 -0.28532917682E+02  0.30869220562E+02  0.00000000000E+00 0.  1.
</event>
<event>
 6    1  0.1383644E-005  0.6875215E+02  0.7818608E-02  0.1426322E+00
          2   -1    0    0  502    0  0.00000000000E+00  0.00000000000E+00  0.50097617256E+02  0.50097617256E+02  0.00000000000E+00 0. -1.
          1   -1    0    0  501    0 -0.00000000000E+00 -0.00000000000E+00 -0.85531429275E+03  0.85531429275E+03  0.00000000000E+00 0. -1.
          2    1    1    2  501    0 -0.58097622463E+02 -0.54458230086E+01 -0.43912570828E+02  0.73029477615E+02  0.00000000000E+00 0. -1.
          1    1    1    2  502    0  0.80196369517E+02  0.33861515528E+02 -0.66427245289E+03  0.66995220097E+03  0.00000000000E+00 0. -1.
         22    1    1    2    0    0 -0.25802022301E+02 -0.48205252516E+02  0.82019761475E+01  0.55288001751E+02  0.00000000000E+00 0. -1.
         22    1    1    2    0    0  0.37032752460E+01  0.19789559996E+02 -0.10523362793E+03  0.10714222967E+03  0.00000000000E+00 0.  1.
</event>
<event>
 6    1  0.1383644E-005  0.1318660E+03  0.7818608E-02  0.1320197E+00
          2   -1    0    0  502    0  0.00000000000E+00  0.00000000000E+00  0.76932664915E+02  0.76932664915E+02  0.00000000000E+00 0. -1.
          1   -1    0    0  501    0 -0.00000000000E+00 -0.00000000000E+00 -0.69786861095E+03  0.69786861095E+03  0.00000000000E+00 0.  1.
          2    1    1    2  501    0  0.55474402780E+01  0.80762550711E+02 -0.16807188752E+02  0.82679170804E+02  0.00000000000E+00 0. -1.
          1    1    1    2  502    0  0.20636989916E+01 -0.12158181697E+03 -0.52828418338E+03  0.54209830794E+03  0.00000000000E+00 0.  1.
         22    1    1    2    0    0 -0.20832558052E+02 -0.16991451955E+01 -0.98060013835E+02  0.10026289883E+03  0.00000000000E+00 0.  1.
         22    1    1    2    0    0  0.13221418783E+02  0.42518411454E+02  0.22215439923E+02  0.49760898286E+02  0.00000000000E+00 0. -1.
</event>
<event>
 6    1  0.1383644E-005  0.1287301E+03  0.7818608E-02  0.1333691E+00
          2   -1    0    0  502    0  0.00000000000E+00  0.00000000000E+00  0.10438795426E+04  0.10438795426E+04  0.00000000000E+00 0. -1.
          1   -1    0    0  501    0 -0.00000000000E+00 -0.00000000000E+00 -0.21330834405E+02  0.21330834405E+02  0.00000000000E+00 0.  1.
          2    1    1    2  501    0  0.37438435125E+02  0.20996705639E+02  0.28848320847E+03  0.29165914976E+03  0.00000000000E+00 0. -1.
          1    1    1    2  502    0 -0.93593613230E+02  0.26038528694E+02  0.28165249506E+03  0.29793606258E+03  0.00000000000E+00 0.  1.
         22    1    1    2    0    0 -0.15422285896E+02  0.86836934396E+01  0.40338710163E+01  0.18152838604E+02  0.00000000000E+00 0.  1.
         22    1    1    2    0    0  0.71577464001E+02 -0.55718927773E+02  0.44837913363E+03  0.45746232603E+03  0.00000000000E+00 0.  1.
</event>
<event>
 6    1  0.1383644E-005  0.2894307E+02  0.7818608E-02  0.1646726E+00
          2   -1    0    0  502    0  0.00000000000E+00  0.00000000000E+00  0.71098033860E+02  0.71098033860E+02  0.00000000000E+00 0.  1.
          1   -1    0    0  501    0 -0.00000000000E+00 -0.00000000000E+00 -0.24532295504E+03  0.24532295504E+03  0.00000000000E+00 0.  1.
          2    1    1    2  501    0 -0.31010920834E+02 -0.10572186932E+02  0.20109348598E+01  0.32825176412E+02  0.00000000000E+00 0.  1.
          1    1    1    2  502    0  0.52242211687E+02  0.11679576477E+02 -0.13890317757E+03  0.14886152601E+03  0.00000000000E+00 0.  1.
         22    1    1    2    0    0 -0.17055241945E+02  0.11573796481E+02 -0.83846253143E+02  0.86342505227E+02  0.00000000000E+00 0.  1.
         22    1    1    2    0    0 -0.41760489089E+01 -0.12681186026E+02  0.46513574672E+02  0.48391781247E+02  0.00000000000E+00 0.  1.
</event>
<event>
 6    1  0.1383644E-005  0.5098074E+02  0.7818608E-02  0.1450780E+00
          2   -1    0    0  502    0  0.00000000000E+00  0.00000000000E+00  0.27078090574E+03  0.27078090574E+03  0.00000000000E+00 0.  1.
          1   -1    0    0  501    0 -0.00000000000E+00 -0.00000000000E+00 -0.10311189029E+03  0.10311189029E+03  0.00000000000E+00 0.  1.
          2    1    1    2  501    0 -0.14084940444E+02  0.29064228713E+02  0.16499632441E+03  0.16812763606E+03  0.00000000000E+00 0.  1.
          1    1    1    2  502    0 -0.16014829843E+02 -0.68246823545E+02  0.21957811500E+02  0.73459166785E+02  0.00000000000E+00 0.  1.
         22    1    1    2    0    0  0.36286613362E+02  0.24040356099E+02 -0.68100538103E+02  0.80822894779E+02  0.00000000000E+00 0.  1.
         22    1    1    2    0    0 -0.61868430751E+01  0.15142238732E+02  0.48815417648E+02  0.51483098403E+02  0.00000000000E+00 0. -1.
</event>
<event>
 6    1  0.1383644E-005  0.3184527E+02  0.7818608E-02  0.1602329E+00
          2   -1    0    0  502    0  0.00000000000E+00  0.00000000000E+00  0.38380512030E+02  0.38380512030E+02  0.00000000000E+00 0. -1.
          1   -1    0    0  501    0 -0.00000000000E+00 -0.00000000000E+00 -0.27264319860E+03  0.27264319860E+03  0.00000000000E+00 0.  1.
          2    1    1    2  501    0 -0.27866972421E+02  0.27234287346E+02 -0.35883878188E+02  0.52971004077E+02  0.00000000000E+00 0. -1.
          1    1    1    2  502    0  0.31826122401E+02 -0.29803688561E+01 -0.26278093026E+02  0.41380222796E+02  0.00000000000E+00 0.  1.
         22    1    1    2    0    0 -0.27170199975E+02 -0.18839840363E+02 -0.18611134306E+03  0.18902537229E+03  0.00000000000E+00 0. -1.
         22    1    1    2    0    0  0.23211049994E+02 -0.54140781265E+01  0.14010627707E+02  0.27647111469E+02  0.00000000000E+00 0.  1.
</event>
<event>
 6    1  0.1383644E-005  0.2164157E+03  0.7818608E-02  0.1265562E+00
          2   -1    0    0  502    0  0.00000000000E+00  0.00000000000E+00  0.72011578220E+03  0.72011578220E+03  0.00000000000E+00 0.  1.
          1   -1    0    0  501    0 -0.00000000000E+00 -0.00000000000E+00 -0.21923914298E+03  0.21923914298E+03  0.00000000000E+00 0.  1.
          2    1    1    2  501    0  0.15658386214E+03  0.82698783101E+02  0.48819608547E+03  0.51931975937E+03  0.00000000000E+00 0.  1.
          1    1    1    2  502    0 -0.17060710343E+03 -0.12855274663E+03 -0.10991911987E+03  0.24023905869E+03  0.00000000000E+00 0.  1.
         22    1    1    2    0    0 -0.26421876571E+01  0.12831663804E+02 -0.24680477301E+02  0.27942059898E+02  0.00000000000E+00 0. -1.
         22    1    1    2    0    0  0.16665428944E+02  0.33022299723E+02  0.14728015093E+03  0.15185404722E+03  0.00000000000E+00 0. -1.
</event>
<event>
 6    1  0.1383644E-005  0.1428410E+03  0.7818608E-02  0.1302464E+00
          2   -1    0    0  502    0  0.00000000000E+00  0.00000000000E+00  0.73787018632E+03  0.73787018632E+03  0.00000000000E+00 0.  1.
          1   -1    0    0  501    0 -0.00000000000E+00 -0.00000000000E+00 -0.10823341704E+03  0.10823341704E+03  0.00000000000E+00 0.  1.
          2    1    1    2  501    0 -0.11344117207E+03  0.44585587205E+02  0.38614126755E+03  0.40492203275E+03  0.00000000000E+00 0.  1.
          1    1    1    2  502    0  0.14650610095E+03 -0.55506040803E+02  0.26880490336E+03  0.31112864582E+03  0.00000000000E+00 0.  1.
         22    1    1    2    0    0 -0.13604951961E+02 -0.71407186511E+00  0.49782417055E+02  0.51612921486E+02  0.00000000000E+00 0. -1.
         22    1    1    2    0    0 -0.19459976915E+02  0.11634525463E+02 -0.75091818685E+02  0.78440003300E+02  0.00000000000E+00 0.  1.
</event>
<event>
 6    1  0.1383644E-005  0.2302239E+03  0.7818608E-02  0.1260586E+00
          2   -1    0    0  502    0  0.00000000000E+00  0.00000000000E+00  0.12272707385E+04  0.12272707385E+04  0.00000000000E+00 0. -1.
          1   -1    0    0  501    0 -0.00000000000E+00 -0.00000000000E+00 -0.46312196383E+02  0.46312196383E+02  0.00000000000E+00 0. -1.
          2    1    1    2  501    0  0.22957980215E+02  0.10135201928E+03  0.24977075002E+03  0.27052676065E+03  0.00000000000E+00 0. -1.
          1    1    1    2  502    0 -0.12127807954E+03 -0.16278653210E+03  0.44916054087E+03  0.49290264666E+03  0.00000000000E+00 0. -1.
         22    1    1    2    0    0  0.10208041218E+03  0.72824336576E+02  0.48211852886E+03  0.49815867995E+03  0.00000000000E+00 0.  1.
         22    1    1    2    0    0 -0.37603128549E+01 -0.11389823751E+02 -0.91277616493E-01  0.11994847621E+02  0.00000000000E+00 0.  1.
</event>
<event>
 6    1  0.1383644E-005  0.6357494E+02  0.7818608E-02  0.1387290E+00
          2   -1    0    0  502    0  0.00000000000E+00  0.00000000000E+00  0.14919977857E+03  0.14919977857E+03  0.00000000000E+00 0. -1.
          1   -1    0    0  501    0 -0.00000000000E+00 -0.00000000000E+00 -0.20907005670E+03  0.20907005670E+03  0.00000000000E+00 0. -1.
          2    1    1    2  501    0  0.40517791217E+02 -0.47290578224E+01  0.80446551835E+02  0.90198132437E+02  0.00000000000E+00 0. -1.
          1    1    1    2  502    0 -0.44068899721E+02 -0.87642516834E+01 -0.12993837191E+03  0.13748767409E+03  0.00000000000E+00 0. -1.
         22    1    1    2    0    0 -0.13109026059E+02 -0.14284116088E+01 -0.67742569457E+02  0.69014075670E+02  0.00000000000E+00 0. -1.
         22    1    1    2    0    0  0.16660134563E+02  0.14921721115E+02  0.57364111403E+02  0.61569953075E+02  0.00000000000E+00 0. -1.
</event>
<event>
 6    1  0.1383644E-005  0.5959814E+02  0.7818608E-02  0.1423539E+00
          2   -1    0    0  502    0  0.00000000000E+00  0.00000000000E+00  0.26416830941E+03  0.26416830941E+03  0.00000000000E+00 0. -1.
          1   -1    0    0  501    0 -0.00000000000E+00 -0.00000000000E+00 -0.59925105601E+02  0.59925105601E+02  0.00000000000E+00 0. -1.
          2    1    1    2  501    0 -0.12024076303E+02 -0.45430443965E+02  0.10844701320E+03  0.11819161697E+03  0.00000000000E+00 0. -1.
          1    1    1    2  502    0 -0.81672477659E+01  0.37022635590E+02  0.66094466662E+02  0.76196181042E+02  0.00000000000E+00 0. -1.
         22    1    1    2    0    0  0.15628838339E+02 -0.32342234417E+02  0.65870958622E+02  0.75028420647E+02  0.00000000000E+00 0.  1.
         22    1    1    2    0    0  0.45624857302E+01  0.40750042792E+02 -0.36169234678E+02  0.54677196351E+02  0.00000000000E+00 0. -1.
</event>
<event>
 6    1  0.2798005E-005  0.6006517E+02  0.7818608E-02  0.1421370E+00
          2   -1    0    0  502    0  0.00000000000E+00  0.00000000000E+00  0.17362313663E+03  0.17362313663E+03  0.00000000000E+00 0.  1.
          1   -1    0    0  501    0 -0.00000000000E+00 -0.00000000000E+00 -0.78111229626E+03  0.78111229626E+03  0.00000000000E+00 0.  1.
          2    1    1    2  501    0 -0.39527538595E+02 -0.12451437877E+03  0.38496305356E+02  0.13619185862E+03  0.00000000000E+00 0.  1.
          1    1    1    2  502    0  0.64321193403E+02  0.13905396724E+03 -0.67158531797E+03  0.68883964828E+03  0.00000000000E+00 0.  1.
         22    1    1    2    0    0 -0.14805672245E+02  0.70453612201E+01 -0.48860013383E+02  0.51537810907E+02  0.00000000000E+00 0.  1.
         22    1    1    2    0    0 -0.99879825626E+01 -0.21584949685E+02  0.74459866368E+02  0.78166115089E+02  0.00000000000E+00 0.  1.
</event>
<event>
 6    1  0.1383644E-005  0.5227189E+02  0.7818608E-02  0.1478042E+00
          2   -1    0    0  502    0  0.00000000000E+00  0.00000000000E+00  0.46095400166E+03  0.46095400166E+03  0.00000000000E+00 0. -1.
          1   -1    0    0  501    0 -0.00000000000E+00 -0.00000000000E+00 -0.52005175660E+02  0.52005175660E+02  0.00000000000E+00 0. -1.
          2    1    1    2  501    0 -0.19259030720E+02  0.44935745745E+02  0.20468874717E+03  0.21044622764E+03  0.00000000000E+00 0. -1.
          1    1    1    2  502    0  0.87043577870E+01 -0.75471922214E+02  0.12762616950E+03  0.14852681922E+03  0.00000000000E+00 0. -1.
         22    1    1    2    0    0 -0.24293929317E+02 -0.18027466008E+01  0.98636080989E+02  0.10159980989E+03  0.00000000000E+00 0. -1.
         22    1    1    2    0    0  0.34848602249E+02  0.32338923070E+02 -0.22002171665E+02  0.52386320562E+02  0.00000000000E+00 0.  1.
</event>
<event>
 6    1  0.1383644E-005  0.1551388E+03  0.7818608E-02  0.1284250E+00
          2   -1    0    0  502    0  0.00000000000E+00  0.00000000000E+00  0.93389862844E+03  0.93389862844E+03  0.00000000000E+00 0. -1.
          1   -1    0    0  501    0 -0.00000000000E+00 -0.00000000000E+00 -0.82988723512E+02  0.82988723512E+02  0.00000000000E+00 0. -1.
          2    1    1    2  501    0 -0.15124949627E+03  0.37564507815E+02  0.22129202039E+03  0.27066152415E+03  0.00000000000E+00 0. -1.
          1    1    1    2  502    0  0.16515818430E+03 -0.15754284597E+03  0.37612564901E+03  0.43996304163E+03  0.00000000000E+00 0. -1.
         22    1    1    2    0    0 -0.17264995311E+01 -0.21852641988E+02  0.97403309454E+01  0.23987346861E+02  0.00000000000E+00 0.  1.
         22    1    1    2    0    0 -0.12182188501E+02  0.14183098015E+03  0.24375190459E+03  0.28227543930E+03  0.00000000000E+00 0.  1.
</event>
<event>
 6    1  0.1383644E-005  0.7587252E+02  0.7818608E-02  0.1419824E+00
          2   -1    0    0  502    0  0.00000000000E+00  0.00000000000E+00  0.11831564459E+04  0.11831564459E+04  0.00000000000E+00 0.  1.
          1   -1    0    0  501    0 -0.00000000000E+00 -0.00000000000E+00 -0.11962441999E+03  0.11962441999E+03  0.00000000000E+00 0.  1.
          2    1    1    2  501    0 -0.13583541307E+02  0.44107848239E+02  0.94207661977E+03  0.94320643148E+03  0.00000000000E+00 0.  1.
          1    1    1    2  502    0 -0.14524132886E+01 -0.45241585825E+02  0.20262694924E+03  0.20762126854E+03  0.00000000000E+00 0.  1.
         22    1    1    2    0    0 -0.23636907228E+01 -0.10694484081E+02  0.33563342543E+02  0.35305197723E+02  0.00000000000E+00 0.  1.
         22    1    1    2    0    0  0.17399645318E+02  0.11828221666E+02 -0.11473488566E+03  0.11664796814E+03  0.00000000000E+00 0.  1.
</event>
<event>
 6    1  0.1383644E-005  0.5774291E+02  0.7818608E-02  0.1413309E+00
          2   -1    0    0  502    0  0.00000000000E+00  0.00000000000E+00  0.15975428382E+03  0.15975428382E+03  0.00000000000E+00 0. -1.
          1   -1    0    0  501    0 -0.00000000000E+00 -0.00000000000E+00 -0.17750973609E+03  0.17750973609E+03  0.00000000000E+00 0. -1.
          2    1    1    2  501    0 -0.35347038241E+02 -0.60654171370E+01  0.68285015153E+02  0.77130056994E+02  0.00000000000E+00 0. -1.
          1    1    1    2  502    0  0.23849495357E+02 -0.39370747631E+02 -0.11301761091E+03  0.12203210468E+03  0.00000000000E+00 0. -1.
         22    1    1    2    0    0 -0.21741554430E+02  0.44278495357E+01  0.67820900185E+02  0.71358079728E+02  0.00000000000E+00 0. -1.
         22    1    1    2    0    0  0.33239097313E+02  0.41008315232E+02 -0.40843756702E+02  0.66743778511E+02  0.00000000000E+00 0. -1.
</event>
<event>
 6    1  0.1383644E-005  0.9186959E+02  0.7818608E-02  0.1300438E+00
          2   -1    0    0  502    0  0.00000000000E+00  0.00000000000E+00  0.22936706939E+03  0.22936706939E+03  0.00000000000E+00 0. -1.
          1   -1    0    0  501    0 -0.00000000000E+00 -0.00000000000E+00 -0.78809166160E+02  0.78809166160E+02  0.00000000000E+00 0. -1.
          2    1    1    2  501    0  0.28117009719E+02  0.26736754267E+02  0.50844636594E+02  0.63957777750E+02  0.00000000000E+00 0. -1.
          1    1    1    2  502    0 -0.58429669447E+02 -0.32723191067E+02 -0.17832552172E+02  0.69302477750E+02  0.00000000000E+00 0. -1.
         22    1    1    2    0    0 -0.15599690490E+02 -0.66483279175E+01 -0.21822807414E+02  0.27636670040E+02  0.00000000000E+00 0. -1.
         22    1    1    2    0    0  0.45912350218E+02  0.12634764718E+02  0.13936862622E+03  0.14727931001E+03  0.00000000000E+00 0. -1.
</event>
<event>
 6    1  0.1383644E-005  0.7558042E+02  0.7818608E-02  0.1375203E+00
          2   -1    0    0  502    0  0.00000000000E+00  0.00000000000E+00  0.49269586411E+02  0.49269586411E+02  0.00000000000E+00 0.  1.
          1   -1    0    0  501    0 -0.00000000000E+00 -0.00000000000E+00 -0.16658537699E+04  0.16658537699E+04  0.00000000000E+00 0.  1.
          2    1    1    2  501    0  0.91879798830E+02 -0.11097599254E+03 -0.16958340434E+03  0.22252213234E+03  0.00000000000E+00 0.  1.
          1    1    1    2  502    0 -0.11534382820E+03  0.77915116908E+02 -0.12460903081E+04  0.12538405082E+04  0.00000000000E+00 0.  1.
         22    1    1    2    0    0  0.20836754498E+02 -0.40371807209E+01  0.10796079091E+02  0.23812276034E+02  0.00000000000E+00 0.  1.
         22    1    1    2    0    0  0.26272748723E+01  0.37098056355E+02 -0.21170655014E+03  0.21494843971E+03  0.00000000000E+00 0.  1.
</event>
<event>
 6    1  0.1383644E-005  0.7277918E+02  0.7818608E-02  0.1415670E+00
          2   -1    0    0  502    0  0.00000000000E+00  0.00000000000E+00  0.52135975706E+03  0.52135975706E+03  0.00000000000E+00 0.  1.
          1   -1    0    0  501    0 -0.00000000000E+00 -0.00000000000E+00 -0.12112046123E+03  0.12112046123E+03  0.00000000000E+00 0. -1.
          2    1    1    2  501    0 -0.43638641674E+02 -0.26281016969E+02  0.42557812300E+03  0.42861610058E+03  0.00000000000E+00 0.  1.
          1    1    1    2  502    0  0.51447730523E+02  0.10700729010E+02 -0.58789319085E+02  0.78851497232E+02  0.00000000000E+00 0. -1.
         22    1    1    2    0    0  0.15484250297E+02  0.54124278185E+01 -0.47454499708E+02  0.50209420676E+02  0.00000000000E+00 0. -1.
         22    1    1    2    0    0 -0.23293339146E+02  0.10167860141E+02  0.80904991619E+02  0.84803199806E+02  0.00000000000E+00 0.  1.
</event>
<event>
 6    1  0.1383644E-005  0.1197682E+03  0.7818608E-02  0.1283465E+00
          2   -1    0    0  502    0  0.00000000000E+00  0.00000000000E+00  0.18554576186E+04  0.18554576186E+04  0.00000000000E+00 0.  1.
          1   -1    0    0  501    0 -0.00000000000E+00 -0.00000000000E+00 -0.40643142228E+03  0.40643142228E+03  0.00000000000E+00 0.  1.
          2    1    1    2  501    0  0.57449129530E+03 -0.42192037328E+02  0.14567542614E+04  0.15665099408E+04  0.00000000000E+00 0.  1.
          1    1    1    2  502    0 -0.53778154294E+03  0.44975124033E+02 -0.81687759457E+02  0.54580641235E+03  0.00000000000E+00 0.  1.
         22    1    1    2    0    0 -0.25234146788E+02 -0.58209413290E+01  0.10928224948E+03  0.11230875110E+03  0.00000000000E+00 0.  1.
         22    1    1    2    0    0 -0.11475605563E+02  0.30378546246E+01 -0.35322555058E+02  0.37263936716E+02  0.00000000000E+00 0.  1.
</event>
<event>
 6    1  0.1383644E-005  0.3725994E+02  0.7818608E-02  0.1632961E+00
          2   -1    0    0  502    0  0.00000000000E+00  0.00000000000E+00  0.27597598629E+03  0.27597598629E+03  0.00000000000E+00 0.  1.
          1   -1    0    0  501    0 -0.00000000000E+00 -0.00000000000E+00 -0.91131351557E+02  0.91131351557E+02  0.00000000000E+00 0.  1.
          2    1    1    2  501    0 -0.40119269546E+01 -0.23829672591E+02  0.20465160501E+03  0.20607335656E+03  0.00000000000E+00 0.  1.
          1    1    1    2  502    0 -0.46767706611E+01  0.26311070011E+02 -0.25416042215E+02  0.36879801936E+02  0.00000000000E+00 0.  1.
         22    1    1    2    0    0  0.40425302737E+01 -0.11760711126E+02  0.63822591287E+02  0.65022915467E+02  0.00000000000E+00 0. -1.
         22    1    1    2    0    0  0.46461673420E+01  0.92793137058E+01 -0.58213519344E+02  0.59131263882E+02  0.00000000000E+00 0.  1.
</event>
<event>
 6    1  0.1383644E-005  0.6571807E+02  0.7818608E-02  0.1480503E+00
          2   -1    0    0  502    0  0.00000000000E+00  0.00000000000E+00  0.19826963757E+03  0.19826963757E+03  0.00000000000E+00 0.  1.
          1   -1    0    0  501    0 -0.00000000000E+00 -0.00000000000E+00 -0.75749653047E+02  0.75749653047E+02  0.00000000000E+00 0.  1.
          2    1    1    2  501    0  0.20663444675E+02 -0.44322529327E+01  0.96973659724E+02  0.99249753109E+02  0.00000000000E+00 0.  1.
          1    1    1    2  502    0  0.74394865517E+01  0.29018096392E+02 -0.24991963529E+02  0.39012743038E+02  0.00000000000E+00 0.  1.
         22    1    1    2    0    0 -0.69061366693E+01  0.11295124604E+02 -0.36732881175E+02  0.39045859229E+02  0.00000000000E+00 0.  1.
         22    1    1    2    0    0 -0.21196794558E+02 -0.35880968063E+02  0.87271169506E+02  0.96710935244E+02  0.00000000000E+00 0.  1.
</event>
<event>
 6    1  0.1383644E-005  0.1400880E+03  0.7818608E-02  0.1310759E+00
          2   -1    0    0  502    0  0.00000000000E+00  0.00000000000E+00  0.59181690089E+03  0.59181690089E+03  0.00000000000E+00 0.  1.
          1   -1    0    0  501    0 -0.00000000000E+00 -0.00000000000E+00 -0.71265299335E+02  0.71265299335E+02  0.00000000000E+00 0.  1.
          2    1    1    2  501    0  0.79290741997E+02  0.46944105744E+02  0.25835602234E+03  0.27429656416E+03  0.00000000000E+00 0.  1.
          1    1    1    2  502    0 -0.10436748644E+03 -0.75632887278E+02  0.47296699537E+02  0.13729487846E+03  0.00000000000E+00 0.  1.
         22    1    1    2    0    0 -0.16532394191E+02  0.12389910328E+02 -0.94614693634E+01  0.22723321460E+02  0.00000000000E+00 0.  1.
         22    1    1    2    0    0  0.41609138633E+02  0.16298871205E+02  0.22436034904E+03  0.22876743615E+03  0.00000000000E+00 0. -1.
</event>
<event>
 6    1  0.1383644E-005  0.9554719E+02  0.7818608E-02  0.1357582E+00
          2   -1    0    0  502    0  0.00000000000E+00  0.00000000000E+00  0.23783105836E+03  0.23783105836E+03  0.00000000000E+00 0.  1.
          1   -1    0    0  501    0 -0.00000000000E+00 -0.00000000000E+00 -0.50946224578E+02  0.50946224578E+02  0.00000000000E+00 0.  1.
          2    1    1    2  501    0 -0.24189072213E+02  0.12655601907E+02  0.11536212177E+02  0.29637133221E+02  0.00000000000E+00 0.  1.
          1    1    1    2  502    0  0.10668054405E+02 -0.56992097693E+02  0.60803053236E+02  0.84017366461E+02  0.00000000000E+00 0.  1.
         22    1    1    2    0    0  0.11184086171E+02  0.72955364307E+02  0.12449875365E+03  0.14473254169E+03  0.00000000000E+00 0.  1.
         22    1    1    2    0    0  0.23369316380E+01 -0.28618868521E+02 -0.99531852819E+01  0.30390241562E+02  0.00000000000E+00 0.  1.
</event>
<event>
 6    1  0.1383644E-005  0.8202456E+02  0.7818608E-02  0.1356102E+00
          2   -1    0    0  502    0  0.00000000000E+00  0.00000000000E+00  0.14340650283E+03  0.14340650283E+03  0.00000000000E+00 0.  1.
          1   -1    0    0  501    0 -0.00000000000E+00 -0.00000000000E+00 -0.29114123526E+03  0.29114123526E+03  0.00000000000E+00 0.  1.
          2    1    1    2  501    0  0.96932809639E+01  0.22428418639E+02  0.55936570865E+01  0.25065567181E+02  0.00000000000E+00 0.  1.
          1    1    1    2  502    0  0.30356660391E+02 -0.97973176902E+02 -0.22085152292E+03  0.24350701304E+03  0.00000000000E+00 0.  1.
         22    1    1    2    0    0 -0.25290480377E+02  0.39061845546E+02 -0.33644074293E+02  0.57422642836E+02  0.00000000000E+00 0.  1.
         22    1    1    2    0    0 -0.14759460978E+02  0.36482912717E+02  0.10116720769E+03  0.10855251504E+03  0.00000000000E+00 0. -1.
</event>
<event>
 6    1  0.1383644E-005  0.4606271E+02  0.7818608E-02  0.1523863E+00
          2   -1    0    0  502    0  0.00000000000E+00  0.00000000000E+00  0.17828791694E+03  0.17828791694E+03  0.00000000000E+00 0. -1.
          1   -1    0    0  501    0 -0.00000000000E+00 -0.00000000000E+00 -0.13320134888E+03  0.13320134888E+03  0.00000000000E+00 0. -1.
          2    1    1    2  501    0  0.33518310141E+02  0.26087370292E+02  0.90264633943E+02  0.99758368793E+02  0.00000000000E+00 0. -1.
          1    1    1    2  502    0  0.10460380069E+02 -0.65359324342E+02 -0.31348362972E+02  0.73239201870E+02  0.00000000000E+00 0. -1.
         22    1    1    2    0    0 -0.70254734626E+01  0.18577635875E+02  0.54552614828E+02  0.58055780218E+02  0.00000000000E+00 0. -1.
         22    1    1    2    0    0 -0.36953216748E+02  0.20694318175E+02 -0.68382317740E+02  0.80435914940E+02  0.00000000000E+00 0. -1.
</event>
<event>
 6    1  0.1383644E-005  0.8567558E+02  0.7818608E-02  0.1355350E+00
          2   -1    0    0  502    0  0.00000000000E+00  0.00000000000E+00  0.66254768883E+03  0.66254768883E+03  0.00000000000E+00 0.  1.
          1   -1    0    0  501    0 -0.00000000000E+00 -0.00000000000E+00 -0.15814424879E+03  0.15814424879E+03  0.00000000000E+00 0.  1.
          2    1    1    2  501    0  0.10959231797E+02  0.10625054710E+03  0.59988717084E+03  0.60932249365E+03  0.00000000000E+00 0.  1.
          1    1    1    2  502    0 -0.23348526254E+02 -0.24918112099E+02 -0.39903397803E+02  0.52519969012E+02  0.00000000000E+00 0.  1.
         22    1    1    2    0    0 -0.12342401484E+02 -0.48183436466E+02 -0.91451289973E+02  0.10410243447E+03  0.00000000000E+00 0.  1.
         22    1    1    2    0    0  0.24731695941E+02 -0.33148998539E+02  0.35870956970E+02  0.54747040488E+02  0.00000000000E+00 0.  1.
</event>
<event>
 6    1  0.1383644E-005  0.8595060E+02  0.7818608E-02  0.1388035E+00
          2   -1    0    0  502    0  0.00000000000E+00  0.00000000000E+00  0.14396246213E+03  0.14396246213E+03  0.00000000000E+00 0. -1.
          1   -1    0    0  501    0 -0.00000000000E+00 -0.00000000000E+00 -0.21446446800E+03  0.21446446800E+03  0.00000000000E+00 0.  1.
          2    1    1    2  501    0  0.63123874331E+02  0.28085502457E+02  0.84802916715E+02  0.10938443053E+03  0.00000000000E+00 0. -1.
          1    1    1    2  502    0 -0.56956789413E+02 -0.31293205681E+02 -0.44205443377E+02  0.78596830764E+02  0.00000000000E+00 0.  1.
         22    1    1    2    0    0 -0.19251120958E+02 -0.14120976288E+02 -0.13561287061E+03  0.13769843247E+03  0.00000000000E+00 0.  1.
         22    1    1    2    0    0  0.13084036041E+02  0.17328679512E+02  0.24513391396E+02  0.32747236379E+02  0.00000000000E+00 0. -1.
</event>
<event>
 6    1  0.1712220E-005  0.8887325E+02  0.7818608E-02  0.1372333E+00
          2   -1    0    0  502    0  0.00000000000E+00  0.00000000000E+00  0.26543716607E+03  0.26543716607E+03  0.00000000000E+00 0. -1.
          1   -1    0    0  501    0 -0.00000000000E+00 -0.00000000000E+00 -0.34222279610E+03  0.34222279610E+03  0.00000000000E+00 0. -1.
          2    1    1    2  501    0 -0.20728985848E+02 -0.10976733316E+02  0.17438091744E+02  0.29227838994E+02  0.00000000000E+00 0. -1.
          1    1    1    2  502    0  0.13121209636E+02  0.74552859463E+02 -0.31158735210E+03  0.32065085839E+03  0.00000000000E+00 0. -1.
         22    1    1    2    0    0 -0.10546075583E+02 -0.25827896694E+02 -0.76294096532E+01  0.28922445427E+02  0.00000000000E+00 0. -1.
         22    1    1    2    0    0  0.18153851796E+02 -0.37748229453E+02  0.22499303997E+03  0.22885881936E+03  0.00000000000E+00 0. -1.
</event>
<event>
 6    1  0.1383644E-005  0.5403198E+02  0.7818608E-02  0.1525845E+00
          2   -1    0    0  502    0  0.00000000000E+00  0.00000000000E+00  0.36378163013E+03  0.36378163013E+03  0.00000000000E+00 0. -1.
          1   -1    0    0  501    0 -0.00000000000E+00 -0.00000000000E+00 -0.50153748300E+02  0.50153748300E+02  0.00000000000E+00 0.  1.
          2    1    1    2  501    0  0.22356011725E+02  0.12828490514E+02  0.18873625388E+03  0.19048814913E+03  0.00000000000E+00 0. -1.
          1    1    1    2  502    0 -0.20470146295E+02 -0.35400062310E+02 -0.83096731287E+01  0.41728191530E+02  0.00000000000E+00 0.  1.
         22    1    1    2    0    0  0.10290917848E+02  0.26540564465E+02  0.15437268912E+03  0.15697525824E+03  0.00000000000E+00 0. -1.
         22    1    1    2    0    0 -0.12176783278E+02 -0.39689926702E+01 -0.21171388046E+02  0.24743779533E+02  0.00000000000E+00 0.  1.
</event>
<event>
 6    1  0.1383644E-005  0.8947336E+02  0.7818608E-02  0.1385713E+00
          2   -1    0    0  502    0  0.00000000000E+00  0.00000000000E+00  0.16868238627E+03  0.16868238627E+03  0.00000000000E+00 0.  1.
          1   -1    0    0  501    0 -0.00000000000E+00 -0.00000000000E+00 -0.18699157567E+03  0.18699157567E+03  0.00000000000E+00 0. -1.
          2    1    1    2  501    0 -0.26441003905E+02 -0.55104359484E+02  0.10476424240E+03  0.12128958574E+03  0.00000000000E+00 0.  1.
          1    1    1    2  502    0  0.45959986351E+02  0.51537169718E+02 -0.55049742003E+02  0.88311235427E+02  0.00000000000E+00 0. -1.
         22    1    1    2    0    0 -0.24139777303E+02 -0.17914165592E+02  0.31858918058E+02  0.43802246939E+02  0.00000000000E+00 0.  1.
         22    1    1    2    0    0  0.46207948567E+01  0.21481355357E+02 -0.99882607858E+02  0.10227089383E+03  0.00000000000E+00 0. -1.
</event>
<event>
 6    1  0.1383644E-005  0.4540030E+02  0.7818608E-02  0.1529633E+00
          2   -1    0    0  502    0  0.00000000000E+00  0.00000000000E+00  0.16442940028E+03  0.16442940028E+03  0.00000000000E+00 0.  1.
          1   -1    0    0  501    0 -0.00000000000E+00 -0.00000000000E+00 -0.13782628162E+03  0.13782628162E+03  0.00000000000E+00 0.  1.
          2    1    1    2  501    0  0.47726621798E+02 -0.40615257438E+02  0.35604867221E+02  0.72077292783E+02  0.00000000000E+00 0.  1.
          1    1    1    2  502    0 -0.47927665396E+02  0.60904006473E+02 -0.53047228231E+02  0.93916811795E+02  0.00000000000E+00 0.  1.
         22    1    1    2    0    0 -0.11414086679E+02  0.40175096897E+01 -0.43246432684E+02  0.44907412514E+02  0.00000000000E+00 0. -1.
         22    1    1    2    0    0  0.11615130277E+02 -0.24306258724E+02  0.87291912352E+02  0.91354164801E+02  0.00000000000E+00 0.  1.
</event>
<event>
 6    1  0.1383644E-005  0.9138603E+02  0.7818608E-02  0.1373868E+00
          2   -1    0    0  502    0  0.00000000000E+00  0.00000000000E+00  0.42038507345E+02  0.42038507345E+02  0.00000000000E+00 0. -1.
          1   -1    0    0  501    0 -0.00000000000E+00 -0.00000000000E+00 -0.71692719308E+03  0.71692719308E+03  0.00000000000E+00 0.  1.
          2    1    1    2  501    0 -0.39080731699E+02  0.13209582562E+02 -0.27272737931E+02  0.49452996834E+02  0.00000000000E+00 0. -1.
          1    1    1    2  502    0  0.58043327043E+02 -0.10632665532E+02 -0.53565494739E+03  0.53889544817E+03  0.00000000000E+00 0.  1.
         22    1    1    2    0    0  0.23753457620E+02  0.78541125531E+01 -0.12280592539E+03  0.12532840518E+03  0.00000000000E+00 0. -1.
         22    1    1    2    0    0 -0.42716052965E+02 -0.10431029584E+02  0.10844924978E+02  0.45288850248E+02  0.00000000000E+00 0. -1.
</event>
<event>
 6    1  0.1383644E-005  0.9174728E+02  0.7818608E-02  0.1333826E+00
          2   -1    0    0  502    0  0.00000000000E+00  0.00000000000E+00  0.10182247861E+03  0.10182247861E+03  0.00000000000E+00 0. -1.
          1   -1    0    0  501    0 -0.00000000000E+00 -0.00000000000E+00 -0.39990121630E+03  0.39990121630E+03  0.00000000000E+00 0.  1.
          2    1    1    2  501    0  0.74596489782E+02 -0.14605630304E+02  0.20148011724E+02  0.78637796897E+02  0.00000000000E+00 0. -1.
          1    1    1    2  502    0 -0.64158260334E+02 -0.35099333233E+02 -0.27654716914E+03  0.28605346060E+03  0.00000000000E+00 0.  1.
         22    1    1    2    0    0 -0.21308894925E+02  0.21584106020E+01 -0.74977455951E+02  0.77976577510E+02  0.00000000000E+00 0. -1.
         22    1    1    2    0    0  0.10870665477E+02  0.47546552935E+02  0.33297875675E+02  0.59055859898E+02  0.00000000000E+00 0. -1.
</event>
<event>
 6    1  0.1383644E-005  0.1015591E+03  0.7818608E-02  0.1338080E+00
          2   -1    0    0  502    0  0.00000000000E+00  0.00000000000E+00  0.59585996199E+03  0.59585996199E+03  0.00000000000E+00 0.  1.
          1   -1    0    0  501    0 -0.00000000000E+00 -0.00000000000E+00 -0.63647854551E+02  0.63647854551E+02  0.00000000000E+00 0.  1.
          2    1    1    2  501    0 -0.95327917172E+02  0.22404027153E+02  0.30304571464E+03  0.31847457887E+03  0.00000000000E+00 0.  1.
          1    1    1    2  502    0  0.81151785109E+02 -0.12840969605E+02  0.19342435075E+03  0.21015109372E+03  0.00000000000E+00 0.  1.
         22    1    1    2    0    0  0.33248396551E+02 -0.30549129895E+01 -0.40231371105E+02  0.52281465048E+02  0.00000000000E+00 0.  1.
         22    1    1    2    0    0 -0.19072264488E+02 -0.65081445584E+01  0.75973413151E+02  0.78600678904E+02  0.00000000000E+00 0.  1.
</event>
<event>
 6    1  0.1383644E-005  0.2375407E+03  0.7818608E-02  0.1233935E+00
          2   -1    0    0  502    0  0.00000000000E+00  0.00000000000E+00  0.10537300442E+04  0.10537300442E+04  0.00000000000E+00 0. -1.
          1   -1    0    0  501    0 -0.00000000000E+00 -0.00000000000E+00 -0.22014011454E+03  0.22014011454E+03  0.00000000000E+00 0. -1.
          2    1    1    2  501    0 -0.14858789759E+03 -0.83343341275E+02 -0.64962289492E+02  0.18233094883E+03  0.00000000000E+00 0. -1.
          1    1    1    2  502    0  0.18259543223E+03  0.10513434853E+03  0.93168038981E+03  0.95520818247E+03  0.00000000000E+00 0. -1.
         22    1    1    2    0    0 -0.48153432949E+02 -0.96474670604E+01  0.38445627188E+02  0.62369006528E+02  0.00000000000E+00 0. -1.
         22    1    1    2    0    0  0.14145898308E+02 -0.12143540190E+02 -0.71573797814E+02  0.73962020935E+02  0.00000000000E+00 0. -1.
</event>
<event>
 6    1  0.1383644E-005  0.4302704E+03  0.7818608E-02  0.1160176E+00
          2   -1    0    0  502    0  0.00000000000E+00  0.00000000000E+00  0.36311893338E+03  0.36311893338E+03  0.00000000000E+00 0. -1.
          1   -1    0    0  501    0 -0.00000000000E+00 -0.00000000000E+00 -0.68174854005E+03  0.68174854005E+03  0.00000000000E+00 0. -1.
          2    1    1    2  501    0 -0.16963373307E+03 -0.51133907750E+02 -0.26025883640E+03  0.31484113747E+03  0.00000000000E+00 0. -1.
          1    1    1    2  502    0  0.30502706273E+03  0.24180304090E+03  0.12351509714E+03  0.40837017375E+03  0.00000000000E+00 0. -1.
         22    1    1    2    0    0  0.15479360023E+02  0.27360778891E+01 -0.27936932181E+02  0.32055715381E+02  0.00000000000E+00 0. -1.
         22    1    1    2    0    0 -0.15087268967E+03 -0.19340521104E+03 -0.15394893523E+03  0.28960044684E+03  0.00000000000E+00 0. -1.
</event>
<event>
 6    1  0.1383644E-005  0.4849975E+02  0.7818608E-02  0.1518558E+00
          2   -1    0    0  502    0  0.00000000000E+00  0.00000000000E+00  0.13720700033E+03  0.13720700033E+03  0.00000000000E+00 0.  1.
          1   -1    0    0  501    0 -0.00000000000E+00 -0.00000000000E+00 -0.24286246193E+03  0.24286246193E+03  0.00000000000E+00 0.  1.
          2    1    1    2  501    0 -0.66188157432E+00  0.25061727307E+02  0.88889655546E+02  0.92357453007E+02  0.00000000000E+00 0.  1.
          1    1    1    2  502    0  0.53046154480E+02 -0.49283468664E+02 -0.79842208684E+02  0.10778466067E+03  0.00000000000E+00 0.  1.
         22    1    1    2    0    0 -0.19248488547E+02 -0.32194568073E+01  0.26161743800E+02  0.32639026519E+02  0.00000000000E+00 0.  1.
         22    1    1    2    0    0 -0.33135784360E+02  0.27441198164E+02 -0.14086465226E+03  0.14728832207E+03  0.00000000000E+00 0.  1.
</event>
<event>
 6    1  0.1383644E-005  0.4153291E+02  0.7818608E-02  0.1570439E+00
          2   -1    0    0  502    0  0.00000000000E+00  0.00000000000E+00  0.32355045150E+03  0.32355045150E+03  0.00000000000E+00 0. -1.
          1   -1    0    0  501    0 -0.00000000000E+00 -0.00000000000E+00 -0.15009894253E+03  0.15009894253E+03  0.00000000000E+00 0. -1.
          2    1    1    2  501    0  0.49264298886E+02 -0.25539948145E+02  0.25174557890E+03  0.25778886049E+03  0.00000000000E+00 0. -1.
          1    1    1    2  502    0 -0.21268902913E+02  0.16935133419E+02 -0.81880491134E+02  0.86276183292E+02  0.00000000000E+00 0. -1.
         22    1    1    2    0    0 -0.15401351826E+02  0.38591060240E+01  0.64898512121E+02  0.66812507908E+02  0.00000000000E+00 0. -1.
         22    1    1    2    0    0 -0.12594044147E+02  0.47457087022E+01 -0.61312090913E+02  0.62771842343E+02  0.00000000000E+00 0. -1.
</event>
<event>
 6    1  0.1383644E-005  0.6376174E+02  0.7818608E-02  0.1409159E+00
          2   -1    0    0  502    0  0.00000000000E+00  0.00000000000E+00  0.50235142042E+03  0.50235142042E+03  0.00000000000E+00 0.  1.
          1   -1    0    0  501    0 -0.00000000000E+00 -0.00000000000E+00 -0.10336182289E+03  0.10336182289E+03  0.00000000000E+00 0. -1.
          2    1    1    2  501    0 -0.83908056227E+01 -0.57603819217E+02  0.40720758059E+03  0.41134732198E+03  0.00000000000E+00 0.  1.
          1    1    1    2  502    0 -0.42065268709E+02  0.87483719151E+01 -0.21383285579E+02  0.47992350900E+02  0.00000000000E+00 0. -1.
         22    1    1    2    0    0  0.66883087357E+02  0.46155573024E+02 -0.40063489111E+02  0.90602248622E+02  0.00000000000E+00 0. -1.
         22    1    1    2    0    0 -0.16427013025E+02  0.26998742785E+01  0.53228791622E+02  0.55771321802E+02  0.00000000000E+00 0. -1.
</event>
<event>
 6    1  0.1383644E-005  0.4237650E+03  0.7818608E-02  0.1167695E+00
          2   -1    0    0  502    0  0.00000000000E+00  0.00000000000E+00  0.78681131596E+03  0.78681131596E+03  0.00000000000E+00 0.  1.
          1   -1    0    0  501    0 -0.00000000000E+00 -0.00000000000E+00 -0.14666550625E+04  0.14666550625E+04  0.00000000000E+00 0. -1.
          2    1    1    2  501    0 -0.35606457466E+03 -0.18260732439E+03  0.63424533208E+03  0.74992970171E+03  0.00000000000E+00 0.  1.
          1    1    1    2  502    0  0.38605099791E+03  0.19815441751E+03 -0.13056011191E+04  0.13758251445E+04  0.00000000000E+00 0. -1.
         22    1    1    2    0    0 -0.10664376842E+02 -0.88040515023E+01 -0.65600959827E+02  0.67042719117E+02  0.00000000000E+00 0.  1.
         22    1    1    2    0    0 -0.19322046402E+02 -0.67430416176E+01  0.57113000267E+02  0.60668813132E+02  0.00000000000E+00 0. -1.
</event>
<event>
 6    1  0.1383644E-005  0.4717776E+02  0.7818608E-02  0.1560118E+00
          2   -1    0    0  502    0  0.00000000000E+00  0.00000000000E+00  0.42008814847E+03  0.42008814847E+03  0.00000000000E+00 0. -1.
          1   -1    0    0  501    0 -0.00000000000E+00 -0.00000000000E+00 -0.35586752442E+02  0.35586752442E+02  0.00000000000E+00 0.  1.
          2    1    1    2  501    0  0.21594272718E+02 -0.49856170603E+02  0.19232392660E+03  0.19985105230E+03  0.00000000000E+00 0. -1.
          1    1    1    2  502    0 -0.29076429089E+02  0.16788289501E+02  0.17501328821E+02  0.37862671636E+02  0.00000000000E+00 0.  1.
         22    1    1    2    0    0  0.27554744716E+01  0.44462522204E+02  0.19177261087E+03  0.19687875152E+03  0.00000000000E+00 0.  1.
         22    1    1    2    0    0  0.47266818995E+01 -0.11394641101E+02 -0.17096470265E+02  0.21082425457E+02  0.00000000000E+00 0.  1.
</event>
<event>
 6    1  0.1383644E-005  0.5045918E+02  0.7818608E-02  0.1490003E+00
          2   -1    0    0  502    0  0.00000000000E+00  0.00000000000E+00  0.93888834636E+02  0.93888834636E+02  0.00000000000E+00 0.  1.
          1   -1    0    0  501    0 -0.00000000000E+00 -0.00000000000E+00 -0.13872396513E+03  0.13872396513E+03  0.00000000000E+00 0.  1.
          2    1    1    2  501    0  0.18429470242E+02  0.21754503931E+02  0.45606611164E+02  0.53785377163E+02  0.00000000000E+00 0.  1.
          1    1    1    2  502    0 -0.23418631300E+02 -0.18701009850E+02 -0.20209342021E+02  0.36146612100E+02  0.00000000000E+00 0.  1.
         22    1    1    2    0    0 -0.17898344871E+02 -0.18302498563E+02 -0.99369572822E+02  0.10261405462E+03  0.00000000000E+00 0.  1.
         22    1    1    2    0    0  0.22887505928E+02  0.15249004482E+02  0.29137173189E+02  0.40066755880E+02  0.00000000000E+00 0.  1.
</event>
<event>
 6    1  0.1383644E-005  0.7324438E+02  0.7818608E-02  0.1356608E+00
          2   -1    0    0  502    0  0.00000000000E+00  0.00000000000E+00  0.52503153217E+03  0.52503153217E+03  0.00000000000E+00 0. -1.
          1   -1    0    0  501    0 -0.00000000000E+00 -0.00000000000E+00 -0.13695345622E+03  0.13695345622E+03  0.00000000000E+00 0. -1.
          2    1    1    2  501    0  0.49106190386E+02  0.18479947466E+02  0.40335450949E+03  0.40675273413E+03  0.00000000000E+00 0. -1.
          1    1    1    2  502    0 -0.44680524962E+02  0.59521226616E+02 -0.67013824332E+02  0.10014977973E+03  0.00000000000E+00 0. -1.
         22    1    1    2    0    0 -0.11976823525E+02 -0.87080067557E+02 -0.13371766416E+02  0.88911116316E+02  0.00000000000E+00 0. -1.
         22    1    1    2    0    0  0.75511581015E+01  0.90788934755E+01  0.65109157207E+02  0.66171358212E+02  0.00000000000E+00 0.  1.
</event>
<event>
 6    1  0.1383644E-005  0.6056624E+02  0.7818608E-02  0.1514436E+00
          2   -1    0    0  502    0  0.00000000000E+00  0.00000000000E+00  0.41375449906E+03  0.41375449906E+03  0.00000000000E+00 0. -1.
          1   -1    0    0  501    0 -0.00000000000E+00 -0.00000000000E+00 -0.32131379462E+02  0.32131379462E+02  0.00000000000E+00 0. -1.
          2    1    1    2  501    0  0.18687087017E+02 -0.82876847168E+01  0.77327595730E+02  0.79984060915E+02  0.00000000000E+00 0. -1.
          1    1    1    2  502    0 -0.59100038363E+02  0.31817244160E+02  0.12435365817E+03  0.14131165508E+03  0.00000000000E+00 0. -1.
         22    1    1    2    0    0  0.30152420034E+02 -0.20901700736E+02  0.19923283996E+03  0.20258275851E+03  0.00000000000E+00 0. -1.
         22    1    1    2    0    0  0.10260531312E+02 -0.26278587078E+01 -0.19290974255E+02  0.22007404025E+02  0.00000000000E+00 0. -1.
</event>
<event>
 6    1  0.1383644E-005  0.5724500E+02  0.7818608E-02  0.1492991E+00
          2   -1    0    0  502    0  0.00000000000E+00  0.00000000000E+00  0.43805138348E+03  0.43805138348E+03  0.00000000000E+00 0. -1.
          1   -1    0    0  501    0 -0.00000000000E+00 -0.00000000000E+00 -0.39649969730E+02  0.39649969730E+02  0.00000000000E+00 0. -1.
          2    1    1    2  501    0  0.11445886231E+02  0.55636879417E+02  0.25613513840E+03  0.26235792305E+03  0.00000000000E+00 0. -1.
          1    1    1    2  502    0  0.19035215875E+02  0.67064688971E+01  0.32660775663E+02  0.38393260286E+02  0.00000000000E+00 0. -1.
         22    1    1    2    0    0 -0.15672339277E+02 -0.61033375309E+01 -0.25107223881E+02  0.30219954309E+02  0.00000000000E+00 0. -1.
         22    1    1    2    0    0 -0.14808762829E+02 -0.56240010784E+02  0.13471272357E+03  0.14673021557E+03  0.00000000000E+00 0. -1.
</event>
<event>
 6    1  0.1383644E-005  0.2177347E+02  0.7818608E-02  0.1737165E+00
          2   -1    0    0  502    0  0.00000000000E+00  0.00000000000E+00  0.61819752494E+02  0.61819752494E+02  0.00000000000E+00 0. -1.
          1   -1    0    0  501    0 -0.00000000000E+00 -0.00000000000E+00 -0.14987436518E+03  0.14987436518E+03  0.00000000000E+00 0. -1.
          2    1    1    2  501    0  0.80993239598E+01  0.34019419147E+02 -0.51077993065E+01  0.35341329085E+02  0.00000000000E+00 0. -1.
          1    1    1    2  502    0 -0.11463104530E+01 -0.28693658877E+02 -0.31864599310E+02  0.42895136981E+02  0.00000000000E+00 0. -1.
         22    1    1    2    0    0  0.86232517816E+01 -0.83734699184E+01  0.39606669273E+02  0.41390381983E+02  0.00000000000E+00 0. -1.
         22    1    1    2    0    0 -0.15576265288E+02  0.30477096480E+01 -0.90688883340E+02  0.92067269623E+02  0.00000000000E+00 0. -1.
</event>
<event>
 6    1  0.1383644E-005  0.7108146E+02  0.7818608E-02  0.1417369E+00
          2   -1    0    0  502    0  0.00000000000E+00  0.00000000000E+00  0.44555468131E+03  0.44555468131E+03  0.00000000000E+00 0.  1.
          1   -1    0    0  501    0 -0.00000000000E+00 -0.00000000000E+00 -0.35622700000E+02  0.35622700000E+02  0.00000000000E+00 0.  1.
          2    1    1    2  501    0  0.28849361791E+02  0.48692921909E+01  0.12273792968E+03  0.12617684044E+03  0.00000000000E+00 0.  1.
          1    1    1    2  502    0 -0.70286747639E+02 -0.10038208261E+02  0.69275980288E+02  0.99197550190E+02  0.00000000000E+00 0.  1.
         22    1    1    2    0    0  0.11848339537E+02 -0.23785894442E+02 -0.66971574123E+01  0.27404449303E+02  0.00000000000E+00 0.  1.
         22    1    1    2    0    0  0.29589046311E+02  0.28954810512E+02  0.22461522876E+03  0.22839854138E+03  0.00000000000E+00 0.  1.
</event>
<event>
 6    1  0.1383644E-005  0.1999761E+02  0.7818608E-02  0.1751147E+00
          2   -1    0    0  502    0  0.00000000000E+00  0.00000000000E+00  0.12092337510E+03  0.12092337510E+03  0.00000000000E+00 0.  1.
          1   -1    0    0  501    0 -0.00000000000E+00 -0.00000000000E+00 -0.87959932688E+02  0.87959932688E+02  0.00000000000E+00 0.  1.
          2    1    1    2  501    0 -0.33655601977E+02  0.63194389557E+01  0.42385007745E+02  0.54489666311E+02  0.00000000000E+00 0.  1.
          1    1    1    2  502    0  0.19499445801E+02  0.20109011186E+02 -0.83757262054E+01  0.29236167787E+02  0.00000000000E+00 0.  1.
         22    1    1    2    0    0  0.19719464868E+01 -0.16395111042E+02 -0.60981819074E+02  0.63178085573E+02  0.00000000000E+00 0.  1.
         22    1    1    2    0    0  0.12184209689E+02 -0.10033339099E+02  0.59935979943E+02  0.61979388113E+02  0.00000000000E+00 0.  1.
</event>
<event>
 6    1  0.1383644E-005  0.5462012E+02  0.7818608E-02  0.1512182E+00
          2   -1    0    0  502    0  0.00000000000E+00  0.00000000000E+00  0.36602057892E+03  0.36602057892E+03  0.00000000000E+00 0. -1.
          1   -1    0    0  501    0 -0.00000000000E+00 -0.00000000000E+00 -0.66430767384E+02  0.66430767384E+02  0.00000000000E+00 0.  1.
          2    1    1    2  501    0 -0.36386671919E+02  0.43877200359E+01  0.23200966190E+03  0.23488662200E+03  0.00000000000E+00 0. -1.
          1    1    1    2  502    0  0.52074209049E+02  0.22138230977E+02  0.21089287727E+02  0.60386940440E+02  0.00000000000E+00 0.  1.
         22    1    1    2    0    0 -0.12316417365E+02 -0.12025481361E+02  0.89772228248E+02  0.91407654512E+02  0.00000000000E+00 0. -1.
         22    1    1    2    0    0 -0.33711197659E+01 -0.14500469652E+02 -0.43281366339E+02  0.45770129351E+02  0.00000000000E+00 0.  1.
</event>
<event>
 6    1  0.1383644E-005  0.4879983E+02  0.7818608E-02  0.1537303E+00
          2   -1    0    0  502    0  0.00000000000E+00  0.00000000000E+00  0.18799258180E+03  0.18799258180E+03  0.00000000000E+00 0.  1.
          1   -1    0    0  501    0 -0.00000000000E+00 -0.00000000000E+00 -0.60329053217E+02  0.60329053217E+02  0.00000000000E+00 0.  1.
          2    1    1    2  501    0 -0.60333836762E+01  0.19677546414E+02  0.61468643760E+02  0.64822848727E+02  0.00000000000E+00 0.  1.
          1    1    1    2  502    0 -0.96797241181E+01 -0.37991481884E+02  0.37190092980E+02  0.54038437900E+02  0.00000000000E+00 0.  1.
         22    1    1    2    0    0  0.75887898015E+01 -0.12880661757E+02 -0.45707668219E+02  0.48090457598E+02  0.00000000000E+00 0.  1.
         22    1    1    2    0    0  0.81243179928E+01  0.31194597228E+02  0.74712460061E+02  0.81369890791E+02  0.00000000000E+00 0.  1.
</event>
<event>
 6    1  0.1383644E-005  0.2973772E+02  0.7818608E-02  0.1660030E+00
          2   -1    0    0  502    0  0.00000000000E+00  0.00000000000E+00  0.90046855919E+02  0.90046855919E+02  0.00000000000E+00 0.  1.
          1   -1    0    0  501    0 -0.00000000000E+00 -0.00000000000E+00 -0.12223495520E+03  0.12223495520E+03  0.00000000000E+00 0.  1.
          2    1    1    2  501    0  0.32629734259E+02  0.25440418081E+01  0.97104696200E+01  0.34138906350E+02  0.00000000000E+00 0.  1.
          1    1    1    2  502    0 -0.11065814304E+02 -0.39757262892E+02 -0.23488710824E+02  0.47484857956E+02  0.00000000000E+00 0.  1.
         22    1    1    2    0    0 -0.20647380666E+01  0.15200199572E+02 -0.69790813360E+02  0.71456748035E+02  0.00000000000E+00 0.  1.
         22    1    1    2    0    0 -0.19499181888E+02  0.22013021512E+02  0.51380955287E+02  0.59201298775E+02  0.00000000000E+00 0.  1.
</event>
<event>
 6    1  0.1383644E-005  0.5807482E+02  0.7818608E-02  0.1407798E+00
          2   -1    0    0  502    0  0.00000000000E+00  0.00000000000E+00  0.18896964249E+03  0.18896964249E+03  0.00000000000E+00 0.  1.
          1   -1    0    0  501    0 -0.00000000000E+00 -0.00000000000E+00 -0.71603789547E+02  0.71603789547E+02  0.00000000000E+00 0.  1.
          2    1    1    2  501    0  0.79992133879E+01  0.61445761641E+02  0.75290183443E+02  0.97509900837E+02  0.00000000000E+00 0.  1.
          1    1    1    2  502    0  0.10338903088E+02 -0.20567266753E+02  0.11911005095E+02  0.25918669355E+02  0.00000000000E+00 0.  1.
         22    1    1    2    0    0 -0.83925072768E+01 -0.58254571369E+02 -0.35338609500E+02  0.68650175420E+02  0.00000000000E+00 0.  1.
         22    1    1    2    0    0 -0.99456091996E+01  0.17376076482E+02  0.65503273909E+02  0.68494686429E+02  0.00000000000E+00 0. -1.
</event>
<event>
 6    1  0.1383644E-005  0.4510010E+02  0.7818608E-02  0.1517871E+00
          2   -1    0    0  502    0  0.00000000000E+00  0.00000000000E+00  0.34644701542E+03  0.34644701542E+03  0.00000000000E+00 0. -1.
          1   -1    0    0  501    0 -0.00000000000E+00 -0.00000000000E+00 -0.58314811630E+02  0.58314811630E+02  0.00000000000E+00 0.  1.
          2    1    1    2  501    0  0.23569714394E+02 -0.11430665360E+02  0.13773407143E+03  0.14020294569E+03  0.00000000000E+00 0. -1.
          1    1    1    2  502    0 -0.56439552248E+02  0.29558485896E+02  0.11149118274E+03  0.12841110145E+03  0.00000000000E+00 0.  1.
         22    1    1    2    0    0  0.93136816367E+01 -0.11412182938E+02  0.83758238893E+02  0.85043666240E+02  0.00000000000E+00 0.  1.
         22    1    1    2    0    0  0.23556156218E+02 -0.67156375983E+01 -0.44851289277E+02  0.51104113669E+02  0.00000000000E+00 0.  1.
</event>
<event>
 6    1  0.1383644E-005  0.6790874E+02  0.7818608E-02  0.1417286E+00
          2   -1    0    0  502    0  0.00000000000E+00  0.00000000000E+00  0.67049451650E+02  0.67049451650E+02  0.00000000000E+00 0. -1.
          1   -1    0    0  501    0 -0.00000000000E+00 -0.00000000000E+00 -0.81502303220E+03  0.81502303220E+03  0.00000000000E+00 0.  1.
          2    1    1    2  501    0 -0.88782281255E+02  0.35998366861E+02 -0.25098601903E+02  0.99035931353E+02  0.00000000000E+00 0. -1.
          1    1    1    2  502    0  0.12474068883E+03 -0.63449040732E+02 -0.51949518530E+03  0.53801604787E+03  0.00000000000E+00 0.  1.
         22    1    1    2    0    0 -0.16178785748E+02 -0.99320989493E+01  0.13985116320E+02  0.23579295501E+02  0.00000000000E+00 0.  1.
         22    1    1    2    0    0 -0.19779621828E+02  0.37382772821E+02 -0.21736490967E+03  0.22144120913E+03  0.00000000000E+00 0.  1.
</event>
<event>
 6    1  0.1383644E-005  0.1483652E+03  0.7818608E-02  0.1286759E+00
          2   -1    0    0  502    0  0.00000000000E+00  0.00000000000E+00  0.76579660059E+03  0.76579660059E+03  0.00000000000E+00 0. -1.
          1   -1    0    0  501    0 -0.00000000000E+00 -0.00000000000E+00 -0.14377122495E+03  0.14377122495E+03  0.00000000000E+00 0.  1.
          2    1    1    2  501    0 -0.27134405629E+02 -0.12941655769E+03  0.59255611045E+03  0.60713068231E+03  0.00000000000E+00 0. -1.
          1    1    1    2  502    0  0.21134461191E+02  0.16410962021E+03 -0.14165037252E+01  0.16547096234E+03  0.00000000000E+00 0.  1.
         22    1    1    2    0    0  0.14159641806E+02 -0.23100688803E+02 -0.48913981509E+02  0.55917035564E+02  0.00000000000E+00 0.  1.
         22    1    1    2    0    0 -0.81596973685E+01 -0.11592373718E+02  0.79799750430E+02  0.81049145327E+02  0.00000000000E+00 0. -1.
</event>
<event>
 6    1  0.1383644E-005  0.5282789E+02  0.7818608E-02  0.1481176E+00
          2   -1    0    0  502    0  0.00000000000E+00  0.00000000000E+00  0.35548227559E+03  0.35548227559E+03  0.00000000000E+00 0. -1.
          1   -1    0    0  501    0 -0.00000000000E+00 -0.00000000000E+00 -0.47246113559E+03  0.47246113559E+03  0.00000000000E+00 0.  1.
          2    1    1    2  501    0  0.59473639645E+01  0.73230563952E+02  0.25884382462E+03  0.26906915873E+03  0.00000000000E+00 0. -1.
          1    1    1    2  502    0 -0.22998042879E+02 -0.89946753971E+02 -0.41500466828E+03  0.42526251095E+03  0.00000000000E+00 0.  1.
         22    1    1    2    0    0  0.29906301194E+02  0.91546624538E+01  0.82270524716E+02  0.88014964255E+02  0.00000000000E+00 0. -1.
         22    1    1    2    0    0 -0.12855622279E+02  0.75615275651E+01 -0.43088541069E+02  0.45596777241E+02  0.00000000000E+00 0. -1.
</event>
<event>
 6    1  0.1383644E-005  0.2623800E+03  0.7818608E-02  0.1209408E+00
          2   -1    0    0  502    0  0.00000000000E+00  0.00000000000E+00  0.87306401213E+03  0.87306401213E+03  0.00000000000E+00 0. -1.
          1   -1    0    0  501    0 -0.00000000000E+00 -0.00000000000E+00 -0.40043364002E+03  0.40043364002E+03  0.00000000000E+00 0. -1.
          2    1    1    2  501    0  0.61002961176E+02 -0.23952521976E+03  0.73068813935E+03  0.77136168505E+03  0.00000000000E+00 0. -1.
          1    1    1    2  502    0 -0.83939206722E+02  0.26690509314E+03 -0.23763199611E+03  0.36708729853E+03  0.00000000000E+00 0. -1.
         22    1    1    2    0    0  0.10365769168E+02 -0.79750421957E+01  0.54805667173E+02  0.56344579355E+02  0.00000000000E+00 0.  1.
         22    1    1    2    0    0  0.12570476377E+02 -0.19404831180E+02 -0.75231438302E+02  0.78704089211E+02  0.00000000000E+00 0.  1.
</event>
<event>
 6    1  0.1383644E-005  0.5756188E+02  0.7818608E-02  0.1457674E+00
          2   -1    0    0  502    0  0.00000000000E+00  0.00000000000E+00  0.95957428034E+02  0.95957428034E+02  0.00000000000E+00 0. -1.
          1   -1    0    0  501    0 -0.00000000000E+00 -0.00000000000E+00 -0.16031364940E+03  0.16031364940E+03  0.00000000000E+00 0. -1.
          2    1    1    2  501    0 -0.50684200256E+02  0.91121702808E+01 -0.16765004184E+02  0.54157041722E+02  0.00000000000E+00 0. -1.
          1    1    1    2  502    0  0.35751026878E+02 -0.17069115236E+02 -0.65662505006E+02  0.76688038060E+02  0.00000000000E+00 0. -1.
         22    1    1    2    0    0  0.87364475005E+01  0.25901614067E+02  0.67312884250E+02  0.72651521059E+02  0.00000000000E+00 0. -1.
         22    1    1    2    0    0  0.61967258775E+01 -0.17944669112E+02 -0.49241596429E+02  0.52774476596E+02  0.00000000000E+00 0.  1.
</event>
<event>
 6    1  0.1383644E-005  0.2027436E+03  0.7818608E-02  0.1189568E+00
          2   -1    0    0  502    0  0.00000000000E+00  0.00000000000E+00  0.12757583995E+03  0.12757583995E+03  0.00000000000E+00 0.  1.
          1   -1    0    0  501    0 -0.00000000000E+00 -0.00000000000E+00 -0.55166044975E+03  0.55166044975E+03  0.00000000000E+00 0.  1.
          2    1    1    2  501    0  0.19666421039E+03 -0.71452076533E+02 -0.94124774585E+02  0.22943775644E+03  0.00000000000E+00 0.  1.
          1    1    1    2  502    0 -0.14386258583E+03  0.82397883838E+02 -0.13445865131E+03  0.21345956004E+03  0.00000000000E+00 0.  1.
         22    1    1    2    0    0 -0.76631596418E+02 -0.88178544199E+01 -0.19779538963E+03  0.21230443303E+03  0.00000000000E+00 0. -1.
         22    1    1    2    0    0  0.23829971859E+02 -0.21279528852E+01  0.22942057171E+01  0.24034540190E+02  0.00000000000E+00 0.  1.
</event>
<event>
 6    1  0.1383644E-005  0.6831910E+02  0.7818608E-02  0.1399721E+00
          2   -1    0    0  502    0  0.00000000000E+00  0.00000000000E+00  0.59279534130E+02  0.59279534130E+02  0.00000000000E+00 0.  1.
          1   -1    0    0  501    0 -0.00000000000E+00 -0.00000000000E+00 -0.45893704610E+03  0.45893704610E+03  0.00000000000E+00 0. -1.
          2    1    1    2  501    0  0.23655470564E+02 -0.31245756290E+02  0.10213869136E+02  0.40499403656E+02  0.00000000000E+00 0.  1.
          1    1    1    2  502    0 -0.48286689926E+02  0.23287109588E+02 -0.31768911497E+03  0.32218048927E+03  0.00000000000E+00 0. -1.
         22    1    1    2    0    0  0.84498961237E+01 -0.28011746425E+02  0.20779731112E+02  0.35886709342E+02  0.00000000000E+00 0.  1.
         22    1    1    2    0    0  0.16181323238E+02  0.35970393127E+02 -0.11296199725E+03  0.11964997796E+03  0.00000000000E+00 0.  1.
</event>
<event>
 6    1  0.1383644E-005  0.4235873E+02  0.7818608E-02  0.1499627E+00
          2   -1    0    0  502    0  0.00000000000E+00  0.00000000000E+00  0.31876770281E+03  0.31876770281E+03  0.00000000000E+00 0. -1.
          1   -1    0    0  501    0 -0.00000000000E+00 -0.00000000000E+00 -0.67821341444E+02  0.67821341444E+02  0.00000000000E+00 0. -1.
          2    1    1    2  501    0 -0.28268453029E+02  0.46719681475E+02  0.15468753663E+03  0.16404288482E+03  0.00000000000E+00 0. -1.
          1    1    1    2  502    0  0.12515148525E+02 -0.25940573625E+02  0.91552515812E+02  0.95976067090E+02  0.00000000000E+00 0. -1.
         22    1    1    2    0    0 -0.47992468070E+01  0.11036398401E+02  0.59086210175E+02  0.60299378872E+02  0.00000000000E+00 0. -1.
         22    1    1    2    0    0  0.20552551312E+02 -0.31815506251E+02 -0.54379901249E+02  0.66270713466E+02  0.00000000000E+00 0. -1.
</event>
<event>
 6    1  0.1383644E-005  0.1078083E+03  0.7818608E-02  0.1280409E+00
          2   -1    0    0  502    0  0.00000000000E+00  0.00000000000E+00  0.17709920848E+03  0.17709920848E+03  0.00000000000E+00 0. -1.
          1   -1    0    0  501    0 -0.00000000000E+00 -0.00000000000E+00 -0.14510993962E+03  0.14510993962E+03  0.00000000000E+00 0. -1.
          2    1    1    2  501    0 -0.44214501395E+02  0.17075065890E+02  0.40347700802E+01  0.47568470423E+02  0.00000000000E+00 0. -1.
          1    1    1    2  502    0  0.14990334231E+02 -0.10209506839E+03  0.56730487481E+02  0.11775593964E+03  0.00000000000E+00 0. -1.
         22    1    1    2    0    0  0.55153706017E+02  0.10319939063E+03 -0.39422576927E+02  0.12347544325E+03  0.00000000000E+00 0. -1.
         22    1    1    2    0    0 -0.25929538852E+02 -0.18179388132E+02  0.10646588224E+02  0.33409294796E+02  0.00000000000E+00 0.  1.
</event>
<event>
 6    1  0.1383644E-005  0.5818922E+02  0.7818608E-02  0.1506216E+00
          2   -1    0    0  502    0  0.00000000000E+00  0.00000000000E+00  0.16817792936E+03  0.16817792936E+03  0.00000000000E+00 0.  1.
          1   -1    0    0  501    0 -0.00000000000E+00 -0.00000000000E+00 -0.12404720979E+03  0.12404720979E+03  0.00000000000E+00 0. -1.
          2    1    1    2  501    0  0.23417675888E+02  0.17891455679E+02  0.77142418118E+02  0.82579927364E+02  0.00000000000E+00 0.  1.
          1    1    1    2  502    0 -0.24765539885E+02 -0.40731441412E+02 -0.65043938336E+02  0.80641777012E+02  0.00000000000E+00 0. -1.
         22    1    1    2    0    0 -0.13043335963E+02 -0.28481734048E+01 -0.44786965703E+02  0.46734494773E+02  0.00000000000E+00 0.  1.
         22    1    1    2    0    0  0.14391199961E+02  0.25688159138E+02  0.76819205497E+02  0.82268940004E+02  0.00000000000E+00 0.  1.
</event>
<event>
 6    1  0.1383644E-005  0.8619787E+02  0.7818608E-02  0.1378471E+00
          2   -1    0    0  502    0  0.00000000000E+00  0.00000000000E+00  0.40116369240E+03  0.40116369240E+03  0.00000000000E+00 0.  1.
          1   -1    0    0  501    0 -0.00000000000E+00 -0.00000000000E+00 -0.10697685991E+03  0.10697685991E+03  0.00000000000E+00 0. -1.
          2    1    1    2  501    0  0.28466810770E+01 -0.22389566971E+02  0.26132441844E+03  0.26229725118E+03  0.00000000000E+00 0.  1.
          1    1    1    2  502    0  0.64184666510E+01  0.57282900999E+02 -0.60466290644E+02  0.83538612421E+02  0.00000000000E+00 0. -1.
         22    1    1    2    0    0  0.17093182138E+02 -0.43228246168E+02  0.11700881688E+03  0.12590441362E+03  0.00000000000E+00 0.  1.
         22    1    1    2    0    0 -0.26358329866E+02  0.83349121403E+01 -0.23680112186E+02  0.36400275093E+02  0.00000000000E+00 0. -1.
</event>
<event>
 6    1  0.1383644E-005  0.6415032E+02  0.7818608E-02  0.1421950E+00
          2   -1    0    0  502    0  0.00000000000E+00  0.00000000000E+00  0.89936106392E+02  0.89936106392E+02  0.00000000000E+00 0. -1.
          1   -1    0    0  501    0 -0.00000000000E+00 -0.00000000000E+00 -0.31846064890E+03  0.31846064890E+03  0.00000000000E+00 0.  1.
          2    1    1    2  501    0 -0.11775548663E+02  0.40608230558E+02  0.38517356358E+02  0.57195093112E+02  0.00000000000E+00 0. -1.
          1    1    1    2  502    0 -0.25460773570E+01 -0.79060747542E+02 -0.15835221028E+03  0.17700990597E+03  0.00000000000E+00 0.  1.
         22    1    1    2    0    0 -0.11649849468E+02  0.16992427321E+02  0.27237390617E+02  0.34151676774E+02  0.00000000000E+00 0. -1.
         22    1    1    2    0    0  0.25971475488E+02  0.21460089664E+02 -0.13592707921E+03  0.14004007944E+03  0.00000000000E+00 0.  1.
</event>
<event>
 6    1  0.1383644E-005  0.6191321E+02  0.7818608E-02  0.1444390E+00
          2   -1    0    0  502    0  0.00000000000E+00  0.00000000000E+00  0.10786542603E+03  0.10786542603E+03  0.00000000000E+00 0.  1.
          1   -1    0    0  501    0 -0.00000000000E+00 -0.00000000000E+00 -0.29311019518E+03  0.29311019518E+03  0.00000000000E+00 0. -1.
          2    1    1    2  501    0 -0.80063394587E+02  0.89815381425E+01  0.48341842390E+02  0.93956100951E+02  0.00000000000E+00 0.  1.
          1    1    1    2  502    0  0.25543615249E+01  0.34575716420E+02 -0.80142399064E+02  0.87320152637E+02  0.00000000000E+00 0. -1.
         22    1    1    2    0    0  0.88453434781E+02 -0.46993426401E+02 -0.17132479934E+03  0.19845548397E+03  0.00000000000E+00 0. -1.
         22    1    1    2    0    0 -0.10944401718E+02  0.34361718391E+01  0.17880586864E+02  0.21243883649E+02  0.00000000000E+00 0.  1.
</event>
<event>
 6    1  0.1383644E-005  0.1977869E+03  0.7818608E-02  0.1288729E+00
          2   -1    0    0  502    0  0.00000000000E+00  0.00000000000E+00  0.82317377166E+03  0.82317377166E+03  0.00000000000E+00 0. -1.
          1   -1    0    0  501    0 -0.00000000000E+00 -0.00000000000E+00 -0.46047646378E+02  0.46047646378E+02  0.00000000000E+00 0. -1.
          2    1    1    2  501    0 -0.23964521336E+02  0.39350816891E+01  0.20040976034E+02  0.31486884113E+02  0.00000000000E+00 0. -1.
          1    1    1    2  502    0 -0.12837768064E+03 -0.76889785493E+02  0.32971943754E+03  0.36208807698E+03  0.00000000000E+00 0. -1.
         22    1    1    2    0    0  0.10997875568E+02 -0.70996461674E+00 -0.69352365341E+01  0.13021321843E+02  0.00000000000E+00 0. -1.
         22    1    1    2    0    0  0.14134432641E+03  0.73664668420E+02  0.43430094825E+03  0.46262513511E+03  0.00000000000E+00 0. -1.
</event>
<event>
 6    1  0.1383644E-005  0.6458908E+02  0.7818608E-02  0.1379860E+00
          2   -1    0    0  502    0  0.00000000000E+00  0.00000000000E+00  0.29647328239E+03  0.29647328239E+03  0.00000000000E+00 0. -1.
          1   -1    0    0  501    0 -0.00000000000E+00 -0.00000000000E+00 -0.63107786438E+02  0.63107786438E+02  0.00000000000E+00 0. -1.
          2    1    1    2  501    0  0.26457571247E+02 -0.68937434885E+01  0.81885630387E+02  0.86329503876E+02  0.00000000000E+00 0. -1.
          1    1    1    2  502    0 -0.44820861325E+02  0.21305196192E+02 -0.23676261663E+02  0.54985328598E+02  0.00000000000E+00 0. -1.
         22    1    1    2    0    0  0.29777852399E+02 -0.17170433595E+02  0.19347596406E+03  0.19650570717E+03  0.00000000000E+00 0. -1.
         22    1    1    2    0    0 -0.11414562322E+02  0.27589808910E+01 -0.18319836833E+02  0.21760529179E+02  0.00000000000E+00 0.  1.
</event>
<event>
 6    1  0.1383644E-005  0.1658759E+03  0.7818608E-02  0.1270901E+00
          2   -1    0    0  502    0  0.00000000000E+00  0.00000000000E+00  0.94684322407E+03  0.94684322407E+03  0.00000000000E+00 0.  1.
          1   -1    0    0  501    0 -0.00000000000E+00 -0.00000000000E+00 -0.12388469306E+04  0.12388469306E+04  0.00000000000E+00 0.  1.
          2    1    1    2  501    0 -0.84545472236E+02  0.12407123571E+03  0.88342040235E+03  0.89608772768E+03  0.00000000000E+00 0.  1.
          1    1    1    2  502    0  0.92454076330E+02 -0.16322520288E+03 -0.11363740799E+04  0.11517535641E+04  0.00000000000E+00 0.  1.
         22    1    1    2    0    0 -0.47422487490E+01  0.25800920792E+02 -0.85489631855E+02  0.89424010151E+02  0.00000000000E+00 0. -1.
         22    1    1    2    0    0 -0.31663553454E+01  0.13353046383E+02  0.46439602810E+02  0.48424852742E+02  0.00000000000E+00 0.  1.
</event>
<event>
 6    1  0.1383644E-005  0.5922066E+02  0.7818608E-02  0.1438299E+00
          2   -1    0    0  502    0  0.00000000000E+00  0.00000000000E+00  0.15146564984E+04  0.15146564984E+04  0.00000000000E+00 0. -1.
          1   -1    0    0  501    0 -0.00000000000E+00 -0.00000000000E+00 -0.69069289805E+02  0.69069289805E+02  0.00000000000E+00 0. -1.
          2    1    1    2  501    0  0.81693373359E+02  0.47661298221E+02  0.12996988781E+04  0.13031356723E+04  0.00000000000E+00 0. -1.
          1    1    1    2  502    0 -0.80758993797E+02  0.45597712478E+01  0.39116589800E+00  0.80888562873E+02  0.00000000000E+00 0. -1.
         22    1    1    2    0    0 -0.12866352990E+02 -0.16991734961E+02 -0.20509644088E+02  0.29578836976E+02  0.00000000000E+00 0.  1.
         22    1    1    2    0    0  0.11931973428E+02 -0.35229334508E+02  0.16600680868E+03  0.17012271608E+03  0.00000000000E+00 0. -1.
</event>
<event>
 6    1  0.1383644E-005  0.6341579E+02  0.7818608E-02  0.1461434E+00
          2   -1    0    0  502    0  0.00000000000E+00  0.00000000000E+00  0.64002592145E+03  0.64002592145E+03  0.00000000000E+00 0. -1.
          1   -1    0    0  501    0 -0.00000000000E+00 -0.00000000000E+00 -0.25889803416E+03  0.25889803416E+03  0.00000000000E+00 0.  1.
          2    1    1    2  501    0 -0.85906486455E+02 -0.79451281673E+02  0.55908643150E+03  0.57120055013E+03  0.00000000000E+00 0. -1.
          1    1    1    2  502    0  0.44733662637E+02  0.60672037971E+02 -0.17674998243E+03  0.19215294183E+03  0.00000000000E+00 0.  1.
         22    1    1    2    0    0 -0.76513216191E+01  0.12819533254E+02 -0.58318436201E+02  0.60199029529E+02  0.00000000000E+00 0.  1.
         22    1    1    2    0    0  0.48824145437E+02  0.59597104481E+01  0.57109874420E+02  0.75371434128E+02  0.00000000000E+00 0. -1.
</event>
<event>
 6    1  0.1383644E-005  0.8767728E+02  0.7818608E-02  0.1337425E+00
          2   -1    0    0  502    0  0.00000000000E+00  0.00000000000E+00  0.15145005686E+03  0.15145005686E+03  0.00000000000E+00 0. -1.
          1   -1    0    0  501    0 -0.00000000000E+00 -0.00000000000E+00 -0.13288329897E+03  0.13288329897E+03  0.00000000000E+00 0. -1.
          2    1    1    2  501    0  0.34853422178E+02 -0.46664335456E+02  0.63852555077E+01  0.58592599609E+02  0.00000000000E+00 0. -1.
          1    1    1    2  502    0 -0.22560694597E+02  0.74108932644E+02 -0.34138909841E+02  0.84655679097E+02  0.00000000000E+00 0. -1.
         22    1    1    2    0    0 -0.16035452486E+02 -0.49975923144E+02  0.82806923592E+02  0.98039355492E+02  0.00000000000E+00 0. -1.
         22    1    1    2    0    0  0.37427249047E+01  0.22531325957E+02 -0.36486511368E+02  0.43045721632E+02  0.00000000000E+00 0. -1.
</event>
<event>
 6    1  0.1383644E-005  0.4250630E+02  0.7818608E-02  0.1510922E+00
          2   -1    0    0  502    0  0.00000000000E+00  0.00000000000E+00  0.12593520462E+03  0.12593520462E+03  0.00000000000E+00 0. -1.
          1   -1    0    0  501    0 -0.00000000000E+00 -0.00000000000E+00 -0.18312612032E+03  0.18312612032E+03  0.00000000000E+00 0.  1.
          2    1    1    2  501    0  0.95464283124E+01  0.48046309302E+02  0.73754267111E+02  0.88539674994E+02  0.00000000000E+00 0. -1.
          1    1    1    2  502    0 -0.37708189324E+02 -0.37858027773E+02 -0.41099245659E+02  0.67411318061E+02  0.00000000000E+00 0.  1.
         22    1    1    2    0    0  0.27750721926E+02  0.12044917999E+02  0.23057906141E+02  0.38037476949E+02  0.00000000000E+00 0. -1.
         22    1    1    2    0    0  0.41103908560E+00 -0.22233199528E+02 -0.11290384329E+03  0.11507285494E+03  0.00000000000E+00 0.  1.
</event>
<event>
 6    1  0.1383644E-005  0.6220372E+02  0.7818608E-02  0.1403214E+00
          2   -1    0    0  502    0  0.00000000000E+00  0.00000000000E+00  0.66244924756E+02  0.66244924756E+02  0.00000000000E+00 0.  1.
          1   -1    0    0  501    0 -0.00000000000E+00 -0.00000000000E+00 -0.46547147386E+03  0.46547147386E+03  0.00000000000E+00 0.  1.
          2    1    1    2  501    0 -0.16278392429E+02  0.21046464151E+02  0.23776856744E+02  0.35683029999E+02  0.00000000000E+00 0.  1.
          1    1    1    2  502    0 -0.31616344380E+02 -0.55155222808E+02 -0.32121215179E+03  0.32744303061E+03  0.00000000000E+00 0.  1.
         22    1    1    2    0    0 -0.19826717850E+02  0.11267484833E+02  0.18031289160E+02  0.29072019950E+02  0.00000000000E+00 0.  1.
         22    1    1    2    0    0  0.67721454659E+02  0.22841273825E+02 -0.11982254321E+03  0.13951831806E+03  0.00000000000E+00 0.  1.
</event>
<event>
 6    1  0.1383644E-005  0.4176681E+02  0.7818608E-02  0.1538496E+00
          2   -1    0    0  502    0  0.00000000000E+00  0.00000000000E+00  0.53329295409E+02  0.53329295409E+02  0.00000000000E+00 0.  1.
          1   -1    0    0  501    0 -0.00000000000E+00 -0.00000000000E+00 -0.98092667845E+03  0.98092667845E+03  0.00000000000E+00 0. -1.
          2    1    1    2  501    0 -0.50597526144E+02  0.14782883839E+02  0.21227713406E+01  0.52755563353E+02  0.00000000000E+00 0.  1.
          1    1    1    2  502    0  0.72209451982E+02 -0.22117993730E+02 -0.78870504539E+03  0.79231247575E+03  0.00000000000E+00 0. -1.
         22    1    1    2    0    0 -0.27346047831E+02  0.27615092922E+02 -0.15763054741E+03  0.16235082127E+03  0.00000000000E+00 0. -1.
         22    1    1    2    0    0  0.57341219941E+01 -0.20279983031E+02  0.16615438418E+02  0.26837113492E+02  0.00000000000E+00 0.  1.
</event>
<event>
 6    1  0.1383644E-005  0.4420785E+02  0.7818608E-02  0.1496627E+00
          2   -1    0    0  502    0  0.00000000000E+00  0.00000000000E+00  0.19485036381E+03  0.19485036381E+03  0.00000000000E+00 0.  1.
          1   -1    0    0  501    0 -0.00000000000E+00 -0.00000000000E+00 -0.11893524184E+03  0.11893524184E+03  0.00000000000E+00 0. -1.
          2    1    1    2  501    0 -0.43297015164E+02  0.32082500021E+02  0.88802881544E+02  0.10387429952E+03  0.00000000000E+00 0.  1.
          1    1    1    2  502    0  0.29676314078E+02 -0.37884612170E+02 -0.56002343835E+02  0.73838946170E+02  0.00000000000E+00 0. -1.
         22    1    1    2    0    0 -0.92403166751E+01 -0.29651114952E+02  0.76313097983E+02  0.82390903587E+02  0.00000000000E+00 0.  1.
         22    1    1    2    0    0  0.22861017762E+02  0.35453227100E+02 -0.33198513724E+02  0.53681456374E+02  0.00000000000E+00 0. -1.
</event>
<event>
 6    1  0.1383644E-005  0.4811235E+02  0.7818608E-02  0.1554745E+00
          2   -1    0    0  502    0  0.00000000000E+00  0.00000000000E+00  0.31435005014E+03  0.31435005014E+03  0.00000000000E+00 0. -1.
          1   -1    0    0  501    0 -0.00000000000E+00 -0.00000000000E+00 -0.21190496656E+03  0.21190496656E+03  0.00000000000E+00 0.  1.
          2    1    1    2  501    0 -0.34695932165E+02 -0.17875509850E+00  0.23556394438E+03  0.23810546309E+03  0.00000000000E+00 0. -1.
          1    1    1    2  502    0  0.42197042468E+02  0.17788736698E+02 -0.15557801543E+03  0.16217752135E+03  0.00000000000E+00 0.  1.
         22    1    1    2    0    0 -0.11836263168E+02 -0.59350631580E+01  0.72861009729E+02  0.74054364080E+02  0.00000000000E+00 0. -1.
         22    1    1    2    0    0  0.43351528649E+01 -0.11674918442E+02 -0.50401855102E+02  0.51917668175E+02  0.00000000000E+00 0.  1.
</event>
<event>
 6    1  0.1383644E-005  0.3463050E+02  0.7818608E-02  0.1612695E+00
          2   -1    0    0  502    0  0.00000000000E+00  0.00000000000E+00  0.19671785612E+03  0.19671785612E+03  0.00000000000E+00 0. -1.
          1   -1    0    0  501    0 -0.00000000000E+00 -0.00000000000E+00 -0.22968063705E+03  0.22968063705E+03  0.00000000000E+00 0. -1.
          2    1    1    2  501    0  0.20865095343E+02 -0.11283667214E+02  0.14075736316E+03  0.14274210533E+03  0.00000000000E+00 0. -1.
          1    1    1    2  502    0 -0.40283425452E+02  0.25668021547E+02 -0.15096264726E+03  0.15833926412E+03  0.00000000000E+00 0. -1.
         22    1    1    2    0    0  0.10574450434E+02 -0.59733644695E+00  0.49810207614E+02  0.50923792036E+02  0.00000000000E+00 0.  1.
         22    1    1    2    0    0  0.88438796751E+01 -0.13787017886E+02 -0.72567704454E+02  0.74393331688E+02  0.00000000000E+00 0.  1.
</event>
<event>
 6    1  0.1383644E-005  0.1017381E+03  0.7818608E-02  0.1386353E+00
          2   -1    0    0  502    0  0.00000000000E+00  0.00000000000E+00  0.95362664728E+02  0.95362664728E+02  0.00000000000E+00 0.  1.
          1   -1    0    0  501    0 -0.00000000000E+00 -0.00000000000E+00 -0.28325107406E+03  0.28325107406E+03  0.00000000000E+00 0. -1.
          2    1    1    2  501    0  0.23430123323E+02 -0.27166961334E+02  0.28144485783E+02  0.45597440137E+02  0.00000000000E+00 0.  1.
          1    1    1    2  502    0 -0.50372231873E+02  0.87722479218E+02 -0.14872972156E+03  0.17986974504E+03  0.00000000000E+00 0. -1.
         22    1    1    2    0    0 -0.11162835897E+02 -0.97051209120E+01 -0.85721038839E+02  0.86987900174E+02  0.00000000000E+00 0. -1.
         22    1    1    2    0    0  0.38104944446E+02 -0.50850396972E+02  0.18417865285E+02  0.66158653441E+02  0.00000000000E+00 0.  1.
</event>
<event>
 6    1  0.1383644E-005  0.1342074E+03  0.7818608E-02  0.1352635E+00
          2   -1    0    0  502    0  0.00000000000E+00  0.00000000000E+00  0.74941001504E+03  0.74941001504E+03  0.00000000000E+00 0. -1.
          1   -1    0    0  501    0 -0.00000000000E+00 -0.00000000000E+00 -0.34695949104E+02  0.34695949104E+02  0.00000000000E+00 0. -1.
          2    1    1    2  501    0  0.26686427050E+02  0.38581343334E+01  0.16081200345E+03  0.16305689511E+03  0.00000000000E+00 0. -1.
          1    1    1    2  502    0 -0.19488368669E+02 -0.11187567293E+03  0.20689234985E+03  0.23600933696E+03  0.00000000000E+00 0. -1.
         22    1    1    2    0    0 -0.10330004630E+02  0.44977849178E+01 -0.89061072684E+01  0.14361678575E+02  0.00000000000E+00 0. -1.
         22    1    1    2    0    0  0.31319462482E+01  0.10351975367E+03  0.35591581991E+03  0.37067805350E+03  0.00000000000E+00 0. -1.
</event>
<event>
 6    1  0.1383644E-005  0.1397221E+03  0.7818608E-02  0.1254332E+00
          2   -1    0    0  502    0  0.00000000000E+00  0.00000000000E+00  0.10158584649E+03  0.10158584649E+03  0.00000000000E+00 0. -1.
          1   -1    0    0  501    0 -0.00000000000E+00 -0.00000000000E+00 -0.25433470633E+03  0.25433470633E+03  0.00000000000E+00 0. -1.
          2    1    1    2  501    0 -0.62150713118E+02 -0.14036628671E+02  0.24545847997E+02  0.68280573660E+02  0.00000000000E+00 0. -1.
          1    1    1    2  502    0 -0.65777219905E+01  0.70023595623E+02 -0.27246828557E+02  0.75425194974E+02  0.00000000000E+00 0. -1.
         22    1    1    2    0    0  0.11562903480E+02 -0.76419194756E+02 -0.41205097693E+02  0.87586837709E+02  0.00000000000E+00 0. -1.
         22    1    1    2    0    0  0.57165531628E+02  0.20432227805E+02 -0.10884278159E+03  0.12462794648E+03  0.00000000000E+00 0. -1.
</event>
<event>
 6    1  0.1383644E-005  0.4704613E+02  0.7818608E-02  0.1524464E+00
          2   -1    0    0  502    0  0.00000000000E+00  0.00000000000E+00  0.16893412021E+03  0.16893412021E+03  0.00000000000E+00 0.  1.
          1   -1    0    0  501    0 -0.00000000000E+00 -0.00000000000E+00 -0.21497240255E+03  0.21497240255E+03  0.00000000000E+00 0.  1.
          2    1    1    2  501    0  0.35700228893E+02 -0.24194846689E+01  0.10479511402E+03  0.11073561383E+03  0.00000000000E+00 0.  1.
          1    1    1    2  502    0 -0.28858526027E+02 -0.16967240296E+02 -0.14606658929E+03  0.14985376297E+03  0.00000000000E+00 0.  1.
         22    1    1    2    0    0  0.69984915231E+01  0.18479843339E+02  0.56835497908E+02  0.60172729005E+02  0.00000000000E+00 0.  1.
         22    1    1    2    0    0 -0.13840194389E+02  0.90688162653E+00 -0.61602304968E+02  0.63144416953E+02  0.00000000000E+00 0.  1.
</event>
<event>
 6    1  0.1383644E-005  0.1639455E+03  0.7818608E-02  0.1260080E+00
          2   -1    0    0  502    0  0.00000000000E+00  0.00000000000E+00  0.30282351361E+03  0.30282351361E+03  0.00000000000E+00 0.  1.
          1   -1    0    0  501    0 -0.00000000000E+00 -0.00000000000E+00 -0.19568339760E+03  0.19568339760E+03  0.00000000000E+00 0. -1.
          2    1    1    2  501    0  0.68416551218E+02  0.33655367497E+02  0.17355882186E+03  0.18956838578E+03  0.00000000000E+00 0.  1.
          1    1    1    2  502    0 -0.12978426030E+03  0.23883904463E+02 -0.90077414937E+02  0.15977589241E+03  0.00000000000E+00 0. -1.
         22    1    1    2    0    0  0.71947248508E+02 -0.25704301654E+02  0.61872944955E+02  0.98312659453E+02  0.00000000000E+00 0.  1.
         22    1    1    2    0    0 -0.10579539425E+02 -0.31834970306E+02 -0.38214235864E+02  0.50849973565E+02  0.00000000000E+00 0.  1.
</event>
<event>
 6    1  0.1383644E-005  0.1426612E+03  0.7818608E-02  0.1291511E+00
          2   -1    0    0  502    0  0.00000000000E+00  0.00000000000E+00  0.76024939864E+02  0.76024939864E+02  0.00000000000E+00 0. -1.
          1   -1    0    0  501    0 -0.00000000000E+00 -0.00000000000E+00 -0.37590031026E+03  0.37590031026E+03  0.00000000000E+00 0. -1.
          2    1    1    2  501    0  0.11460174695E+03 -0.15233503525E+02 -0.67545049690E+02  0.13389530900E+03  0.00000000000E+00 0. -1.
          1    1    1    2  502    0 -0.91554885364E+02  0.18498157531E+02 -0.11101246270E+03  0.14508013558E+03  0.00000000000E+00 0. -1.
         22    1    1    2    0    0  0.26301519488E+02  0.92415286901E+01  0.11918564536E+02  0.30318772411E+02  0.00000000000E+00 0. -1.
         22    1    1    2    0    0 -0.49348381077E+02 -0.12506182697E+02 -0.13323642254E+03  0.14263103313E+03  0.00000000000E+00 0.  1.
</event>
<event>
 6    1  0.1383644E-005  0.7021283E+02  0.7818608E-02  0.1427924E+00
          2   -1    0    0  502    0  0.00000000000E+00  0.00000000000E+00  0.43653904593E+03  0.43653904593E+03  0.00000000000E+00 0.  1.
          1   -1    0    0  501    0 -0.00000000000E+00 -0.00000000000E+00 -0.44441065386E+02  0.44441065386E+02  0.00000000000E+00 0. -1.
          2    1    1    2  501    0 -0.20763002106E+02 -0.14953862668E+02  0.17952912060E+03  0.18134339086E+03  0.00000000000E+00 0.  1.
          1    1    1    2  502    0  0.70083351447E+02  0.29729748512E+02  0.85191923776E+02  0.11425059288E+03  0.00000000000E+00 0. -1.
         22    1    1    2    0    0 -0.10472623563E+02 -0.20986783384E+02 -0.21244638552E+02  0.31645783105E+02  0.00000000000E+00 0. -1.
         22    1    1    2    0    0 -0.38847725778E+02  0.62108975405E+01  0.14862157472E+03  0.15374034448E+03  0.00000000000E+00 0.  1.
</event>
<event>
 6    1  0.1383644E-005  0.7502176E+02  0.7818608E-02  0.1350621E+00
          2   -1    0    0  502    0  0.00000000000E+00  0.00000000000E+00  0.72492286668E+03  0.72492286668E+03  0.00000000000E+00 0. -1.
          1   -1    0    0  501    0 -0.00000000000E+00 -0.00000000000E+00 -0.72815454282E+02  0.72815454282E+02  0.00000000000E+00 0.  1.
          2    1    1    2  501    0 -0.77210288860E+02  0.27506729579E+02  0.48693431225E+03  0.49378444014E+03  0.00000000000E+00 0. -1.
          1    1    1    2  502    0  0.23522970916E+02 -0.57068060897E+02 -0.25600944209E+02  0.66824412304E+02  0.00000000000E+00 0.  1.
         22    1    1    2    0    0  0.93786390444E+00 -0.11343077013E+02 -0.16120408625E+02  0.19733538940E+02  0.00000000000E+00 0.  1.
         22    1    1    2    0    0  0.52749454040E+02  0.40904408331E+02  0.20689445298E+03  0.21739592958E+03  0.00000000000E+00 0. -1.
</event>
<event>
 6    1  0.1383644E-005  0.5815149E+02  0.7818608E-02  0.1408964E+00
          2   -1    0    0  502    0  0.00000000000E+00  0.00000000000E+00  0.27461626749E+03  0.27461626749E+03  0.00000000000E+00 0. -1.
          1   -1    0    0  501    0 -0.00000000000E+00 -0.00000000000E+00 -0.84966481522E+02  0.84966481522E+02  0.00000000000E+00 0.  1.
          2    1    1    2  501    0 -0.44564668817E+02 -0.31726572996E+02  0.16954899319E+03  0.17815567977E+03  0.00000000000E+00 0. -1.
          1    1    1    2  502    0 -0.11752414752E+02  0.42885510237E+02  0.17989956826E+02  0.47967955839E+02  0.00000000000E+00 0.  1.
         22    1    1    2    0    0  0.59609171329E+02 -0.16036906136E+01 -0.51568828138E+02  0.78836344192E+02  0.00000000000E+00 0.  1.
         22    1    1    2    0    0 -0.32920877602E+01 -0.95552466275E+01  0.53679664084E+02  0.54622769210E+02  0.00000000000E+00 0.  1.
</event>
<event>
 6    1  0.1383644E-005  0.6131126E+02  0.7818608E-02  0.1426742E+00
          2   -1    0    0  502    0  0.00000000000E+00  0.00000000000E+00  0.12264269311E+03  0.12264269311E+03  0.00000000000E+00 0.  1.
          1   -1    0    0  501    0 -0.00000000000E+00 -0.00000000000E+00 -0.20701066516E+03  0.20701066516E+03  0.00000000000E+00 0.  1.
          2    1    1    2  501    0 -0.38206315574E+02  0.31922168214E+02  0.81966747718E+02  0.95902529188E+02  0.00000000000E+00 0.  1.
          1    1    1    2  502    0  0.31256586911E+02 -0.49893380786E+01 -0.39279484271E+02  0.50445471594E+02  0.00000000000E+00 0.  1.
         22    1    1    2    0    0 -0.17088125492E+02 -0.31530749641E+00  0.23207488749E+02  0.28821710319E+02  0.00000000000E+00 0.  1.
         22    1    1    2    0    0  0.24037854155E+02 -0.26617522639E+02 -0.15026272425E+03  0.15448364717E+03  0.00000000000E+00 0. -1.
</event>
<event>
 6    1  0.1383644E-005  0.5389600E+02  0.7818608E-02  0.1426968E+00
          2   -1    0    0  502    0  0.00000000000E+00  0.00000000000E+00  0.88216503550E+02  0.88216503550E+02  0.00000000000E+00 0. -1.
          1   -1    0    0  501    0 -0.00000000000E+00 -0.00000000000E+00 -0.27139375611E+03  0.27139375611E+03  0.00000000000E+00 0. -1.
          2    1    1    2  501    0  0.13527034797E+02  0.16583359618E+02 -0.63192898897E+02  0.66718295524E+02  0.00000000000E+00 0. -1.
          1    1    1    2  502    0 -0.36289975168E+02 -0.28515371683E+02  0.57540871064E+02  0.73763409375E+02  0.00000000000E+00 0. -1.
         22    1    1    2    0    0  0.28771088198E+02  0.66146874963E+02 -0.11875428631E+03  0.13894518740E+03  0.00000000000E+00 0. -1.
         22    1    1    2    0    0 -0.60081478269E+01 -0.54214862898E+02 -0.58770938415E+02  0.80183367362E+02  0.00000000000E+00 0. -1.
</event>
<event>
 6    1  0.1383644E-005  0.3784560E+02  0.7818608E-02  0.1546197E+00
          2   -1    0    0  502    0  0.00000000000E+00  0.00000000000E+00  0.15871615767E+03  0.15871615767E+03  0.00000000000E+00 0. -1.
          1   -1    0    0  501    0 -0.00000000000E+00 -0.00000000000E+00 -0.15762227266E+03  0.15762227266E+03  0.00000000000E+00 0. -1.
          2    1    1    2  501    0  0.61378887004E+01  0.22709778141E+02  0.11591018383E+03  0.11827332081E+03  0.00000000000E+00 0. -1.
          1    1    1    2  502    0 -0.21849771591E+02 -0.75069752335E+00 -0.42807511892E+02  0.48067235616E+02  0.00000000000E+00 0. -1.
         22    1    1    2    0    0  0.12121110888E+02  0.63691622208E+01  0.35874896576E+02  0.38399163544E+02  0.00000000000E+00 0. -1.
         22    1    1    2    0    0  0.35907720029E+01 -0.28328242838E+02 -0.10788368350E+03  0.11159871035E+03  0.00000000000E+00 0. -1.
</event>
<event>
 6    1  0.1383644E-005  0.4783769E+02  0.7818608E-02  0.1531763E+00
          2   -1    0    0  502    0  0.00000000000E+00  0.00000000000E+00  0.14610050908E+03  0.14610050908E+03  0.00000000000E+00 0. -1.
          1   -1    0    0  501    0 -0.00000000000E+00 -0.00000000000E+00 -0.24230066325E+03  0.24230066325E+03  0.00000000000E+00 0.  1.
          2    1    1    2  501    0 -0.61504734241E+02  0.52914032062E+02  0.94822265114E+02  0.12479578953E+03  0.00000000000E+00 0. -1.
          1    1    1    2  502    0  0.34127806921E+02 -0.25394822457E+02 -0.21619901427E+02  0.47718176313E+02  0.00000000000E+00 0.  1.
         22    1    1    2    0    0 -0.29361150815E+01 -0.11830351482E+02  0.20006530622E+02  0.23427318572E+02  0.00000000000E+00 0.  1.
         22    1    1    2    0    0  0.30313042401E+02 -0.15688858123E+02 -0.18940904848E+03  0.19245988791E+03  0.00000000000E+00 0.  1.
</event>
<event>
 6    1  0.1383644E-005  0.9939954E+02  0.7818608E-02  0.1341049E+00
          2   -1    0    0  502    0  0.00000000000E+00  0.00000000000E+00  0.40086281573E+03  0.40086281573E+03  0.00000000000E+00 0. -1.
          1   -1    0    0  501    0 -0.00000000000E+00 -0.00000000000E+00 -0.16963610778E+03  0.16963610778E+03  0.00000000000E+00 0.  1.
          2    1    1    2  501    0 -0.18497295101E+03  0.55675470644E+01  0.22035394195E+03  0.28775310584E+03  0.00000000000E+00 0. -1.
          1    1    1    2  502    0  0.14036070681E+03 -0.36251420264E+02  0.25303879938E+02  0.14715834950E+03  0.00000000000E+00 0.  1.
         22    1    1    2    0    0 -0.10923971522E+02  0.16115335252E+02  0.47380220913E+02  0.51224237602E+02  0.00000000000E+00 0. -1.
         22    1    1    2    0    0  0.55536215723E+02  0.14568537948E+02 -0.61811334851E+02  0.84363230561E+02  0.00000000000E+00 0.  1.
</event>
<event>
 6    1  0.1383644E-005  0.6118104E+02  0.7818608E-02  0.1455936E+00
          2   -1    0    0  502    0  0.00000000000E+00  0.00000000000E+00  0.18964615774E+03  0.18964615774E+03  0.00000000000E+00 0.  1.
          1   -1    0    0  501    0 -0.00000000000E+00 -0.00000000000E+00 -0.99458732403E+02  0.99458732403E+02  0.00000000000E+00 0. -1.
          2    1    1    2  501    0 -0.32392316906E+02 -0.27201429217E+01  0.60354721277E+02  0.68551832598E+02  0.00000000000E+00 0.  1.
          1    1    1    2  502    0  0.22613832437E+02 -0.92160775383E+00 -0.61408755127E+02  0.65446695750E+02  0.00000000000E+00 0. -1.
         22    1    1    2    0    0  0.11806171523E+02 -0.19620329648E+02  0.11764854148E+03  0.11985625697E+03  0.00000000000E+00 0.  1.
         22    1    1    2    0    0 -0.20276870537E+01  0.23262080324E+02 -0.26407082289E+02  0.35250104834E+02  0.00000000000E+00 0. -1.
</event>
<event>
 6    1  0.1383644E-005  0.1380466E+03  0.7818608E-02  0.1340265E+00
          2   -1    0    0  502    0  0.00000000000E+00  0.00000000000E+00  0.11459518487E+03  0.11459518487E+03  0.00000000000E+00 0. -1.
          1   -1    0    0  501    0 -0.00000000000E+00 -0.00000000000E+00 -0.56071076058E+03  0.56071076058E+03  0.00000000000E+00 0. -1.
          2    1    1    2  501    0 -0.14525075856E+02  0.27861460798E+02  0.35101182842E+02  0.47109785218E+02  0.00000000000E+00 0. -1.
          1    1    1    2  502    0 -0.10286111226E+01 -0.12683295254E+03 -0.45065182713E+03  0.46816100349E+03  0.00000000000E+00 0. -1.
         22    1    1    2    0    0  0.12711432760E+02 -0.15048727879E+01 -0.55100228812E+02  0.56567485184E+02  0.00000000000E+00 0. -1.
         22    1    1    2    0    0  0.28422542191E+01  0.10047636453E+03  0.24535297394E+02  0.10346767155E+03  0.00000000000E+00 0. -1.
</event>
<event>
 6    1  0.1383644E-005  0.5066677E+02  0.7818608E-02  0.1521128E+00
          2   -1    0    0  502    0  0.00000000000E+00  0.00000000000E+00  0.23191554505E+03  0.23191554505E+03  0.00000000000E+00 0.  1.
          1   -1    0    0  501    0 -0.00000000000E+00 -0.00000000000E+00 -0.12035202101E+03  0.12035202101E+03  0.00000000000E+00 0.  1.
          2    1    1    2  501    0 -0.32342764851E+02 -0.14147900595E+01  0.15626025606E+03  0.15957858157E+03  0.00000000000E+00 0.  1.
          1    1    1    2  502    0  0.49532074216E+02  0.28165891101E+02 -0.18830385404E+02  0.60011059081E+02  0.00000000000E+00 0.  1.
         22    1    1    2    0    0 -0.12656374536E+02 -0.10845416586E+02  0.51206329211E+02  0.53850673427E+02  0.00000000000E+00 0.  1.
         22    1    1    2    0    0 -0.45329348285E+01 -0.15905684455E+02 -0.77072675827E+02  0.78827251984E+02  0.00000000000E+00 0.  1.
</event>
<event>
 6    1  0.1383644E-005  0.8588940E+02  0.7818608E-02  0.1390683E+00
          2   -1    0    0  502    0  0.00000000000E+00  0.00000000000E+00  0.48854383350E+02  0.48854383350E+02  0.00000000000E+00 0. -1.
          1   -1    0    0  501    0 -0.00000000000E+00 -0.00000000000E+00 -0.60428706001E+03  0.60428706001E+03  0.00000000000E+00 0. -1.
          2    1    1    2  501    0  0.62718830323E+02  0.21308409694E+02 -0.34986715822E+03  0.35608247416E+03  0.00000000000E+00 0. -1.
          1    1    1    2  502    0  0.28321230671E+02 -0.37778960714E+02 -0.93185962661E+02  0.10446514068E+03  0.00000000000E+00 0. -1.
         22    1    1    2    0    0 -0.83129571719E+02  0.37990806762E+02 -0.15086929747E+02  0.92636075812E+02  0.00000000000E+00 0. -1.
         22    1    1    2    0    0 -0.79104892751E+01 -0.21520255742E+02 -0.97292626027E+02  0.99957752711E+02  0.00000000000E+00 0. -1.
</event>
<event>
 6    1  0.1383644E-005  0.4876255E+02  0.7818608E-02  0.1517711E+00
          2   -1    0    0  502    0  0.00000000000E+00  0.00000000000E+00  0.34190098059E+03  0.34190098059E+03  0.00000000000E+00 0. -1.
          1   -1    0    0  501    0 -0.00000000000E+00 -0.00000000000E+00 -0.16377229113E+03  0.16377229113E+03  0.00000000000E+00 0.  1.
          2    1    1    2  501    0  0.42750140148E+02  0.56093570674E+02  0.24161233800E+03  0.25169542115E+03  0.00000000000E+00 0. -1.
          1    1    1    2  502    0 -0.21191241311E+02 -0.67896616099E+02 -0.10288251048E+03  0.12507529792E+03  0.00000000000E+00 0.  1.
         22    1    1    2    0    0  0.14155472428E+02  0.30284525923E+01 -0.39383202813E+02  0.41959332556E+02  0.00000000000E+00 0. -1.
         22    1    1    2    0    0 -0.35714371264E+02  0.87745928322E+01  0.78782064749E+02  0.86943220094E+02  0.00000000000E+00 0.  1.
</event>
<event>
 6    1  0.1383644E-005  0.3579476E+02  0.7818608E-02  0.1598738E+00
          2   -1    0    0  502    0  0.00000000000E+00  0.00000000000E+00  0.39962915593E+03  0.39962915593E+03  0.00000000000E+00 0.  1.
          1   -1    0    0  501    0 -0.00000000000E+00 -0.00000000000E+00 -0.80745184528E+02  0.80745184528E+02  0.00000000000E+00 0. -1.
          2    1    1    2  501    0  0.20409000940E+02  0.40987219720E+02  0.98355485377E+02  0.10849092590E+03  0.00000000000E+00 0.  1.
          1    1    1    2  502    0  0.25382493419E+01 -0.65868434867E+02  0.23532118753E+03  0.24437912088E+03  0.00000000000E+00 0. -1.
         22    1    1    2    0    0 -0.29538595779E+01  0.11443974584E+02  0.53655006849E+02  0.54941328712E+02  0.00000000000E+00 0. -1.
         22    1    1    2    0    0 -0.19993390704E+02  0.13437240563E+02 -0.68447708352E+02  0.72562964965E+02  0.00000000000E+00 0. -1.
</event>
<event>
 6    1  0.1383644E-005  0.2331300E+03  0.7818608E-02  0.1232361E+00
          2   -1    0    0  502    0  0.00000000000E+00  0.00000000000E+00  0.44363670651E+04  0.44363670651E+04  0.00000000000E+00 0. -1.
          1   -1    0    0  501    0 -0.00000000000E+00 -0.00000000000E+00 -0.62903650956E+02  0.62903650956E+02  0.00000000000E+00 0.  1.
          2    1    1    2  501    0 -0.10530162160E+02  0.93272408776E+02  0.42701152708E+04  0.42711468077E+04  0.00000000000E+00 0. -1.
          1    1    1    2  502    0  0.57628174053E+00 -0.55675850051E+02 -0.93302875226E+01  0.56455173765E+02  0.00000000000E+00 0.  1.
         22    1    1    2    0    0  0.26976343356E+02 -0.26409184007E+02  0.13574434951E+03  0.14089604865E+03  0.00000000000E+00 0.  1.
         22    1    1    2    0    0 -0.17022462936E+02 -0.11187374718E+02 -0.23065918672E+02  0.30772685968E+02  0.00000000000E+00 0.  1.
</event>
<event>
 6    1  0.1383644E-005  0.7180288E+02  0.7818608E-02  0.1463415E+00
          2   -1    0    0  502    0  0.00000000000E+00  0.00000000000E+00  0.46891046244E+03  0.46891046244E+03  0.00000000000E+00 0.  1.
          1   -1    0    0  501    0 -0.00000000000E+00 -0.00000000000E+00 -0.10547150098E+03  0.10547150098E+03  0.00000000000E+00 0. -1.
          2    1    1    2  501    0  0.80403821323E+01 -0.18504215443E+02  0.38244691074E+03  0.38297871125E+03  0.00000000000E+00 0.  1.
          1    1    1    2  502    0 -0.40838591932E+02  0.36643234980E+02 -0.15527319558E+02  0.57022933224E+02  0.00000000000E+00 0. -1.
         22    1    1    2    0    0  0.83237892265E+01 -0.99299028816E+01 -0.65727736834E+02  0.66992714735E+02  0.00000000000E+00 0. -1.
         22    1    1    2    0    0  0.24474420573E+02 -0.82091166552E+01  0.62247107106E+02  0.67387604214E+02  0.00000000000E+00 0.  1.
</event>
<event>
 6    1  0.1383644E-005  0.1788002E+03  0.7818608E-02  0.1179618E+00
          2   -1    0    0  502    0  0.00000000000E+00  0.00000000000E+00  0.15704349856E+04  0.15704349856E+04  0.00000000000E+00 0.  1.
          1   -1    0    0  501    0 -0.00000000000E+00 -0.00000000000E+00 -0.46894155647E+02  0.46894155647E+02  0.00000000000E+00 0.  1.
          2    1    1    2  501    0  0.22508005336E+02 -0.11864112154E+03  0.38461641542E+03  0.40312791151E+03  0.00000000000E+00 0.  1.
          1    1    1    2  502    0  0.14973185423E+03  0.10286450734E+03  0.73883973217E+03  0.76084484941E+03  0.00000000000E+00 0.  1.
         22    1    1    2    0    0 -0.19134930948E+03  0.19634249683E+02  0.34612512682E+03  0.39598316305E+03  0.00000000000E+00 0.  1.
         22    1    1    2    0    0  0.19109449912E+02 -0.38576354868E+01  0.53959555575E+02  0.57373217318E+02  0.00000000000E+00 0.  1.
</event>
<event>
 6    1  0.1383644E-005  0.3211914E+03  0.7818608E-02  0.1218857E+00
          2   -1    0    0  502    0  0.00000000000E+00  0.00000000000E+00  0.27585296193E+03  0.27585296193E+03  0.00000000000E+00 0. -1.
          1   -1    0    0  501    0 -0.00000000000E+00 -0.00000000000E+00 -0.31125547480E+03  0.31125547480E+03  0.00000000000E+00 0. -1.
          2    1    1    2  501    0 -0.36749673945E+02  0.14266464493E+03  0.98002390539E+02  0.17694125578E+03  0.00000000000E+00 0. -1.
          1    1    1    2  502    0  0.17170633386E+03 -0.43834093242E+02 -0.89576816327E+02  0.19856610698E+03  0.00000000000E+00 0. -1.
         22    1    1    2    0    0 -0.13454122566E+03 -0.88523742053E+02  0.55591905021E+01  0.16114806517E+03  0.00000000000E+00 0. -1.
         22    1    1    2    0    0 -0.41543426285E+00 -0.10306809631E+02 -0.49387277583E+02  0.50453008805E+02  0.00000000000E+00 0.  1.
</event>
<event>
 6    1  0.1383644E-005  0.7824760E+02  0.7818608E-02  0.1376085E+00
          2   -1    0    0  502    0  0.00000000000E+00  0.00000000000E+00  0.37695345663E+03  0.37695345663E+03  0.00000000000E+00 0. -1.
          1   -1    0    0  501    0 -0.00000000000E+00 -0.00000000000E+00 -0.11650438293E+03  0.11650438293E+03  0.00000000000E+00 0.  1.
          2    1    1    2  501    0 -0.41873619678E+02 -0.53737653192E+02  0.29323979825E+03  0.30104935588E+03  0.00000000000E+00 0. -1.
          1    1    1    2  502    0  0.15341438651E+02  0.52023938335E+02 -0.41804496510E+02  0.68479674563E+02  0.00000000000E+00 0.  1.
         22    1    1    2    0    0  0.37890287016E+02  0.64149445324E+01 -0.50330680964E+02  0.63324582981E+02  0.00000000000E+00 0. -1.
         22    1    1    2    0    0 -0.11358105988E+02 -0.47012296752E+01  0.59344452928E+02  0.60604226135E+02  0.00000000000E+00 0. -1.
</event>
<event>
 6    1  0.1383644E-005  0.1822207E+03  0.7818608E-02  0.1262833E+00
          2   -1    0    0  502    0  0.00000000000E+00  0.00000000000E+00  0.54115696414E+03  0.54115696414E+03  0.00000000000E+00 0.  1.
          1   -1    0    0  501    0 -0.00000000000E+00 -0.00000000000E+00 -0.51243052369E+02  0.51243052369E+02  0.00000000000E+00 0.  1.
          2    1    1    2  501    0  0.48034967134E+02  0.11336615342E+02  0.11012347811E+03  0.12067749312E+03  0.00000000000E+00 0.  1.
          1    1    1    2  502    0  0.79165084660E+02 -0.53258784287E+02  0.12616156789E+03  0.15817822210E+03  0.00000000000E+00 0.  1.
         22    1    1    2    0    0 -0.11947196058E+03  0.63742206871E+02  0.25666715150E+03  0.29019759641E+03  0.00000000000E+00 0.  1.
         22    1    1    2    0    0 -0.77280912122E+01 -0.21820037926E+02 -0.30382857256E+01  0.23346704886E+02  0.00000000000E+00 0.  1.
</event>
<event>
 6    1  0.1383644E-005  0.9341277E+02  0.7818608E-02  0.1296327E+00
          2   -1    0    0  502    0  0.00000000000E+00  0.00000000000E+00  0.22439955055E+03  0.22439955055E+03  0.00000000000E+00 0.  1.
          1   -1    0    0  501    0 -0.00000000000E+00 -0.00000000000E+00 -0.11641298121E+03  0.11641298121E+03  0.00000000000E+00 0. -1.
          2    1    1    2  501    0 -0.25069644500E+02 -0.19005254351E+02  0.52398427279E+02  0.61116953046E+02  0.00000000000E+00 0.  1.
          1    1    1    2  502    0  0.61995599352E+02  0.41755307165E+02 -0.64022066049E+02  0.98416385610E+02  0.00000000000E+00 0. -1.
         22    1    1    2    0    0  0.17934875035E+02 -0.34438314596E+01 -0.21763113980E+02  0.28410435543E+02  0.00000000000E+00 0.  1.
         22    1    1    2    0    0 -0.54860829887E+02 -0.19306221354E+02  0.14137332209E+03  0.15286875756E+03  0.00000000000E+00 0.  1.
</event>
<event>
 6    1  0.1383644E-005  0.2749169E+03  0.7818608E-02  0.1159409E+00
          2   -1    0    0  502    0  0.00000000000E+00  0.00000000000E+00  0.49622521278E+03  0.49622521278E+03  0.00000000000E+00 0.  1.
          1   -1    0    0  501    0 -0.00000000000E+00 -0.00000000000E+00 -0.20166969484E+03  0.20166969484E+03  0.00000000000E+00 0.  1.
          2    1    1    2  501    0  0.19807776291E+03  0.23623913257E+01  0.53288972077E+02  0.20513433549E+03  0.00000000000E+00 0.  1.
          1    1    1    2  502    0 -0.25689588015E+03 -0.84700374923E+02  0.17596566470E+03  0.32269732243E+03  0.00000000000E+00 0.  1.
         22    1    1    2    0    0 -0.13907496477E+02  0.59752684621E+02  0.70836708806E+02  0.93710410799E+02  0.00000000000E+00 0. -1.
         22    1    1    2    0    0  0.72725613717E+02  0.22585298976E+02 -0.55358276514E+01  0.76352838901E+02  0.00000000000E+00 0.  1.
</event>
<event>
 6    1  0.1383644E-005  0.2204270E+02  0.7818608E-02  0.1711144E+00
          2   -1    0    0  502    0  0.00000000000E+00  0.00000000000E+00  0.22958943325E+03  0.22958943325E+03  0.00000000000E+00 0. -1.
          1   -1    0    0  501    0 -0.00000000000E+00 -0.00000000000E+00 -0.10369598497E+03  0.10369598497E+03  0.00000000000E+00 0. -1.
          2    1    1    2  501    0 -0.97322986663E+01 -0.43860863724E+02  0.16111626355E+03  0.16726309630E+03  0.00000000000E+00 0. -1.
          1    1    1    2  502    0 -0.12600215364E+02  0.29919395319E+02 -0.76846186252E+01  0.33361489879E+02  0.00000000000E+00 0. -1.
         22    1    1    2    0    0  0.10520313858E+02  0.75680179410E+01  0.51185760435E+02  0.52800889865E+02  0.00000000000E+00 0. -1.
         22    1    1    2    0    0  0.11812200173E+02  0.63734504631E+01 -0.78723957091E+02  0.79859942173E+02  0.00000000000E+00 0. -1.
</event>
<event>
 6    1  0.1383644E-005  0.9126940E+02  0.7818608E-02  0.1410057E+00
          2   -1    0    0  502    0  0.00000000000E+00  0.00000000000E+00  0.16081199662E+03  0.16081199662E+03  0.00000000000E+00 0. -1.
          1   -1    0    0  501    0 -0.00000000000E+00 -0.00000000000E+00 -0.55185192403E+03  0.55185192403E+03  0.00000000000E+00 0. -1.
          2    1    1    2  501    0  0.40343940657E+02  0.28367133737E+02  0.61497202250E+02  0.78830411066E+02  0.00000000000E+00 0. -1.
          1    1    1    2  502    0 -0.75169041302E+02 -0.53081504077E+02 -0.49129135912E+03  0.49983520323E+03  0.00000000000E+00 0. -1.
         22    1    1    2    0    0  0.23230402935E+02  0.32670102815E+02  0.80510208234E+02  0.89938205832E+02  0.00000000000E+00 0. -1.
         22    1    1    2    0    0  0.11594697710E+02 -0.79557324743E+01 -0.41755978777E+02  0.44060100519E+02  0.00000000000E+00 0.  1.
</event>
<event>
 6    1  0.1383644E-005  0.5282424E+02  0.7818608E-02  0.1432195E+00
          2   -1    0    0  502    0  0.00000000000E+00  0.00000000000E+00  0.16576414990E+03  0.16576414990E+03  0.00000000000E+00 0. -1.
          1   -1    0    0  501    0 -0.00000000000E+00 -0.00000000000E+00 -0.14224157303E+03  0.14224157303E+03  0.00000000000E+00 0.  1.
          2    1    1    2  501    0 -0.31102008781E+02 -0.91017096278E+01  0.86775752735E+02  0.92629408564E+02  0.00000000000E+00 0. -1.
          1    1    1    2  502    0  0.32965872542E+02  0.19321352499E+02 -0.75612202686E+02  0.84718761853E+02  0.00000000000E+00 0.  1.
         22    1    1    2    0    0  0.98871321192E+01  0.42081781855E+01 -0.57431962202E+02  0.58428541207E+02  0.00000000000E+00 0. -1.
         22    1    1    2    0    0 -0.11750995880E+02 -0.14427821057E+02  0.69790989024E+02  0.72229011301E+02  0.00000000000E+00 0. -1.
</event>
<event>
 6    1  0.1383644E-005  0.1926602E+03  0.7818608E-02  0.1290169E+00
          2   -1    0    0  502    0  0.00000000000E+00  0.00000000000E+00  0.47902659343E+03  0.47902659343E+03  0.00000000000E+00 0. -1.
          1   -1    0    0  501    0 -0.00000000000E+00 -0.00000000000E+00 -0.29106856152E+03  0.29106856152E+03  0.00000000000E+00 0.  1.
          2    1    1    2  501    0  0.25845046489E+02 -0.97906534559E+02  0.26236368982E+03  0.28122653088E+03  0.00000000000E+00 0. -1.
          1    1    1    2  502    0 -0.79299102609E+02  0.16682571272E+03 -0.21175486173E+03  0.28099695295E+03  0.00000000000E+00 0.  1.
         22    1    1    2    0    0  0.44997184854E+02 -0.76868386677E+02  0.15960203647E+03  0.18277391926E+03  0.00000000000E+00 0. -1.
         22    1    1    2    0    0  0.84568712670E+01  0.79492085138E+01 -0.22252832651E+02  0.25097751863E+02  0.00000000000E+00 0.  1.
</event>
<event>
 6    1  0.1383644E-005  0.3959846E+02  0.7818608E-02  0.1520604E+00
          2   -1    0    0  502    0  0.00000000000E+00  0.00000000000E+00  0.10770924168E+04  0.10770924168E+04  0.00000000000E+00 0.  1.
          1   -1    0    0  501    0 -0.00000000000E+00 -0.00000000000E+00 -0.21136382330E+03  0.21136382330E+03  0.00000000000E+00 0. -1.
          2    1    1    2  501    0  0.38212364233E+02 -0.22624029371E+02  0.98707984300E+03  0.98807826003E+03  0.00000000000E+00 0.  1.
          1    1    1    2  502    0 -0.71235578482E+02  0.39765146063E+01 -0.15340751380E+03  0.16918683637E+03  0.00000000000E+00 0. -1.
         22    1    1    2    0    0  0.11747470757E+02  0.21280275047E+02 -0.45034111910E+02  0.51175427803E+02  0.00000000000E+00 0.  1.
         22    1    1    2    0    0  0.21275743493E+02 -0.26327602828E+01  0.77090376168E+02  0.80015715867E+02  0.00000000000E+00 0. -1.
</event>
<event>
 6    1  0.1383644E-005  0.6555804E+02  0.7818608E-02  0.1469732E+00
          2   -1    0    0  502    0  0.00000000000E+00  0.00000000000E+00  0.77698090144E+03  0.77698090144E+03  0.00000000000E+00 0.  1.
          1   -1    0    0  501    0 -0.00000000000E+00 -0.00000000000E+00 -0.41296435358E+02  0.41296435358E+02  0.00000000000E+00 0.  1.
          2    1    1    2  501    0 -0.42473625740E+01  0.41624085054E+02  0.53107526073E+03  0.53272088105E+03  0.00000000000E+00 0.  1.
          1    1    1    2  502    0 -0.26877627150E+02 -0.31607841177E+02  0.13723067659E+03  0.14336568998E+03  0.00000000000E+00 0.  1.
         22    1    1    2    0    0  0.19597991114E+02  0.41214209241E+00  0.10219705886E+03  0.10406003054E+03  0.00000000000E+00 0.  1.
         22    1    1    2    0    0  0.11526998611E+02 -0.10428385969E+02 -0.34818530100E+02  0.38130735230E+02  0.00000000000E+00 0.  1.
</event>
<event>
 6    1  0.1383644E-005  0.1408687E+03  0.7818608E-02  0.1213560E+00
          2   -1    0    0  502    0  0.00000000000E+00  0.00000000000E+00  0.77009283365E+03  0.77009283365E+03  0.00000000000E+00 0.  1.
          1   -1    0    0  501    0 -0.00000000000E+00 -0.00000000000E+00 -0.34815534168E+02  0.34815534168E+02  0.00000000000E+00 0. -1.
          2    1    1    2  501    0 -0.73929224439E+01 -0.46280356602E+02  0.28816734635E+03  0.29195367134E+03  0.00000000000E+00 0.  1.
          1    1    1    2  502    0 -0.18431162728E+02  0.99982794438E+02  0.12833460745E+03  0.16372549714E+03  0.00000000000E+00 0. -1.
         22    1    1    2    0    0  0.20779632774E+02 -0.86109318951E+02  0.29683422045E+03  0.30976953107E+03  0.00000000000E+00 0.  1.
         22    1    1    2    0    0  0.50444523979E+01  0.32406881115E+02  0.21941125238E+02  0.39459668274E+02  0.00000000000E+00 0.  1.
</event>
<event>
 6    1  0.1383644E-005  0.3290801E+02  0.7818608E-02  0.1643759E+00
          2   -1    0    0  502    0  0.00000000000E+00  0.00000000000E+00  0.39660512146E+03  0.39660512146E+03  0.00000000000E+00 0.  1.
          1   -1    0    0  501    0 -0.00000000000E+00 -0.00000000000E+00 -0.81302188788E+02  0.81302188788E+02  0.00000000000E+00 0.  1.
          2    1    1    2  501    0  0.30078732130E+02  0.37362591398E+02  0.29760510489E+03  0.30144566977E+03  0.00000000000E+00 0.  1.
          1    1    1    2  502    0 -0.44475334811E+02 -0.51535503465E+01 -0.14851629009E+02  0.47171870558E+02  0.00000000000E+00 0.  1.
         22    1    1    2    0    0  0.46550882282E+01 -0.92214388036E+01 -0.45856087072E+02  0.47005164626E+02  0.00000000000E+00 0.  1.
         22    1    1    2    0    0  0.97415144522E+01 -0.22987602248E+02  0.78405543856E+02  0.82284605294E+02  0.00000000000E+00 0.  1.
</event>
<event>
 6    1  0.1383644E-005  0.1771376E+03  0.7818608E-02  0.1217282E+00
          2   -1    0    0  502    0  0.00000000000E+00  0.00000000000E+00  0.15550879936E+03  0.15550879936E+03  0.00000000000E+00 0.  1.
          1   -1    0    0  501    0 -0.00000000000E+00 -0.00000000000E+00 -0.48493477594E+03  0.48493477594E+03  0.00000000000E+00 0. -1.
          2    1    1    2  501    0  0.37134043442E+02  0.10738777282E+03  0.17161869669E+02  0.11491562428E+03  0.00000000000E+00 0.  1.
          1    1    1    2  502    0 -0.82374915226E+02 -0.17556033475E+03 -0.31341017478E+03  0.36855528141E+03  0.00000000000E+00 0. -1.
         22    1    1    2    0    0 -0.16861858908E+02  0.54595325702E+02  0.32362112788E+02  0.65667939045E+02  0.00000000000E+00 0. -1.
         22    1    1    2    0    0  0.62102730693E+02  0.13577236230E+02 -0.65539784255E+02  0.91304730563E+02  0.00000000000E+00 0. -1.
</event>
<event>
 6    1  0.1383644E-005  0.4692346E+02  0.7818608E-02  0.1500675E+00
          2   -1    0    0  502    0  0.00000000000E+00  0.00000000000E+00  0.27046137058E+03  0.27046137058E+03  0.00000000000E+00 0.  1.
          1   -1    0    0  501    0 -0.00000000000E+00 -0.00000000000E+00 -0.82787975464E+02  0.82787975464E+02  0.00000000000E+00 0. -1.
          2    1    1    2  501    0  0.42844662844E+02 -0.44262220378E+02  0.10641510072E+03  0.12295927353E+03  0.00000000000E+00 0.  1.
          1    1    1    2  502    0 -0.32558419911E+02  0.54294873518E+02 -0.24024442690E+02  0.67713793602E+02  0.00000000000E+00 0. -1.
         22    1    1    2    0    0  0.84963545692E+01  0.16680672488E+02 -0.23313223608E+02  0.29898817211E+02  0.00000000000E+00 0. -1.
         22    1    1    2    0    0 -0.18782597503E+02 -0.26713325627E+02  0.12859596070E+03  0.13267746170E+03  0.00000000000E+00 0.  1.
</event>
<event>
 6    1  0.1383644E-005  0.6857493E+02  0.7818608E-02  0.1482687E+00
          2   -1    0    0  502    0  0.00000000000E+00  0.00000000000E+00  0.27536109624E+03  0.27536109624E+03  0.00000000000E+00 0.  1.
          1   -1    0    0  501    0 -0.00000000000E+00 -0.00000000000E+00 -0.55241826966E+02  0.55241826966E+02  0.00000000000E+00 0.  1.
          2    1    1    2  501    0 -0.24012591124E+02  0.38255994170E+00  0.79991588792E+02  0.83518891049E+02  0.00000000000E+00 0.  1.
          1    1    1    2  502    0  0.46493027083E+02  0.27683275632E+02  0.91409350737E+00  0.54118396909E+02  0.00000000000E+00 0.  1.
         22    1    1    2    0    0 -0.32911121987E+02 -0.32409995175E+02  0.16150158798E+03  0.16797711945E+03  0.00000000000E+00 0.  1.
         22    1    1    2    0    0  0.10430686028E+02  0.43441596018E+01 -0.22288001000E+02  0.24988515807E+02  0.00000000000E+00 0.  1.
</event>
<event>
 6    1  0.1383644E-005  0.3468370E+02  0.7818608E-02  0.1558377E+00
          2   -1    0    0  502    0  0.00000000000E+00  0.00000000000E+00  0.18165276756E+03  0.18165276756E+03  0.00000000000E+00 0.  1.
          1   -1    0    0  501    0 -0.00000000000E+00 -0.00000000000E+00 -0.34106981762E+03  0.34106981762E+03  0.00000000000E+00 0. -1.
          2    1    1    2  501    0 -0.19404921578E+01 -0.20463552877E+02  0.96982808807E+02  0.99137216575E+02  0.00000000000E+00 0.  1.
          1    1    1    2  502    0  0.20823157489E+02  0.12760924321E+02 -0.28914702983E+03  0.29017658406E+03  0.00000000000E+00 0. -1.
         22    1    1    2    0    0  0.49203235495E+01 -0.13293282782E+02  0.77365283050E+02  0.78653086223E+02  0.00000000000E+00 0.  1.
         22    1    1    2    0    0 -0.23802988881E+02  0.20995911338E+02 -0.44618112081E+02  0.54755698318E+02  0.00000000000E+00 0.  1.
</event>
<event>
 6    1  0.1383644E-005  0.1501103E+03  0.7818608E-02  0.1200579E+00
          2   -1    0    0  502    0  0.00000000000E+00  0.00000000000E+00  0.33367946916E+03  0.33367946916E+03  0.00000000000E+00 0.  1.
          1   -1    0    0  501    0 -0.00000000000E+00 -0.00000000000E+00 -0.49911880686E+03  0.49911880686E+03  0.00000000000E+00 0.  1.
          2    1    1    2  501    0  0.70670582692E+02 -0.10365041541E+03  0.23443772071E+03  0.26589243081E+03  0.00000000000E+00 0.  1.
          1    1    1    2  502    0 -0.75794159663E+02  0.11351850419E+03 -0.41508643481E+03  0.43695303386E+03  0.00000000000E+00 0.  1.
         22    1    1    2    0    0 -0.94626460369E+01  0.72829306802E+01 -0.54969136434E+02  0.56251121852E+02  0.00000000000E+00 0.  1.
         22    1    1    2    0    0  0.14586223009E+02 -0.17151019456E+02  0.70178512840E+02  0.73701689495E+02  0.00000000000E+00 0. -1.
</event>
<event>
 6    1  0.1383644E-005  0.1424304E+03  0.7818608E-02  0.1328833E+00
          2   -1    0    0  502    0  0.00000000000E+00  0.00000000000E+00  0.13716831756E+04  0.13716831756E+04  0.00000000000E+00 0.  1.
          1   -1    0    0  501    0 -0.00000000000E+00 -0.00000000000E+00 -0.83827825090E+02  0.83827825090E+02  0.00000000000E+00 0. -1.
          2    1    1    2  501    0 -0.80375051618E+02 -0.10354104068E+03  0.11467118951E+04  0.11541789577E+04  0.00000000000E+00 0.  1.
          1    1    1    2  502    0  0.73060513775E+02  0.10530632789E+03  0.11769924353E+03  0.17401256648E+03  0.00000000000E+00 0. -1.
         22    1    1    2    0    0 -0.24476380653E+01 -0.12119628687E+02  0.73883603640E+02  0.74911035358E+02  0.00000000000E+00 0. -1.
         22    1    1    2    0    0  0.97621759088E+01  0.10354341481E+02 -0.50439391746E+02  0.52408441168E+02  0.00000000000E+00 0.  1.
</event>
<event>
 6    1  0.1383644E-005  0.5914442E+02  0.7818608E-02  0.1443051E+00
          2   -1    0    0  502    0  0.00000000000E+00  0.00000000000E+00  0.19873459089E+03  0.19873459089E+03  0.00000000000E+00 0.  1.
          1   -1    0    0  501    0 -0.00000000000E+00 -0.00000000000E+00 -0.23995000082E+03  0.23995000082E+03  0.00000000000E+00 0.  1.
          2    1    1    2  501    0 -0.11952975699E+02 -0.43152529479E+02  0.15535737097E+03  0.16168156093E+03  0.00000000000E+00 0.  1.
          1    1    1    2  502    0  0.36240873761E+02  0.32459816483E+02 -0.11711587173E+03  0.12681943080E+03  0.00000000000E+00 0.  1.
         22    1    1    2    0    0 -0.19906056230E+02  0.24095991835E+02 -0.11116822929E+03  0.11547832308E+03  0.00000000000E+00 0.  1.
         22    1    1    2    0    0 -0.43818418320E+01 -0.13403278839E+02  0.31711320116E+02  0.34705276904E+02  0.00000000000E+00 0.  1.
</event>
<event>
 6    1  0.1383644E-005  0.3293142E+03  0.7818608E-02  0.1169345E+00
          2   -1    0    0  502    0  0.00000000000E+00  0.00000000000E+00  0.27569932500E+03  0.27569932500E+03  0.00000000000E+00 0. -1.
          1   -1    0    0  501    0 -0.00000000000E+00 -0.00000000000E+00 -0.15273865566E+03  0.15273865566E+03  0.00000000000E+00 0. -1.
          2    1    1    2  501    0 -0.10223234923E+03 -0.71594500825E+02  0.18537431299E+03  0.22347452136E+03  0.00000000000E+00 0. -1.
          1    1    1    2  502    0 -0.81552765140E+01  0.22258800050E+02 -0.10816311872E+02  0.26056771043E+02  0.00000000000E+00 0. -1.
         22    1    1    2    0    0  0.11541808828E+03  0.77259324561E+02 -0.27290296159E+02  0.14154539413E+03  0.00000000000E+00 0.  1.
         22    1    1    2    0    0 -0.50304625326E+01 -0.27923623786E+02 -0.24307035617E+02  0.37361294131E+02  0.00000000000E+00 0.  1.
</event>
<event>
 6    1  0.1383644E-005  0.2403508E+02  0.7818608E-02  0.1717854E+00
          2   -1    0    0  502    0  0.00000000000E+00  0.00000000000E+00  0.22165633855E+03  0.22165633855E+03  0.00000000000E+00 0. -1.
          1   -1    0    0  501    0 -0.00000000000E+00 -0.00000000000E+00 -0.10150296161E+03  0.10150296161E+03  0.00000000000E+00 0.  1.
          2    1    1    2  501    0 -0.13288935491E+02  0.15643669747E+02  0.95868052423E+02  0.98040826623E+02  0.00000000000E+00 0. -1.
          1    1    1    2  502    0 -0.94443762621E+01 -0.38531665282E+02 -0.61243059437E+02  0.72969841726E+02  0.00000000000E+00 0.  1.
         22    1    1    2    0    0  0.13883459592E+02  0.13938510281E+02  0.11679683872E+03  0.11844211267E+03  0.00000000000E+00 0. -1.
         22    1    1    2    0    0  0.88498521611E+01  0.89494852534E+01 -0.31268454762E+02  0.33706519143E+02  0.00000000000E+00 0.  1.
</event>
<event>
 6    1  0.1383644E-005  0.1017259E+03  0.7818608E-02  0.1400496E+00
          2   -1    0    0  502    0  0.00000000000E+00  0.00000000000E+00  0.18023014879E+03  0.18023014879E+03  0.00000000000E+00 0. -1.
          1   -1    0    0  501    0 -0.00000000000E+00 -0.00000000000E+00 -0.12543819979E+03  0.12543819979E+03  0.00000000000E+00 0. -1.
          2    1    1    2  501    0  0.30737640786E+02  0.32269555599E+02  0.42265980572E+02  0.61421005311E+02  0.00000000000E+00 0. -1.
          1    1    1    2  502    0 -0.15554972210E+01 -0.74193080432E+02 -0.56876178048E+02  0.93498301509E+02  0.00000000000E+00 0. -1.
         22    1    1    2    0    0 -0.78454010096E+01 -0.88170745282E+01 -0.32694472084E+02  0.34759453751E+02  0.00000000000E+00 0. -1.
         22    1    1    2    0    0 -0.21336742555E+02  0.50740599362E+02  0.10209661855E+03  0.11598958801E+03  0.00000000000E+00 0. -1.
</event>
<event>
 6    1  0.1383644E-005  0.2872457E+02  0.7818608E-02  0.1624395E+00
          2   -1    0    0  502    0  0.00000000000E+00  0.00000000000E+00  0.11612700548E+03  0.11612700548E+03  0.00000000000E+00 0. -1.
          1   -1    0    0  501    0 -0.00000000000E+00 -0.00000000000E+00 -0.17749375132E+03  0.17749375132E+03  0.00000000000E+00 0. -1.
          2    1    1    2  501    0 -0.70741087017E+01 -0.38551499084E+02  0.39325539294E+02  0.55522600230E+02  0.00000000000E+00 0. -1.
          1    1    1    2  502    0 -0.23912200908E+02  0.40476494534E+02 -0.96672862299E+02  0.10749782448E+03  0.00000000000E+00 0. -1.
         22    1    1    2    0    0  0.17065570364E+02  0.57500246102E+01 -0.65069078240E+02  0.67515045863E+02  0.00000000000E+00 0.  1.
         22    1    1    2    0    0  0.13920739246E+02 -0.76750200601E+01  0.61049655401E+02  0.63085286229E+02  0.00000000000E+00 0. -1.
</event>
<event>
 6    1  0.1383644E-005  0.5018321E+02  0.7818608E-02  0.1472410E+00
          2   -1    0    0  502    0  0.00000000000E+00  0.00000000000E+00  0.30745303018E+03  0.30745303018E+03  0.00000000000E+00 0.  1.
          1   -1    0    0  501    0 -0.00000000000E+00 -0.00000000000E+00 -0.20915775904E+03  0.20915775904E+03  0.00000000000E+00 0.  1.
          2    1    1    2  501    0 -0.45580749513E+00  0.40308421124E+02  0.25230527816E+03  0.25550524449E+03  0.00000000000E+00 0.  1.
          1    1    1    2  502    0 -0.28932853750E+02 -0.22020381109E+02 -0.12857536464E+03  0.13361748240E+03  0.00000000000E+00 0.  1.
         22    1    1    2    0    0  0.32899535789E+02 -0.54812591953E+01  0.44887910635E+02  0.55922698242E+02  0.00000000000E+00 0. -1.
         22    1    1    2    0    0 -0.35108745436E+01 -0.12806780819E+02 -0.70322553013E+02  0.71565364089E+02  0.00000000000E+00 0. -1.
</event>
<event>
 6    1  0.1383644E-005  0.4861587E+02  0.7818608E-02  0.1500859E+00
          2   -1    0    0  502    0  0.00000000000E+00  0.00000000000E+00  0.13031318067E+03  0.13031318067E+03  0.00000000000E+00 0. -1.
          1   -1    0    0  501    0 -0.00000000000E+00 -0.00000000000E+00 -0.13832746305E+03  0.13832746305E+03  0.00000000000E+00 0. -1.
          2    1    1    2  501    0  0.44409057398E+02 -0.25721513518E+02  0.31528705183E+01  0.51416935237E+02  0.00000000000E+00 0. -1.
          1    1    1    2  502    0 -0.77237238124E+02  0.35019626741E+02  0.10915155285E+02  0.85505004678E+02  0.00000000000E+00 0. -1.
         22    1    1    2    0    0  0.59003860202E+01  0.18097441954E+02 -0.68714313756E+02  0.71302095870E+02  0.00000000000E+00 0. -1.
         22    1    1    2    0    0  0.26927794706E+02 -0.27395555177E+02  0.46632005569E+02  0.60416607937E+02  0.00000000000E+00 0. -1.
</event>
<event>
 6    1  0.1383644E-005  0.2290398E+03  0.7818608E-02  0.1182991E+00
          2   -1    0    0  502    0  0.00000000000E+00  0.00000000000E+00  0.14063977026E+03  0.14063977026E+03  0.00000000000E+00 0. -1.
          1   -1    0    0  501    0 -0.00000000000E+00 -0.00000000000E+00 -0.59754579009E+03  0.59754579009E+03  0.00000000000E+00 0. -1.
          2    1    1    2  501    0 -0.39151651345E+02  0.16352206491E+02  0.11353901895E+02  0.43922176044E+02  0.00000000000E+00 0. -1.
          1    1    1    2  502    0  0.96552228639E+02 -0.22857725876E+03 -0.31022859747E+03  0.39725518092E+03  0.00000000000E+00 0. -1.
         22    1    1    2    0    0 -0.41246967096E+02  0.20579764763E+03 -0.17458010356E+03  0.27300585456E+03  0.00000000000E+00 0. -1.
         22    1    1    2    0    0 -0.16153610198E+02  0.64274046454E+01  0.16548779305E+02  0.24002348830E+02  0.00000000000E+00 0. -1.
</event>
<event>
 6    1  0.1383644E-005  0.1401928E+03  0.7818608E-02  0.1214087E+00
          2   -1    0    0  502    0  0.00000000000E+00  0.00000000000E+00  0.51180356036E+03  0.51180356036E+03  0.00000000000E+00 0. -1.
          1   -1    0    0  501    0 -0.00000000000E+00 -0.00000000000E+00 -0.28271655961E+03  0.28271655961E+03  0.00000000000E+00 0. -1.
          2    1    1    2  501    0  0.73249902738E+02  0.10057156347E+03  0.43895898415E+03  0.45625122181E+03  0.00000000000E+00 0. -1.
          1    1    1    2  502    0 -0.62718348177E+02 -0.69061469770E+02 -0.18715126390E+03  0.20911402005E+03  0.00000000000E+00 0. -1.
         22    1    1    2    0    0  0.18420666460E+01  0.12646046374E+02  0.45329077133E+02  0.47096081919E+02  0.00000000000E+00 0.  1.
         22    1    1    2    0    0 -0.12373621207E+02 -0.44156140074E+02 -0.68049796641E+02  0.82058796182E+02  0.00000000000E+00 0. -1.
</event>
<event>
 6    1  0.1383644E-005  0.1363810E+03  0.7818608E-02  0.1335459E+00
          2   -1    0    0  502    0  0.00000000000E+00  0.00000000000E+00  0.22465921671E+03  0.22465921671E+03  0.00000000000E+00 0. -1.
          1   -1    0    0  501    0 -0.00000000000E+00 -0.00000000000E+00 -0.68827535213E+03  0.68827535213E+03  0.00000000000E+00 0. -1.
          2    1    1    2  501    0 -0.38770565770E+02  0.10466148365E+03  0.14474554800E+03  0.18277980358E+03  0.00000000000E+00 0. -1.
          1    1    1    2  502    0  0.53660443142E+02 -0.13218347976E+03 -0.58714153437E+03  0.60422437626E+03  0.00000000000E+00 0. -1.
         22    1    1    2    0    0 -0.13327299566E+01  0.22575070004E+02  0.49146130654E+02  0.54099464998E+02  0.00000000000E+00 0.  1.
         22    1    1    2    0    0 -0.13557147415E+02  0.49469260976E+01 -0.70366279701E+02  0.71830924000E+02  0.00000000000E+00 0. -1.
</event>
<event>
 6    1  0.1383644E-005  0.5224023E+02  0.7818608E-02  0.1489476E+00
          2   -1    0    0  502    0  0.00000000000E+00  0.00000000000E+00  0.15569224448E+03  0.15569224448E+03  0.00000000000E+00 0. -1.
          1   -1    0    0  501    0 -0.00000000000E+00 -0.00000000000E+00 -0.18519301951E+03  0.18519301951E+03  0.00000000000E+00 0. -1.
          2    1    1    2  501    0 -0.11892101628E+02  0.20598786598E+02  0.85389152125E+02  0.88639942414E+02  0.00000000000E+00 0. -1.
          1    1    1    2  502    0 -0.52628969639E+02 -0.15181383871E+02 -0.96295058162E+02  0.11078366797E+03  0.00000000000E+00 0. -1.
         22    1    1    2    0    0  0.12874925231E+02  0.19346935249E+02  0.48177271103E+02  0.53489410673E+02  0.00000000000E+00 0. -1.
         22    1    1    2    0    0  0.51646146036E+02 -0.24764337976E+02 -0.66772140089E+02  0.87972242939E+02  0.00000000000E+00 0. -1.
</event>
<event>
 6    1  0.1383644E-005  0.2599029E+03  0.7818608E-02  0.1210607E+00
          2   -1    0    0  502    0  0.00000000000E+00  0.00000000000E+00  0.33686486812E+03  0.33686486812E+03  0.00000000000E+00 0. -1.
          1   -1    0    0  501    0 -0.00000000000E+00 -0.00000000000E+00 -0.64948420671E+03  0.64948420671E+03  0.00000000000E+00 0.  1.
          2    1    1    2  501    0  0.19339705192E+03  0.14231495271E+03  0.22505250001E+03  0.32909663204E+03  0.00000000000E+00 0. -1.
          1    1    1    2  502    0 -0.17769784876E+03 -0.16200504989E+03 -0.42287824013E+03  0.48646497060E+03  0.00000000000E+00 0.  1.
         22    1    1    2    0    0 -0.23175512974E+02 -0.72045688023E+00 -0.13744886274E+03  0.13939086529E+03  0.00000000000E+00 0.  1.
         22    1    1    2    0    0  0.74763098104E+01  0.20410554058E+02  0.22655264275E+02  0.31396606898E+02  0.00000000000E+00 0. -1.
</event>
<event>
 6    1  0.1383644E-005  0.1392744E+03  0.7818608E-02  0.1308004E+00
          2   -1    0    0  502    0  0.00000000000E+00  0.00000000000E+00  0.25275135713E+03  0.25275135713E+03  0.00000000000E+00 0. -1.
          1   -1    0    0  501    0 -0.00000000000E+00 -0.00000000000E+00 -0.23019093469E+03  0.23019093469E+03  0.00000000000E+00 0. -1.
          2    1    1    2  501    0  0.60213721603E+01 -0.56424531209E+02  0.20558145042E+03  0.21326911967E+03  0.00000000000E+00 0. -1.
          1    1    1    2  502    0  0.24773920797E+02  0.59769669719E+02 -0.87249820260E+02  0.10862178283E+03  0.00000000000E+00 0. -1.
         22    1    1    2    0    0  0.90473921704E+01  0.20166604043E+02 -0.11035315304E+03  0.11254494928E+03  0.00000000000E+00 0. -1.
         22    1    1    2    0    0 -0.39842685128E+02 -0.23511742553E+02  0.14581945312E+02  0.48506440038E+02  0.00000000000E+00 0.  1.
</event>
<event>
 6    1  0.1383644E-005  0.1362820E+03  0.7818608E-02  0.1338374E+00
          2   -1    0    0  502    0  0.00000000000E+00  0.00000000000E+00  0.82506912694E+03  0.82506912694E+03  0.00000000000E+00 0. -1.
          1   -1    0    0  501    0 -0.00000000000E+00 -0.00000000000E+00 -0.63782103486E+02  0.63782103486E+02  0.00000000000E+00 0. -1.
          2    1    1    2  501    0 -0.65395989633E+02  0.14172253668E+03  0.37901130737E+03  0.40989203941E+03  0.00000000000E+00 0. -1.
          1    1    1    2  502    0 -0.60355375617E+01 -0.33858090294E+02 -0.18237999278E+02  0.38928429325E+02  0.00000000000E+00 0. -1.
         22    1    1    2    0    0  0.57873138969E+02 -0.11013666436E+03  0.40644298272E+03  0.42505915265E+03  0.00000000000E+00 0. -1.
         22    1    1    2    0    0  0.13558388225E+02  0.22722179759E+01 -0.59292673535E+01  0.14971609037E+02  0.00000000000E+00 0. -1.
</event>
<event>
 6    1  0.1383644E-005  0.3830665E+02  0.7818608E-02  0.1542986E+00
          2   -1    0    0  502    0  0.00000000000E+00  0.00000000000E+00  0.11991006747E+03  0.11991006747E+03  0.00000000000E+00 0.  1.
          1   -1    0    0  501    0 -0.00000000000E+00 -0.00000000000E+00 -0.11909980709E+03  0.11909980709E+03  0.00000000000E+00 0. -1.
          2    1    1    2  501    0 -0.13799719223E+02 -0.26668085874E+02  0.57698884497E+02  0.65044448856E+02  0.00000000000E+00 0.  1.
          1    1    1    2  502    0  0.14988621265E+02  0.17487745447E+02  0.13935977703E+02  0.26920094405E+02  0.00000000000E+00 0. -1.
         22    1    1    2    0    0 -0.16756263788E+02 -0.14936129634E+02  0.32673140302E+02  0.39640817875E+02  0.00000000000E+00 0.  1.
         22    1    1    2    0    0  0.15567361747E+02  0.24116470060E+02 -0.10349774212E+03  0.10740451342E+03  0.00000000000E+00 0. -1.
</event>
<event>
 6    1  0.1383644E-005  0.2798214E+03  0.7818608E-02  0.1144627E+00
          2   -1    0    0  502    0  0.00000000000E+00  0.00000000000E+00  0.28934705012E+04  0.28934705012E+04  0.00000000000E+00 0. -1.
          1   -1    0    0  501    0 -0.00000000000E+00 -0.00000000000E+00 -0.37031735427E+02  0.37031735427E+02  0.00000000000E+00 0. -1.
          2    1    1    2  501    0 -0.60308543898E+02  0.13510533084E+02  0.47175148598E+03  0.47578263891E+03  0.00000000000E+00 0. -1.
          1    1    1    2  502    0 -0.10444002190E+03 -0.24473279614E+03  0.12500730137E+04  0.12780784010E+04  0.00000000000E+00 0. -1.
         22    1    1    2    0    0 -0.15045157553E+02 -0.38020409034E+01  0.47287449070E+02  0.49768615818E+02  0.00000000000E+00 0. -1.
         22    1    1    2    0    0  0.17979372335E+03  0.23502430396E+03  0.10873268170E+04  0.11268725808E+04  0.00000000000E+00 0. -1.
</event>
<event>
 6    1  0.1383644E-005  0.3193327E+02  0.7818608E-02  0.1609569E+00
          2   -1    0    0  502    0  0.00000000000E+00  0.00000000000E+00  0.36946115217E+03  0.36946115217E+03  0.00000000000E+00 0.  1.
          1   -1    0    0  501    0 -0.00000000000E+00 -0.00000000000E+00 -0.10485008296E+03  0.10485008296E+03  0.00000000000E+00 0.  1.
          2    1    1    2  501    0  0.39018978037E+01 -0.25750516819E+02  0.21722769955E+03  0.21878342574E+03  0.00000000000E+00 0.  1.
          1    1    1    2  502    0  0.20784122008E+02  0.22465110460E+02 -0.73600005158E+02  0.79709608423E+02  0.00000000000E+00 0.  1.
         22    1    1    2    0    0 -0.36528091228E+01  0.16361598182E+02 -0.23700273211E+02  0.29030119873E+02  0.00000000000E+00 0.  1.
         22    1    1    2    0    0 -0.21033210689E+02 -0.13076191823E+02  0.14468364803E+03  0.14678808110E+03  0.00000000000E+00 0. -1.
</event>
<event>
 6    1  0.1383644E-005  0.1481904E+03  0.7818608E-02  0.1280174E+00
          2   -1    0    0  502    0  0.00000000000E+00  0.00000000000E+00  0.33230987910E+02  0.33230987910E+02  0.00000000000E+00 0.  1.
          1   -1    0    0  501    0 -0.00000000000E+00 -0.00000000000E+00 -0.81099825708E+03  0.81099825708E+03  0.00000000000E+00 0.  1.
          2    1    1    2  501    0  0.31122337002E+02 -0.14582486232E+02 -0.16525295580E+03  0.16878918261E+03  0.00000000000E+00 0.  1.
          1    1    1    2  502    0 -0.58152433411E+02 -0.52329565753E+02 -0.45842636615E+03  0.46505356912E+03  0.00000000000E+00 0.  1.
         22    1    1    2    0    0 -0.86084523180E+01  0.29572548026E+02 -0.15572656290E+03  0.15874319967E+03  0.00000000000E+00 0.  1.
         22    1    1    2    0    0  0.35638548727E+02  0.37339503959E+02  0.16386156916E+01  0.51643293588E+02  0.00000000000E+00 0. -1.
</event>
<event>
 6    1  0.1383644E-005  0.7825263E+02  0.7818608E-02  0.1394754E+00
          2   -1    0    0  502    0  0.00000000000E+00  0.00000000000E+00  0.28308921861E+02  0.28308921861E+02  0.00000000000E+00 0. -1.
          1   -1    0    0  501    0 -0.00000000000E+00 -0.00000000000E+00 -0.10767178555E+04  0.10767178555E+04  0.00000000000E+00 0. -1.
          2    1    1    2  501    0  0.24329200262E+02 -0.29852694807E+01 -0.30913586101E+02  0.39452143477E+02  0.00000000000E+00 0. -1.
          1    1    1    2  502    0  0.14856738250E+02  0.24487712329E+02 -0.85493770851E+03  0.85541735788E+03  0.00000000000E+00 0. -1.
         22    1    1    2    0    0 -0.44148128614E+02  0.64652739864E+01  0.52235703485E+00  0.44622078445E+02  0.00000000000E+00 0. -1.
         22    1    1    2    0    0  0.49621901019E+01 -0.27967716835E+02 -0.16307999602E+03  0.16553519752E+03  0.00000000000E+00 0. -1.
</event>
<event>
 6    1  0.1383644E-005  0.1501912E+03  0.7818608E-02  0.1227015E+00
          2   -1    0    0  502    0  0.00000000000E+00  0.00000000000E+00  0.30111453611E+03  0.30111453611E+03  0.00000000000E+00 0.  1.
          1   -1    0    0  501    0 -0.00000000000E+00 -0.00000000000E+00 -0.19801422934E+03  0.19801422934E+03  0.00000000000E+00 0.  1.
          2    1    1    2  501    0  0.40645608734E+02  0.36297378191E+02  0.41513247059E+01  0.54651611776E+02  0.00000000000E+00 0.  1.
          1    1    1    2  502    0 -0.46057734003E+02 -0.17218849867E+03  0.16759407737E+03  0.24465888233E+03  0.00000000000E+00 0.  1.
         22    1    1    2    0    0  0.32671927708E+02  0.55300786832E+02  0.28858631173E+02  0.70416279919E+02  0.00000000000E+00 0.  1.
         22    1    1    2    0    0 -0.27259802439E+02  0.80590333642E+02 -0.97503726487E+02  0.12940199142E+03  0.00000000000E+00 0.  1.
</event>
<event>
 6    1  0.1383644E-005  0.7627046E+02  0.7818608E-02  0.1410671E+00
          2   -1    0    0  502    0  0.00000000000E+00  0.00000000000E+00  0.39331777424E+03  0.39331777424E+03  0.00000000000E+00 0.  1.
          1   -1    0    0  501    0 -0.00000000000E+00 -0.00000000000E+00 -0.37890415820E+02  0.37890415820E+02  0.00000000000E+00 0. -1.
          2    1    1    2  501    0  0.85768808050E+01 -0.19762781958E+02  0.50393612020E+02  0.54805534096E+02  0.00000000000E+00 0.  1.
          1    1    1    2  502    0 -0.53816937915E+02  0.42957336025E+02  0.41644314054E+02  0.80472631484E+02  0.00000000000E+00 0. -1.
         22    1    1    2    0    0  0.15044748618E+02  0.18527169009E+02 -0.34957631292E+01  0.24120962094E+02  0.00000000000E+00 0. -1.
         22    1    1    2    0    0  0.30195308492E+02 -0.41721723077E+02  0.26688519547E+03  0.27180906238E+03  0.00000000000E+00 0.  1.
</event>
<event>
 6    1  0.1383644E-005  0.2689947E+02  0.7818608E-02  0.1650459E+00
          2   -1    0    0  502    0  0.00000000000E+00  0.00000000000E+00  0.77069394055E+02  0.77069394055E+02  0.00000000000E+00 0. -1.
          1   -1    0    0  501    0 -0.00000000000E+00 -0.00000000000E+00 -0.33453408051E+03  0.33453408051E+03  0.00000000000E+00 0. -1.
          2    1    1    2  501    0  0.11029882733E+02 -0.31443339529E+02 -0.54191557672E+02  0.63616561026E+02  0.00000000000E+00 0. -1.
          1    1    1    2  502    0 -0.12434274906E+02  0.40301055190E+02 -0.22187817536E+03  0.22585108134E+03  0.00000000000E+00 0. -1.
         22    1    1    2    0    0 -0.13728440026E+02 -0.12575955353E+02  0.67915795035E+02  0.70421445127E+02  0.00000000000E+00 0. -1.
         22    1    1    2    0    0  0.15132832198E+02  0.37182396918E+01 -0.49310748462E+02  0.51714387076E+02  0.00000000000E+00 0.  1.
</event>
<event>
 6    1  0.1383644E-005  0.7532036E+02  0.7818608E-02  0.1465271E+00
          2   -1    0    0  502    0  0.00000000000E+00  0.00000000000E+00  0.26052974209E+04  0.26052974209E+04  0.00000000000E+00 0.  1.
          1   -1    0    0  501    0 -0.00000000000E+00 -0.00000000000E+00 -0.37680017287E+02  0.37680017287E+02  0.00000000000E+00 0. -1.
          2    1    1    2  501    0 -0.55128052055E+02 -0.49428415403E+02  0.23265766295E+04  0.23277545152E+04  0.00000000000E+00 0.  1.
          1    1    1    2  502    0 -0.35565975668E+02 -0.10534664743E+02  0.29980924957E+02  0.47694587196E+02  0.00000000000E+00 0. -1.
         22    1    1    2    0    0  0.30308378493E+01  0.10499857776E+02 -0.15874814113E+02  0.19272849154E+02  0.00000000000E+00 0. -1.
         22    1    1    2    0    0  0.87663189874E+02  0.49463222370E+02  0.22693466334E+03  0.24825548665E+03  0.00000000000E+00 0.  1.
</event>
<event>
 6    1  0.1383644E-005  0.1132107E+03  0.7818608E-02  0.1271708E+00
          2   -1    0    0  502    0  0.00000000000E+00  0.00000000000E+00  0.14451080487E+03  0.14451080487E+03  0.00000000000E+00 0.  1.
          1   -1    0    0  501    0 -0.00000000000E+00 -0.00000000000E+00 -0.25346496687E+03  0.25346496687E+03  0.00000000000E+00 0.  1.
          2    1    1    2  501    0  0.28584944000E+02 -0.51119070574E+02  0.31543599768E+02  0.66522605828E+02  0.00000000000E+00 0.  1.
          1    1    1    2  502    0 -0.22666209846E+02  0.13190798914E+03 -0.11801108354E+03  0.17843791779E+03  0.00000000000E+00 0.  1.
         22    1    1    2    0    0  0.49161210552E+02 -0.21071468562E+02  0.24863506538E+02  0.58983263454E+02  0.00000000000E+00 0.  1.
         22    1    1    2    0    0 -0.55079944706E+02 -0.59717450002E+02 -0.47350184765E+02  0.94031984669E+02  0.00000000000E+00 0.  1.
</event>
<event>
 6    1  0.1383644E-005  0.8922122E+02  0.7818608E-02  0.1346882E+00
          2   -1    0    0  502    0  0.00000000000E+00  0.00000000000E+00  0.38903467080E+03  0.38903467080E+03  0.00000000000E+00 0. -1.
          1   -1    0    0  501    0 -0.00000000000E+00 -0.00000000000E+00 -0.17181956825E+03  0.17181956825E+03  0.00000000000E+00 0. -1.
          2    1    1    2  501    0  0.54186900717E+02 -0.19781456993E+02  0.28471114873E+03  0.29049606617E+03  0.00000000000E+00 0. -1.
          1    1    1    2  502    0 -0.74133957829E+02 -0.48716889954E+01 -0.11483178752E+03  0.13676957440E+03  0.00000000000E+00 0. -1.
         22    1    1    2    0    0  0.35408120856E+02  0.23147667803E+02  0.83844763949E+02  0.93912161028E+02  0.00000000000E+00 0.  1.
         22    1    1    2    0    0 -0.15461063743E+02  0.15054781854E+01 -0.36509022613E+02  0.39676437451E+02  0.00000000000E+00 0.  1.
</event>
<event>
 6    1  0.1383644E-005  0.5418540E+02  0.7818608E-02  0.1424263E+00
          2   -1    0    0  502    0  0.00000000000E+00  0.00000000000E+00  0.78560675755E+02  0.78560675755E+02  0.00000000000E+00 0.  1.
          1   -1    0    0  501    0 -0.00000000000E+00 -0.00000000000E+00 -0.27487312813E+03  0.27487312813E+03  0.00000000000E+00 0.  1.
          2    1    1    2  501    0 -0.38566315933E+02  0.19567695398E+02  0.46880878552E+02  0.63781440887E+02  0.00000000000E+00 0.  1.
          1    1    1    2  502    0  0.18737503569E+02 -0.12541291432E+02 -0.85000308194E+02  0.87939925085E+02  0.00000000000E+00 0.  1.
         22    1    1    2    0    0 -0.65999106951E+01  0.75716439890E+01  0.19253290393E+02  0.21715842255E+02  0.00000000000E+00 0.  1.
         22    1    1    2    0    0  0.26428723059E+02 -0.14598047955E+02 -0.17744631313E+03  0.17999659566E+03  0.00000000000E+00 0.  1.
</event>
<event>
 6    1  0.1383644E-005  0.3481679E+02  0.7818608E-02  0.1589598E+00
          2   -1    0    0  502    0  0.00000000000E+00  0.00000000000E+00  0.10134177852E+03  0.10134177852E+03  0.00000000000E+00 0. -1.
          1   -1    0    0  501    0 -0.00000000000E+00 -0.00000000000E+00 -0.23181193297E+04  0.23181193297E+04  0.00000000000E+00 0.  1.
          2    1    1    2  501    0  0.34072581427E+02  0.33336120205E+02  0.49886841490E+02  0.68999526587E+02  0.00000000000E+00 0. -1.
          1    1    1    2  502    0 -0.55757862939E+02 -0.44339756354E+02 -0.22155563940E+04  0.22167013980E+04  0.00000000000E+00 0.  1.
         22    1    1    2    0    0  0.11326053186E+02  0.21656244596E+02 -0.89403146064E+02  0.92683304521E+02  0.00000000000E+00 0.  1.
         22    1    1    2    0    0  0.10359228326E+02 -0.10652608447E+02  0.38295147389E+02  0.41076879041E+02  0.00000000000E+00 0. -1.
</event>
<event>
 6    1  0.1383644E-005  0.4068126E+02  0.7818608E-02  0.1566927E+00
          2   -1    0    0  502    0  0.00000000000E+00  0.00000000000E+00  0.34056043416E+03  0.34056043416E+03  0.00000000000E+00 0. -1.
          1   -1    0    0  501    0 -0.00000000000E+00 -0.00000000000E+00 -0.35875973989E+03  0.35875973989E+03  0.00000000000E+00 0.  1.
          2    1    1    2  501    0 -0.15900042094E+02 -0.63149856188E+02  0.14677578849E+03  0.16057349645E+03  0.00000000000E+00 0. -1.
          1    1    1    2  502    0  0.39595974237E+02  0.15488734511E+02 -0.32500133390E+03  0.32777066542E+03  0.00000000000E+00 0.  1.
         22    1    1    2    0    0 -0.16720166371E+02  0.33109325051E+02  0.18085947738E+03  0.18462378483E+03  0.00000000000E+00 0.  1.
         22    1    1    2    0    0 -0.69757657713E+01  0.14551796626E+02 -0.20833237703E+02  0.26352227350E+02  0.00000000000E+00 0. -1.
</event>
<event>
 6    1  0.1383644E-005  0.4116499E+02  0.7818608E-02  0.1547955E+00
          2   -1    0    0  502    0  0.00000000000E+00  0.00000000000E+00  0.11390288256E+03  0.11390288256E+03  0.00000000000E+00 0.  1.
          1   -1    0    0  501    0 -0.00000000000E+00 -0.00000000000E+00 -0.21453459954E+03  0.21453459954E+03  0.00000000000E+00 0.  1.
          2    1    1    2  501    0 -0.42572366462E+02  0.24303550019E+02  0.28829784421E+02  0.56870250566E+02  0.00000000000E+00 0.  1.
          1    1    1    2  502    0  0.47496524511E+02 -0.46304905772E+02 -0.13190320585E+03  0.14764321810E+03  0.00000000000E+00 0.  1.
         22    1    1    2    0    0 -0.17479022790E+02  0.18008040677E+02  0.59915783060E+02  0.64959270520E+02  0.00000000000E+00 0. -1.
         22    1    1    2    0    0  0.12554864742E+02  0.39933150768E+01 -0.57474078618E+02  0.58964742915E+02  0.00000000000E+00 0. -1.
</event>
<event>
 6    1  0.1383644E-005  0.8587708E+02  0.7818608E-02  0.1404802E+00
          2   -1    0    0  502    0  0.00000000000E+00  0.00000000000E+00  0.46738358103E+03  0.46738358103E+03  0.00000000000E+00 0.  1.
          1   -1    0    0  501    0 -0.00000000000E+00 -0.00000000000E+00 -0.49443549797E+02  0.49443549797E+02  0.00000000000E+00 0. -1.
          2    1    1    2  501    0 -0.32544350715E+02 -0.45115410617E+02  0.13560358054E+03  0.14657034521E+03  0.00000000000E+00 0.  1.
          1    1    1    2  502    0  0.32910754169E+02  0.79649834802E+02  0.19659098212E+03  0.21465141084E+03  0.00000000000E+00 0. -1.
         22    1    1    2    0    0 -0.13028544702E+02 -0.21282889534E+02  0.11685954559E+03  0.11949417458E+03  0.00000000000E+00 0.  1.
         22    1    1    2    0    0  0.12662141248E+02 -0.13251534651E+02 -0.31114077014E+02  0.36111200201E+02  0.00000000000E+00 0. -1.
</event>
<event>
 6    1  0.1383644E-005  0.1005383E+03  0.7818608E-02  0.1319173E+00
          2   -1    0    0  502    0  0.00000000000E+00  0.00000000000E+00  0.32969693361E+02  0.32969693361E+02  0.00000000000E+00 0. -1.
          1   -1    0    0  501    0 -0.00000000000E+00 -0.00000000000E+00 -0.82733336096E+03  0.82733336096E+03  0.00000000000E+00 0.  1.
          2    1    1    2  501    0 -0.77973747710E+01  0.29109243481E+02 -0.27537854277E+01  0.30261038375E+02  0.00000000000E+00 0. -1.
          1    1    1    2  502    0  0.47012920557E+02  0.68439307479E+02 -0.27553494491E+03  0.28777362522E+03  0.00000000000E+00 0.  1.
         22    1    1    2    0    0  0.93602512640E+01  0.14653328167E+02 -0.70451824646E+01  0.18760834897E+02  0.00000000000E+00 0.  1.
         22    1    1    2    0    0 -0.48575797050E+02 -0.11220187913E+03 -0.50902975480E+03  0.52350755583E+03  0.00000000000E+00 0.  1.
</event>
<event>
 6    1  0.1383644E-005  0.8612516E+02  0.7818608E-02  0.1312706E+00
          2   -1    0    0  502    0  0.00000000000E+00  0.00000000000E+00  0.12587240087E+03  0.12587240087E+03  0.00000000000E+00 0.  1.
          1   -1    0    0  501    0 -0.00000000000E+00 -0.00000000000E+00 -0.42617343283E+03  0.42617343283E+03  0.00000000000E+00 0. -1.
          2    1    1    2  501    0  0.48945593896E+02 -0.40885088038E+02  0.86077405929E+02  0.10712880750E+03  0.00000000000E+00 0.  1.
          1    1    1    2  502    0 -0.46725495217E+02  0.38860169038E+02 -0.26313077244E+03  0.27005774947E+03  0.00000000000E+00 0. -1.
         22    1    1    2    0    0 -0.23699767398E+02  0.51285160030E+01 -0.14328428329E+03  0.14532159677E+03  0.00000000000E+00 0. -1.
         22    1    1    2    0    0  0.21479668719E+02 -0.31035970029E+01  0.20036617845E+02  0.29537679958E+02  0.00000000000E+00 0. -1.
</event>
<event>
 6    1  0.1383644E-005  0.9667234E+02  0.7818608E-02  0.1367381E+00
          2   -1    0    0  502    0  0.00000000000E+00  0.00000000000E+00  0.65197180418E+02  0.65197180418E+02  0.00000000000E+00 0. -1.
          1   -1    0    0  501    0 -0.00000000000E+00 -0.00000000000E+00 -0.47034359112E+03  0.47034359112E+03  0.00000000000E+00 0.  1.
          2    1    1    2  501    0  0.28422656142E+02  0.12742873931E+02  0.17001088285E+02  0.35486127163E+02  0.00000000000E+00 0. -1.
          1    1    1    2  502    0 -0.78169445004E+02 -0.25939952415E+02 -0.32516172212E+03  0.33543030394E+03  0.00000000000E+00 0.  1.
         22    1    1    2    0    0  0.63814138774E+02 -0.56628528104E+01  0.77752707215E+00  0.64069624299E+02  0.00000000000E+00 0.  1.
         22    1    1    2    0    0 -0.14067349912E+02  0.18859931295E+02 -0.97763303938E+02  0.10055471614E+03  0.00000000000E+00 0.  1.
</event>
<event>
 6    1  0.1383644E-005  0.5053133E+02  0.7818608E-02  0.1451268E+00
          2   -1    0    0  502    0  0.00000000000E+00  0.00000000000E+00  0.39649676688E+03  0.39649676688E+03  0.00000000000E+00 0.  1.
          1   -1    0    0  501    0 -0.00000000000E+00 -0.00000000000E+00 -0.37463589851E+02  0.37463589851E+02  0.00000000000E+00 0.  1.
          2    1    1    2  501    0 -0.30346268762E+02  0.24926392604E+02  0.19848776279E+03  0.20233539743E+03  0.00000000000E+00 0.  1.
          1    1    1    2  502    0  0.29279633656E+02  0.14161670296E+02  0.45335098457E+02  0.55795349311E+02  0.00000000000E+00 0.  1.
         22    1    1    2    0    0  0.23425587905E+02 -0.37693258299E+02 -0.12550153818E+02  0.46119911651E+02  0.00000000000E+00 0.  1.
         22    1    1    2    0    0 -0.22358952800E+02 -0.13948046023E+01  0.12776046960E+03  0.12970969834E+03  0.00000000000E+00 0.  1.
</event>
<event>
 6    1  0.1383644E-005  0.1253836E+03  0.7818608E-02  0.1257214E+00
          2   -1    0    0  502    0  0.00000000000E+00  0.00000000000E+00  0.60126770001E+02  0.60126770001E+02  0.00000000000E+00 0. -1.
          1   -1    0    0  501    0 -0.00000000000E+00 -0.00000000000E+00 -0.13206328999E+04  0.13206328999E+04  0.00000000000E+00 0.  1.
          2    1    1    2  501    0  0.17702130806E+02 -0.88599697043E+02 -0.23087137749E+02  0.93253888287E+02  0.00000000000E+00 0. -1.
          1    1    1    2  502    0 -0.11602228395E+03  0.10940856920E+03 -0.91758688508E+03  0.93134155768E+03  0.00000000000E+00 0.  1.
         22    1    1    2    0    0  0.79073181394E+02  0.66154439738E+01 -0.31176222418E+03  0.32170175092E+03  0.00000000000E+00 0. -1.
         22    1    1    2    0    0  0.19246971750E+02 -0.27424316131E+02 -0.80698828864E+01  0.34462473019E+02  0.00000000000E+00 0. -1.
</event>
<event>
 6    1  0.1383644E-005  0.1108454E+03  0.7818608E-02  0.1366216E+00
          2   -1    0    0  502    0  0.00000000000E+00  0.00000000000E+00  0.23583292703E+03  0.23583292703E+03  0.00000000000E+00 0.  1.
          1   -1    0    0  501    0 -0.00000000000E+00 -0.00000000000E+00 -0.53982973173E+03  0.53982973173E+03  0.00000000000E+00 0.  1.
          2    1    1    2  501    0 -0.59542318645E+02  0.45794171459E+02  0.17143358748E+03  0.18716802282E+03  0.00000000000E+00 0.  1.
          1    1    1    2  502    0  0.82221281627E+02 -0.85812272498E+02 -0.43067972145E+03  0.44677635091E+03  0.00000000000E+00 0.  1.
         22    1    1    2    0    0 -0.94443264006E+01  0.31181936779E+02  0.42205485381E+02  0.53318022082E+02  0.00000000000E+00 0.  1.
         22    1    1    2    0    0 -0.13234636581E+02  0.88361642602E+01 -0.86956156112E+02  0.88400262952E+02  0.00000000000E+00 0.  1.
</event>
<event>
 6    1  0.1383644E-005  0.8779260E+02  0.7818608E-02  0.1435914E+00
          2   -1    0    0  502    0  0.00000000000E+00  0.00000000000E+00  0.44397827033E+03  0.44397827033E+03  0.00000000000E+00 0.  1.
          1   -1    0    0  501    0 -0.00000000000E+00 -0.00000000000E+00 -0.70625962698E+02  0.70625962698E+02  0.00000000000E+00 0.  1.
          2    1    1    2  501    0 -0.21904061479E+02 -0.37222276012E+01  0.57615086180E+02  0.61750635973E+02  0.00000000000E+00 0.  1.
          1    1    1    2  502    0  0.48898100017E+02  0.46480709423E+02 -0.34997815135E+02  0.76002155219E+02  0.00000000000E+00 0.  1.
         22    1    1    2    0    0 -0.31014904997E+02 -0.52601604957E+02  0.35851382297E+03  0.36367707439E+03  0.00000000000E+00 0.  1.
         22    1    1    2    0    0  0.40208664589E+01  0.98431231358E+01 -0.77787863802E+01  0.13174367450E+02  0.00000000000E+00 0. -1.
</event>
<event>
 6    1  0.1383644E-005  0.1755634E+03  0.7818608E-02  0.1273610E+00
          2   -1    0    0  502    0  0.00000000000E+00  0.00000000000E+00  0.10505667677E+04  0.10505667677E+04  0.00000000000E+00 0. -1.
          1   -1    0    0  501    0 -0.00000000000E+00 -0.00000000000E+00 -0.43256074220E+02  0.43256074220E+02  0.00000000000E+00 0.  1.
          2    1    1    2  501    0  0.21841199005E+02  0.96955633560E+02  0.41189985471E+03  0.42372033603E+03  0.00000000000E+00 0. -1.
          1    1    1    2  502    0 -0.59597547384E+02 -0.15524615574E+03  0.30358081578E+03  0.34614238145E+03  0.00000000000E+00 0.  1.
         22    1    1    2    0    0  0.57450723601E+02  0.51000572322E+02  0.29302304913E+03  0.30292598327E+03  0.00000000000E+00 0. -1.
         22    1    1    2    0    0 -0.19694375222E+02  0.72899498587E+01 -0.11930261210E+01  0.21034141191E+02  0.00000000000E+00 0.  1.
</event>
<event>
 6    1  0.1383644E-005  0.1641008E+03  0.7818608E-02  0.1305013E+00
          2   -1    0    0  502    0  0.00000000000E+00  0.00000000000E+00  0.43665260960E+03  0.43665260960E+03  0.00000000000E+00 0.  1.
          1   -1    0    0  501    0 -0.00000000000E+00 -0.00000000000E+00 -0.14610834142E+03  0.14610834142E+03  0.00000000000E+00 0.  1.
          2    1    1    2  501    0 -0.70819729650E+02  0.12753174885E+03  0.26953028000E+03  0.30647406564E+03  0.00000000000E+00 0.  1.
          1    1    1    2  502    0  0.65533780519E+02 -0.13641318683E+03  0.28630992497E+02  0.15402262062E+03  0.00000000000E+00 0.  1.
         22    1    1    2    0    0 -0.30976727074E+01  0.20429726022E+02  0.54627464421E+02  0.58404872662E+02  0.00000000000E+00 0.  1.
         22    1    1    2    0    0  0.83836218386E+01 -0.11548288044E+02 -0.62244468736E+02  0.63859392106E+02  0.00000000000E+00 0. -1.
</event>
<event>
 6    1  0.1383644E-005  0.1268623E+03  0.7818608E-02  0.1303498E+00
          2   -1    0    0  502    0  0.00000000000E+00  0.00000000000E+00  0.26791866161E+03  0.26791866161E+03  0.00000000000E+00 0.  1.
          1   -1    0    0  501    0 -0.00000000000E+00 -0.00000000000E+00 -0.59634738054E+02  0.59634738054E+02  0.00000000000E+00 0.  1.
          2    1    1    2  501    0 -0.29339394516E+02  0.29667769724E+02  0.96075882722E+02  0.10474517589E+03  0.00000000000E+00 0.  1.
          1    1    1    2  502    0 -0.31213937707E+02 -0.39529963692E+02  0.19342485336E+02  0.53954236865E+02  0.00000000000E+00 0.  1.
         22    1    1    2    0    0 -0.23534029097E+02 -0.21320984370E+02 -0.91251737380E+01  0.33040939693E+02  0.00000000000E+00 0. -1.
         22    1    1    2    0    0  0.84087361319E+02  0.31183178339E+02  0.10199072924E+03  0.13581304722E+03  0.00000000000E+00 0.  1.
</event>
<event>
 6    1  0.1383644E-005  0.1645244E+03  0.7818608E-02  0.1271779E+00
          2   -1    0    0  502    0  0.00000000000E+00  0.00000000000E+00  0.71888301341E+03  0.71888301341E+03  0.00000000000E+00 0.  1.
          1   -1    0    0  501    0 -0.00000000000E+00 -0.00000000000E+00 -0.83306609601E+02  0.83306609601E+02  0.00000000000E+00 0.  1.
          2    1    1    2  501    0 -0.12592837345E+03 -0.43970521882E+01  0.39672353411E+03  0.41625335053E+03  0.00000000000E+00 0.  1.
          1    1    1    2  502    0  0.14884607287E+03  0.22882914321E+02  0.49184313137E+02  0.15842309754E+03  0.00000000000E+00 0.  1.
         22    1    1    2    0    0  0.14045849817E+02 -0.22392893435E+02 -0.70148512863E+01  0.27348413337E+02  0.00000000000E+00 0.  1.
         22    1    1    2    0    0 -0.36963549236E+02  0.39070313030E+01  0.19668340785E+03  0.20016476161E+03  0.00000000000E+00 0.  1.
</event>
<event>
 6    1  0.1383644E-005  0.1290452E+03  0.7818608E-02  0.1298968E+00
          2   -1    0    0  502    0  0.00000000000E+00  0.00000000000E+00  0.68004955870E+02  0.68004955870E+02  0.00000000000E+00 0. -1.
          1   -1    0    0  501    0 -0.00000000000E+00 -0.00000000000E+00 -0.41816927501E+03  0.41816927501E+03  0.00000000000E+00 0. -1.
          2    1    1    2  501    0  0.44198785964E+02  0.47699493555E+01 -0.51055345047E+02  0.67697365942E+02  0.00000000000E+00 0. -1.
          1    1    1    2  502    0 -0.11276958651E+03  0.27665337243E+02 -0.22781475557E+03  0.25569887247E+03  0.00000000000E+00 0. -1.
         22    1    1    2    0    0  0.56881213606E+02 -0.17950897951E+01  0.24176367947E+02  0.61831962412E+02  0.00000000000E+00 0. -1.
         22    1    1    2    0    0  0.11689586943E+02 -0.30640196804E+02 -0.95470586475E+02  0.10094603006E+03  0.00000000000E+00 0. -1.
</event>
<event>
 6    1  0.1383644E-005  0.4610118E+02  0.7818608E-02  0.1520713E+00
          2   -1    0    0  502    0  0.00000000000E+00  0.00000000000E+00  0.30939112435E+03  0.30939112435E+03  0.00000000000E+00 0.  1.
          1   -1    0    0  501    0 -0.00000000000E+00 -0.00000000000E+00 -0.46826551340E+02  0.46826551340E+02  0.00000000000E+00 0. -1.
          2    1    1    2  501    0 -0.90662191938E+00 -0.47777994191E+02  0.10763544546E+03  0.11776649698E+03  0.00000000000E+00 0.  1.
          1    1    1    2  502    0  0.33907782087E+02  0.40635815895E+02  0.57653980732E+02  0.78262307107E+02  0.00000000000E+00 0. -1.
         22    1    1    2    0    0 -0.44635633902E+02 -0.96046098295E+01  0.12075031307E+03  0.12909386682E+03  0.00000000000E+00 0.  1.
         22    1    1    2    0    0  0.11634473734E+02  0.16746788125E+02 -0.23475166253E+02  0.31095004779E+02  0.00000000000E+00 0. -1.
</event>
<event>
 6    1  0.1383644E-005  0.5984241E+02  0.7818608E-02  0.1428091E+00
          2   -1    0    0  502    0  0.00000000000E+00  0.00000000000E+00  0.17991291803E+03  0.17991291803E+03  0.00000000000E+00 0. -1.
          1   -1    0    0  501    0 -0.00000000000E+00 -0.00000000000E+00 -0.10873770203E+03  0.10873770203E+03  0.00000000000E+00 0.  1.
          2    1    1    2  501    0 -0.63119412436E+02  0.41711505348E+01  0.83723187501E+02  0.10493345915E+03  0.00000000000E+00 0. -1.
          1    1    1    2  502    0  0.35886576918E+02  0.18315980065E+01  0.31055203481E+02  0.47493439730E+02  0.00000000000E+00 0.  1.
         22    1    1    2    0    0 -0.10505699731E+02 -0.79308266502E+01  0.41270101161E+02  0.43318460130E+02  0.00000000000E+00 0. -1.
         22    1    1    2    0    0  0.37738535250E+02  0.19280781088E+01 -0.84873276140E+02  0.92905261049E+02  0.00000000000E+00 0.  1.
</event>
<event>
 6    1  0.1383644E-005  0.6731700E+03  0.7818608E-02  0.1012693E+00
          2   -1    0    0  502    0  0.00000000000E+00  0.00000000000E+00  0.47969757512E+03  0.47969757512E+03  0.00000000000E+00 0. -1.
          1   -1    0    0  501    0 -0.00000000000E+00 -0.00000000000E+00 -0.12025560167E+04  0.12025560167E+04  0.00000000000E+00 0. -1.
          2    1    1    2  501    0  0.28110861836E+03  0.19056367274E+03 -0.10595336508E+02  0.33977761822E+03  0.00000000000E+00 0. -1.
          1    1    1    2  502    0 -0.22770423121E+03 -0.62290372444E+03 -0.29200071338E+03  0.72465349199E+03  0.00000000000E+00 0. -1.
         22    1    1    2    0    0  0.32661982284E+02  0.23879117947E+03 -0.22040374018E+03  0.32659736858E+03  0.00000000000E+00 0. -1.
         22    1    1    2    0    0 -0.86066369434E+02  0.19354887222E+03 -0.19985865154E+03  0.29122511307E+03  0.00000000000E+00 0.  1.
</event>
<event>
 6    1  0.1383644E-005  0.6842374E+02  0.7818608E-02  0.1365957E+00
          2   -1    0    0  502    0  0.00000000000E+00  0.00000000000E+00  0.22858298303E+03  0.22858298303E+03  0.00000000000E+00 0. -1.
          1   -1    0    0  501    0 -0.00000000000E+00 -0.00000000000E+00 -0.18566913660E+03  0.18566913660E+03  0.00000000000E+00 0.  1.
          2    1    1    2  501    0 -0.34236391271E+02 -0.16502134545E+02  0.16146456634E+03  0.16587723507E+03  0.00000000000E+00 0. -1.
          1    1    1    2  502    0  0.36806526399E+02  0.33978401311E+02 -0.10535820306E+03  0.11666020356E+03  0.00000000000E+00 0.  1.
         22    1    1    2    0    0 -0.17634769896E+02 -0.19694921975E+02  0.55436193057E+02  0.61416989193E+02  0.00000000000E+00 0.  1.
         22    1    1    2    0    0  0.15064634768E+02  0.22186552095E+01 -0.68628709898E+02  0.70297691810E+02  0.00000000000E+00 0.  1.
</event>
<event>
 6    1  0.1383644E-005  0.1021805E+03  0.7818608E-02  0.1375451E+00
          2   -1    0    0  502    0  0.00000000000E+00  0.00000000000E+00  0.16723271801E+03  0.16723271801E+03  0.00000000000E+00 0. -1.
          1   -1    0    0  501    0 -0.00000000000E+00 -0.00000000000E+00 -0.58142362351E+03  0.58142362351E+03  0.00000000000E+00 0.  1.
          2    1    1    2  501    0  0.21958817042E+02  0.11489894575E+02  0.84661812945E+02  0.88214680719E+02  0.00000000000E+00 0. -1.
          1    1    1    2  502    0  0.82002175491E+02  0.58515856583E+02 -0.47358094138E+03  0.48417700306E+03  0.00000000000E+00 0.  1.
         22    1    1    2    0    0 -0.17412745287E+02 -0.93465739539E+00  0.42846348546E+02  0.46258911213E+02  0.00000000000E+00 0. -1.
         22    1    1    2    0    0 -0.86548247246E+02 -0.69071093762E+02 -0.68118125608E+02  0.13000574653E+03  0.00000000000E+00 0. -1.
</event>
<event>
 6    1  0.1383644E-005  0.1284364E+03  0.7818608E-02  0.1281634E+00
          2   -1    0    0  502    0  0.00000000000E+00  0.00000000000E+00  0.87084948161E+03  0.87084948161E+03  0.00000000000E+00 0. -1.
          1   -1    0    0  501    0 -0.00000000000E+00 -0.00000000000E+00 -0.71700374101E+02  0.71700374101E+02  0.00000000000E+00 0. -1.
          2    1    1    2  501    0  0.23520227892E+02  0.88723637540E+02  0.34576519246E+02  0.98084762637E+02  0.00000000000E+00 0. -1.
          1    1    1    2  502    0 -0.18609594352E+02 -0.11129870528E+03  0.68815041846E+03  0.69734117707E+03  0.00000000000E+00 0. -1.
         22    1    1    2    0    0 -0.28721422774E+02 -0.35950532451E+02 -0.24313618904E+01  0.46078980352E+02  0.00000000000E+00 0. -1.
         22    1    1    2    0    0  0.23810789234E+02  0.58525600191E+02  0.78853531686E+02  0.10104493565E+03  0.00000000000E+00 0. -1.
</event>
<event>
 6    1  0.1383644E-005  0.4374742E+02  0.7818608E-02  0.1565376E+00
          2   -1    0    0  502    0  0.00000000000E+00  0.00000000000E+00  0.10340753967E+03  0.10340753967E+03  0.00000000000E+00 0.  1.
          1   -1    0    0  501    0 -0.00000000000E+00 -0.00000000000E+00 -0.90629495706E+02  0.90629495706E+02  0.00000000000E+00 0.  1.
          2    1    1    2  501    0  0.10689882466E+02 -0.28208008054E+02 -0.15033913251E+02  0.33704359557E+02  0.00000000000E+00 0.  1.
          1    1    1    2  502    0  0.64524386907E+01 -0.20150065459E+02  0.49380652287E+01  0.21726564184E+02  0.00000000000E+00 0.  1.
         22    1    1    2    0    0 -0.26677145912E+01  0.48082918371E+02  0.72430294623E+02  0.86978338219E+02  0.00000000000E+00 0.  1.
         22    1    1    2    0    0 -0.14474606566E+02  0.27515514179E+00 -0.49556402636E+02  0.51627773415E+02  0.00000000000E+00 0.  1.
</event>
<event>
 6    1  0.1383644E-005  0.1189327E+03  0.7818608E-02  0.1331408E+00
          2   -1    0    0  502    0  0.00000000000E+00  0.00000000000E+00  0.76191400248E+02  0.76191400248E+02  0.00000000000E+00 0. -1.
          1   -1    0    0  501    0 -0.00000000000E+00 -0.00000000000E+00 -0.17541182773E+03  0.17541182773E+03  0.00000000000E+00 0. -1.
          2    1    1    2  501    0  0.29792489511E+02 -0.11380481149E+01 -0.46833582929E+02  0.55518213900E+02  0.00000000000E+00 0. -1.
          1    1    1    2  502    0 -0.18201089347E+02 -0.42066519423E+02 -0.47062375374E+02  0.65694283508E+02  0.00000000000E+00 0. -1.
         22    1    1    2    0    0  0.93849121723E+01  0.32925966300E+02  0.55513562014E+02  0.65222322871E+02  0.00000000000E+00 0. -1.
         22    1    1    2    0    0 -0.20976312336E+02  0.10278601238E+02 -0.60838031191E+02  0.65168407698E+02  0.00000000000E+00 0.  1.
</event>
<event>
 6    1  0.1383644E-005  0.3220566E+03  0.7818608E-02  0.1219710E+00
          2   -1    0    0  502    0  0.00000000000E+00  0.00000000000E+00  0.17058251342E+04  0.17058251342E+04  0.00000000000E+00 0.  1.
          1   -1    0    0  501    0 -0.00000000000E+00 -0.00000000000E+00 -0.62556764211E+02  0.62556764211E+02  0.00000000000E+00 0.  1.
          2    1    1    2  501    0 -0.20624167356E+02  0.80740278728E+02  0.19273497524E+03  0.20997885505E+03  0.00000000000E+00 0.  1.
          1    1    1    2  502    0 -0.16431291318E+03 -0.23090966873E+03  0.94399879494E+03  0.98562251060E+03  0.00000000000E+00 0.  1.
         22    1    1    2    0    0  0.18166191732E+03  0.15967127434E+03  0.50798771708E+03  0.56262553156E+03  0.00000000000E+00 0.  1.
         22    1    1    2    0    0  0.32751632197E+01 -0.95018843371E+01 -0.14531172512E+01  0.10155001222E+02  0.00000000000E+00 0.  1.
</event>
<event>
 6    1  0.1383644E-005  0.1852630E+03  0.7818608E-02  0.1270683E+00
          2   -1    0    0  502    0  0.00000000000E+00  0.00000000000E+00  0.12034663170E+04  0.12034663170E+04  0.00000000000E+00 0. -1.
          1   -1    0    0  501    0 -0.00000000000E+00 -0.00000000000E+00 -0.94941734217E+02  0.94941734217E+02  0.00000000000E+00 0.  1.
          2    1    1    2  501    0  0.31854435333E+02 -0.76635216058E+02  0.10943341048E+04  0.10974765576E+04  0.00000000000E+00 0. -1.
          1    1    1    2  502    0  0.20317351038E+02  0.37884411209E+02 -0.33514017576E+02  0.54508831761E+02  0.00000000000E+00 0.  1.
         22    1    1    2    0    0 -0.13207754916E+02  0.13531149374E+02 -0.41645304388E+02  0.45736945360E+02  0.00000000000E+00 0.  1.
         22    1    1    2    0    0 -0.38964031455E+02  0.25219655475E+02  0.89349799909E+02  0.10068571653E+03  0.00000000000E+00 0.  1.
</event>
<event>
 6    1  0.1383644E-005  0.8035512E+02  0.7818608E-02  0.1373127E+00
          2   -1    0    0  502    0  0.00000000000E+00  0.00000000000E+00  0.12795374162E+04  0.12795374162E+04  0.00000000000E+00 0. -1.
          1   -1    0    0  501    0 -0.00000000000E+00 -0.00000000000E+00 -0.60925455249E+02  0.60925455249E+02  0.00000000000E+00 0. -1.
          2    1    1    2  501    0  0.15081895552E+02  0.15675124335E+02  0.11284705740E+04  0.11286802069E+04  0.00000000000E+00 0. -1.
          1    1    1    2  502    0  0.23134106757E+02 -0.33429225601E+02 -0.17294049526E+02  0.44179001446E+02  0.00000000000E+00 0. -1.
         22    1    1    2    0    0 -0.36648230382E+02 -0.66816672733E+01 -0.16881001434E+02  0.40898724639E+02  0.00000000000E+00 0. -1.
         22    1    1    2    0    0 -0.15677719264E+01  0.24435768539E+02  0.12431643795E+03  0.12670493849E+03  0.00000000000E+00 0. -1.
</event>
<event>
 6    1  0.1383644E-005  0.1316238E+03  0.7818608E-02  0.1343891E+00
          2   -1    0    0  502    0  0.00000000000E+00  0.00000000000E+00  0.15621750168E+03  0.15621750168E+03  0.00000000000E+00 0. -1.
          1   -1    0    0  501    0 -0.00000000000E+00 -0.00000000000E+00 -0.38474531930E+03  0.38474531930E+03  0.00000000000E+00 0.  1.
          2    1    1    2  501    0  0.96844928261E+02  0.28488938337E+02  0.65463316739E+02  0.12031627311E+03  0.00000000000E+00 0. -1.
          1    1    1    2  502    0 -0.13039358119E+03 -0.31315220926E+02 -0.25435073095E+03  0.28753682097E+03  0.00000000000E+00 0.  1.
         22    1    1    2    0    0  0.11238780369E+02 -0.81289922878E+01 -0.82449751057E+02  0.83608325836E+02  0.00000000000E+00 0.  1.
         22    1    1    2    0    0  0.22309872564E+02  0.10955274877E+02  0.42809347641E+02  0.49501401060E+02  0.00000000000E+00 0.  1.
</event>
<event>
 6    1  0.1383644E-005  0.8754826E+02  0.7818608E-02  0.1308945E+00
          2   -1    0    0  502    0  0.00000000000E+00  0.00000000000E+00  0.11487080340E+03  0.11487080340E+03  0.00000000000E+00 0.  1.
          1   -1    0    0  501    0 -0.00000000000E+00 -0.00000000000E+00 -0.23778228121E+03  0.23778228121E+03  0.00000000000E+00 0.  1.
          2    1    1    2  501    0  0.34182533363E+02  0.34139704522E+02  0.33183768829E+02  0.58609960977E+02  0.00000000000E+00 0.  1.
          1    1    1    2  502    0 -0.22480971084E+02 -0.61137364569E+02 -0.15745030869E+03  0.17039299021E+03  0.00000000000E+00 0.  1.
         22    1    1    2    0    0  0.92860860128E+01  0.34642773022E+02  0.54931718407E+02  0.65603710286E+02  0.00000000000E+00 0.  1.
         22    1    1    2    0    0 -0.20987648292E+02 -0.76451129746E+01 -0.53576656353E+02  0.58046423139E+02  0.00000000000E+00 0. -1.
</event>
<event>
 6    1  0.1383644E-005  0.7088745E+02  0.7818608E-02  0.1481096E+00
          2   -1    0    0  502    0  0.00000000000E+00  0.00000000000E+00  0.18630235015E+03  0.18630235015E+03  0.00000000000E+00 0.  1.
          1   -1    0    0  501    0 -0.00000000000E+00 -0.00000000000E+00 -0.59403169058E+02  0.59403169058E+02  0.00000000000E+00 0.  1.
          2    1    1    2  501    0  0.17508607585E+02 -0.18651521095E+02  0.18825159152E+02  0.31761882750E+02  0.00000000000E+00 0.  1.
          1    1    1    2  502    0 -0.34238618975E+02  0.26409457407E+02 -0.92021082040E+01  0.44208836959E+02  0.00000000000E+00 0.  1.
         22    1    1    2    0    0 -0.62083726278E+01  0.84194051418E+01 -0.23745090339E+02  0.25947246267E+02  0.00000000000E+00 0.  1.
         22    1    1    2    0    0  0.22938384018E+02 -0.16177341454E+02  0.14102122049E+03  0.14378755324E+03  0.00000000000E+00 0.  1.
</event>
<event>
 6    1  0.1383644E-005  0.2898317E+02  0.7818608E-02  0.1633955E+00
          2   -1    0    0  502    0  0.00000000000E+00  0.00000000000E+00  0.96151631849E+02  0.96151631849E+02  0.00000000000E+00 0.  1.
          1   -1    0    0  501    0 -0.00000000000E+00 -0.00000000000E+00 -0.15406183058E+03  0.15406183058E+03  0.00000000000E+00 0.  1.
          2    1    1    2  501    0  0.56759963185E+02  0.78526879027E+01  0.35333205502E+02  0.67318597275E+02  0.00000000000E+00 0.  1.
          1    1    1    2  502    0 -0.21033792170E+02 -0.16921568460E+02 -0.22998509147E+02  0.35463943875E+02  0.00000000000E+00 0.  1.
         22    1    1    2    0    0 -0.15643998801E+02  0.31410675513E+01  0.35875835005E+02  0.39264189042E+02  0.00000000000E+00 0.  1.
         22    1    1    2    0    0 -0.20082172214E+02  0.59278130063E+01 -0.10612073009E+03  0.10816673223E+03  0.00000000000E+00 0. -1.
</event>
<event>
 6    1  0.1383644E-005  0.7854003E+02  0.7818608E-02  0.1365561E+00
          2   -1    0    0  502    0  0.00000000000E+00  0.00000000000E+00  0.20966339858E+03  0.20966339858E+03  0.00000000000E+00 0.  1.
          1   -1    0    0  501    0 -0.00000000000E+00 -0.00000000000E+00 -0.12741102740E+03  0.12741102740E+03  0.00000000000E+00 0.  1.
          2    1    1    2  501    0 -0.37352578545E+02  0.34630167496E+02  0.87089157796E+02  0.10089095614E+03  0.00000000000E+00 0.  1.
          1    1    1    2  502    0  0.88579086095E+02 -0.93650773543E+01 -0.30927314427E+02  0.94289224968E+02  0.00000000000E+00 0.  1.
         22    1    1    2    0    0 -0.28033324320E+02 -0.35488836669E+02 -0.46584254300E+02  0.64926246998E+02  0.00000000000E+00 0.  1.
         22    1    1    2    0    0 -0.23193183231E+02  0.10223746527E+02  0.72674782111E+02  0.76967997871E+02  0.00000000000E+00 0. -1.
</event>
<event>
 6    1  0.1383644E-005  0.6692725E+02  0.7818608E-02  0.1397318E+00
          2   -1    0    0  502    0  0.00000000000E+00  0.00000000000E+00  0.13418117864E+03  0.13418117864E+03  0.00000000000E+00 0.  1.
          1   -1    0    0  501    0 -0.00000000000E+00 -0.00000000000E+00 -0.14366327998E+03  0.14366327998E+03  0.00000000000E+00 0.  1.
          2    1    1    2  501    0  0.25739740368E+02 -0.75739616210E+01  0.19679215571E+02  0.33274173984E+02  0.00000000000E+00 0.  1.
          1    1    1    2  502    0 -0.77146940336E+02 -0.45491509359E+02  0.16147186817E+02  0.91004722236E+02  0.00000000000E+00 0.  1.
         22    1    1    2    0    0  0.25713344852E+02  0.17858791769E+02  0.44109687696E+02  0.54090452906E+02  0.00000000000E+00 0.  1.
         22    1    1    2    0    0  0.25693855116E+02  0.35206679211E+02 -0.89418191425E+02  0.99475109498E+02  0.00000000000E+00 0.  1.
</event>
<event>
 6    1  0.1383644E-005  0.1300203E+03  0.7818608E-02  0.1348748E+00
          2   -1    0    0  502    0  0.00000000000E+00  0.00000000000E+00  0.77702121931E+03  0.77702121931E+03  0.00000000000E+00 0. -1.
          1   -1    0    0  501    0 -0.00000000000E+00 -0.00000000000E+00 -0.77455225853E+02  0.77455225853E+02  0.00000000000E+00 0. -1.
          2    1    1    2  501    0 -0.12729979675E+02  0.18939605103E+02 -0.12143362448E+01  0.22852475500E+02  0.00000000000E+00 0. -1.
          1    1    1    2  502    0  0.11386902078E+03 -0.38931366189E+02  0.65558086414E+03  0.66653437616E+03  0.00000000000E+00 0. -1.
         22    1    1    2    0    0 -0.24828219464E+01 -0.13004480069E+02 -0.32601099622E+02  0.35186824285E+02  0.00000000000E+00 0. -1.
         22    1    1    2    0    0 -0.98656219158E+02  0.32996241156E+02  0.77800565179E+02  0.12990276922E+03  0.00000000000E+00 0.  1.
</event>
<event>
 6    1  0.1383644E-005  0.1672067E+03  0.7818608E-02  0.1229227E+00
          2   -1    0    0  502    0  0.00000000000E+00  0.00000000000E+00  0.20523458399E+03  0.20523458399E+03  0.00000000000E+00 0. -1.
          1   -1    0    0  501    0 -0.00000000000E+00 -0.00000000000E+00 -0.73650152488E+03  0.73650152488E+03  0.00000000000E+00 0. -1.
          2    1    1    2  501    0  0.13297188387E+03  0.53730333413E+02 -0.40222140684E+03  0.42702521090E+03  0.00000000000E+00 0. -1.
          1    1    1    2  502    0 -0.14827398653E+03 -0.40035283331E+02  0.14599708948E+03  0.21190363170E+03  0.00000000000E+00 0. -1.
         22    1    1    2    0    0 -0.34087223638E+02 -0.48028623529E+02 -0.18795253195E+03  0.19696406210E+03  0.00000000000E+00 0.  1.
         22    1    1    2    0    0  0.49389326299E+02  0.34333573447E+02 -0.87090091576E+02  0.10584320417E+03  0.00000000000E+00 0.  1.
</event>
<event>
 6    1  0.1383644E-005  0.5086022E+02  0.7818608E-02  0.1477678E+00
          2   -1    0    0  502    0  0.00000000000E+00  0.00000000000E+00  0.74520102200E+02  0.74520102200E+02  0.00000000000E+00 0.  1.
          1   -1    0    0  501    0 -0.00000000000E+00 -0.00000000000E+00 -0.24852916404E+03  0.24852916404E+03  0.00000000000E+00 0.  1.
          2    1    1    2  501    0  0.76798448365E+02 -0.93926185362E+01 -0.27315769916E+02  0.82051046552E+02  0.00000000000E+00 0.  1.
          1    1    1    2  502    0 -0.52373677855E+02 -0.23412717722E+02 -0.33144887653E+02  0.66255121015E+02  0.00000000000E+00 0.  1.
         22    1    1    2    0    0 -0.22056671957E+02 -0.79289779412E+01 -0.12900022051E+03  0.13111225099E+03  0.00000000000E+00 0.  1.
         22    1    1    2    0    0 -0.23680985534E+01  0.40734314199E+02  0.15451816241E+02  0.43630847679E+02  0.00000000000E+00 0.  1.
</event>
<event>
 6    1  0.1383644E-005  0.3715078E+02  0.7818608E-02  0.1602310E+00
          2   -1    0    0  502    0  0.00000000000E+00  0.00000000000E+00  0.86209619491E+02  0.86209619491E+02  0.00000000000E+00 0. -1.
          1   -1    0    0  501    0 -0.00000000000E+00 -0.00000000000E+00 -0.21416707675E+03  0.21416707675E+03  0.00000000000E+00 0. -1.
          2    1    1    2  501    0  0.19882831870E+02 -0.43216043194E+02  0.35989544343E+02  0.59650655440E+02  0.00000000000E+00 0. -1.
          1    1    1    2  502    0  0.13789346561E+02  0.47327869916E+02 -0.37624582646E+02  0.62013567618E+02  0.00000000000E+00 0. -1.
         22    1    1    2    0    0 -0.27181825904E+02  0.50308891538E+01 -0.14999385899E+03  0.15251989785E+03  0.00000000000E+00 0. -1.
         22    1    1    2    0    0 -0.64903525272E+01 -0.91427158761E+01  0.23671440033E+02  0.26192575336E+02  0.00000000000E+00 0. -1.
</event>
<event>
 6    1  0.1383644E-005  0.6013993E+02  0.7818608E-02  0.1445796E+00
          2   -1    0    0  502    0  0.00000000000E+00  0.00000000000E+00  0.28135398005E+03  0.28135398005E+03  0.00000000000E+00 0. -1.
          1   -1    0    0  501    0 -0.00000000000E+00 -0.00000000000E+00 -0.21208392234E+03  0.21208392234E+03  0.00000000000E+00 0. -1.
          2    1    1    2  501    0 -0.40102744507E+02 -0.12896543865E+02  0.21345483091E+03  0.21757186353E+03  0.00000000000E+00 0. -1.
          1    1    1    2  502    0  0.70010607792E+02  0.45470899769E+02 -0.10665872391E+03  0.13544434767E+03  0.00000000000E+00 0. -1.
         22    1    1    2    0    0 -0.17748340246E+02 -0.22350797635E+02 -0.85367243303E+02  0.90011821254E+02  0.00000000000E+00 0.  1.
         22    1    1    2    0    0 -0.12159523040E+02 -0.10223558270E+02  0.47841193994E+02  0.50409869937E+02  0.00000000000E+00 0. -1.
</event>
<event>
 6    1  0.1383644E-005  0.1130785E+03  0.7818608E-02  0.1376449E+00
          2   -1    0    0  502    0  0.00000000000E+00  0.00000000000E+00  0.88876777389E+02  0.88876777389E+02  0.00000000000E+00 0.  1.
          1   -1    0    0  501    0 -0.00000000000E+00 -0.00000000000E+00 -0.21145738963E+03  0.21145738963E+03  0.00000000000E+00 0.  1.
          2    1    1    2  501    0 -0.67834511860E+01 -0.27669608577E+02 -0.16006787616E+02  0.32677816612E+02  0.00000000000E+00 0.  1.
          1    1    1    2  502    0 -0.24121153132E+02  0.94481236483E+02 -0.41535251661E+02  0.10598920325E+03  0.00000000000E+00 0.  1.
         22    1    1    2    0    0  0.30756306028E+02 -0.79468039191E+02  0.97926245778E+01  0.85773044190E+02  0.00000000000E+00 0.  1.
         22    1    1    2    0    0  0.14829828954E+00  0.12656411285E+02 -0.74831197539E+02  0.75894102960E+02  0.00000000000E+00 0.  1.
</event>
<event>
 6    1  0.1383644E-005  0.2953355E+03  0.7818608E-02  0.1087887E+00
          2   -1    0    0  502    0  0.00000000000E+00  0.00000000000E+00  0.67681315367E+03  0.67681315367E+03  0.00000000000E+00 0. -1.
          1   -1    0    0  501    0 -0.00000000000E+00 -0.00000000000E+00 -0.20396916644E+03  0.20396916644E+03  0.00000000000E+00 0. -1.
          2    1    1    2  501    0 -0.24196023799E+03  0.19190795722E+02  0.38394464376E+03  0.45423180523E+03  0.00000000000E+00 0. -1.
          1    1    1    2  502    0  0.25658192371E+03 -0.46073738197E+02 -0.11774446706E+02  0.26095154822E+03  0.00000000000E+00 0. -1.
         22    1    1    2    0    0 -0.43029630144E+02  0.17460117215E+02  0.12087596657E+03  0.12948901134E+03  0.00000000000E+00 0. -1.
         22    1    1    2    0    0  0.28407944427E+02  0.94228252592E+01 -0.20202176388E+02  0.36109955320E+02  0.00000000000E+00 0. -1.
</event>
<event>
 6    1  0.1383644E-005  0.6270167E+02  0.7818608E-02  0.1423063E+00
          2   -1    0    0  502    0  0.00000000000E+00  0.00000000000E+00  0.83188374353E+02  0.83188374353E+02  0.00000000000E+00 0. -1.
          1   -1    0    0  501    0 -0.00000000000E+00 -0.00000000000E+00 -0.74176071215E+03  0.74176071215E+03  0.00000000000E+00 0. -1.
          2    1    1    2  501    0  0.10785196336E+02 -0.68788821555E+02  0.32243835604E+02  0.76732570434E+02  0.00000000000E+00 0. -1.
          1    1    1    2  502    0 -0.31846400614E+02  0.10223090136E+03 -0.54291980645E+03  0.55337805040E+03  0.00000000000E+00 0. -1.
         22    1    1    2    0    0 -0.23476731431E+02 -0.13515965514E+02  0.10533580361E+02  0.29065349778E+02  0.00000000000E+00 0. -1.
         22    1    1    2    0    0  0.44537935708E+02 -0.19926114294E+02 -0.15842994731E+03  0.16577311589E+03  0.00000000000E+00 0.  1.
</event>
<event>
 6    1  0.1383644E-005  0.1068762E+03  0.7818608E-02  0.1333863E+00
          2   -1    0    0  502    0  0.00000000000E+00  0.00000000000E+00  0.12681309293E+03  0.12681309293E+03  0.00000000000E+00 0. -1.
          1   -1    0    0  501    0 -0.00000000000E+00 -0.00000000000E+00 -0.19826297172E+03  0.19826297172E+03  0.00000000000E+00 0. -1.
          2    1    1    2  501    0 -0.27097186507E+02 -0.21123371602E+02  0.28043304127E+02  0.44349534956E+02  0.00000000000E+00 0. -1.
          1    1    1    2  502    0 -0.39113395726E+02  0.68497972858E+02  0.29565264680E+02  0.84237372267E+02  0.00000000000E+00 0. -1.
         22    1    1    2    0    0  0.29956069949E+02  0.73066095408E+01 -0.12716908518E+03  0.13085384555E+03  0.00000000000E+00 0. -1.
         22    1    1    2    0    0  0.36254512284E+02 -0.54681210796E+02 -0.18893624120E+01  0.65635311879E+02  0.00000000000E+00 0. -1.
</event>
<event>
 6    1  0.1383644E-005  0.1158129E+03  0.7818608E-02  0.1315689E+00
          2   -1    0    0  502    0  0.00000000000E+00  0.00000000000E+00  0.59341705900E+03  0.59341705900E+03  0.00000000000E+00 0. -1.
          1   -1    0    0  501    0 -0.00000000000E+00 -0.00000000000E+00 -0.70554840566E+02  0.70554840566E+02  0.00000000000E+00 0. -1.
          2    1    1    2  501    0 -0.11294550205E+03  0.67932748985E+02  0.38393248255E+03  0.40592572717E+03  0.00000000000E+00 0. -1.
          1    1    1    2  502    0 -0.72381270279E+01 -0.38160774674E+02  0.15093459646E+02  0.41670705906E+02  0.00000000000E+00 0. -1.
         22    1    1    2    0    0  0.18711545476E+02 -0.27727145066E+02 -0.21016976790E+02  0.39504807569E+02  0.00000000000E+00 0. -1.
         22    1    1    2    0    0  0.10147208360E+03 -0.20448292451E+01  0.14485325303E+03  0.17687065892E+03  0.00000000000E+00 0. -1.
</event>
<event>
 6    1  0.1383644E-005  0.7958703E+02  0.7818608E-02  0.1441132E+00
          2   -1    0    0  502    0  0.00000000000E+00  0.00000000000E+00  0.12575887542E+03  0.12575887542E+03  0.00000000000E+00 0.  1.
          1   -1    0    0  501    0 -0.00000000000E+00 -0.00000000000E+00 -0.24022467319E+03  0.24022467319E+03  0.00000000000E+00 0.  1.
          2    1    1    2  501    0  0.51710421297E+02 -0.13080073687E+02  0.50634711705E+02  0.73545428328E+02  0.00000000000E+00 0.  1.
          1    1    1    2  502    0 -0.61922898776E+02  0.41937983272E+02 -0.13991868414E+03  0.15865206587E+03  0.00000000000E+00 0.  1.
         22    1    1    2    0    0 -0.40163280379E+01 -0.12573339286E+02 -0.76744992946E+02  0.77871777262E+02  0.00000000000E+00 0.  1.
         22    1    1    2    0    0  0.14228805517E+02 -0.16284570299E+02  0.51563167606E+02  0.55914277156E+02  0.00000000000E+00 0.  1.
</event>
<event>
 6    1  0.1383644E-005  0.1251830E+03  0.7818608E-02  0.1258750E+00
          2   -1    0    0  502    0  0.00000000000E+00  0.00000000000E+00  0.10123687956E+04  0.10123687956E+04  0.00000000000E+00 0. -1.
          1   -1    0    0  501    0 -0.00000000000E+00 -0.00000000000E+00 -0.36186342603E+02  0.36186342603E+02  0.00000000000E+00 0.  1.
          2    1    1    2  501    0  0.30663456200E+02 -0.48834517821E+02  0.37496435588E+03  0.37937227872E+03  0.00000000000E+00 0. -1.
          1    1    1    2  502    0 -0.89904594943E+02 -0.65597856420E+02  0.26830560496E+03  0.29047170708E+03  0.00000000000E+00 0.  1.
         22    1    1    2    0    0  0.56748228285E+02  0.13389180689E+03  0.21745688456E+03  0.26160060016E+03  0.00000000000E+00 0.  1.
         22    1    1    2    0    0  0.24929104575E+01 -0.19459432648E+02  0.11545560764E+03  0.11711055229E+03  0.00000000000E+00 0.  1.
</event>
<event>
 6    1  0.1383644E-005  0.2712218E+02  0.7818608E-02  0.1657851E+00
          2   -1    0    0  502    0  0.00000000000E+00  0.00000000000E+00  0.21728037507E+03  0.21728037507E+03  0.00000000000E+00 0.  1.
          1   -1    0    0  501    0 -0.00000000000E+00 -0.00000000000E+00 -0.74737638185E+02  0.74737638185E+02  0.00000000000E+00 0.  1.
          2    1    1    2  501    0 -0.36392627325E+02 -0.21741174329E+02  0.49892572498E+02  0.65470380900E+02  0.00000000000E+00 0.  1.
          1    1    1    2  502    0  0.30435069962E+02  0.22384271376E+02  0.95258081822E+02  0.10247658875E+03  0.00000000000E+00 0.  1.
         22    1    1    2    0    0  0.22258390485E+02  0.23979794053E+01 -0.60153313487E+02  0.64184167640E+02  0.00000000000E+00 0.  1.
         22    1    1    2    0    0 -0.16300833121E+02 -0.30410764527E+01  0.57545396049E+02  0.59886875965E+02  0.00000000000E+00 0. -1.
</event>
<event>
 6    1  0.1383644E-005  0.2007436E+03  0.7818608E-02  0.1238787E+00
          2   -1    0    0  502    0  0.00000000000E+00  0.00000000000E+00  0.80471241680E+03  0.80471241680E+03  0.00000000000E+00 0.  1.
          1   -1    0    0  501    0 -0.00000000000E+00 -0.00000000000E+00 -0.10181141421E+03  0.10181141421E+03  0.00000000000E+00 0. -1.
          2    1    1    2  501    0 -0.17478397103E+03  0.67580318828E+02  0.39931003218E+03  0.44109527069E+03  0.00000000000E+00 0.  1.
          1    1    1    2  502    0  0.18166747016E+03 -0.47512721486E+02  0.28084290745E+03  0.33783615420E+03  0.00000000000E+00 0. -1.
         22    1    1    2    0    0  0.12907464542E+02 -0.24818100484E+02 -0.47132119146E+02  0.54808552323E+02  0.00000000000E+00 0. -1.
         22    1    1    2    0    0 -0.19790963668E+02  0.47505031431E+01  0.69880182101E+02  0.72783853796E+02  0.00000000000E+00 0.  1.
</event>
<event>
 6    1  0.1383644E-005  0.1388361E+03  0.7818608E-02  0.1310998E+00
          2   -1    0    0  502    0  0.00000000000E+00  0.00000000000E+00  0.18858381699E+03  0.18858381699E+03  0.00000000000E+00 0. -1.
          1   -1    0    0  501    0 -0.00000000000E+00 -0.00000000000E+00 -0.18229711321E+03  0.18229711321E+03  0.00000000000E+00 0. -1.
          2    1    1    2  501    0  0.19130500368E+02 -0.41923303112E+02  0.45214057931E+02  0.64558891120E+02  0.00000000000E+00 0. -1.
          1    1    1    2  502    0 -0.10923302611E+03  0.14363894078E+02 -0.88495203972E+02  0.14131375224E+03  0.00000000000E+00 0. -1.
         22    1    1    2    0    0  0.94153449854E+02  0.68190891077E+01  0.82839020766E+02  0.12559329384E+03  0.00000000000E+00 0.  1.
         22    1    1    2    0    0 -0.40509241137E+01  0.20740319926E+02 -0.33271170952E+02  0.39414993002E+02  0.00000000000E+00 0. -1.
</event>
<event>
 6    1  0.1383644E-005  0.5871928E+02  0.7818608E-02  0.1485889E+00
          2   -1    0    0  502    0  0.00000000000E+00  0.00000000000E+00  0.43931454395E+03  0.43931454395E+03  0.00000000000E+00 0. -1.
          1   -1    0    0  501    0 -0.00000000000E+00 -0.00000000000E+00 -0.51419374829E+02  0.51419374829E+02  0.00000000000E+00 0. -1.
          2    1    1    2  501    0  0.22571647135E+02 -0.34800606861E+02  0.28627268973E+03  0.28926218968E+03  0.00000000000E+00 0. -1.
          1    1    1    2  502    0 -0.88569410748E+01  0.48329080817E+02  0.27115496305E+02  0.56119476100E+02  0.00000000000E+00 0. -1.
         22    1    1    2    0    0  0.28083763628E+01 -0.18326482362E+02  0.10699497447E+03  0.10858946309E+03  0.00000000000E+00 0.  1.
         22    1    1    2    0    0 -0.16523082423E+02  0.47980084064E+01 -0.32487991384E+02  0.36762789905E+02  0.00000000000E+00 0. -1.
</event>
<event>
 6    1  0.1383644E-005  0.1006225E+03  0.7818608E-02  0.1365064E+00
          2   -1    0    0  502    0  0.00000000000E+00  0.00000000000E+00  0.50817005397E+03  0.50817005397E+03  0.00000000000E+00 0. -1.
          1   -1    0    0  501    0 -0.00000000000E+00 -0.00000000000E+00 -0.16728907606E+03  0.16728907606E+03  0.00000000000E+00 0. -1.
          2    1    1    2  501    0  0.52035533601E+02  0.19909585314E+02  0.24581755036E+03  0.25205228903E+03  0.00000000000E+00 0. -1.
          1    1    1    2  502    0 -0.10176546882E+03  0.39295447283E+01 -0.12720653684E+03  0.16295138839E+03  0.00000000000E+00 0. -1.
         22    1    1    2    0    0  0.44429632383E+02 -0.28115371183E+01  0.23232534429E+03  0.23655224069E+03  0.00000000000E+00 0. -1.
         22    1    1    2    0    0  0.53003028373E+01 -0.21027592924E+02 -0.10055379907E+02  0.23903211906E+02  0.00000000000E+00 0.  1.
</event>
<event>
 6    1  0.1383644E-005  0.8550489E+02  0.7818608E-02  0.1380343E+00
          2   -1    0    0  502    0  0.00000000000E+00  0.00000000000E+00  0.45368731839E+03  0.45368731839E+03  0.00000000000E+00 0.  1.
          1   -1    0    0  501    0 -0.00000000000E+00 -0.00000000000E+00 -0.45907103249E+02  0.45907103249E+02  0.00000000000E+00 0. -1.
          2    1    1    2  501    0 -0.62762628254E+02  0.11094900768E+02  0.20867330705E+03  0.21818981050E+03  0.00000000000E+00 0.  1.
          1    1    1    2  502    0  0.67006756162E+02 -0.10798309719E+02  0.10010111196E+03  0.12094106615E+03  0.00000000000E+00 0. -1.
         22    1    1    2    0    0 -0.30965114850E+02 -0.66686440647E+01  0.12112300186E+03  0.12519620894E+03  0.00000000000E+00 0.  1.
         22    1    1    2    0    0  0.26720986942E+02  0.63720530156E+01 -0.22117205742E+02  0.35267336058E+02  0.00000000000E+00 0. -1.
</event>
<event>
 6    1  0.1383644E-005  0.4466477E+02  0.7818608E-02  0.1585507E+00
          2   -1    0    0  502    0  0.00000000000E+00  0.00000000000E+00  0.12580769906E+03  0.12580769906E+03  0.00000000000E+00 0.  1.
          1   -1    0    0  501    0 -0.00000000000E+00 -0.00000000000E+00 -0.11212177458E+03  0.11212177458E+03  0.00000000000E+00 0.  1.
          2    1    1    2  501    0 -0.24567231198E+02  0.36330552555E+01  0.43243449427E+02  0.49867262384E+02  0.00000000000E+00 0.  1.
          1    1    1    2  502    0  0.41276205782E+02 -0.21788582863E+02 -0.37983846396E+02  0.60176740473E+02  0.00000000000E+00 0.  1.
         22    1    1    2    0    0 -0.14242543714E+02  0.78532079615E+01  0.66701247174E+02  0.68655511805E+02  0.00000000000E+00 0.  1.
         22    1    1    2    0    0 -0.24664308700E+01  0.10302319646E+02 -0.58274925731E+02  0.59229958976E+02  0.00000000000E+00 0.  1.
</event>
<event>
 6    1  0.1383644E-005  0.4779142E+02  0.7818608E-02  0.1460621E+00
          2   -1    0    0  502    0  0.00000000000E+00  0.00000000000E+00  0.25531686410E+03  0.25531686410E+03  0.00000000000E+00 0.  1.
          1   -1    0    0  501    0 -0.00000000000E+00 -0.00000000000E+00 -0.48904519206E+02  0.48904519206E+02  0.00000000000E+00 0.  1.
          2    1    1    2  501    0 -0.21096529457E+02 -0.33313067680E+01  0.23680934706E+02  0.31889619447E+02  0.00000000000E+00 0.  1.
          1    1    1    2  502    0  0.68391612888E+01  0.28494292263E+02  0.13454295125E+03  0.13769714794E+03  0.00000000000E+00 0.  1.
         22    1    1    2    0    0  0.32431838490E+02 -0.37990208242E+02 -0.26611244670E+02  0.56597159054E+02  0.00000000000E+00 0.  1.
         22    1    1    2    0    0 -0.18174470322E+02  0.12827222747E+02  0.74799703610E+02  0.78037456872E+02  0.00000000000E+00 0.  1.
</event>
<event>
 6    1  0.1383644E-005  0.1744596E+03  0.7818608E-02  0.1173417E+00
          2   -1    0    0  502    0  0.00000000000E+00  0.00000000000E+00  0.73306076784E+02  0.73306076784E+02  0.00000000000E+00 0. -1.
          1   -1    0    0  501    0 -0.00000000000E+00 -0.00000000000E+00 -0.60129869185E+03  0.60129869185E+03  0.00000000000E+00 0. -1.
          2    1    1    2  501    0 -0.40276316574E+02  0.70701144225E+02 -0.18374017752E+03  0.20095095498E+03  0.00000000000E+00 0. -1.
          1    1    1    2  502    0  0.29817390053E+02 -0.13640352855E+03 -0.54218362964E+02  0.14978194228E+03  0.00000000000E+00 0. -1.
         22    1    1    2    0    0 -0.13303138356E+02  0.90250541277E+02 -0.26828716487E+03  0.28337278720E+03  0.00000000000E+00 0. -1.
         22    1    1    2    0    0  0.23762064877E+02 -0.24548156949E+02 -0.21746909710E+02  0.40499084172E+02  0.00000000000E+00 0.  1.
</event>
<event>
 6    1  0.1383644E-005  0.1807531E+03  0.7818608E-02  0.1307354E+00
          2   -1    0    0  502    0  0.00000000000E+00  0.00000000000E+00  0.15201013624E+03  0.15201013624E+03  0.00000000000E+00 0. -1.
          1   -1    0    0  501    0 -0.00000000000E+00 -0.00000000000E+00 -0.30380623715E+03  0.30380623715E+03  0.00000000000E+00 0.  1.
          2    1    1    2  501    0  0.85730454120E+01  0.31456946159E+02 -0.34092517055E+01  0.32782000648E+02  0.00000000000E+00 0. -1.
          1    1    1    2  502    0  0.87954209696E+02 -0.13341243612E+03 -0.17234003616E+03  0.23502320988E+03  0.00000000000E+00 0.  1.
         22    1    1    2    0    0 -0.95325485042E+02  0.11211649135E+03  0.53621571681E+02  0.15662799456E+03  0.00000000000E+00 0. -1.
         22    1    1    2    0    0 -0.12017700668E+01 -0.10161001383E+02 -0.29668384723E+02  0.31383168299E+02  0.00000000000E+00 0.  1.
</event>
<event>
 6    1  0.1383644E-005  0.1486278E+03  0.7818608E-02  0.1223286E+00
          2   -1    0    0  502    0  0.00000000000E+00  0.00000000000E+00  0.53933062342E+03  0.53933062342E+03  0.00000000000E+00 0.  1.
          1   -1    0    0  501    0 -0.00000000000E+00 -0.00000000000E+00 -0.17371291085E+03  0.17371291085E+03  0.00000000000E+00 0. -1.
          2    1    1    2  501    0  0.63363702193E+02 -0.71681505294E+02  0.27548663441E+03  0.29162661520E+03  0.00000000000E+00 0.  1.
          1    1    1    2  502    0 -0.14171903591E+03  0.33379029149E+02 -0.99961029356E+02  0.17660875436E+03  0.00000000000E+00 0. -1.
         22    1    1    2    0    0 -0.10389739759E+02  0.47514147315E+01 -0.14987733303E+02  0.18845550769E+02  0.00000000000E+00 0.  1.
         22    1    1    2    0    0  0.88745073479E+02  0.33551061413E+02  0.20507984082E+03  0.22596261394E+03  0.00000000000E+00 0.  1.
</event>
<event>
 6    1  0.1383644E-005  0.4836844E+02  0.7818608E-02  0.1524080E+00
          2   -1    0    0  502    0  0.00000000000E+00  0.00000000000E+00  0.10457608171E+04  0.10457608171E+04  0.00000000000E+00 0. -1.
          1   -1    0    0  501    0 -0.00000000000E+00 -0.00000000000E+00 -0.18764750741E+02  0.18764750741E+02  0.00000000000E+00 0.  1.
          2    1    1    2  501    0 -0.30275581441E+01  0.49629777845E+02  0.64407407598E+03  0.64599047695E+03  0.00000000000E+00 0. -1.
          1    1    1    2  502    0 -0.29247488557E+02  0.22678190718E+01  0.11385985146E+03  0.11757816279E+03  0.00000000000E+00 0.  1.
         22    1    1    2    0    0 -0.11046093207E+02 -0.14561290448E+02 -0.65944521839E+01  0.19430238142E+02  0.00000000000E+00 0.  1.
         22    1    1    2    0    0  0.43321139908E+02 -0.37336306468E+02  0.27565659115E+03  0.28152669001E+03  0.00000000000E+00 0.  1.
</event>
<event>
 6    1  0.1383644E-005  0.8316551E+02  0.7818608E-02  0.1328748E+00
          2   -1    0    0  502    0  0.00000000000E+00  0.00000000000E+00  0.83355905824E+02  0.83355905824E+02  0.00000000000E+00 0.  1.
          1   -1    0    0  501    0 -0.00000000000E+00 -0.00000000000E+00 -0.35947818105E+03  0.35947818105E+03  0.00000000000E+00 0.  1.
          2    1    1    2  501    0 -0.68506344978E+02  0.40372658396E+02 -0.38208265810E+02  0.88220986303E+02  0.00000000000E+00 0.  1.
          1    1    1    2  502    0  0.16313932368E+02 -0.70070605306E+02  0.64644596478E+01  0.72234502531E+02  0.00000000000E+00 0.  1.
         22    1    1    2    0    0  0.71589828502E+02 -0.46731593396E-01 -0.23498260272E+03  0.24564594299E+03  0.00000000000E+00 0.  1.
         22    1    1    2    0    0 -0.19397415892E+02  0.29744678504E+02 -0.93958663496E+01  0.36732655050E+02  0.00000000000E+00 0.  1.
</event>
<event>
 6    1  0.1383644E-005  0.8003266E+02  0.7818608E-02  0.1375355E+00
          2   -1    0    0  502    0  0.00000000000E+00  0.00000000000E+00  0.26958942133E+03  0.26958942133E+03  0.00000000000E+00 0. -1.
          1   -1    0    0  501    0 -0.00000000000E+00 -0.00000000000E+00 -0.55569874121E+02  0.55569874121E+02  0.00000000000E+00 0. -1.
          2    1    1    2  501    0 -0.12481166360E+02  0.38069410704E+02  0.68824139272E+02  0.79635555449E+02  0.00000000000E+00 0. -1.
          1    1    1    2  502    0  0.53011010204E+02 -0.29326970070E+02  0.19142820147E+02  0.63534919057E+02  0.00000000000E+00 0. -1.
         22    1    1    2    0    0 -0.32889261273E+02  0.26793306859E+02  0.13748862229E+03  0.14388434960E+03  0.00000000000E+00 0.  1.
         22    1    1    2    0    0 -0.76405825710E+01 -0.35535747493E+02 -0.11436034498E+02  0.38104471351E+02  0.00000000000E+00 0. -1.
</event>
<event>
 6    1  0.1383644E-005  0.1015606E+03  0.7818608E-02  0.1345141E+00
          2   -1    0    0  502    0  0.00000000000E+00  0.00000000000E+00  0.76495606386E+03  0.76495606386E+03  0.00000000000E+00 0.  1.
          1   -1    0    0  501    0 -0.00000000000E+00 -0.00000000000E+00 -0.44605641621E+02  0.44605641621E+02  0.00000000000E+00 0.  1.
          2    1    1    2  501    0 -0.35344250919E+02 -0.48900456545E+02  0.13307863869E+03  0.14611774293E+03  0.00000000000E+00 0.  1.
          1    1    1    2  502    0  0.58767632865E+02  0.55277294895E+02  0.50466346422E+03  0.51107184047E+03  0.00000000000E+00 0.  1.
         22    1    1    2    0    0  0.24153524039E+02 -0.17026478239E+02 -0.22079028637E+02  0.36888713589E+02  0.00000000000E+00 0.  1.
         22    1    1    2    0    0 -0.47576905985E+02  0.10649639888E+02  0.10468734796E+03  0.11548340849E+03  0.00000000000E+00 0.  1.
</event>
<event>
 6    1  0.1383644E-005  0.8559371E+02  0.7818608E-02  0.1410719E+00
          2   -1    0    0  502    0  0.00000000000E+00  0.00000000000E+00  0.46834157528E+03  0.46834157528E+03  0.00000000000E+00 0. -1.
          1   -1    0    0  501    0 -0.00000000000E+00 -0.00000000000E+00 -0.29345415693E+02  0.29345415693E+02  0.00000000000E+00 0. -1.
          2    1    1    2  501    0  0.26715251702E+02 -0.21234070210E+02  0.67751778884E+02  0.75861017348E+02  0.00000000000E+00 0. -1.
          1    1    1    2  502    0 -0.64851684088E+02  0.28850321426E+02  0.13558767654E+03  0.15304280448E+03  0.00000000000E+00 0. -1.
         22    1    1    2    0    0 -0.22056532392E+01  0.16728556495E+02 -0.93473243628E+01  0.19289426673E+02  0.00000000000E+00 0. -1.
         22    1    1    2    0    0  0.40342085625E+02 -0.24344807712E+02  0.24500402853E+03  0.24949374247E+03  0.00000000000E+00 0.  1.
</event>
<event>
 6    1  0.1383644E-005  0.8107565E+02  0.7818608E-02  0.1414085E+00
          2   -1    0    0  502    0  0.00000000000E+00  0.00000000000E+00  0.11064243321E+03  0.11064243321E+03  0.00000000000E+00 0.  1.
          1   -1    0    0  501    0 -0.00000000000E+00 -0.00000000000E+00 -0.29142853308E+03  0.29142853308E+03  0.00000000000E+00 0. -1.
          2    1    1    2  501    0 -0.28333126165E+02  0.13671988543E+02  0.47401609045E+02  0.56891140339E+02  0.00000000000E+00 0.  1.
          1    1    1    2  502    0  0.56600236551E+02 -0.48555393194E+02 -0.19481674412E+03  0.20860195774E+03  0.00000000000E+00 0. -1.
         22    1    1    2    0    0 -0.42499960111E+02  0.22536706291E+02  0.38915960638E+02  0.61875695812E+02  0.00000000000E+00 0.  1.
         22    1    1    2    0    0  0.14232849724E+02  0.12346698360E+02 -0.72286925443E+02  0.74702172402E+02  0.00000000000E+00 0. -1.
</event>
<event>
 6    1  0.1383644E-005  0.1126647E+03  0.7818608E-02  0.1333514E+00
          2   -1    0    0  502    0  0.00000000000E+00  0.00000000000E+00  0.49102088229E+03  0.49102088229E+03  0.00000000000E+00 0.  1.
          1   -1    0    0  501    0 -0.00000000000E+00 -0.00000000000E+00 -0.45870112884E+03  0.45870112884E+03  0.00000000000E+00 0.  1.
          2    1    1    2  501    0  0.43331685571E+02 -0.69107082200E+02  0.43264240154E+03  0.44026454706E+03  0.00000000000E+00 0.  1.
          1    1    1    2  502    0 -0.63341100576E+02  0.73418664816E+02 -0.36591106212E+03  0.37854101594E+03  0.00000000000E+00 0.  1.
         22    1    1    2    0    0  0.23256982577E+01  0.15402445475E+02 -0.78203305630E+02  0.79739583711E+02  0.00000000000E+00 0.  1.
         22    1    1    2    0    0  0.17683716747E+02 -0.19714028091E+02  0.43791719664E+02  0.51176864428E+02  0.00000000000E+00 0. -1.
</event>
<event>
 6    1  0.1383644E-005  0.2849316E+03  0.7818608E-02  0.1224433E+00
          2   -1    0    0  502    0  0.00000000000E+00  0.00000000000E+00  0.16065101953E+03  0.16065101953E+03  0.00000000000E+00 0. -1.
          1   -1    0    0  501    0 -0.00000000000E+00 -0.00000000000E+00 -0.20628207954E+03  0.20628207954E+03  0.00000000000E+00 0. -1.
          2    1    1    2  501    0 -0.51533803454E+01 -0.31575401008E+02 -0.13647287147E+03  0.14017277884E+03  0.00000000000E+00 0. -1.
          1    1    1    2  502    0  0.51772952236E+02 -0.13521701596E+02 -0.13270465814E+02  0.55130574641E+02  0.00000000000E+00 0. -1.
         22    1    1    2    0    0 -0.37132761522E+02  0.54199475424E+02  0.12827534824E+03  0.14412144212E+03  0.00000000000E+00 0.  1.
         22    1    1    2    0    0 -0.94868103681E+01 -0.91023728191E+01 -0.24163070957E+02  0.27508303473E+02  0.00000000000E+00 0. -1.
</event>
<event>
 6    1  0.1383644E-005  0.3764243E+03  0.7818608E-02  0.1053634E+00
          2   -1    0    0  502    0  0.00000000000E+00  0.00000000000E+00  0.40934431806E+03  0.40934431806E+03  0.00000000000E+00 0. -1.
          1   -1    0    0  501    0 -0.00000000000E+00 -0.00000000000E+00 -0.33667384364E+03  0.33667384364E+03  0.00000000000E+00 0. -1.
          2    1    1    2  501    0  0.13309321355E+03  0.30138279624E+03  0.52050214205E+02  0.33354852445E+03  0.00000000000E+00 0. -1.
          1    1    1    2  502    0 -0.10928981980E+03 -0.23623416403E+03  0.51335391472E+02  0.26530391513E+03  0.00000000000E+00 0. -1.
         22    1    1    2    0    0  0.77412177925E+01  0.27377721354E+02  0.22126442983E+02  0.36042274603E+02  0.00000000000E+00 0. -1.
         22    1    1    2    0    0 -0.31544611548E+02 -0.92526353561E+02 -0.52841574242E+02  0.11112344752E+03  0.00000000000E+00 0. -1.
</event>
<event>
 6    1  0.1383644E-005  0.6561764E+02  0.7818608E-02  0.1451469E+00
          2   -1    0    0  502    0  0.00000000000E+00  0.00000000000E+00  0.48773317247E+03  0.48773317247E+03  0.00000000000E+00 0.  1.
          1   -1    0    0  501    0 -0.00000000000E+00 -0.00000000000E+00 -0.26127674991E+02  0.26127674991E+02  0.00000000000E+00 0.  1.
          2    1    1    2  501    0 -0.13208089623E+02  0.16674950872E+02  0.14764506041E+03  0.14916960643E+03  0.00000000000E+00 0.  1.
          1    1    1    2  502    0  0.45090786649E+02 -0.21480171125E+02  0.12741669513E+03  0.13685609592E+03  0.00000000000E+00 0.  1.
         22    1    1    2    0    0  0.13403186958E+02  0.15123137145E+02 -0.12288011246E+02  0.23650579657E+02  0.00000000000E+00 0.  1.
         22    1    1    2    0    0 -0.45285883985E+02 -0.10317916891E+02  0.19883175318E+03  0.20418456546E+03  0.00000000000E+00 0.  1.
</event>
<event>
 6    1  0.1383644E-005  0.1373493E+03  0.7818608E-02  0.1313940E+00
          2   -1    0    0  502    0  0.00000000000E+00  0.00000000000E+00  0.70003298437E+03  0.70003298437E+03  0.00000000000E+00 0. -1.
          1   -1    0    0  501    0 -0.00000000000E+00 -0.00000000000E+00 -0.45153834375E+02  0.45153834375E+02  0.00000000000E+00 0. -1.
          2    1    1    2  501    0  0.37072130482E+02 -0.79941870713E+02  0.19287556501E+03  0.21205194913E+03  0.00000000000E+00 0. -1.
          1    1    1    2  502    0 -0.34360168345E+02  0.12577752825E+03  0.28612739370E+03  0.31443519715E+03  0.00000000000E+00 0. -1.
         22    1    1    2    0    0  0.17600266351E+02 -0.41871939431E+02  0.18887568224E+03  0.19426026879E+03  0.00000000000E+00 0.  1.
         22    1    1    2    0    0 -0.20312228488E+02 -0.39637181027E+01 -0.12999490952E+02  0.24439403683E+02  0.00000000000E+00 0.  1.
</event>
<event>
 6    1  0.1383644E-005  0.1775525E+03  0.7818608E-02  0.1171941E+00
          2   -1    0    0  502    0  0.00000000000E+00  0.00000000000E+00  0.10568037661E+04  0.10568037661E+04  0.00000000000E+00 0. -1.
          1   -1    0    0  501    0 -0.00000000000E+00 -0.00000000000E+00 -0.26775828440E+03  0.26775828440E+03  0.00000000000E+00 0.  1.
          2    1    1    2  501    0  0.12685985171E+03 -0.44626790675E+02  0.85051422683E+03  0.86108038096E+03  0.00000000000E+00 0. -1.
          1    1    1    2  502    0 -0.15667265695E+03  0.23385600397E+02 -0.21008960852E+03  0.26311756184E+03  0.00000000000E+00 0.  1.
         22    1    1    2    0    0 -0.85390038058E+01  0.80301500331E+01 -0.22032271264E+02  0.24956339326E+02  0.00000000000E+00 0.  1.
         22    1    1    2    0    0  0.38351809047E+02  0.13211040245E+02  0.17065313460E+03  0.17540776833E+03  0.00000000000E+00 0. -1.
</event>
<event>
 6    1  0.1383644E-005  0.5194731E+03  0.7818608E-02  0.1092157E+00
          2   -1    0    0  502    0  0.00000000000E+00  0.00000000000E+00  0.98291221110E+03  0.98291221110E+03  0.00000000000E+00 0. -1.
          1   -1    0    0  501    0 -0.00000000000E+00 -0.00000000000E+00 -0.58815134522E+03  0.58815134522E+03  0.00000000000E+00 0. -1.
          2    1    1    2  501    0  0.22103936069E+02 -0.50626536863E+03  0.66578894144E+03  0.83670073623E+03  0.00000000000E+00 0. -1.
          1    1    1    2  502    0  0.15740219191E+02  0.49854850703E+03 -0.81751121849E+02  0.50545189117E+03  0.00000000000E+00 0. -1.
         22    1    1    2    0    0 -0.41224236884E+02  0.24792410945E+02 -0.20180831316E+03  0.20746251856E+03  0.00000000000E+00 0.  1.
         22    1    1    2    0    0  0.33800816238E+01 -0.17075549341E+02  0.12531359453E+02  0.21448410356E+02  0.00000000000E+00 0.  1.
</event>
<event>
 6    1  0.1383644E-005  0.1491359E+03  0.7818608E-02  0.1201724E+00
          2   -1    0    0  502    0  0.00000000000E+00  0.00000000000E+00  0.14686040999E+03  0.14686040999E+03  0.00000000000E+00 0. -1.
          1   -1    0    0  501    0 -0.00000000000E+00 -0.00000000000E+00 -0.52325450356E+03  0.52325450356E+03  0.00000000000E+00 0. -1.
          2    1    1    2  501    0 -0.71938074323E+02  0.52328279172E+01  0.36128558630E+02  0.80670575639E+02  0.00000000000E+00 0. -1.
          1    1    1    2  502    0  0.11423577663E+03  0.33266572750E+02 -0.43280431777E+03  0.44886084147E+03  0.00000000000E+00 0. -1.
         22    1    1    2    0    0 -0.66042489622E+02 -0.37775573702E+02  0.58232710889E+02  0.95810505799E+02  0.00000000000E+00 0. -1.
         22    1    1    2    0    0  0.23744787314E+02 -0.72382696496E+00 -0.37951045320E+02  0.44772990641E+02  0.00000000000E+00 0. -1.
</event>
<event>
 6    1  0.1383644E-005  0.5133095E+02  0.7818608E-02  0.1447189E+00
          2   -1    0    0  502    0  0.00000000000E+00  0.00000000000E+00  0.14562787736E+03  0.14562787736E+03  0.00000000000E+00 0.  1.
          1   -1    0    0  501    0 -0.00000000000E+00 -0.00000000000E+00 -0.71713652582E+02  0.71713652582E+02  0.00000000000E+00 0.  1.
          2    1    1    2  501    0 -0.35775378092E+02  0.17860841326E+02  0.47876108596E+02  0.62377953676E+02  0.00000000000E+00 0.  1.
          1    1    1    2  502    0  0.77987317468E+01 -0.18703216483E+02 -0.40633451049E+01  0.20667396960E+02  0.00000000000E+00 0.  1.
         22    1    1    2    0    0 -0.14915914455E+02  0.14329100952E+02  0.70732532688E+02  0.73694632224E+02  0.00000000000E+00 0.  1.
         22    1    1    2    0    0  0.42892560801E+02 -0.13486725794E+02 -0.40631071405E+02  0.60601547078E+02  0.00000000000E+00 0.  1.
</event>
<event>
 6    1  0.1383644E-005  0.1477826E+03  0.7818608E-02  0.1203751E+00
          2   -1    0    0  502    0  0.00000000000E+00  0.00000000000E+00  0.46450912033E+03  0.46450912033E+03  0.00000000000E+00 0.  1.
          1   -1    0    0  501    0 -0.00000000000E+00 -0.00000000000E+00 -0.58984945412E+02  0.58984945412E+02  0.00000000000E+00 0. -1.
          2    1    1    2  501    0  0.64455141170E+02 -0.44786236403E+02  0.17196377233E+03  0.18902859886E+03  0.00000000000E+00 0.  1.
          1    1    1    2  502    0 -0.10284324281E+03  0.20918980253E+02  0.86896668452E+02  0.13625478823E+03  0.00000000000E+00 0. -1.
         22    1    1    2    0    0 -0.29224668653E+02  0.86906470719E+01 -0.55273493016E+01  0.30986451793E+02  0.00000000000E+00 0. -1.
         22    1    1    2    0    0  0.67612770296E+02  0.15176609078E+02  0.15219108344E+03  0.16722422686E+03  0.00000000000E+00 0.  1.
</event>
<event>
 6    1  0.1383644E-005  0.6476678E+02  0.7818608E-02  0.1393416E+00
          2   -1    0    0  502    0  0.00000000000E+00  0.00000000000E+00  0.31947503214E+03  0.31947503214E+03  0.00000000000E+00 0. -1.
          1   -1    0    0  501    0 -0.00000000000E+00 -0.00000000000E+00 -0.53940644606E+02  0.53940644606E+02  0.00000000000E+00 0. -1.
          2    1    1    2  501    0 -0.25257574258E+02 -0.10559879296E+02  0.11131333573E+03  0.11463033988E+03  0.00000000000E+00 0. -1.
          1    1    1    2  502    0  0.41495295399E+02 -0.43225080171E+02  0.95159483987E+02  0.11245263220E+03  0.00000000000E+00 0. -1.
         22    1    1    2    0    0  0.44942350410E+00  0.70096179635E+02 -0.12374952438E+02  0.71181569446E+02  0.00000000000E+00 0. -1.
         22    1    1    2    0    0 -0.16687144644E+02 -0.16311220169E+02  0.71436520251E+02  0.75151135223E+02  0.00000000000E+00 0. -1.
</event>
<event>
 6    1  0.1383644E-005  0.4400012E+02  0.7818608E-02  0.1513484E+00
          2   -1    0    0  502    0  0.00000000000E+00  0.00000000000E+00  0.10631550085E+03  0.10631550085E+03  0.00000000000E+00 0. -1.
          1   -1    0    0  501    0 -0.00000000000E+00 -0.00000000000E+00 -0.30939460138E+03  0.30939460138E+03  0.00000000000E+00 0.  1.
          2    1    1    2  501    0 -0.42098736733E+02 -0.13430966440E+02  0.58762167707E+02  0.73523376199E+02  0.00000000000E+00 0. -1.
          1    1    1    2  502    0  0.65342129968E+02  0.10014629082E+02 -0.17803734400E+03  0.18991361879E+03  0.00000000000E+00 0.  1.
         22    1    1    2    0    0 -0.16569221411E+01 -0.19751225288E+02 -0.10963237631E+03  0.11140966846E+03  0.00000000000E+00 0.  1.
         22    1    1    2    0    0 -0.21586471095E+02  0.23167562646E+02  0.25828452059E+02  0.40863438781E+02  0.00000000000E+00 0. -1.
</event>
<event>
 6    1  0.1383644E-005  0.4723235E+02  0.7818608E-02  0.1528744E+00
          2   -1    0    0  502    0  0.00000000000E+00  0.00000000000E+00  0.87442650120E+03  0.87442650120E+03  0.00000000000E+00 0. -1.
          1   -1    0    0  501    0 -0.00000000000E+00 -0.00000000000E+00 -0.10943063621E+03  0.10943063621E+03  0.00000000000E+00 0.  1.
          2    1    1    2  501    0 -0.24419713522E+02  0.54893907679E+02  0.71835682383E+03  0.72086489015E+03  0.00000000000E+00 0. -1.
          1    1    1    2  502    0  0.15337006970E+02 -0.72787732967E+02 -0.60479227593E+02  0.95869780554E+02  0.00000000000E+00 0.  1.
         22    1    1    2    0    0  0.56240330552E+01 -0.88426804138E+01 -0.27709936317E+02  0.29625382958E+02  0.00000000000E+00 0.  1.
         22    1    1    2    0    0  0.34586734967E+01  0.26736505701E+02  0.13482820506E+03  0.13749708375E+03  0.00000000000E+00 0.  1.
</event>
<event>
 6    1  0.1383644E-005  0.2541267E+03  0.7818608E-02  0.1209608E+00
          2   -1    0    0  502    0  0.00000000000E+00  0.00000000000E+00  0.40620314557E+02  0.40620314557E+02  0.00000000000E+00 0. -1.
          1   -1    0    0  501    0 -0.00000000000E+00 -0.00000000000E+00 -0.14102015783E+04  0.14102015783E+04  0.00000000000E+00 0. -1.
          2    1    1    2  501    0  0.10825543482E+02 -0.54353525621E+02 -0.42086155758E+03  0.42449493376E+03  0.00000000000E+00 0. -1.
          1    1    1    2  502    0 -0.27331137690E+02  0.17557428880E+03 -0.69562129798E+03  0.71795704062E+03  0.00000000000E+00 0. -1.
         22    1    1    2    0    0 -0.22277802928E+02  0.12072076550E+02 -0.93369319408E+02  0.96746397050E+02  0.00000000000E+00 0. -1.
         22    1    1    2    0    0  0.38783397137E+02 -0.13329283973E+03 -0.15972908874E+03  0.21162352139E+03  0.00000000000E+00 0. -1.
</event>
<event>
 6    1  0.1383644E-005  0.1432879E+03  0.7818608E-02  0.1305184E+00
          2   -1    0    0  502    0  0.00000000000E+00  0.00000000000E+00  0.10166015542E+04  0.10166015542E+04  0.00000000000E+00 0. -1.
          1   -1    0    0  501    0 -0.00000000000E+00 -0.00000000000E+00 -0.68041256564E+02  0.68041256564E+02  0.00000000000E+00 0.  1.
          2    1    1    2  501    0  0.11423358280E+01  0.11094503257E+03  0.69816427526E+03  0.70692535704E+03  0.00000000000E+00 0. -1.
          1    1    1    2  502    0 -0.22907203947E+02 -0.14932710430E+03  0.15848087346E+03  0.21895093360E+03  0.00000000000E+00 0.  1.
         22    1    1    2    0    0  0.27604444124E+01  0.28611108397E+02  0.12004622995E+03  0.12343951110E+03  0.00000000000E+00 0. -1.
         22    1    1    2    0    0  0.19004423706E+02  0.97709633296E+01 -0.28131081043E+02  0.35327009008E+02  0.00000000000E+00 0.  1.
</event>
<event>
 6    1  0.1383644E-005  0.7554261E+02  0.7818608E-02  0.1448878E+00
          2   -1    0    0  502    0  0.00000000000E+00  0.00000000000E+00  0.10790139374E+03  0.10790139374E+03  0.00000000000E+00 0. -1.
          1   -1    0    0  501    0 -0.00000000000E+00 -0.00000000000E+00 -0.18286108669E+03  0.18286108669E+03  0.00000000000E+00 0.  1.
          2    1    1    2  501    0 -0.44047455870E+02 -0.12503695931E+02  0.40986991280E+02  0.61452861892E+02  0.00000000000E+00 0. -1.
          1    1    1    2  502    0  0.53075413070E+02  0.28154926012E+02 -0.76009283111E+02  0.96887101569E+02  0.00000000000E+00 0.  1.
         22    1    1    2    0    0 -0.20399450360E+02 -0.23396872762E+02  0.40381622861E+02  0.50933551760E+02  0.00000000000E+00 0. -1.
         22    1    1    2    0    0  0.11371493159E+02  0.77456426809E+01 -0.80319023987E+02  0.81488965212E+02  0.00000000000E+00 0.  1.
</event>
<event>
 6    1  0.1383644E-005  0.1073124E+03  0.7818608E-02  0.1265876E+00
          2   -1    0    0  502    0  0.00000000000E+00  0.00000000000E+00  0.73631230397E+02  0.73631230397E+02  0.00000000000E+00 0. -1.
          1   -1    0    0  501    0 -0.00000000000E+00 -0.00000000000E+00 -0.50518777054E+03  0.50518777054E+03  0.00000000000E+00 0. -1.
          2    1    1    2  501    0 -0.77505945505E+02 -0.11729000382E+02  0.17560347949E+02  0.80331232150E+02  0.00000000000E+00 0. -1.
          1    1    1    2  502    0  0.73117233405E+02  0.88463237285E+01 -0.27804509256E+03  0.28763424824E+03  0.00000000000E+00 0. -1.
         22    1    1    2    0    0  0.31615723287E+02 -0.51725366179E+01 -0.17862288968E+03  0.18147298921E+03  0.00000000000E+00 0. -1.
         22    1    1    2    0    0 -0.27227011187E+02  0.80552132712E+01  0.75510941466E+01  0.29380531340E+02  0.00000000000E+00 0.  1.
</event>
<event>
 6    1  0.1383644E-005  0.5913297E+02  0.7818608E-02  0.1424864E+00
          2   -1    0    0  502    0  0.00000000000E+00  0.00000000000E+00  0.91749542745E+02  0.91749542745E+02  0.00000000000E+00 0. -1.
          1   -1    0    0  501    0 -0.00000000000E+00 -0.00000000000E+00 -0.43145350269E+03  0.43145350269E+03  0.00000000000E+00 0.  1.
          2    1    1    2  501    0 -0.18847325403E+02  0.67399459711E+01  0.36803523098E+01  0.20351745371E+02  0.00000000000E+00 0. -1.
          1    1    1    2  502    0  0.33573920330E+02 -0.28107472111E+01 -0.37454534521E+03  0.37605760735E+03  0.00000000000E+00 0.  1.
         22    1    1    2    0    0  0.25789690705E+02  0.31958996392E+01  0.67233059852E+02  0.72080553953E+02  0.00000000000E+00 0. -1.
         22    1    1    2    0    0 -0.40516285632E+02 -0.71250983992E+01 -0.36072026895E+02  0.54713138760E+02  0.00000000000E+00 0.  1.
</event>
<event>
 6    1  0.1383644E-005  0.3289676E+02  0.7818608E-02  0.1570714E+00
          2   -1    0    0  502    0  0.00000000000E+00  0.00000000000E+00  0.76688128497E+03  0.76688128497E+03  0.00000000000E+00 0.  1.
          1   -1    0    0  501    0 -0.00000000000E+00 -0.00000000000E+00 -0.10346264681E+03  0.10346264681E+03  0.00000000000E+00 0. -1.
          2    1    1    2  501    0  0.96007303323E+01  0.66010715725E+02  0.67147667691E+03  0.67478182863E+03  0.00000000000E+00 0.  1.
          1    1    1    2  502    0 -0.37088652156E+00 -0.64603323610E+02 -0.13793242249E+02  0.66060430744E+02  0.00000000000E+00 0. -1.
         22    1    1    2    0    0 -0.16844376303E+01 -0.13544586963E+02 -0.60357487090E+02  0.61881494923E+02  0.00000000000E+00 0. -1.
         22    1    1    2    0    0 -0.75454061804E+01  0.12137194847E+02  0.66092690589E+02  0.67620177480E+02  0.00000000000E+00 0.  1.
</event>
<event>
 6    1  0.1383644E-005  0.1067909E+03  0.7818608E-02  0.1399049E+00
          2   -1    0    0  502    0  0.00000000000E+00  0.00000000000E+00  0.12971050862E+04  0.12971050862E+04  0.00000000000E+00 0. -1.
          1   -1    0    0  501    0 -0.00000000000E+00 -0.00000000000E+00 -0.81264464221E+02  0.81264464221E+02  0.00000000000E+00 0.  1.
          2    1    1    2  501    0 -0.11070381703E+03 -0.93606644865E+02  0.61737986499E+03  0.63417303377E+03  0.00000000000E+00 0. -1.
          1    1    1    2  502    0  0.10221103606E+03 -0.20398344733E+02 -0.17426740856E+02  0.10567345767E+03  0.00000000000E+00 0.  1.
         22    1    1    2    0    0  0.25148573420E+01  0.10553324116E+03  0.61881084779E+03  0.62775031249E+03  0.00000000000E+00 0.  1.
         22    1    1    2    0    0  0.59779236324E+01  0.84717484426E+01 -0.29233499172E+01  0.10772746510E+02  0.00000000000E+00 0. -1.
</event>
<event>
 6    1  0.1383644E-005  0.1085886E+03  0.7818608E-02  0.1270161E+00
          2   -1    0    0  502    0  0.00000000000E+00  0.00000000000E+00  0.20543196849E+03  0.20543196849E+03  0.00000000000E+00 0. -1.
          1   -1    0    0  501    0 -0.00000000000E+00 -0.00000000000E+00 -0.34678962254E+03  0.34678962254E+03  0.00000000000E+00 0. -1.
          2    1    1    2  501    0  0.91665340726E+00  0.95598573638E+02  0.10248611227E+03  0.14015466722E+03  0.00000000000E+00 0. -1.
          1    1    1    2  502    0  0.89162196729E+02 -0.11447636971E+03 -0.29728292057E+02  0.14811653485E+03  0.00000000000E+00 0. -1.
         22    1    1    2    0    0  0.43242453087E+01  0.96429693821E+01  0.13626782110E+02  0.17244568613E+02  0.00000000000E+00 0. -1.
         22    1    1    2    0    0 -0.94403095445E+02  0.92348266881E+01 -0.22774225637E+03  0.24670582035E+03  0.00000000000E+00 0. -1.
</event>
<event>
 6    1  0.1383644E-005  0.3000627E+02  0.7818608E-02  0.1610466E+00
          2   -1    0    0  502    0  0.00000000000E+00  0.00000000000E+00  0.16157573286E+04  0.16157573286E+04  0.00000000000E+00 0. -1.
          1   -1    0    0  501    0 -0.00000000000E+00 -0.00000000000E+00 -0.14450891259E+03  0.14450891259E+03  0.00000000000E+00 0. -1.
          2    1    1    2  501    0 -0.39179464245E+02 -0.28614362213E+02  0.15397341759E+04  0.15404983429E+04  0.00000000000E+00 0. -1.
          1    1    1    2  502    0  0.43430395546E+02  0.33869255478E+02  0.24910347922E+02  0.60447093871E+02  0.00000000000E+00 0. -1.
         22    1    1    2    0    0  0.16188621315E+02 -0.70925449562E+01  0.29680881585E+02  0.34544614424E+02  0.00000000000E+00 0.  1.
         22    1    1    2    0    0 -0.20439552617E+02  0.18376516916E+01 -0.12307698937E+03  0.12477618999E+03  0.00000000000E+00 0. -1.
</event>
<event>
 6    1  0.1383644E-005  0.4341162E+02  0.7818608E-02  0.1484847E+00
          2   -1    0    0  502    0  0.00000000000E+00  0.00000000000E+00  0.19997087986E+03  0.19997087986E+03  0.00000000000E+00 0. -1.
          1   -1    0    0  501    0 -0.00000000000E+00 -0.00000000000E+00 -0.14787407564E+03  0.14787407564E+03  0.00000000000E+00 0. -1.
          2    1    1    2  501    0 -0.23091437951E+02  0.16947389873E+02  0.12582277419E+03  0.12904184994E+03  0.00000000000E+00 0. -1.
          1    1    1    2  502    0  0.19897735428E+02 -0.15731420455E+02 -0.88527444565E+02  0.92089662318E+02  0.00000000000E+00 0. -1.
         22    1    1    2    0    0  0.17326954411E+02 -0.46292796555E+01 -0.53736426094E+02  0.56650305107E+02  0.00000000000E+00 0. -1.
         22    1    1    2    0    0 -0.14133251888E+02  0.34133102372E+01  0.68537900686E+02  0.70063138141E+02  0.00000000000E+00 0.  1.
</event>
<event>
 6    1  0.1383644E-005  0.2048715E+03  0.7818608E-02  0.1224426E+00
          2   -1    0    0  502    0  0.00000000000E+00  0.00000000000E+00  0.11968767703E+03  0.11968767703E+03  0.00000000000E+00 0.  1.
          1   -1    0    0  501    0 -0.00000000000E+00 -0.00000000000E+00 -0.59674238624E+03  0.59674238624E+03  0.00000000000E+00 0.  1.
          2    1    1    2  501    0  0.91091134235E+02 -0.70801215365E+02 -0.38481928734E+02  0.12161934744E+03  0.00000000000E+00 0.  1.
          1    1    1    2  502    0 -0.17983121913E+03  0.65097468228E+02 -0.39158388823E+03  0.43579225471E+03  0.00000000000E+00 0.  1.
         22    1    1    2    0    0  0.91055121990E+01  0.34181663221E+02 -0.63650452572E+02  0.72819479301E+02  0.00000000000E+00 0.  1.
         22    1    1    2    0    0  0.79634572695E+02 -0.28477916084E+02  0.16661560329E+02  0.86198981812E+02  0.00000000000E+00 0.  1.
</event>
<event>
 6    1  0.1383644E-005  0.4295247E+02  0.7818608E-02  0.1492314E+00
          2   -1    0    0  502    0  0.00000000000E+00  0.00000000000E+00  0.18626487333E+03  0.18626487333E+03  0.00000000000E+00 0.  1.
          1   -1    0    0  501    0 -0.00000000000E+00 -0.00000000000E+00 -0.82645322860E+02  0.82645322860E+02  0.00000000000E+00 0.  1.
          2    1    1    2  501    0 -0.69048586910E+01 -0.20925452956E+02  0.60260973468E+02  0.64163358533E+02  0.00000000000E+00 0.  1.
          1    1    1    2  502    0 -0.18576307539E+02 -0.29938553326E+02 -0.35492763324E+02  0.50011322972E+02  0.00000000000E+00 0.  1.
         22    1    1    2    0    0 -0.14189390788E+02 -0.17091850559E+02  0.72460030729E+02  0.75788694538E+02  0.00000000000E+00 0.  1.
         22    1    1    2    0    0  0.39670557018E+02  0.67955856841E+02  0.63913095976E+01  0.78946820148E+02  0.00000000000E+00 0. -1.
</event>
<event>
 6    1  0.1383644E-005  0.1916420E+03  0.7818608E-02  0.1167649E+00
          2   -1    0    0  502    0  0.00000000000E+00  0.00000000000E+00  0.21234397735E+03  0.21234397735E+03  0.00000000000E+00 0.  1.
          1   -1    0    0  501    0 -0.00000000000E+00 -0.00000000000E+00 -0.48130147130E+03  0.48130147130E+03  0.00000000000E+00 0.  1.
          2    1    1    2  501    0 -0.21688380713E+03  0.66794906319E+02 -0.63312359185E+02  0.23560263184E+03  0.00000000000E+00 0.  1.
          1    1    1    2  502    0  0.11409908335E+03  0.11228102835E+03 -0.38272985040E+02  0.16459177237E+03  0.00000000000E+00 0.  1.
         22    1    1    2    0    0  0.12158539150E+03 -0.17955626974E+03 -0.16848698760E+03  0.27461122777E+03  0.00000000000E+00 0.  1.
         22    1    1    2    0    0 -0.18800667723E+02  0.48033506275E+00  0.11148378759E+01  0.18839816668E+02  0.00000000000E+00 0. -1.
</event>
<event>
 6    1  0.1383644E-005  0.8428879E+02  0.7818608E-02  0.1320011E+00
          2   -1    0    0  502    0  0.00000000000E+00  0.00000000000E+00  0.36770004105E+03  0.36770004105E+03  0.00000000000E+00 0. -1.
          1   -1    0    0  501    0 -0.00000000000E+00 -0.00000000000E+00 -0.13276695821E+03  0.13276695821E+03  0.00000000000E+00 0. -1.
          2    1    1    2  501    0 -0.19660996706E+02 -0.34469262626E+02  0.21281989936E+03  0.21648786207E+03  0.00000000000E+00 0. -1.
          1    1    1    2  502    0  0.35463601516E+02  0.51996329846E+02 -0.94795906353E+02  0.11378729811E+03  0.00000000000E+00 0. -1.
         22    1    1    2    0    0 -0.48620535015E+01  0.19831564139E+02 -0.19562067884E+02  0.28277287713E+02  0.00000000000E+00 0. -1.
         22    1    1    2    0    0 -0.10940551308E+02 -0.37358631359E+02  0.13647115772E+03  0.14191455137E+03  0.00000000000E+00 0.  1.
</event>
<event>
 6    1  0.1383644E-005  0.6730396E+03  0.7818608E-02  0.9766664E-01
          2   -1    0    0  502    0  0.00000000000E+00  0.00000000000E+00  0.91953939119E+03  0.91953939119E+03  0.00000000000E+00 0. -1.
          1   -1    0    0  501    0 -0.00000000000E+00 -0.00000000000E+00 -0.89574328908E+03  0.89574328908E+03  0.00000000000E+00 0. -1.
          2    1    1    2  501    0  0.60147599121E+03 -0.22635153856E+03  0.58553816315E+03  0.86940400708E+03  0.00000000000E+00 0. -1.
          1    1    1    2  502    0 -0.58070666130E+03  0.22489365729E+03 -0.52179097846E+03  0.81244274184E+03  0.00000000000E+00 0. -1.
         22    1    1    2    0    0  0.20429870275E+02 -0.11133449189E+02  0.37893184288E+02  0.44466017427E+02  0.00000000000E+00 0. -1.
         22    1    1    2    0    0 -0.41199200190E+02  0.12591330461E+02 -0.77844266874E+02  0.88969913927E+02  0.00000000000E+00 0.  1.
</event>
<event>
 6    1  0.1383644E-005  0.2407122E+03  0.7818608E-02  0.1120235E+00
          2   -1    0    0  502    0  0.00000000000E+00  0.00000000000E+00  0.20882583968E+03  0.20882583968E+03  0.00000000000E+00 0.  1.
          1   -1    0    0  501    0 -0.00000000000E+00 -0.00000000000E+00 -0.75240760269E+03  0.75240760269E+03  0.00000000000E+00 0.  1.
          2    1    1    2  501    0 -0.17325224574E+03 -0.92506768258E+02  0.76715048178E+02  0.21085312766E+03  0.00000000000E+00 0.  1.
          1    1    1    2  502    0  0.20163397209E+03  0.81123317290E+02 -0.57450111023E+03  0.61423837145E+03  0.00000000000E+00 0.  1.
         22    1    1    2    0    0 -0.41449759795E+02  0.60073412771E+01  0.34715691451E+02  0.54399907805E+02  0.00000000000E+00 0. -1.
         22    1    1    2    0    0  0.13068033443E+02  0.53761096916E+01 -0.80511392404E+02  0.81742035455E+02  0.00000000000E+00 0. -1.
</event>
<event>
 6    1  0.1383644E-005  0.9449876E+02  0.7818608E-02  0.1413911E+00
          2   -1    0    0  502    0  0.00000000000E+00  0.00000000000E+00  0.51836472951E+02  0.51836472951E+02  0.00000000000E+00 0.  1.
          1   -1    0    0  501    0 -0.00000000000E+00 -0.00000000000E+00 -0.52870887852E+03  0.52870887852E+03  0.00000000000E+00 0. -1.
          2    1    1    2  501    0 -0.76501061712E+02 -0.26790633045E+02 -0.23889267630E+02  0.84503535843E+02  0.00000000000E+00 0.  1.
          1    1    1    2  502    0  0.54758058621E+02 -0.38105689426E+01 -0.25358708996E+03  0.25945978034E+03  0.00000000000E+00 0. -1.
         22    1    1    2    0    0  0.32116973912E+02  0.24707398747E+02 -0.21395518120E+03  0.21775852481E+03  0.00000000000E+00 0. -1.
         22    1    1    2    0    0 -0.10373970821E+02  0.58938032407E+01  0.14559133210E+02  0.18823510487E+02  0.00000000000E+00 0.  1.
</event>
<event>
 6    1  0.1383644E-005  0.6242945E+02  0.7818608E-02  0.1433498E+00
          2   -1    0    0  502    0  0.00000000000E+00  0.00000000000E+00  0.19445785704E+03  0.19445785704E+03  0.00000000000E+00 0.  1.
          1   -1    0    0  501    0 -0.00000000000E+00 -0.00000000000E+00 -0.17728800994E+03  0.17728800994E+03  0.00000000000E+00 0.  1.
          2    1    1    2  501    0  0.22326283010E+00  0.46007389958E+02  0.10656954227E+03  0.11607668636E+03  0.00000000000E+00 0.  1.
          1    1    1    2  502    0 -0.32996631968E+02 -0.49034234336E+02 -0.10895943726E+03  0.12395681839E+03  0.00000000000E+00 0.  1.
         22    1    1    2    0    0  0.29027965902E+02 -0.98861643164E+01 -0.51203129297E+02  0.59683494361E+02  0.00000000000E+00 0. -1.
         22    1    1    2    0    0  0.37454032360E+01  0.12913008695E+02  0.70762871381E+02  0.72028867859E+02  0.00000000000E+00 0.  1.
</event>
<event>
 6    1  0.1383644E-005  0.3787406E+03  0.7818608E-02  0.1051649E+00
          2   -1    0    0  502    0  0.00000000000E+00  0.00000000000E+00  0.11753099841E+04  0.11753099841E+04  0.00000000000E+00 0. -1.
          1   -1    0    0  501    0 -0.00000000000E+00 -0.00000000000E+00 -0.64395123125E+03  0.64395123125E+03  0.00000000000E+00 0.  1.
          2    1    1    2  501    0  0.25830467886E+03 -0.24517744688E+03  0.10519196810E+04  0.11105711606E+04  0.00000000000E+00 0. -1.
          1    1    1    2  502    0 -0.24033515511E+03  0.23272212737E+03 -0.45304872333E+03  0.56318178332E+03  0.00000000000E+00 0.  1.
         22    1    1    2    0    0 -0.24185142537E+02  0.29571597236E+02 -0.10067245091E+03  0.10767703031E+03  0.00000000000E+00 0. -1.
         22    1    1    2    0    0  0.62156187853E+01 -0.17116277726E+02  0.33160246112E+02  0.37831241088E+02  0.00000000000E+00 0.  1.
</event>
<event>
 6    1  0.1383644E-005  0.1277539E+03  0.7818608E-02  0.1324828E+00
          2   -1    0    0  502    0  0.00000000000E+00  0.00000000000E+00  0.23716769275E+03  0.23716769275E+03  0.00000000000E+00 0. -1.
          1   -1    0    0  501    0 -0.00000000000E+00 -0.00000000000E+00 -0.35891121082E+03  0.35891121082E+03  0.00000000000E+00 0.  1.
          2    1    1    2  501    0  0.26729297050E+02  0.16446214961E+03  0.19430963012E+02  0.16774926616E+03  0.00000000000E+00 0. -1.
          1    1    1    2  502    0  0.20953816506E+02 -0.21920812233E+03 -0.17414138895E+03  0.28074274108E+03  0.00000000000E+00 0.  1.
         22    1    1    2    0    0 -0.28967764310E+01 -0.13057184078E+02 -0.37634853192E+02  0.39940750425E+02  0.00000000000E+00 0. -1.
         22    1    1    2    0    0 -0.44786337124E+02  0.67803156803E+02  0.70601761056E+02  0.10764614591E+03  0.00000000000E+00 0. -1.
</event>
<event>
 6    1  0.1383644E-005  0.7653286E+02  0.7818608E-02  0.1417357E+00
          2   -1    0    0  502    0  0.00000000000E+00  0.00000000000E+00  0.43609464282E+03  0.43609464282E+03  0.00000000000E+00 0. -1.
          1   -1    0    0  501    0 -0.00000000000E+00 -0.00000000000E+00 -0.10938164970E+03  0.10938164970E+03  0.00000000000E+00 0.  1.
          2    1    1    2  501    0  0.58226253906E+02  0.92363767889E+01  0.34179652843E+03  0.34684358744E+03  0.00000000000E+00 0. -1.
          1    1    1    2  502    0 -0.68349325210E+02  0.13291399898E+02  0.14098874368E+02  0.71042732397E+02  0.00000000000E+00 0.  1.
         22    1    1    2    0    0  0.15577499280E+02 -0.19441962794E+01  0.46442713170E+02  0.49024116408E+02  0.00000000000E+00 0. -1.
         22    1    1    2    0    0 -0.54544279757E+01 -0.20583580408E+02 -0.75625122846E+02  0.78565856276E+02  0.00000000000E+00 0.  1.
</event>
<event>
 6    1  0.1383644E-005  0.6523102E+02  0.7818608E-02  0.1433714E+00
          2   -1    0    0  502    0  0.00000000000E+00  0.00000000000E+00  0.96628443078E+02  0.96628443078E+02  0.00000000000E+00 0. -1.
          1   -1    0    0  501    0 -0.00000000000E+00 -0.00000000000E+00 -0.31631683065E+03  0.31631683065E+03  0.00000000000E+00 0.  1.
          2    1    1    2  501    0 -0.69000273051E+01  0.47128490099E+02  0.48045210573E+02  0.67653878048E+02  0.00000000000E+00 0. -1.
          1    1    1    2  502    0 -0.22931729722E+02 -0.53748786176E+02 -0.18572047332E+03  0.19469691948E+03  0.00000000000E+00 0.  1.
         22    1    1    2    0    0  0.47600081047E+01  0.16071598507E+02  0.30571701872E+02  0.34865210613E+02  0.00000000000E+00 0. -1.
         22    1    1    2    0    0  0.25071748922E+02 -0.94513024298E+01 -0.11258482670E+03  0.11572926559E+03  0.00000000000E+00 0.  1.
</event>
<event>
 6    1  0.1383644E-005  0.6779945E+02  0.7818608E-02  0.1368657E+00
          2   -1    0    0  502    0  0.00000000000E+00  0.00000000000E+00  0.27317594783E+03  0.27317594783E+03  0.00000000000E+00 0.  1.
          1   -1    0    0  501    0 -0.00000000000E+00 -0.00000000000E+00 -0.67973215481E+02  0.67973215481E+02  0.00000000000E+00 0.  1.
          2    1    1    2  501    0 -0.31242722123E+02 -0.29883586152E+00  0.57742888194E+02  0.65653926962E+02  0.00000000000E+00 0.  1.
          1    1    1    2  502    0 -0.25320632568E+02  0.52949628965E+02 -0.11248351474E+02  0.59760547622E+02  0.00000000000E+00 0.  1.
         22    1    1    2    0    0 -0.91817008045E+01 -0.34081085134E+02  0.14073377043E+03  0.14509244685E+03  0.00000000000E+00 0.  1.
         22    1    1    2    0    0  0.65745055496E+02 -0.18569707970E+02  0.17974425199E+02  0.70642241878E+02  0.00000000000E+00 0. -1.
</event>
<event>
 6    1  0.1383644E-005  0.5306969E+02  0.7818608E-02  0.1469340E+00
          2   -1    0    0  502    0  0.00000000000E+00  0.00000000000E+00  0.14885531886E+03  0.14885531886E+03  0.00000000000E+00 0.  1.
          1   -1    0    0  501    0 -0.00000000000E+00 -0.00000000000E+00 -0.92509884231E+02  0.92509884231E+02  0.00000000000E+00 0.  1.
          2    1    1    2  501    0 -0.26376422079E+02  0.24139822320E+02  0.16777779858E+01  0.35794714726E+02  0.00000000000E+00 0.  1.
          1    1    1    2  502    0 -0.23628415544E+02  0.27655367473E+02 -0.24026757003E+02  0.43593651181E+02  0.00000000000E+00 0.  1.
         22    1    1    2    0    0 -0.81809563808E+01 -0.28309561233E+02 -0.26407701511E+02  0.39569255788E+02  0.00000000000E+00 0.  1.
         22    1    1    2    0    0  0.58185794004E+02 -0.23485628561E+02  0.10510211515E+03  0.12240758139E+03  0.00000000000E+00 0.  1.
</event>
<event>
 6    1  0.1383644E-005  0.7858643E+02  0.7818608E-02  0.1377585E+00
          2   -1    0    0  502    0  0.00000000000E+00  0.00000000000E+00  0.16531755743E+03  0.16531755743E+03  0.00000000000E+00 0.  1.
          1   -1    0    0  501    0 -0.00000000000E+00 -0.00000000000E+00 -0.25737354396E+03  0.25737354396E+03  0.00000000000E+00 0. -1.
          2    1    1    2  501    0  0.17304063037E+02  0.12144909520E+02  0.19637388477E+02  0.28854054326E+02  0.00000000000E+00 0.  1.
          1    1    1    2  502    0 -0.50650597717E+02  0.55793925082E+02 -0.20615470960E+03  0.21949535170E+03  0.00000000000E+00 0. -1.
         22    1    1    2    0    0  0.33748793509E+02 -0.15198168625E+02 -0.24381004432E+02  0.44321538443E+02  0.00000000000E+00 0.  1.
         22    1    1    2    0    0 -0.40225882931E+00 -0.52740665976E+02  0.11884233903E+03  0.13002015692E+03  0.00000000000E+00 0.  1.
</event>
<event>
 6    1  0.1383644E-005  0.3018917E+02  0.7818608E-02  0.1665651E+00
          2   -1    0    0  502    0  0.00000000000E+00  0.00000000000E+00  0.33825642586E+03  0.33825642586E+03  0.00000000000E+00 0.  1.
          1   -1    0    0  501    0 -0.00000000000E+00 -0.00000000000E+00 -0.11637188092E+03  0.11637188092E+03  0.00000000000E+00 0. -1.
          2    1    1    2  501    0 -0.21211267246E+02  0.75277551931E+01  0.25602684624E+03  0.25701426216E+03  0.00000000000E+00 0.  1.
          1    1    1    2  502    0  0.58413401508E+02 -0.13218271115E+02  0.16062778333E+02  0.62006943279E+02  0.00000000000E+00 0. -1.
         22    1    1    2    0    0 -0.25493782037E+02  0.84033469536E+01 -0.90062188800E+02  0.93977375012E+02  0.00000000000E+00 0. -1.
         22    1    1    2    0    0 -0.11708352225E+02 -0.27128310315E+01  0.39857109165E+02  0.41629726338E+02  0.00000000000E+00 0.  1.
</event>
<event>
 6    1  0.1383644E-005  0.6307757E+02  0.7818608E-02  0.1477131E+00
          2   -1    0    0  502    0  0.00000000000E+00  0.00000000000E+00  0.22949581470E+03  0.22949581470E+03  0.00000000000E+00 0. -1.
          1   -1    0    0  501    0 -0.00000000000E+00 -0.00000000000E+00 -0.13270778530E+03  0.13270778530E+03  0.00000000000E+00 0. -1.
          2    1    1    2  501    0 -0.21862590289E+02 -0.17904259396E+02  0.14351895900E+03  0.14627449180E+03  0.00000000000E+00 0. -1.
          1    1    1    2  502    0 -0.38670812798E+02  0.41679578164E+02 -0.54141849120E+02  0.78510883478E+02  0.00000000000E+00 0. -1.
         22    1    1    2    0    0  0.74788921802E+02 -0.30362671354E+02 -0.38112164560E+02  0.89262599802E+02  0.00000000000E+00 0. -1.
         22    1    1    2    0    0 -0.14255518714E+02  0.65873525857E+01  0.45523084078E+02  0.48155624924E+02  0.00000000000E+00 0.  1.
</event>
<event>
 6    1  0.1383644E-005  0.1064182E+03  0.7818608E-02  0.1311376E+00
          2   -1    0    0  502    0  0.00000000000E+00  0.00000000000E+00  0.31469089235E+03  0.31469089235E+03  0.00000000000E+00 0. -1.
          1   -1    0    0  501    0 -0.00000000000E+00 -0.00000000000E+00 -0.35096003128E+03  0.35096003128E+03  0.00000000000E+00 0.  1.
          2    1    1    2  501    0  0.15587938852E+03 -0.97825404636E+02  0.61521775942E+02  0.19404412506E+03  0.00000000000E+00 0. -1.
          1    1    1    2  502    0 -0.14205779748E+03  0.12817488919E+03 -0.22345649957E+03  0.29418026318E+03  0.00000000000E+00 0.  1.
         22    1    1    2    0    0 -0.19827134781E+02 -0.55058391165E+02  0.13745851187E+03  0.14939673423E+03  0.00000000000E+00 0. -1.
         22    1    1    2    0    0  0.60055437455E+01  0.24708906613E+02 -0.11792927179E+02  0.28029801161E+02  0.00000000000E+00 0. -1.
</event>
<event>
 6    1  0.1383644E-005  0.8481055E+02  0.7818608E-02  0.1369353E+00
          2   -1    0    0  502    0  0.00000000000E+00  0.00000000000E+00  0.38613355960E+03  0.38613355960E+03  0.00000000000E+00 0. -1.
          1   -1    0    0  501    0 -0.00000000000E+00 -0.00000000000E+00 -0.87221309781E+02  0.87221309781E+02  0.00000000000E+00 0.  1.
          2    1    1    2  501    0 -0.59103171651E+01 -0.51314974173E+02  0.16658665383E+03  0.17441121425E+03  0.00000000000E+00 0. -1.
          1    1    1    2  502    0  0.34754887670E+02  0.63460723225E+02 -0.42632763525E+02  0.83980462817E+02  0.00000000000E+00 0.  1.
         22    1    1    2    0    0 -0.27705752228E+02  0.19226792803E+02 -0.33710522798E+01  0.33891625241E+02  0.00000000000E+00 0.  1.
         22    1    1    2    0    0 -0.11388182765E+01 -0.31372541855E+02  0.17832941180E+03  0.18107156708E+03  0.00000000000E+00 0. -1.
</event>
<event>
 6    1  0.1383644E-005  0.1052613E+03  0.7818608E-02  0.1328847E+00
          2   -1    0    0  502    0  0.00000000000E+00  0.00000000000E+00  0.18129570226E+04  0.18129570226E+04  0.00000000000E+00 0. -1.
          1   -1    0    0  501    0 -0.00000000000E+00 -0.00000000000E+00 -0.50685492148E+02  0.50685492148E+02  0.00000000000E+00 0. -1.
          2    1    1    2  501    0  0.53727417335E+02 -0.12063665900E+02  0.58606406826E+02  0.80416903258E+02  0.00000000000E+00 0. -1.
          1    1    1    2  502    0 -0.93395982881E+02 -0.31069943442E+02  0.16210987412E+04  0.16240841357E+04  0.00000000000E+00 0. -1.
         22    1    1    2    0    0  0.46890645510E+02  0.86348172585E+01  0.10639910429E+03  0.11659357657E+03  0.00000000000E+00 0. -1.
         22    1    1    2    0    0 -0.72220799642E+01  0.34498792084E+02 -0.23832721898E+02  0.42547899212E+02  0.00000000000E+00 0. -1.
</event>
<event>
 6    1  0.1383644E-005  0.1001457E+03  0.7818608E-02  0.1364678E+00
          2   -1    0    0  502    0  0.00000000000E+00  0.00000000000E+00  0.16866589250E+03  0.16866589250E+03  0.00000000000E+00 0. -1.
          1   -1    0    0  501    0 -0.00000000000E+00 -0.00000000000E+00 -0.16688956627E+03  0.16688956627E+03  0.00000000000E+00 0. -1.
          2    1    1    2  501    0 -0.53710675150E+02 -0.12279049132E+02  0.56677684112E+02  0.79044111412E+02  0.00000000000E+00 0. -1.
          1    1    1    2  502    0  0.11484119697E+03 -0.20980195976E+01 -0.25677655971E+02  0.11769555736E+03  0.00000000000E+00 0. -1.
         22    1    1    2    0    0 -0.39746759123E+02  0.86456051488E+01  0.45412200946E+02  0.60965722697E+02  0.00000000000E+00 0.  1.
         22    1    1    2    0    0 -0.21383762693E+02  0.57314635805E+01 -0.74635902860E+02  0.77850067292E+02  0.00000000000E+00 0. -1.
</event>
<event>
 6    1  0.1383644E-005  0.3606187E+02  0.7818608E-02  0.1546945E+00
          2   -1    0    0  502    0  0.00000000000E+00  0.00000000000E+00  0.27295364121E+03  0.27295364121E+03  0.00000000000E+00 0.  1.
          1   -1    0    0  501    0 -0.00000000000E+00 -0.00000000000E+00 -0.70346519472E+02  0.70346519472E+02  0.00000000000E+00 0. -1.
          2    1    1    2  501    0  0.41946070920E+02  0.45713118144E+02  0.12156082999E+03  0.13647782759E+03  0.00000000000E+00 0.  1.
          1    1    1    2  502    0 -0.32058281189E+01 -0.58823996228E+02  0.22788460580E+02  0.63165289533E+02  0.00000000000E+00 0. -1.
         22    1    1    2    0    0 -0.18785683364E+02  0.10368025303E+02  0.97346913521E+02  0.99683596545E+02  0.00000000000E+00 0.  1.
         22    1    1    2    0    0 -0.19954559438E+02  0.27428527804E+01 -0.39089082348E+02  0.43973447017E+02  0.00000000000E+00 0.  1.
</event>
<event>
 6    1  0.1383644E-005  0.1428540E+03  0.7818608E-02  0.1314632E+00
          2   -1    0    0  502    0  0.00000000000E+00  0.00000000000E+00  0.29720460642E+03  0.29720460642E+03  0.00000000000E+00 0.  1.
          1   -1    0    0  501    0 -0.00000000000E+00 -0.00000000000E+00 -0.49983225368E+03  0.49983225368E+03  0.00000000000E+00 0. -1.
          2    1    1    2  501    0 -0.50801528163E+02 -0.36331268222E+02  0.20047442728E+03  0.20997798053E+03  0.00000000000E+00 0.  1.
          1    1    1    2  502    0  0.11704533301E+02  0.67096922310E+02 -0.44497444843E+03  0.45015692023E+03  0.00000000000E+00 0. -1.
         22    1    1    2    0    0  0.47466533674E+02 -0.46888760587E+02  0.74220916188E+02  0.99801663754E+02  0.00000000000E+00 0.  1.
         22    1    1    2    0    0 -0.83695388120E+01  0.16123106499E+02 -0.32348542302E+02  0.37100295580E+02  0.00000000000E+00 0.  1.
</event>
<event>
 6    1  0.1383644E-005  0.1662244E+03  0.7818608E-02  0.1250052E+00
          2   -1    0    0  502    0  0.00000000000E+00  0.00000000000E+00  0.66428122549E+03  0.66428122549E+03  0.00000000000E+00 0.  1.
          1   -1    0    0  501    0 -0.00000000000E+00 -0.00000000000E+00 -0.52225734843E+02  0.52225734843E+02  0.00000000000E+00 0.  1.
          2    1    1    2  501    0 -0.69346082166E+02 -0.31975299919E+01  0.13952460934E+03  0.15584036679E+03  0.00000000000E+00 0.  1.
          1    1    1    2  502    0  0.11552206806E+03 -0.83983576039E+02  0.22556627710E+03  0.26698077574E+03  0.00000000000E+00 0.  1.
         22    1    1    2    0    0 -0.39229389437E+02  0.15565523202E+01  0.84320407870E+01  0.40155537134E+02  0.00000000000E+00 0.  1.
         22    1    1    2    0    0 -0.69465964590E+01  0.85624553710E+02  0.23853256343E+03  0.25353028067E+03  0.00000000000E+00 0.  1.
</event>
<event>
 6    1  0.1383644E-005  0.4149490E+02  0.7818608E-02  0.1510101E+00
          2   -1    0    0  502    0  0.00000000000E+00  0.00000000000E+00  0.94489175011E+02  0.94489175011E+02  0.00000000000E+00 0.  1.
          1   -1    0    0  501    0 -0.00000000000E+00 -0.00000000000E+00 -0.24472517178E+03  0.24472517178E+03  0.00000000000E+00 0.  1.
          2    1    1    2  501    0  0.85727633391E+01  0.41750536637E+02  0.48607630635E+02  0.64647516091E+02  0.00000000000E+00 0.  1.
          1    1    1    2  502    0 -0.14558950094E+01 -0.62041322372E+02 -0.42622404668E+02  0.75285554336E+02  0.00000000000E+00 0.  1.
         22    1    1    2    0    0  0.22792587031E+02  0.12091746687E+02  0.11835864741E+02  0.28386617546E+02  0.00000000000E+00 0.  1.
         22    1    1    2    0    0 -0.29909455361E+02  0.81990390486E+01 -0.16805708747E+03  0.17089465882E+03  0.00000000000E+00 0. -1.
</event>
<event>
 6    1  0.1411253E-005  0.6275874E+02  0.7818608E-02  0.1438932E+00
          2   -1    0    0  502    0  0.00000000000E+00  0.00000000000E+00  0.90190909463E+03  0.90190909463E+03  0.00000000000E+00 0. -1.
          1   -1    0    0  501    0 -0.00000000000E+00 -0.00000000000E+00 -0.30558081654E+03  0.30558081654E+03  0.00000000000E+00 0. -1.
          2    1    1    2  501    0 -0.15043467612E+03 -0.79918858637E+02  0.79971975103E+03  0.81766086853E+03  0.00000000000E+00 0. -1.
          1    1    1    2  502    0  0.12234327327E+03  0.52891170071E+02 -0.22365078694E+03  0.26035557779E+03  0.00000000000E+00 0. -1.
         22    1    1    2    0    0  0.66945029566E+01  0.10124227163E+02 -0.51393584541E+02  0.52807356282E+02  0.00000000000E+00 0.  1.
         22    1    1    2    0    0  0.21396899889E+02  0.16903461404E+02  0.71652898540E+02  0.76666108558E+02  0.00000000000E+00 0. -1.
</event>
<event>
 6    1  0.1383644E-005  0.1238919E+03  0.7818608E-02  0.1326712E+00
          2   -1    0    0  502    0  0.00000000000E+00  0.00000000000E+00  0.12637968133E+03  0.12637968133E+03  0.00000000000E+00 0.  1.
          1   -1    0    0  501    0 -0.00000000000E+00 -0.00000000000E+00 -0.22087249065E+03  0.22087249065E+03  0.00000000000E+00 0.  1.
          2    1    1    2  501    0  0.17842602496E+02  0.76711705551E+02  0.16275578195E+02  0.80423495807E+02  0.00000000000E+00 0.  1.
          1    1    1    2  502    0 -0.28722496249E+02 -0.11040627911E+03 -0.46891785175E+02  0.12334248163E+03  0.00000000000E+00 0.  1.
         22    1    1    2    0    0 -0.64898145442E+01  0.47913747824E+02  0.23152594072E+02  0.53608651687E+02  0.00000000000E+00 0.  1.
         22    1    1    2    0    0  0.17369708297E+02 -0.14219174264E+02 -0.87029196408E+02  0.89877542860E+02  0.00000000000E+00 0.  1.
</event>
<event>
 6    1  0.1383644E-005  0.4250656E+02  0.7818608E-02  0.1550604E+00
          2   -1    0    0  502    0  0.00000000000E+00  0.00000000000E+00  0.11755783812E+03  0.11755783812E+03  0.00000000000E+00 0. -1.
          1   -1    0    0  501    0 -0.00000000000E+00 -0.00000000000E+00 -0.30118245740E+03  0.30118245740E+03  0.00000000000E+00 0.  1.
          2    1    1    2  501    0  0.25916185748E+02  0.16258689226E+02  0.24410064408E+02  0.39138790266E+02  0.00000000000E+00 0. -1.
          1    1    1    2  502    0 -0.67424752566E+02 -0.38093935384E+01 -0.23250772122E+03  0.24211660242E+03  0.00000000000E+00 0.  1.
         22    1    1    2    0    0  0.30960066328E+02 -0.27604031955E+02 -0.47569423843E+02  0.63113852457E+02  0.00000000000E+00 0. -1.
         22    1    1    2    0    0  0.10548500490E+02  0.15154736267E+02  0.72042461370E+02  0.74371050377E+02  0.00000000000E+00 0. -1.
</event>
<event>
 6    1  0.1383644E-005  0.7808051E+02  0.7818608E-02  0.1405900E+00
          2   -1    0    0  502    0  0.00000000000E+00  0.00000000000E+00  0.14197024115E+03  0.14197024115E+03  0.00000000000E+00 0. -1.
          1   -1    0    0  501    0 -0.00000000000E+00 -0.00000000000E+00 -0.15699441310E+03  0.15699441310E+03  0.00000000000E+00 0. -1.
          2    1    1    2  501    0  0.46216534924E+02 -0.77518685475E+01  0.76952762824E+02  0.90098763990E+02  0.00000000000E+00 0. -1.
          1    1    1    2  502    0 -0.62488514110E+02  0.57738249322E+01 -0.33563124205E+02  0.71166247312E+02  0.00000000000E+00 0. -1.
         22    1    1    2    0    0  0.25844130839E+02 -0.19995962970E+02  0.31052783606E+02  0.45078076751E+02  0.00000000000E+00 0. -1.
         22    1    1    2    0    0 -0.95721516534E+01  0.21974006585E+02 -0.89466594169E+02  0.92621566197E+02  0.00000000000E+00 0. -1.
</event>
<event>
 6    1  0.1383644E-005  0.8580371E+02  0.7818608E-02  0.1356043E+00
          2   -1    0    0  502    0  0.00000000000E+00  0.00000000000E+00  0.44688540284E+03  0.44688540284E+03  0.00000000000E+00 0. -1.
          1   -1    0    0  501    0 -0.00000000000E+00 -0.00000000000E+00 -0.92145496566E+02  0.92145496566E+02  0.00000000000E+00 0. -1.
          2    1    1    2  501    0  0.16588577072E+02 -0.48619873211E+02  0.19419885161E+02  0.54919986344E+02  0.00000000000E+00 0. -1.
          1    1    1    2  502    0 -0.99774564202E+00  0.70382337600E+02  0.34520924643E+03  0.35231249305E+03  0.00000000000E+00 0. -1.
         22    1    1    2    0    0  0.12690245294E+02  0.38664036908E+02 -0.41367786411E+02  0.58027957298E+02  0.00000000000E+00 0.  1.
         22    1    1    2    0    0 -0.28281076725E+02 -0.60426501297E+02  0.31478561094E+02  0.73770462709E+02  0.00000000000E+00 0. -1.
</event>
<event>
 6    1  0.1383644E-005  0.8872363E+02  0.7818608E-02  0.1307282E+00
          2   -1    0    0  502    0  0.00000000000E+00  0.00000000000E+00  0.28810680940E+03  0.28810680940E+03  0.00000000000E+00 0. -1.
          1   -1    0    0  501    0 -0.00000000000E+00 -0.00000000000E+00 -0.10143748010E+03  0.10143748010E+03  0.00000000000E+00 0.  1.
          2    1    1    2  501    0 -0.45205850049E+02  0.57855897452E+02  0.20338735975E+03  0.21623434476E+03  0.00000000000E+00 0. -1.
          1    1    1    2  502    0  0.62837152549E+01 -0.34177736625E+02 -0.20123867779E+02  0.40156852623E+02  0.00000000000E+00 0.  1.
         22    1    1    2    0    0 -0.21496233670E+00  0.11704692523E+02  0.56856362878E+02  0.58049048533E+02  0.00000000000E+00 0. -1.
         22    1    1    2    0    0  0.39137097131E+02 -0.35382853350E+02 -0.53450525543E+02  0.75104043592E+02  0.00000000000E+00 0. -1.
</event>
<event>
 6    1  0.1383644E-005  0.1332572E+03  0.7818608E-02  0.1266320E+00
          2   -1    0    0  502    0  0.00000000000E+00  0.00000000000E+00  0.22960309163E+03  0.22960309163E+03  0.00000000000E+00 0. -1.
          1   -1    0    0  501    0 -0.00000000000E+00 -0.00000000000E+00 -0.13200849592E+03  0.13200849592E+03  0.00000000000E+00 0.  1.
          2    1    1    2  501    0 -0.72602905997E+02 -0.34333789292E+02  0.54883634816E+02  0.97273862969E+02  0.00000000000E+00 0. -1.
          1    1    1    2  502    0  0.11799403004E+03  0.37491734269E+02  0.12626631839E+02  0.12444939974E+03  0.00000000000E+00 0.  1.
         22    1    1    2    0    0 -0.19065504764E+02 -0.51784964267E+02  0.56175956065E+02  0.78745882660E+02  0.00000000000E+00 0. -1.
         22    1    1    2    0    0 -0.26325619280E+02  0.48627019289E+02 -0.26091627018E+02  0.61142442181E+02  0.00000000000E+00 0. -1.
</event>
<event>
 6    1  0.1383644E-005  0.1570308E+03  0.7818608E-02  0.1277583E+00
          2   -1    0    0  502    0  0.00000000000E+00  0.00000000000E+00  0.17685237909E+03  0.17685237909E+03  0.00000000000E+00 0.  1.
          1   -1    0    0  501    0 -0.00000000000E+00 -0.00000000000E+00 -0.96350877222E+02  0.96350877222E+02  0.00000000000E+00 0.  1.
          2    1    1    2  501    0 -0.62827194646E+02 -0.13225985905E+01 -0.12774624454E+02  0.64126411751E+02  0.00000000000E+00 0.  1.
          1    1    1    2  502    0  0.47123988509E+02  0.35741671520E+02  0.20299813644E+02  0.62531750416E+02  0.00000000000E+00 0.  1.
         22    1    1    2    0    0 -0.21177850030E+02  0.17062387850E+02 -0.20205207715E+02  0.33880331017E+02  0.00000000000E+00 0.  1.
         22    1    1    2    0    0  0.36881056167E+02 -0.51481460780E+02  0.93181520394E+02  0.11266476313E+03  0.00000000000E+00 0.  1.
</event>
<event>
 6    1  0.1383644E-005  0.1142996E+03  0.7818608E-02  0.1318902E+00
          2   -1    0    0  502    0  0.00000000000E+00  0.00000000000E+00  0.40424538731E+03  0.40424538731E+03  0.00000000000E+00 0. -1.
          1   -1    0    0  501    0 -0.00000000000E+00 -0.00000000000E+00 -0.97186949214E+02  0.97186949214E+02  0.00000000000E+00 0. -1.
          2    1    1    2  501    0  0.45066528994E+02 -0.70435598533E+02  0.19855209234E+03  0.21544163699E+03  0.00000000000E+00 0. -1.
          1    1    1    2  502    0 -0.30471324913E+02  0.96523892487E+02 -0.22241659041E+02  0.10363423594E+03  0.00000000000E+00 0. -1.
         22    1    1    2    0    0  0.17114283350E+02 -0.17517031268E+02  0.14463529736E+03  0.14669394781E+03  0.00000000000E+00 0. -1.
         22    1    1    2    0    0 -0.31709487431E+02 -0.85712626851E+01 -0.13887292569E+02  0.35662515784E+02  0.00000000000E+00 0. -1.
</event>
<event>
 6    1  0.1383644E-005  0.1013375E+03  0.7818608E-02  0.1354069E+00
          2   -1    0    0  502    0  0.00000000000E+00  0.00000000000E+00  0.14046969158E+03  0.14046969158E+03  0.00000000000E+00 0. -1.
          1   -1    0    0  501    0 -0.00000000000E+00 -0.00000000000E+00 -0.41013269457E+03  0.41013269457E+03  0.00000000000E+00 0. -1.
          2    1    1    2  501    0 -0.10960586602E+03  0.44178046345E+01 -0.15542936501E+03  0.19023998101E+03  0.00000000000E+00 0. -1.
          1    1    1    2  502    0  0.18069377192E+03 -0.17509896684E+02 -0.11260499828E+03  0.21362752943E+03  0.00000000000E+00 0. -1.
         22    1    1    2    0    0  0.12175395248E+02  0.16847329439E+02 -0.47320203236E+02  0.51684372812E+02  0.00000000000E+00 0. -1.
         22    1    1    2    0    0 -0.83263301144E+02 -0.37552373893E+01  0.45691563525E+02  0.95050502905E+02  0.00000000000E+00 0.  1.
</event>
<event>
 6    1  0.1383644E-005  0.2010207E+03  0.7818608E-02  0.1264901E+00
          2   -1    0    0  502    0  0.00000000000E+00  0.00000000000E+00  0.40455099220E+03  0.40455099220E+03  0.00000000000E+00 0.  1.
          1   -1    0    0  501    0 -0.00000000000E+00 -0.00000000000E+00 -0.16598885257E+03  0.16598885257E+03  0.00000000000E+00 0. -1.
          2    1    1    2  501    0  0.16819966165E+03  0.10963576471E+02  0.13574348875E+03  0.21642001046E+03  0.00000000000E+00 0.  1.
          1    1    1    2  502    0 -0.18344780824E+03 -0.42766690729E+02  0.11560682055E+03  0.22101363112E+03  0.00000000000E+00 0. -1.
         22    1    1    2    0    0 -0.89503175910E+01  0.13931921001E+02 -0.68131787576E+02  0.70115241467E+02  0.00000000000E+00 0. -1.
         22    1    1    2    0    0  0.24198464177E+02  0.17871193257E+02  0.55343617900E+02  0.62990961727E+02  0.00000000000E+00 0.  1.
</event>
<event>
 6    1  0.1383644E-005  0.1426993E+03  0.7818608E-02  0.1300829E+00
          2   -1    0    0  502    0  0.00000000000E+00  0.00000000000E+00  0.14701541242E+03  0.14701541242E+03  0.00000000000E+00 0. -1.
          1   -1    0    0  501    0 -0.00000000000E+00 -0.00000000000E+00 -0.27934599460E+03  0.27934599460E+03  0.00000000000E+00 0. -1.
          2    1    1    2  501    0  0.36596959721E+02 -0.11819238712E+02 -0.86447197079E+02  0.94615800727E+02  0.00000000000E+00 0. -1.
          1    1    1    2  502    0 -0.98905079864E+02 -0.39468161854E+02  0.82931848010E+02  0.13497274554E+03  0.00000000000E+00 0. -1.
         22    1    1    2    0    0 -0.21282597066E+02 -0.98093621038E+01 -0.77985484048E+02  0.81430388952E+02  0.00000000000E+00 0. -1.
         22    1    1    2    0    0  0.83590717210E+02  0.61096762670E+02 -0.50829749061E+02  0.11534247180E+03  0.00000000000E+00 0. -1.
</event>
<event>
 6    1  0.1383644E-005  0.1374032E+03  0.7818608E-02  0.1218267E+00
          2   -1    0    0  502    0  0.00000000000E+00  0.00000000000E+00  0.28133111171E+03  0.28133111171E+03  0.00000000000E+00 0.  1.
          1   -1    0    0  501    0 -0.00000000000E+00 -0.00000000000E+00 -0.20730801122E+03  0.20730801122E+03  0.00000000000E+00 0. -1.
          2    1    1    2  501    0 -0.64154915344E+02  0.72831140621E+02  0.18708019465E+03  0.21075869481E+03  0.00000000000E+00 0.  1.
          1    1    1    2  502    0  0.72949167604E+02 -0.72978780604E+02 -0.11613281121E+03  0.15535222339E+03  0.00000000000E+00 0. -1.
         22    1    1    2    0    0 -0.11358011695E+02  0.33751243424E+02  0.52057482031E+02  0.63072436909E+02  0.00000000000E+00 0.  1.
         22    1    1    2    0    0  0.25637594343E+01 -0.33603603440E+02 -0.48981764984E+02  0.59455767824E+02  0.00000000000E+00 0. -1.
</event>
<event>
 6    1  0.1383644E-005  0.6433858E+02  0.7818608E-02  0.1381287E+00
          2   -1    0    0  502    0  0.00000000000E+00  0.00000000000E+00  0.21647427667E+03  0.21647427667E+03  0.00000000000E+00 0. -1.
          1   -1    0    0  501    0 -0.00000000000E+00 -0.00000000000E+00 -0.53687222813E+02  0.53687222813E+02  0.00000000000E+00 0.  1.
          2    1    1    2  501    0  0.11105530708E+02 -0.27578784983E+02  0.35790095410E+02  0.46527982150E+02  0.00000000000E+00 0. -1.
          1    1    1    2  502    0  0.83974994221E+01  0.51137148370E+02  0.22646452224E+02  0.56554290185E+02  0.00000000000E+00 0.  1.
         22    1    1    2    0    0 -0.52607078830E+02 -0.37774338243E+02  0.92982065937E+01  0.65428296773E+02  0.00000000000E+00 0.  1.
         22    1    1    2    0    0  0.33104048700E+02  0.14215974856E+02  0.95052299634E+02  0.10165093038E+03  0.00000000000E+00 0. -1.
</event>
<event>
 6    1  0.1383644E-005  0.8303646E+02  0.7818608E-02  0.1351464E+00
          2   -1    0    0  502    0  0.00000000000E+00  0.00000000000E+00  0.65874089114E+03  0.65874089114E+03  0.00000000000E+00 0.  1.
          1   -1    0    0  501    0 -0.00000000000E+00 -0.00000000000E+00 -0.15123673150E+03  0.15123673150E+03  0.00000000000E+00 0.  1.
          2    1    1    2  501    0 -0.57391222412E+02  0.18340202512E+01  0.51138602080E+03  0.51459962914E+03  0.00000000000E+00 0.  1.
          1    1    1    2  502    0  0.32369004710E+02  0.24278146270E+02  0.11343786159E+03  0.12043807245E+03  0.00000000000E+00 0.  1.
         22    1    1    2    0    0  0.25330382683E+02 -0.41389953684E+02 -0.13967315445E+03  0.14786259373E+03  0.00000000000E+00 0.  1.
         22    1    1    2    0    0 -0.30816498040E+00  0.15277787163E+02  0.22353431690E+02  0.27077327316E+02  0.00000000000E+00 0.  1.
</event>
<event>
 6    1  0.1383644E-005  0.4430941E+02  0.7818608E-02  0.1481621E+00
          2   -1    0    0  502    0  0.00000000000E+00  0.00000000000E+00  0.40828761178E+02  0.40828761178E+02  0.00000000000E+00 0. -1.
          1   -1    0    0  501    0 -0.00000000000E+00 -0.00000000000E+00 -0.26971132071E+03  0.26971132071E+03  0.00000000000E+00 0.  1.
          2    1    1    2  501    0 -0.19791891923E+02  0.30963692581E+02  0.61043444648E+00  0.36753800815E+02  0.00000000000E+00 0. -1.
          1    1    1    2  502    0 -0.89354466498E+01 -0.18100190271E+02 -0.42909350571E+02  0.47420158805E+02  0.00000000000E+00 0.  1.
         22    1    1    2    0    0 -0.49248150321E+01  0.13123697746E+02  0.14892945696E+02  0.20452018901E+02  0.00000000000E+00 0. -1.
         22    1    1    2    0    0  0.33652153605E+02 -0.25987200055E+02 -0.20147658910E+03  0.20591410336E+03  0.00000000000E+00 0.  1.
</event>
<event>
 6    1  0.1383644E-005  0.6257641E+02  0.7818608E-02  0.1417012E+00
          2   -1    0    0  502    0  0.00000000000E+00  0.00000000000E+00  0.29993342802E+04  0.29993342802E+04  0.00000000000E+00 0. -1.
          1   -1    0    0  501    0 -0.00000000000E+00 -0.00000000000E+00 -0.22635197241E+03  0.22635197241E+03  0.00000000000E+00 0. -1.
          2    1    1    2  501    0  0.27391364643E+02 -0.16196252593E+03  0.28628862295E+04  0.28675947604E+04  0.00000000000E+00 0. -1.
          1    1    1    2  502    0 -0.64142207882E+02  0.16337473150E+03 -0.12944144687E+03  0.21808396064E+03  0.00000000000E+00 0. -1.
         22    1    1    2    0    0  0.13910864051E+02 -0.35915552995E+01  0.86529203859E+02  0.87713821765E+02  0.00000000000E+00 0.  1.
         22    1    1    2    0    0  0.22839979188E+02  0.21793497354E+01 -0.46991678729E+02  0.52293709797E+02  0.00000000000E+00 0. -1.
</event>
<event>
 6    1  0.1383644E-005  0.6619654E+02  0.7818608E-02  0.1443885E+00
          2   -1    0    0  502    0  0.00000000000E+00  0.00000000000E+00  0.11703142180E+03  0.11703142180E+03  0.00000000000E+00 0. -1.
          1   -1    0    0  501    0 -0.00000000000E+00 -0.00000000000E+00 -0.95758099281E+03  0.95758099281E+03  0.00000000000E+00 0.  1.
          2    1    1    2  501    0  0.10982372949E+02  0.25866268414E+02  0.36136393861E+02  0.45776798911E+02  0.00000000000E+00 0. -1.
          1    1    1    2  502    0 -0.15506154998E+02 -0.49301646026E+02 -0.89424087062E+03  0.89573312311E+03  0.00000000000E+00 0.  1.
         22    1    1    2    0    0 -0.14414097358E+02  0.34666006772E+02  0.68215446259E+02  0.77864275098E+02  0.00000000000E+00 0. -1.
         22    1    1    2    0    0  0.18937879408E+02 -0.11230629160E+02 -0.50660540500E+02  0.55238217491E+02  0.00000000000E+00 0. -1.
</event>
<event>
 6    1  0.1383644E-005  0.1959381E+03  0.7818608E-02  0.1231503E+00
          2   -1    0    0  502    0  0.00000000000E+00  0.00000000000E+00  0.11089135227E+04  0.11089135227E+04  0.00000000000E+00 0.  1.
          1   -1    0    0  501    0 -0.00000000000E+00 -0.00000000000E+00 -0.51893065988E+02  0.51893065988E+02  0.00000000000E+00 0. -1.
          2    1    1    2  501    0 -0.18911342184E+02  0.10645006067E+03  0.68508452691E+03  0.69356330879E+03  0.00000000000E+00 0.  1.
          1    1    1    2  502    0  0.86758002814E+02 -0.10498896685E+03  0.17773734233E+03  0.22392006849E+03  0.00000000000E+00 0. -1.
         22    1    1    2    0    0 -0.69841587898E+02  0.33403489489E+02  0.19347998700E+03  0.20839420788E+03  0.00000000000E+00 0.  1.
         22    1    1    2    0    0  0.19949272689E+01 -0.34864583303E+02  0.71860051076E+00  0.34929003570E+02  0.00000000000E+00 0. -1.
</event>
<event>
 6    1  0.1383644E-005  0.2823256E+02  0.7818608E-02  0.1687645E+00
          2   -1    0    0  502    0  0.00000000000E+00  0.00000000000E+00  0.26056678600E+03  0.26056678600E+03  0.00000000000E+00 0.  1.
          1   -1    0    0  501    0 -0.00000000000E+00 -0.00000000000E+00 -0.46827176107E+02  0.46827176107E+02  0.00000000000E+00 0. -1.
          2    1    1    2  501    0  0.29139537759E+02  0.14361409343E+02  0.11881154780E+03  0.12317283235E+03  0.00000000000E+00 0.  1.
          1    1    1    2  502    0 -0.21478009616E+02  0.62557789355E+01 -0.28117330140E+01  0.22546518793E+02  0.00000000000E+00 0. -1.
         22    1    1    2    0    0  0.26952319766E+01 -0.27012379605E+02  0.12706031880E+03  0.12992789362E+03  0.00000000000E+00 0. -1.
         22    1    1    2    0    0 -0.10356760120E+02  0.63951913263E+01 -0.29320523692E+02  0.31746717340E+02  0.00000000000E+00 0. -1.
</event>
<event>
 6    1  0.1383644E-005  0.6551271E+02  0.7818608E-02  0.1495577E+00
          2   -1    0    0  502    0  0.00000000000E+00  0.00000000000E+00  0.68831699980E+03  0.68831699980E+03  0.00000000000E+00 0. -1.
          1   -1    0    0  501    0 -0.00000000000E+00 -0.00000000000E+00 -0.28713761661E+02  0.28713761661E+02  0.00000000000E+00 0.  1.
          2    1    1    2  501    0  0.11634548598E+02 -0.67165497707E+02  0.29683640687E+03  0.30456266883E+03  0.00000000000E+00 0. -1.
          1    1    1    2  502    0 -0.47885221097E+02  0.67280174500E+01  0.14051890645E+03  0.14860627069E+03  0.00000000000E+00 0.  1.
         22    1    1    2    0    0  0.47076799053E+02  0.60442089229E+02  0.23497724711E+03  0.24715132575E+03  0.00000000000E+00 0.  1.
         22    1    1    2    0    0 -0.10826126554E+02 -0.46089720412E-02 -0.12729322283E+02  0.16710496198E+02  0.00000000000E+00 0.  1.
</event>
<event>
 6    1  0.1383644E-005  0.4220939E+02  0.7818608E-02  0.1583732E+00
          2   -1    0    0  502    0  0.00000000000E+00  0.00000000000E+00  0.25587225400E+03  0.25587225400E+03  0.00000000000E+00 0. -1.
          1   -1    0    0  501    0 -0.00000000000E+00 -0.00000000000E+00 -0.79066549835E+02  0.79066549835E+02  0.00000000000E+00 0.  1.
          2    1    1    2  501    0  0.16276938889E+02  0.22236896363E+02  0.16339504160E+03  0.16570261892E+03  0.00000000000E+00 0. -1.
          1    1    1    2  502    0 -0.26731528545E+02 -0.16421968014E+02 -0.26445755677E+02  0.41032105054E+02  0.00000000000E+00 0.  1.
         22    1    1    2    0    0 -0.31939706649E+01 -0.12424361990E+02 -0.42535680091E+02  0.44428035071E+02  0.00000000000E+00 0. -1.
         22    1    1    2    0    0  0.13648560320E+02  0.66094336407E+01  0.82392098331E+02  0.83776044781E+02  0.00000000000E+00 0. -1.
</event>
<event>
 6    1  0.1433204E-005  0.1311794E+03  0.7818608E-02  0.1226817E+00
          2   -1    0    0  502    0  0.00000000000E+00  0.00000000000E+00  0.22135897970E+03  0.22135897970E+03  0.00000000000E+00 0.  1.
          1   -1    0    0  501    0 -0.00000000000E+00 -0.00000000000E+00 -0.64226429758E+03  0.64226429758E+03  0.00000000000E+00 0. -1.
          2    1    1    2  501    0 -0.39490700152E+02  0.10692731606E+03  0.16225141292E+03  0.19828889861E+03  0.00000000000E+00 0.  1.
          1    1    1    2  502    0  0.47043201601E+02 -0.99495746378E+02 -0.50232081837E+03  0.51423600703E+03  0.00000000000E+00 0. -1.
         22    1    1    2    0    0 -0.12582951449E+01  0.12446690923E+02  0.33040088864E+02  0.35329179070E+02  0.00000000000E+00 0. -1.
         22    1    1    2    0    0 -0.62942063047E+01 -0.19878260605E+02 -0.11387600129E+03  0.11576919257E+03  0.00000000000E+00 0. -1.
</event>
<event>
 6    1  0.1383644E-005  0.1897187E+03  0.7818608E-02  0.1181674E+00
          2   -1    0    0  502    0  0.00000000000E+00  0.00000000000E+00  0.79826060212E+02  0.79826060212E+02  0.00000000000E+00 0.  1.
          1   -1    0    0  501    0 -0.00000000000E+00 -0.00000000000E+00 -0.90438841115E+03  0.90438841115E+03  0.00000000000E+00 0.  1.
          2    1    1    2  501    0  0.29995352632E+02  0.85377117904E+02 -0.26260882216E+03  0.27776314896E+03  0.00000000000E+00 0.  1.
          1    1    1    2  502    0 -0.18679948910E+03 -0.11089298163E+03 -0.37160792454E+03  0.43044599206E+03  0.00000000000E+00 0.  1.
         22    1    1    2    0    0  0.16464864832E+03  0.52703129744E+01 -0.12396955646E+03  0.20616838875E+03  0.00000000000E+00 0.  1.
         22    1    1    2    0    0 -0.78445118552E+01  0.20245550756E+02 -0.66376047775E+02  0.69836941584E+02  0.00000000000E+00 0.  1.
</event>
<event>
 6    1  0.1383644E-005  0.1601459E+03  0.7818608E-02  0.1259461E+00
          2   -1    0    0  502    0  0.00000000000E+00  0.00000000000E+00  0.75237895089E+03  0.75237895089E+03  0.00000000000E+00 0. -1.
          1   -1    0    0  501    0 -0.00000000000E+00 -0.00000000000E+00 -0.47746116504E+02  0.47746116504E+02  0.00000000000E+00 0.  1.
          2    1    1    2  501    0  0.11904304138E+02  0.72343986043E+02  0.23710191308E+03  0.24817872987E+03  0.00000000000E+00 0. -1.
          1    1    1    2  502    0  0.19739556260E+02 -0.14029468959E+03  0.25710632750E+03  0.29355734304E+03  0.00000000000E+00 0.  1.
         22    1    1    2    0    0 -0.23889338139E+02 -0.27506890727E+02  0.12511266553E+02  0.38520920355E+02  0.00000000000E+00 0.  1.
         22    1    1    2    0    0 -0.77545222586E+01  0.95457594275E+02  0.19791332726E+03  0.21986807414E+03  0.00000000000E+00 0. -1.
</event>
<event>
 6    1  0.1383644E-005  0.1813418E+03  0.7818608E-02  0.1167461E+00
          2   -1    0    0  502    0  0.00000000000E+00  0.00000000000E+00  0.61677548019E+03  0.61677548019E+03  0.00000000000E+00 0.  1.
          1   -1    0    0  501    0 -0.00000000000E+00 -0.00000000000E+00 -0.84647092328E+02  0.84647092328E+02  0.00000000000E+00 0.  1.
          2    1    1    2  501    0  0.11672208109E+03  0.95463073233E+02  0.37429665540E+03  0.40352847336E+03  0.00000000000E+00 0.  1.
          1    1    1    2  502    0 -0.97395616619E+02 -0.79921380179E+02  0.60540767433E+02  0.13978024777E+03  0.00000000000E+00 0.  1.
         22    1    1    2    0    0  0.14782261670E+02  0.17479925586E+02  0.10719926644E+03  0.10961635729E+03  0.00000000000E+00 0.  1.
         22    1    1    2    0    0 -0.34108726145E+02 -0.33021618640E+02 -0.99083014180E+01  0.48497494099E+02  0.00000000000E+00 0.  1.
</event>
<event>
 6    1  0.1383644E-005  0.4664107E+02  0.7818608E-02  0.1504619E+00
          2   -1    0    0  502    0  0.00000000000E+00  0.00000000000E+00  0.32650203875E+03  0.32650203875E+03  0.00000000000E+00 0. -1.
          1   -1    0    0  501    0 -0.00000000000E+00 -0.00000000000E+00 -0.12555829600E+03  0.12555829600E+03  0.00000000000E+00 0. -1.
          2    1    1    2  501    0  0.10781865604E+02 -0.34617506178E+02  0.26834506355E+03  0.27078348083E+03  0.00000000000E+00 0. -1.
          1    1    1    2  502    0 -0.27488856063E+02  0.21077036208E+02 -0.44644745777E+02  0.56506919828E+02  0.00000000000E+00 0. -1.
         22    1    1    2    0    0  0.13069039955E+02  0.23048975777E+02 -0.70833463048E+02  0.75626943460E+02  0.00000000000E+00 0. -1.
         22    1    1    2    0    0  0.36379505041E+01 -0.95085058066E+01  0.48076888024E+02  0.49142990636E+02  0.00000000000E+00 0.  1.
</event>
<event>
 6    1  0.1383644E-005  0.5564313E+02  0.7818608E-02  0.1511794E+00
          2   -1    0    0  502    0  0.00000000000E+00  0.00000000000E+00  0.20020453481E+03  0.20020453481E+03  0.00000000000E+00 0.  1.
          1   -1    0    0  501    0 -0.00000000000E+00 -0.00000000000E+00 -0.78701521304E+02  0.78701521304E+02  0.00000000000E+00 0.  1.
          2    1    1    2  501    0 -0.37816343755E+02  0.86945795872E+01  0.94967070369E+02  0.10258857648E+03  0.00000000000E+00 0.  1.
          1    1    1    2  502    0  0.50572766525E+02 -0.47826019213E+00  0.17084647858E+02  0.53382756010E+02  0.00000000000E+00 0.  1.
         22    1    1    2    0    0  0.37022914313E+01 -0.13662302814E+02 -0.54689857958E+02  0.56491999819E+02  0.00000000000E+00 0.  1.
         22    1    1    2    0    0 -0.16458714201E+02  0.54459834188E+01  0.64141153235E+02  0.66442723807E+02  0.00000000000E+00 0. -1.
</event>
<event>
 6    1  0.1383644E-005  0.6959340E+02  0.7818608E-02  0.1362358E+00
          2   -1    0    0  502    0  0.00000000000E+00  0.00000000000E+00  0.14823695971E+03  0.14823695971E+03  0.00000000000E+00 0. -1.
          1   -1    0    0  501    0 -0.00000000000E+00 -0.00000000000E+00 -0.99841723218E+02  0.99841723218E+02  0.00000000000E+00 0.  1.
          2    1    1    2  501    0 -0.91476923540E+01 -0.22314156984E+02  0.54761105674E+02  0.59836281401E+02  0.00000000000E+00 0. -1.
          1    1    1    2  502    0  0.63674574949E+01  0.45321174619E+02 -0.38119093950E+02  0.59561889723E+02  0.00000000000E+00 0.  1.
         22    1    1    2    0    0  0.15836294202E+01  0.20770927427E+02 -0.39723481348E+02  0.44854144499E+02  0.00000000000E+00 0.  1.
         22    1    1    2    0    0  0.11966054390E+01 -0.43777945062E+02  0.71476706117E+02  0.83826367306E+02  0.00000000000E+00 0. -1.
</event>
<event>
 6    1  0.1383644E-005  0.1012444E+03  0.7818608E-02  0.1388588E+00
          2   -1    0    0  502    0  0.00000000000E+00  0.00000000000E+00  0.19330335463E+03  0.19330335463E+03  0.00000000000E+00 0. -1.
          1   -1    0    0  501    0 -0.00000000000E+00 -0.00000000000E+00 -0.33431017331E+03  0.33431017331E+03  0.00000000000E+00 0.  1.
          2    1    1    2  501    0 -0.87331771275E+02  0.10674184064E+02  0.13965086776E+03  0.16505496462E+03  0.00000000000E+00 0. -1.
          1    1    1    2  502    0  0.76544231983E+02  0.10232545339E+02 -0.20316480244E+03  0.21734686882E+03  0.00000000000E+00 0.  1.
         22    1    1    2    0    0 -0.79581656309E+01 -0.12094254059E+02  0.31288525531E+02  0.34475719156E+02  0.00000000000E+00 0.  1.
         22    1    1    2    0    0  0.18745704923E+02 -0.88124753434E+01 -0.10878140953E+03  0.11073597534E+03  0.00000000000E+00 0.  1.
</event>
<event>
 6    1  0.1383644E-005  0.2248862E+03  0.7818608E-02  0.1174641E+00
          2   -1    0    0  502    0  0.00000000000E+00  0.00000000000E+00  0.49699746114E+03  0.49699746114E+03  0.00000000000E+00 0. -1.
          1   -1    0    0  501    0 -0.00000000000E+00 -0.00000000000E+00 -0.32546987788E+03  0.32546987788E+03  0.00000000000E+00 0.  1.
          2    1    1    2  501    0 -0.13096686186E+03  0.11816925667E+03  0.24510331784E+03  0.30198001348E+03  0.00000000000E+00 0. -1.
          1    1    1    2  502    0  0.10915310773E+03 -0.18817602709E+03 -0.22387430352E+03  0.31216073083E+03  0.00000000000E+00 0.  1.
         22    1    1    2    0    0 -0.40534173518E+02  0.21553026776E+02  0.11101408311E+03  0.12013192263E+03  0.00000000000E+00 0.  1.
         22    1    1    2    0    0  0.62347927645E+02  0.48453743640E+02  0.39284485827E+02  0.88194672067E+02  0.00000000000E+00 0.  1.
</event>
<event>
 6    1  0.1383644E-005  0.2822884E+02  0.7818608E-02  0.1623031E+00
          2   -1    0    0  502    0  0.00000000000E+00  0.00000000000E+00  0.44882469672E+03  0.44882469672E+03  0.00000000000E+00 0.  1.
          1   -1    0    0  501    0 -0.00000000000E+00 -0.00000000000E+00 -0.28248855316E+02  0.28248855316E+02  0.00000000000E+00 0.  1.
          2    1    1    2  501    0  0.25331803166E+02 -0.25518515702E+02  0.20490801936E+03  0.20803891773E+03  0.00000000000E+00 0.  1.
          1    1    1    2  502    0 -0.27985205642E+02  0.58584117051E+01  0.83891084715E+02  0.88629604631E+02  0.00000000000E+00 0.  1.
         22    1    1    2    0    0 -0.22630069985E+02  0.97089926649E+01 -0.16511391319E+02  0.29648113758E+02  0.00000000000E+00 0.  1.
         22    1    1    2    0    0  0.25283472461E+02  0.99511113322E+01  0.14828812866E+03  0.15075691592E+03  0.00000000000E+00 0.  1.
</event>
<event>
 6    1  0.1383644E-005  0.1364386E+03  0.7818608E-02  0.1341485E+00
          2   -1    0    0  502    0  0.00000000000E+00  0.00000000000E+00  0.11998021211E+04  0.11998021211E+04  0.00000000000E+00 0. -1.
          1   -1    0    0  501    0 -0.00000000000E+00 -0.00000000000E+00 -0.67488266642E+02  0.67488266642E+02  0.00000000000E+00 0.  1.
          2    1    1    2  501    0 -0.38979915402E+02  0.82573060594E+02  0.92245820628E+03  0.92696649695E+03  0.00000000000E+00 0. -1.
          1    1    1    2  502    0  0.53819359692E+02 -0.79295333518E+02  0.19449385138E+03  0.21682281157E+03  0.00000000000E+00 0.  1.
         22    1    1    2    0    0 -0.20670402912E+02 -0.14875669303E+02  0.66253737307E+02  0.70979636523E+02  0.00000000000E+00 0. -1.
         22    1    1    2    0    0  0.58309586223E+01  0.11597942227E+02 -0.50891940466E+02  0.52521442733E+02  0.00000000000E+00 0.  1.
</event>
<event>
 6    1  0.1383644E-005  0.1030641E+03  0.7818608E-02  0.1275173E+00
          2   -1    0    0  502    0  0.00000000000E+00  0.00000000000E+00  0.58575978937E+03  0.58575978937E+03  0.00000000000E+00 0. -1.
          1   -1    0    0  501    0 -0.00000000000E+00 -0.00000000000E+00 -0.82512432016E+02  0.82512432016E+02  0.00000000000E+00 0.  1.
          2    1    1    2  501    0  0.40075859994E+02  0.20105923714E+02  0.24931886262E+03  0.25331841224E+03  0.00000000000E+00 0. -1.
          1    1    1    2  502    0 -0.63376185789E+02 -0.61926500092E+02 -0.36475553694E+02  0.95822222663E+02  0.00000000000E+00 0.  1.
         22    1    1    2    0    0  0.57241184124E+00 -0.11706422199E+02 -0.85923487631E+01  0.14532598986E+02  0.00000000000E+00 0. -1.
         22    1    1    2    0    0  0.22727913953E+02  0.53526998578E+02  0.29899639719E+03  0.30459898750E+03  0.00000000000E+00 0. -1.
</event>
<event>
 6    1  0.1383644E-005  0.7535376E+02  0.7818608E-02  0.1403105E+00
          2   -1    0    0  502    0  0.00000000000E+00  0.00000000000E+00  0.34883236798E+03  0.34883236798E+03  0.00000000000E+00 0. -1.
          1   -1    0    0  501    0 -0.00000000000E+00 -0.00000000000E+00 -0.63549723647E+02  0.63549723647E+02  0.00000000000E+00 0. -1.
          2    1    1    2  501    0  0.56809276206E+02 -0.48899427646E+02  0.24306668726E+02  0.78798870752E+02  0.00000000000E+00 0. -1.
          1    1    1    2  502    0  0.38914985907E+02  0.81725427096E+01  0.68566604646E+02  0.79262512294E+02  0.00000000000E+00 0. -1.
         22    1    1    2    0    0 -0.70123658529E+02  0.29725708072E+02  0.20861700525E+03  0.22208556928E+03  0.00000000000E+00 0. -1.
         22    1    1    2    0    0 -0.25600603584E+02  0.11001176865E+02 -0.16207634287E+02  0.32235139296E+02  0.00000000000E+00 0. -1.
</event>
<event>
 6    1  0.1383644E-005  0.7620778E+02  0.7818608E-02  0.1393413E+00
          2   -1    0    0  502    0  0.00000000000E+00  0.00000000000E+00  0.15489659253E+04  0.15489659253E+04  0.00000000000E+00 0.  1.
          1   -1    0    0  501    0 -0.00000000000E+00 -0.00000000000E+00 -0.87602256562E+02  0.87602256562E+02  0.00000000000E+00 0.  1.
          2    1    1    2  501    0  0.15858924706E+03  0.59350524113E+02  0.13501081855E+04  0.13606855429E+04  0.00000000000E+00 0.  1.
          1    1    1    2  502    0 -0.10013131781E+03 -0.41086427716E+02  0.15903182353E+02  0.10939509385E+03  0.00000000000E+00 0.  1.
         22    1    1    2    0    0 -0.18766309264E+02  0.42782809565E+01 -0.28556929241E+02  0.34438006025E+02  0.00000000000E+00 0.  1.
         22    1    1    2    0    0 -0.39691619984E+02 -0.22542377354E+02  0.12390923015E+03  0.13204953915E+03  0.00000000000E+00 0. -1.
</event>
<event>
 6    1  0.1383644E-005  0.1595286E+03  0.7818608E-02  0.1242840E+00
          2   -1    0    0  502    0  0.00000000000E+00  0.00000000000E+00  0.60763087580E+03  0.60763087580E+03  0.00000000000E+00 0. -1.
          1   -1    0    0  501    0 -0.00000000000E+00 -0.00000000000E+00 -0.66417191745E+02  0.66417191745E+02  0.00000000000E+00 0. -1.
          2    1    1    2  501    0  0.30150744213E+02  0.13522007375E+03  0.16001187674E+03  0.21165381267E+03  0.00000000000E+00 0. -1.
          1    1    1    2  502    0 -0.25295454080E+02 -0.12978567426E+03  0.25851056066E+03  0.29036509985E+03  0.00000000000E+00 0. -1.
         22    1    1    2    0    0  0.20234540475E+02  0.39358608878E+02  0.11082510935E+03  0.11933457833E+03  0.00000000000E+00 0.  1.
         22    1    1    2    0    0 -0.25089830608E+02 -0.44793008364E+02  0.11866137302E+02  0.52694576691E+02  0.00000000000E+00 0. -1.
</event>
<event>
 6    1  0.1383644E-005  0.1275308E+03  0.7818608E-02  0.1353293E+00
          2   -1    0    0  502    0  0.00000000000E+00  0.00000000000E+00  0.15015862677E+03  0.15015862677E+03  0.00000000000E+00 0. -1.
          1   -1    0    0  501    0 -0.00000000000E+00 -0.00000000000E+00 -0.20986801638E+03  0.20986801638E+03  0.00000000000E+00 0. -1.
          2    1    1    2  501    0  0.42814069970E+02 -0.74479321595E+01  0.85067586385E+02  0.95524921011E+02  0.00000000000E+00 0. -1.
          1    1    1    2  502    0  0.88155357977E+01  0.38965613151E+02 -0.11970414914E+03  0.12619475425E+03  0.00000000000E+00 0. -1.
         22    1    1    2    0    0  0.55917927423E+01  0.11718849867E+02 -0.57967221736E+02  0.59403689987E+02  0.00000000000E+00 0. -1.
         22    1    1    2    0    0 -0.57221398510E+02 -0.43236530858E+02  0.32894394877E+02  0.78903277895E+02  0.00000000000E+00 0.  1.
</event>
<event>
 6    1  0.1383644E-005  0.1064772E+03  0.7818608E-02  0.1269377E+00
          2   -1    0    0  502    0  0.00000000000E+00  0.00000000000E+00  0.24596681788E+03  0.24596681788E+03  0.00000000000E+00 0. -1.
          1   -1    0    0  501    0 -0.00000000000E+00 -0.00000000000E+00 -0.21713632878E+03  0.21713632878E+03  0.00000000000E+00 0. -1.
          2    1    1    2  501    0 -0.35114103138E+02  0.84944454949E+02  0.19805762827E+03  0.21834693673E+03  0.00000000000E+00 0. -1.
          1    1    1    2  502    0 -0.29807411940E+01 -0.32155651655E+02 -0.55857601250E+02  0.64520867701E+02  0.00000000000E+00 0. -1.
         22    1    1    2    0    0 -0.93069687550E+01  0.42341341014E+01  0.22909980441E+02  0.25088139883E+02  0.00000000000E+00 0. -1.
         22    1    1    2    0    0  0.47401813087E+02 -0.57022937395E+02 -0.13627951835E+03  0.15514720234E+03  0.00000000000E+00 0. -1.
</event>
<event>
 6    1  0.1383644E-005  0.2644427E+02  0.7818608E-02  0.1676708E+00
          2   -1    0    0  502    0  0.00000000000E+00  0.00000000000E+00  0.24076518313E+03  0.24076518313E+03  0.00000000000E+00 0. -1.
          1   -1    0    0  501    0 -0.00000000000E+00 -0.00000000000E+00 -0.89072024448E+02  0.89072024448E+02  0.00000000000E+00 0. -1.
          2    1    1    2  501    0 -0.18764327184E+02  0.14168760651E+02  0.15359672578E+03  0.15538599655E+03  0.00000000000E+00 0. -1.
          1    1    1    2  502    0  0.41566995842E+02 -0.22465566043E+02  0.10126060238E+00  0.47249624916E+02  0.00000000000E+00 0. -1.
         22    1    1    2    0    0 -0.46030622652E+01  0.11648461425E+02 -0.62601498686E+02  0.63842168459E+02  0.00000000000E+00 0. -1.
         22    1    1    2    0    0 -0.18199606393E+02 -0.33516560318E+01  0.60596670985E+02  0.63359417654E+02  0.00000000000E+00 0.  1.
</event>
<event>
 6    1  0.1383644E-005  0.2731285E+02  0.7818608E-02  0.1637051E+00
          2   -1    0    0  502    0  0.00000000000E+00  0.00000000000E+00  0.15809098455E+03  0.15809098455E+03  0.00000000000E+00 0. -1.
          1   -1    0    0  501    0 -0.00000000000E+00 -0.00000000000E+00 -0.20480620228E+03  0.20480620228E+03  0.00000000000E+00 0. -1.
          2    1    1    2  501    0 -0.38868884869E+02  0.22875325772E+02  0.79407620833E+02  0.91321634822E+02  0.00000000000E+00 0. -1.
          1    1    1    2  502    0  0.50062508640E+02 -0.34382378824E+02 -0.12917153026E+03  0.14273642484E+03  0.00000000000E+00 0. -1.
         22    1    1    2    0    0  0.21237089392E+01  0.12069449766E+02 -0.61611966341E+02  0.62818915573E+02  0.00000000000E+00 0. -1.
         22    1    1    2    0    0 -0.13317332709E+02 -0.56239671371E+00  0.64660658047E+02  0.66020211600E+02  0.00000000000E+00 0. -1.
</event>
<event>
 6    1  0.1383644E-005  0.5916062E+02  0.7818608E-02  0.1406621E+00
          2   -1    0    0  502    0  0.00000000000E+00  0.00000000000E+00  0.61882429011E+03  0.61882429011E+03  0.00000000000E+00 0.  1.
          1   -1    0    0  501    0 -0.00000000000E+00 -0.00000000000E+00 -0.85848645799E+02  0.85848645799E+02  0.00000000000E+00 0.  1.
          2    1    1    2  501    0  0.35102018551E+02 -0.28767725379E+02  0.17497747149E+03  0.18076738992E+03  0.00000000000E+00 0.  1.
          1    1    1    2  502    0 -0.68266100950E+02 -0.34997844773E+01  0.38194767976E+03  0.38801615830E+03  0.00000000000E+00 0.  1.
         22    1    1    2    0    0  0.31429382344E+02  0.44503094942E+02 -0.69718349638E+02  0.88481522422E+02  0.00000000000E+00 0.  1.
         22    1    1    2    0    0  0.17347000559E+01 -0.12235585086E+02  0.45768842708E+02  0.47407865271E+02  0.00000000000E+00 0.  1.
</event>
<event>
 6    1  0.1383644E-005  0.7758741E+02  0.7818608E-02  0.1462700E+00
          2   -1    0    0  502    0  0.00000000000E+00  0.00000000000E+00  0.52812734117E+03  0.52812734117E+03  0.00000000000E+00 0.  1.
          1   -1    0    0  501    0 -0.00000000000E+00 -0.00000000000E+00 -0.34162930883E+02  0.34162930883E+02  0.00000000000E+00 0. -1.
          2    1    1    2  501    0  0.24796511581E+02 -0.10026053651E+02  0.15992717270E+03  0.16214835585E+03  0.00000000000E+00 0.  1.
          1    1    1    2  502    0 -0.66404237914E+02  0.40210018955E+02  0.15797440637E+03  0.17601784428E+03  0.00000000000E+00 0. -1.
         22    1    1    2    0    0  0.32805068792E+02 -0.35678095798E+02  0.19586245149E+03  0.20177016371E+03  0.00000000000E+00 0.  1.
         22    1    1    2    0    0  0.88026575412E+01  0.54941304940E+01 -0.19799620270E+02  0.22353908215E+02  0.00000000000E+00 0. -1.
</event>
<event>
 6    1  0.1383644E-005  0.6577093E+02  0.7818608E-02  0.1378264E+00
          2   -1    0    0  502    0  0.00000000000E+00  0.00000000000E+00  0.41667886707E+03  0.41667886707E+03  0.00000000000E+00 0.  1.
          1   -1    0    0  501    0 -0.00000000000E+00 -0.00000000000E+00 -0.37639423383E+02  0.37639423383E+02  0.00000000000E+00 0.  1.
          2    1    1    2  501    0 -0.31187198987E+02 -0.89015160379E+01  0.22682792528E+03  0.22913486434E+03  0.00000000000E+00 0.  1.
          1    1    1    2  502    0  0.29194348619E+02  0.16494876040E+02  0.99678843259E+01  0.34982133223E+02  0.00000000000E+00 0.  1.
         22    1    1    2    0    0  0.25488467629E+02  0.10150102365E+02 -0.14282457745E+02  0.30930165847E+02  0.00000000000E+00 0.  1.
         22    1    1    2    0    0 -0.23495617262E+02 -0.17743462368E+02  0.15652609182E+03  0.15927112704E+03  0.00000000000E+00 0.  1.
</event>
<event>
 6    1  0.1383644E-005  0.5463903E+02  0.7818608E-02  0.1534431E+00
          2   -1    0    0  502    0  0.00000000000E+00  0.00000000000E+00  0.10855036742E+03  0.10855036742E+03  0.00000000000E+00 0.  1.
          1   -1    0    0  501    0 -0.00000000000E+00 -0.00000000000E+00 -0.12831746752E+03  0.12831746752E+03  0.00000000000E+00 0.  1.
          2    1    1    2  501    0  0.27426918737E+01 -0.19914767685E+02  0.22287638269E+02  0.30014315756E+02  0.00000000000E+00 0.  1.
          1    1    1    2  502    0 -0.36680205339E+02  0.95892297290E+01 -0.64087919505E+02  0.74462421509E+02  0.00000000000E+00 0.  1.
         22    1    1    2    0    0  0.26071673045E+02  0.18099170459E+02  0.73336347118E+02  0.79909523308E+02  0.00000000000E+00 0.  1.
         22    1    1    2    0    0  0.78658404204E+01 -0.77736325039E+01 -0.51303165984E+02  0.52481574365E+02  0.00000000000E+00 0.  1.
</event>
<event>
 6    1  0.1383644E-005  0.5972136E+02  0.7818608E-02  0.1458310E+00
          2   -1    0    0  502    0  0.00000000000E+00  0.00000000000E+00  0.11585087186E+03  0.11585087186E+03  0.00000000000E+00 0. -1.
          1   -1    0    0  501    0 -0.00000000000E+00 -0.00000000000E+00 -0.25146530369E+03  0.25146530369E+03  0.00000000000E+00 0. -1.
          2    1    1    2  501    0 -0.39930921339E+02 -0.40291339379E+02 -0.83982796017E+01  0.57344586564E+02  0.00000000000E+00 0. -1.
          1    1    1    2  502    0  0.62798932627E+02  0.91281485543E+02 -0.13255136755E+03  0.17275960344E+03  0.00000000000E+00 0. -1.
         22    1    1    2    0    0  0.19715447006E+01 -0.17113496547E+02 -0.58394813476E+02  0.60882780763E+02  0.00000000000E+00 0. -1.
         22    1    1    2    0    0 -0.24839555988E+02 -0.33876649618E+02  0.63730028804E+02  0.76329204780E+02  0.00000000000E+00 0. -1.
</event>
<event>
 6    1  0.1383644E-005  0.6916525E+02  0.7818608E-02  0.1366280E+00
          2   -1    0    0  502    0  0.00000000000E+00  0.00000000000E+00  0.16417249606E+03  0.16417249606E+03  0.00000000000E+00 0. -1.
          1   -1    0    0  501    0 -0.00000000000E+00 -0.00000000000E+00 -0.32318143258E+03  0.32318143258E+03  0.00000000000E+00 0. -1.
          2    1    1    2  501    0 -0.89365944829E+00  0.53021809590E+02  0.11899808049E+03  0.13027913908E+03  0.00000000000E+00 0. -1.
          1    1    1    2  502    0 -0.33469779449E+02 -0.72023158290E+01 -0.18554305879E+03  0.18867518691E+03  0.00000000000E+00 0. -1.
         22    1    1    2    0    0  0.96771905249E+01  0.14776442624E+02  0.26956886588E+02  0.32228326168E+02  0.00000000000E+00 0. -1.
         22    1    1    2    0    0  0.24686248373E+02 -0.60595936386E+02 -0.11942084481E+03  0.13617127649E+03  0.00000000000E+00 0. -1.
</event>
<event>
 6    1  0.1383644E-005  0.8489768E+02  0.7818608E-02  0.1384299E+00
          2   -1    0    0  502    0  0.00000000000E+00  0.00000000000E+00  0.27054225533E+03  0.27054225533E+03  0.00000000000E+00 0.  1.
          1   -1    0    0  501    0 -0.00000000000E+00 -0.00000000000E+00 -0.25705732254E+03  0.25705732254E+03  0.00000000000E+00 0. -1.
          2    1    1    2  501    0  0.81704228915E+02  0.60878110188E+02  0.17812079505E+03  0.20520414945E+03  0.00000000000E+00 0.  1.
          1    1    1    2  502    0 -0.62393269568E+02 -0.29727117391E+02 -0.17706979009E+03  0.19007980471E+03  0.00000000000E+00 0. -1.
         22    1    1    2    0    0 -0.64045846059E+01 -0.25524722195E+02  0.69092219354E+02  0.73934193188E+02  0.00000000000E+00 0. -1.
         22    1    1    2    0    0 -0.12906374740E+02 -0.56262706019E+01 -0.56658291531E+02  0.58381430515E+02  0.00000000000E+00 0.  1.
</event>
<event>
 6    1  0.1383644E-005  0.6040533E+02  0.7818608E-02  0.1444912E+00
          2   -1    0    0  502    0  0.00000000000E+00  0.00000000000E+00  0.12567394332E+03  0.12567394332E+03  0.00000000000E+00 0. -1.
          1   -1    0    0  501    0 -0.00000000000E+00 -0.00000000000E+00 -0.13018673344E+03  0.13018673344E+03  0.00000000000E+00 0.  1.
          2    1    1    2  501    0 -0.35970187446E+02 -0.19410331414E+02  0.66777042916E+02  0.78292967827E+02  0.00000000000E+00 0. -1.
          1    1    1    2  502    0  0.23335218600E+02  0.32312591195E+02 -0.20164552254E+02  0.44668167014E+02  0.00000000000E+00 0.  1.
         22    1    1    2    0    0  0.27528885083E+02  0.75217792246E+01 -0.85553703903E+02  0.90187875727E+02  0.00000000000E+00 0.  1.
         22    1    1    2    0    0 -0.14893916236E+02 -0.20424039005E+02  0.34428423123E+02  0.42711666192E+02  0.00000000000E+00 0. -1.
</event>
<event>
 6    1  0.1383644E-005  0.6114022E+02  0.7818608E-02  0.1455574E+00
          2   -1    0    0  502    0  0.00000000000E+00  0.00000000000E+00  0.68213463137E+02  0.68213463137E+02  0.00000000000E+00 0. -1.
          1   -1    0    0  501    0 -0.00000000000E+00 -0.00000000000E+00 -0.63408197949E+03  0.63408197949E+03  0.00000000000E+00 0.  1.
          2    1    1    2  501    0  0.36034169208E+02 -0.15855724471E+02  0.26162902639E+02  0.47269047203E+02  0.00000000000E+00 0. -1.
          1    1    1    2  502    0 -0.27342134580E+02  0.18999600170E+02 -0.49325907666E+03  0.49438152659E+03  0.00000000000E+00 0.  1.
         22    1    1    2    0    0  0.81275374390E+01 -0.19586164976E+02  0.26070406770E+02  0.33605666672E+02  0.00000000000E+00 0. -1.
         22    1    1    2    0    0 -0.16819572067E+02  0.16442289277E+02 -0.12484274911E+03  0.12703920216E+03  0.00000000000E+00 0.  1.
</event>
<event>
 6    1  0.1383644E-005  0.1028124E+03  0.7818608E-02  0.1335914E+00
          2   -1    0    0  502    0  0.00000000000E+00  0.00000000000E+00  0.10927396440E+04  0.10927396440E+04  0.00000000000E+00 0. -1.
          1   -1    0    0  501    0 -0.00000000000E+00 -0.00000000000E+00 -0.21258069205E+02  0.21258069205E+02  0.00000000000E+00 0.  1.
          2    1    1    2  501    0  0.54191835948E+02 -0.38836429678E+01  0.73163597113E+03  0.73365048356E+03  0.00000000000E+00 0. -1.
          1    1    1    2  502    0 -0.36299734590E+02 -0.17996814964E+02  0.80832939270E+02  0.90418582997E+02  0.00000000000E+00 0.  1.
         22    1    1    2    0    0 -0.23226661899E+02 -0.24027773356E+02  0.75590602738E+01  0.34262969919E+02  0.00000000000E+00 0.  1.
         22    1    1    2    0    0  0.53345605412E+01  0.45908231288E+02  0.25145360414E+03  0.25566567675E+03  0.00000000000E+00 0. -1.
</event>
<event>
 6    1  0.1383644E-005  0.8752557E+02  0.7818608E-02  0.1409181E+00
          2   -1    0    0  502    0  0.00000000000E+00  0.00000000000E+00  0.23521840515E+03  0.23521840515E+03  0.00000000000E+00 0. -1.
          1   -1    0    0  501    0 -0.00000000000E+00 -0.00000000000E+00 -0.32081363043E+03  0.32081363043E+03  0.00000000000E+00 0. -1.
          2    1    1    2  501    0 -0.28541188347E+02 -0.29252883959E+02  0.14408667739E+03  0.14977082911E+03  0.00000000000E+00 0. -1.
          1    1    1    2  502    0  0.77327349353E+01  0.48415464645E+02 -0.26454076502E+03  0.26904584881E+03  0.00000000000E+00 0. -1.
         22    1    1    2    0    0 -0.50064189900E+01  0.15368966208E+02 -0.44256005454E+02  0.47115426053E+02  0.00000000000E+00 0.  1.
         22    1    1    2    0    0  0.25814872402E+02 -0.34531546895E+02  0.79114867809E+02  0.90099931612E+02  0.00000000000E+00 0. -1.
</event>
<event>
 6    1  0.1383644E-005  0.1735571E+03  0.7818608E-02  0.1287686E+00
          2   -1    0    0  502    0  0.00000000000E+00  0.00000000000E+00  0.42214631601E+03  0.42214631601E+03  0.00000000000E+00 0. -1.
          1   -1    0    0  501    0 -0.00000000000E+00 -0.00000000000E+00 -0.13306800671E+04  0.13306800671E+04  0.00000000000E+00 0. -1.
          2    1    1    2  501    0 -0.19438542515E+01  0.15053794424E+03  0.32426918163E+03  0.35751357090E+03  0.00000000000E+00 0. -1.
          1    1    1    2  502    0 -0.66320304433E+01 -0.16190673849E+03 -0.12602444188E+04  0.12706194438E+04  0.00000000000E+00 0. -1.
         22    1    1    2    0    0 -0.51652238611E+01  0.20741623066E+02  0.73067577069E+02  0.76129923708E+02  0.00000000000E+00 0.  1.
         22    1    1    2    0    0  0.13741108556E+02 -0.93728288189E+01 -0.45626090953E+02  0.48563444689E+02  0.00000000000E+00 0.  1.
</event>
<event>
 6    1  0.1383644E-005  0.4090354E+02  0.7818608E-02  0.1530330E+00
          2   -1    0    0  502    0  0.00000000000E+00  0.00000000000E+00  0.10928856657E+03  0.10928856657E+03  0.00000000000E+00 0.  1.
          1   -1    0    0  501    0 -0.00000000000E+00 -0.00000000000E+00 -0.91792005228E+02  0.91792005228E+02  0.00000000000E+00 0.  1.
          2    1    1    2  501    0  0.19372001527E+02 -0.21324969489E+02  0.21562985638E+02  0.35985985001E+02  0.00000000000E+00 0.  1.
          1    1    1    2  502    0 -0.16101887652E+02  0.21826473163E+02  0.25371082673E+02  0.37139703185E+02  0.00000000000E+00 0.  1.
         22    1    1    2    0    0 -0.25298859574E+02  0.11573203429E+02 -0.72748117750E+02  0.77886198838E+02  0.00000000000E+00 0.  1.
         22    1    1    2    0    0  0.22028745698E+02 -0.12074707104E+02  0.43310610779E+02  0.50068684771E+02  0.00000000000E+00 0.  1.
</event>
<event>
 6    1  0.1383644E-005  0.4725116E+02  0.7818608E-02  0.1491430E+00
          2   -1    0    0  502    0  0.00000000000E+00  0.00000000000E+00  0.33234434681E+03  0.33234434681E+03  0.00000000000E+00 0.  1.
          1   -1    0    0  501    0 -0.00000000000E+00 -0.00000000000E+00 -0.42939005373E+02  0.42939005373E+02  0.00000000000E+00 0. -1.
          2    1    1    2  501    0 -0.15429862041E+02 -0.18340987302E+02  0.15414532232E+03  0.15599760528E+03  0.00000000000E+00 0.  1.
          1    1    1    2  502    0  0.98815287967E+01  0.26794655486E+02 -0.43248972287E+01  0.28884302139E+02  0.00000000000E+00 0. -1.
         22    1    1    2    0    0  0.30492422331E+02 -0.20632983057E+01 -0.14748493572E+02  0.33934688479E+02  0.00000000000E+00 0. -1.
         22    1    1    2    0    0 -0.24944089086E+02 -0.63903698791E+01  0.15433340992E+03  0.15646675629E+03  0.00000000000E+00 0.  1.
</event>
<event>
 6    1  0.1383644E-005  0.5048876E+02  0.7818608E-02  0.1536301E+00
          2   -1    0    0  502    0  0.00000000000E+00  0.00000000000E+00  0.50238039889E+03  0.50238039889E+03  0.00000000000E+00 0. -1.
          1   -1    0    0  501    0 -0.00000000000E+00 -0.00000000000E+00 -0.32274817680E+02  0.32274817680E+02  0.00000000000E+00 0. -1.
          2    1    1    2  501    0 -0.23503127560E+02  0.63307769510E+01  0.22633567623E+03  0.22764075663E+03  0.00000000000E+00 0. -1.
          1    1    1    2  502    0  0.34326012741E+02 -0.19286025744E+02  0.13093007825E+03  0.13672202212E+03  0.00000000000E+00 0. -1.
         22    1    1    2    0    0 -0.60029946379E+01 -0.12289466073E+02 -0.25847894828E+02  0.29243470861E+02  0.00000000000E+00 0. -1.
         22    1    1    2    0    0 -0.48198905432E+01  0.25244714867E+02  0.13868772156E+03  0.14104896697E+03  0.00000000000E+00 0. -1.
</event>
<event>
 6    1  0.1383644E-005  0.7537157E+02  0.7818608E-02  0.1419421E+00
          2   -1    0    0  502    0  0.00000000000E+00  0.00000000000E+00  0.49730589847E+02  0.49730589847E+02  0.00000000000E+00 0.  1.
          1   -1    0    0  501    0 -0.00000000000E+00 -0.00000000000E+00 -0.20786585000E+03  0.20786585000E+03  0.00000000000E+00 0.  1.
          2    1    1    2  501    0 -0.15682718202E+02 -0.14533165104E+02 -0.20728625947E+02  0.29779799727E+02  0.00000000000E+00 0.  1.
          1    1    1    2  502    0 -0.25269633678E+02 -0.10167826775E+02 -0.77156805136E+02  0.81823662020E+02  0.00000000000E+00 0.  1.
         22    1    1    2    0    0  0.12300653114E+02  0.17749686732E+02 -0.96716916279E+02  0.99098533494E+02  0.00000000000E+00 0.  1.
         22    1    1    2    0    0  0.28651698766E+02  0.69513051466E+01  0.36467087209E+02  0.46894444606E+02  0.00000000000E+00 0.  1.
</event>
<event>
 6    1  0.1383644E-005  0.5345479E+02  0.7818608E-02  0.1500917E+00
          2   -1    0    0  502    0  0.00000000000E+00  0.00000000000E+00  0.80748861808E+02  0.80748861808E+02  0.00000000000E+00 0.  1.
          1   -1    0    0  501    0 -0.00000000000E+00 -0.00000000000E+00 -0.21642601212E+03  0.21642601212E+03  0.00000000000E+00 0.  1.
          2    1    1    2  501    0 -0.22284296065E+02  0.30511977964E+00  0.36309226567E+02  0.42603320095E+02  0.00000000000E+00 0.  1.
          1    1    1    2  502    0  0.38454429310E+02 -0.16200542367E+01 -0.10560718951E+03  0.11240216272E+03  0.00000000000E+00 0.  1.
         22    1    1    2    0    0  0.12673315680E+02  0.13499039016E+02 -0.96775410237E+02  0.98530792198E+02  0.00000000000E+00 0.  1.
         22    1    1    2    0    0 -0.28843448924E+02 -0.12184104559E+02  0.30396222870E+02  0.43638598906E+02  0.00000000000E+00 0.  1.
</event>
<event>
 6    1  0.1383644E-005  0.3842930E+02  0.7818608E-02  0.1606341E+00
          2   -1    0    0  502    0  0.00000000000E+00  0.00000000000E+00  0.15999402342E+03  0.15999402342E+03  0.00000000000E+00 0. -1.
          1   -1    0    0  501    0 -0.00000000000E+00 -0.00000000000E+00 -0.15483701006E+03  0.15483701006E+03  0.00000000000E+00 0. -1.
          2    1    1    2  501    0  0.52080709027E+02 -0.20360931644E+02  0.79239832684E+02  0.96984116607E+02  0.00000000000E+00 0. -1.
          1    1    1    2  502    0 -0.38747788156E+02  0.45455511393E+02 -0.72955635268E+02  0.94287429281E+02  0.00000000000E+00 0. -1.
         22    1    1    2    0    0 -0.46151605528E+01 -0.30809723790E+02 -0.57947459482E+02  0.65790932865E+02  0.00000000000E+00 0. -1.
         22    1    1    2    0    0 -0.87177603180E+01  0.57151440400E+01  0.56820275427E+02  0.57768554733E+02  0.00000000000E+00 0. -1.
</event>
<event>
 6    1  0.1383644E-005  0.5670747E+02  0.7818608E-02  0.1455662E+00
          2   -1    0    0  502    0  0.00000000000E+00  0.00000000000E+00  0.56018024145E+03  0.56018024145E+03  0.00000000000E+00 0.  1.
          1   -1    0    0  501    0 -0.00000000000E+00 -0.00000000000E+00 -0.13052659372E+03  0.13052659372E+03  0.00000000000E+00 0.  1.
          2    1    1    2  501    0  0.55527169705E+02  0.78182695733E+02  0.10475435132E+03  0.14201857135E+03  0.00000000000E+00 0.  1.
          1    1    1    2  502    0 -0.36813932896E+02 -0.10572101861E+03  0.38940231542E+03  0.40517448424E+03  0.00000000000E+00 0.  1.
         22    1    1    2    0    0 -0.15236346320E+02 -0.18089081016E+01  0.35799129483E+02  0.38948633730E+02  0.00000000000E+00 0. -1.
         22    1    1    2    0    0 -0.34768904886E+01  0.29347230979E+02 -0.10030214849E+03  0.10456514584E+03  0.00000000000E+00 0.  1.
</event>
<event>
 6    1  0.1383644E-005  0.1175883E+03  0.7818608E-02  0.1248574E+00
          2   -1    0    0  502    0  0.00000000000E+00  0.00000000000E+00  0.55279698030E+03  0.55279698030E+03  0.00000000000E+00 0.  1.
          1   -1    0    0  501    0 -0.00000000000E+00 -0.00000000000E+00 -0.12651338152E+03  0.12651338152E+03  0.00000000000E+00 0.  1.
          2    1    1    2  501    0  0.32357530877E+01  0.10061192206E+03  0.45152848762E+03  0.46261344996E+03  0.00000000000E+00 0.  1.
          1    1    1    2  502    0  0.24561702983E+01 -0.71038028666E+02 -0.42983359111E+02  0.83066259394E+02  0.00000000000E+00 0.  1.
         22    1    1    2    0    0  0.78359996525E+01 -0.39599403116E+02 -0.49753683498E+02  0.64069841886E+02  0.00000000000E+00 0.  1.
         22    1    1    2    0    0 -0.13527923039E+02  0.10025509722E+02  0.67492153775E+02  0.69560810577E+02  0.00000000000E+00 0.  1.
</event>
<event>
 6    1  0.1383644E-005  0.4444099E+02  0.7818608E-02  0.1582713E+00
          2   -1    0    0  502    0  0.00000000000E+00  0.00000000000E+00  0.11682700098E+03  0.11682700098E+03  0.00000000000E+00 0. -1.
          1   -1    0    0  501    0 -0.00000000000E+00 -0.00000000000E+00 -0.16419799506E+03  0.16419799506E+03  0.00000000000E+00 0.  1.
          2    1    1    2  501    0  0.71693715601E+00  0.25662060323E+02  0.52257265267E+02  0.58222651195E+02  0.00000000000E+00 0. -1.
          1    1    1    2  502    0 -0.40547456241E+02  0.31441900861E+01 -0.74509331990E+02  0.84885939310E+02  0.00000000000E+00 0.  1.
         22    1    1    2    0    0 -0.79697994054E+01 -0.77687823617E+01  0.47321776545E+02  0.48612984041E+02  0.00000000000E+00 0.  1.
         22    1    1    2    0    0  0.47800318491E+02 -0.21037468048E+02 -0.72440703898E+02  0.89303421496E+02  0.00000000000E+00 0.  1.
</event>
<event>
 6    1  0.1383644E-005  0.1209257E+03  0.7818608E-02  0.1246425E+00
          2   -1    0    0  502    0  0.00000000000E+00  0.00000000000E+00  0.47838630223E+03  0.47838630223E+03  0.00000000000E+00 0.  1.
          1   -1    0    0  501    0 -0.00000000000E+00 -0.00000000000E+00 -0.17271336674E+03  0.17271336674E+03  0.00000000000E+00 0.  1.
          2    1    1    2  501    0  0.61341713297E+02  0.15334990797E+03 -0.45803149977E+02  0.17139699126E+03  0.00000000000E+00 0.  1.
          1    1    1    2  502    0 -0.39081083447E+02 -0.82828094844E+02  0.31218209701E+03  0.32533903251E+03  0.00000000000E+00 0.  1.
         22    1    1    2    0    0  0.21822060110E+02  0.29885879043E+02  0.22817564518E+02  0.43474237476E+02  0.00000000000E+00 0. -1.
         22    1    1    2    0    0 -0.44082689961E+02 -0.10040769217E+03  0.16476423938E+02  0.11088940773E+03  0.00000000000E+00 0.  1.
</event>
<event>
 6    1  0.1383644E-005  0.2094824E+02  0.7818608E-02  0.1744769E+00
          2   -1    0    0  502    0  0.00000000000E+00  0.00000000000E+00  0.77239180411E+02  0.77239180411E+02  0.00000000000E+00 0. -1.
          1   -1    0    0  501    0 -0.00000000000E+00 -0.00000000000E+00 -0.11511928488E+03  0.11511928488E+03  0.00000000000E+00 0.  1.
          2    1    1    2  501    0 -0.24712576959E+02 -0.78622232003E+01  0.15097833486E+02  0.30007842135E+02  0.00000000000E+00 0. -1.
          1    1    1    2  502    0  0.21416035052E+02  0.86688426751E+01 -0.15071924292E+02  0.27585472491E+02  0.00000000000E+00 0.  1.
         22    1    1    2    0    0  0.15069858127E+02  0.43139679669E+01 -0.84753193582E+02  0.86190572373E+02  0.00000000000E+00 0.  1.
         22    1    1    2    0    0 -0.11773316220E+02 -0.51205874417E+01  0.46847179915E+02  0.48574578295E+02  0.00000000000E+00 0. -1.
</event>
<event>
 6    1  0.1383644E-005  0.2728253E+02  0.7818608E-02  0.1672313E+00
          2   -1    0    0  502    0  0.00000000000E+00  0.00000000000E+00  0.71620510978E+02  0.71620510978E+02  0.00000000000E+00 0. -1.
          1   -1    0    0  501    0 -0.00000000000E+00 -0.00000000000E+00 -0.33835508197E+03  0.33835508197E+03  0.00000000000E+00 0.  1.
          2    1    1    2  501    0  0.21731192929E+02  0.95427405968E+01  0.78035726977E+01  0.24984082754E+02  0.00000000000E+00 0. -1.
          1    1    1    2  502    0 -0.39773386830E+02 -0.10384701212E+02 -0.25268806849E+03  0.25600981285E+03  0.00000000000E+00 0.  1.
         22    1    1    2    0    0  0.13804833152E+01  0.12574104255E+02 -0.72913340455E+02  0.74002493527E+02  0.00000000000E+00 0.  1.
         22    1    1    2    0    0  0.16661710586E+02 -0.11732143639E+02  0.51063265253E+02  0.54979203817E+02  0.00000000000E+00 0. -1.
</event>
<event>
 6    1  0.1383644E-005  0.6006414E+02  0.7818608E-02  0.1434580E+00
          2   -1    0    0  502    0  0.00000000000E+00  0.00000000000E+00  0.10581686400E+03  0.10581686400E+03  0.00000000000E+00 0.  1.
          1   -1    0    0  501    0 -0.00000000000E+00 -0.00000000000E+00 -0.20589814736E+03  0.20589814736E+03  0.00000000000E+00 0.  1.
          2    1    1    2  501    0  0.23708931141E+02 -0.93130535195E+02 -0.20526763316E+02  0.98268804887E+02  0.00000000000E+00 0.  1.
          1    1    1    2  502    0 -0.12712669667E+02  0.73091988521E+02 -0.29667080018E+02  0.79901103827E+02  0.00000000000E+00 0.  1.
         22    1    1    2    0    0 -0.11070430667E+02  0.44959562699E+02 -0.81231514905E+02  0.93501207089E+02  0.00000000000E+00 0.  1.
         22    1    1    2    0    0  0.74169193227E-01 -0.24921016024E+02  0.31344074880E+02  0.40043895550E+02  0.00000000000E+00 0.  1.
</event>
<event>
 6    1  0.1383644E-005  0.2517295E+03  0.7818608E-02  0.1174638E+00
          2   -1    0    0  502    0  0.00000000000E+00  0.00000000000E+00  0.44900876524E+03  0.44900876524E+03  0.00000000000E+00 0.  1.
          1   -1    0    0  501    0 -0.00000000000E+00 -0.00000000000E+00 -0.40040789164E+03  0.40040789164E+03  0.00000000000E+00 0.  1.
          2    1    1    2  501    0  0.15329218681E+03  0.68719385069E+02  0.38277386104E+03  0.41801516374E+03  0.00000000000E+00 0.  1.
          1    1    1    2  502    0 -0.85951564630E+02 -0.19955382093E+02 -0.32118791883E+02  0.93901573623E+02  0.00000000000E+00 0.  1.
         22    1    1    2    0    0 -0.12508317621E+02 -0.35977259128E+02 -0.90698154731E+01  0.39154600455E+02  0.00000000000E+00 0.  1.
         22    1    1    2    0    0 -0.54832304558E+02 -0.12786743848E+02 -0.29298438007E+03  0.29834531907E+03  0.00000000000E+00 0.  1.
</event>
<event>
 6    1  0.1383644E-005  0.1048853E+04  0.7818608E-02  0.1040982E+00
          2   -1    0    0  502    0  0.00000000000E+00  0.00000000000E+00  0.13076952185E+04  0.13076952185E+04  0.00000000000E+00 0. -1.
          1   -1    0    0  501    0 -0.00000000000E+00 -0.00000000000E+00 -0.89500803530E+03  0.89500803530E+03  0.00000000000E+00 0. -1.
          2    1    1    2  501    0 -0.70269145263E+03  0.69366196788E+03  0.27980301220E+03  0.10262708848E+04  0.00000000000E+00 0. -1.
          1    1    1    2  502    0  0.75046988017E+03 -0.68495825320E+03  0.18355673297E+03  0.10325046847E+04  0.00000000000E+00 0. -1.
         22    1    1    2    0    0 -0.71257925422E+02 -0.34542329995E+01  0.15942372288E+02  0.73101182585E+02  0.00000000000E+00 0. -1.
         22    1    1    2    0    0  0.23479497884E+02 -0.52494816769E+01 -0.66614934287E+02  0.70826501740E+02  0.00000000000E+00 0. -1.
</event>
<event>
 6    1  0.1383644E-005  0.5547255E+02  0.7818608E-02  0.1447514E+00
          2   -1    0    0  502    0  0.00000000000E+00  0.00000000000E+00  0.10020739120E+03  0.10020739120E+03  0.00000000000E+00 0. -1.
          1   -1    0    0  501    0 -0.00000000000E+00 -0.00000000000E+00 -0.21356216278E+03  0.21356216278E+03  0.00000000000E+00 0.  1.
          2    1    1    2  501    0  0.37583788942E+02  0.13493098790E+02  0.60329014435E+02  0.72347735893E+02  0.00000000000E+00 0. -1.
          1    1    1    2  502    0  0.58690930580E+01 -0.29779644864E+02 -0.68205931126E+02  0.74654688682E+02  0.00000000000E+00 0.  1.
         22    1    1    2    0    0 -0.80090399844E+01  0.15415527312E+02  0.25622992139E+02  0.30956759035E+02  0.00000000000E+00 0.  1.
         22    1    1    2    0    0 -0.35443842016E+02  0.87101876174E+00 -0.13110084702E+03  0.13581037037E+03  0.00000000000E+00 0.  1.
</event>
<event>
 6    1  0.1383644E-005  0.1040429E+03  0.7818608E-02  0.1322400E+00
          2   -1    0    0  502    0  0.00000000000E+00  0.00000000000E+00  0.99578377082E+02  0.99578377082E+02  0.00000000000E+00 0.  1.
          1   -1    0    0  501    0 -0.00000000000E+00 -0.00000000000E+00 -0.79909628202E+03  0.79909628202E+03  0.00000000000E+00 0.  1.
          2    1    1    2  501    0 -0.59766102451E+02 -0.21317758606E+02  0.76427403065E+01  0.63912794600E+02  0.00000000000E+00 0.  1.
          1    1    1    2  502    0  0.89341311951E+02  0.34163102644E+02 -0.69378934036E+03  0.70035179475E+03  0.00000000000E+00 0.  1.
         22    1    1    2    0    0  0.35007648904E+01  0.11237386098E+02 -0.66398338382E+02  0.67433474929E+02  0.00000000000E+00 0.  1.
         22    1    1    2    0    0 -0.33075974390E+02 -0.24082730137E+02  0.53027033500E+02  0.66976594826E+02  0.00000000000E+00 0. -1.
</event>
<event>
 6    1  0.1383644E-005  0.6490036E+02  0.7818608E-02  0.1477500E+00
          2   -1    0    0  502    0  0.00000000000E+00  0.00000000000E+00  0.10681728653E+04  0.10681728653E+04  0.00000000000E+00 0. -1.
          1   -1    0    0  501    0 -0.00000000000E+00 -0.00000000000E+00 -0.35845361519E+02  0.35845361519E+02  0.00000000000E+00 0. -1.
          2    1    1    2  501    0 -0.42552638177E+01  0.23699627031E+02  0.88903726299E+03  0.88936327481E+03  0.00000000000E+00 0. -1.
          1    1    1    2  502    0 -0.21586463755E+01 -0.23487573007E+02  0.56795882777E+02  0.61498765356E+02  0.00000000000E+00 0. -1.
         22    1    1    2    0    0  0.20185740687E+02 -0.42169312810E+01  0.11734049838E+03  0.11913873928E+03  0.00000000000E+00 0. -1.
         22    1    1    2    0    0 -0.13771830493E+02  0.40048772568E+01 -0.30846140317E+02  0.34017447427E+02  0.00000000000E+00 0. -1.
</event>
<event>
 6    1  0.1383644E-005  0.1087013E+03  0.7818608E-02  0.1265069E+00
          2   -1    0    0  502    0  0.00000000000E+00  0.00000000000E+00  0.22435782801E+03  0.22435782801E+03  0.00000000000E+00 0. -1.
          1   -1    0    0  501    0 -0.00000000000E+00 -0.00000000000E+00 -0.23566585721E+03  0.23566585721E+03  0.00000000000E+00 0. -1.
          2    1    1    2  501    0 -0.56838081044E+02 -0.61654620337E+02  0.14085446363E+03  0.16392632366E+03  0.00000000000E+00 0. -1.
          1    1    1    2  502    0  0.70502034280E+02  0.40659792855E+02 -0.14765130916E+03  0.16859615858E+03  0.00000000000E+00 0. -1.
         22    1    1    2    0    0  0.33497310171E+01  0.26640399800E+02 -0.61849436417E+02  0.67426140217E+02  0.00000000000E+00 0. -1.
         22    1    1    2    0    0 -0.17013684252E+02 -0.56455723177E+01  0.57338252741E+02  0.60075062763E+02  0.00000000000E+00 0. -1.
</event>
<event>
 6    1  0.1383644E-005  0.6808813E+02  0.7818608E-02  0.1413394E+00
          2   -1    0    0  502    0  0.00000000000E+00  0.00000000000E+00  0.13464409437E+03  0.13464409437E+03  0.00000000000E+00 0.  1.
          1   -1    0    0  501    0 -0.00000000000E+00 -0.00000000000E+00 -0.14918710018E+03  0.14918710018E+03  0.00000000000E+00 0.  1.
          2    1    1    2  501    0  0.16616383203E+02 -0.38590190802E+02  0.67130698168E+02  0.79194934519E+02  0.00000000000E+00 0.  1.
          1    1    1    2  502    0 -0.52695718102E+02  0.25879933634E+02 -0.30585602307E+02  0.66197346924E+02  0.00000000000E+00 0.  1.
         22    1    1    2    0    0  0.23045193037E+02 -0.16683634648E+02  0.35837155046E+02  0.45757253731E+02  0.00000000000E+00 0.  1.
         22    1    1    2    0    0  0.13034141862E+02  0.29393891816E+02 -0.86925256715E+02  0.92681659378E+02  0.00000000000E+00 0. -1.
</event>
<event>
 6    1  0.1383644E-005  0.4399568E+02  0.7818608E-02  0.1481343E+00
          2   -1    0    0  502    0  0.00000000000E+00  0.00000000000E+00  0.61062558275E+03  0.61062558275E+03  0.00000000000E+00 0.  1.
          1   -1    0    0  501    0 -0.00000000000E+00 -0.00000000000E+00 -0.14043545673E+03  0.14043545673E+03  0.00000000000E+00 0.  1.
          2    1    1    2  501    0 -0.10900696836E+02 -0.87759330941E+02  0.50482800571E+03  0.51251521022E+03  0.00000000000E+00 0.  1.
          1    1    1    2  502    0  0.20542536099E+02  0.95726323895E+02  0.23987774713E+02  0.10080147921E+03  0.00000000000E+00 0.  1.
         22    1    1    2    0    0 -0.16399387254E+02  0.95726288982E+01 -0.94957920985E+02  0.96837915529E+02  0.00000000000E+00 0.  1.
         22    1    1    2    0    0  0.67575479913E+01 -0.17539621852E+02  0.36332266579E+02  0.40906434510E+02  0.00000000000E+00 0.  1.
</event>
<event>
 6    1  0.1383644E-005  0.2795816E+03  0.7818608E-02  0.1214244E+00
          2   -1    0    0  502    0  0.00000000000E+00  0.00000000000E+00  0.21135781087E+03  0.21135781087E+03  0.00000000000E+00 0. -1.
          1   -1    0    0  501    0 -0.00000000000E+00 -0.00000000000E+00 -0.14095513950E+04  0.14095513950E+04  0.00000000000E+00 0. -1.
          2    1    1    2  501    0 -0.28568252610E+03 -0.58467035795E+02 -0.78451022728E+02  0.30197261956E+03  0.00000000000E+00 0. -1.
          1    1    1    2  502    0  0.23719703276E+02  0.27061675794E+03 -0.76902552080E+03  0.81559567534E+03  0.00000000000E+00 0. -1.
         22    1    1    2    0    0  0.26360142423E+03 -0.19498700571E+03 -0.28192191985E+03  0.43241833002E+03  0.00000000000E+00 0.  1.
         22    1    1    2    0    0 -0.16386014022E+01 -0.17162716435E+02 -0.68795120703E+02  0.70922580907E+02  0.00000000000E+00 0.  1.
</event>
<event>
 6    1  0.1383644E-005  0.5986403E+02  0.7818608E-02  0.1446763E+00
          2   -1    0    0  502    0  0.00000000000E+00  0.00000000000E+00  0.83654987521E+03  0.83654987521E+03  0.00000000000E+00 0.  1.
          1   -1    0    0  501    0 -0.00000000000E+00 -0.00000000000E+00 -0.16930010127E+02  0.16930010127E+02  0.00000000000E+00 0.  1.
          2    1    1    2  501    0  0.46340266043E+02  0.29733051020E+02  0.32592233664E+03  0.33054023069E+03  0.00000000000E+00 0.  1.
          1    1    1    2  502    0  0.29916998774E+01  0.28998934938E+02  0.83354729734E+02  0.88305715923E+02  0.00000000000E+00 0.  1.
         22    1    1    2    0    0 -0.24789504500E+02  0.14113410655E+02  0.15672171202E+02  0.32547270912E+02  0.00000000000E+00 0.  1.
         22    1    1    2    0    0 -0.24542461421E+02 -0.72845396612E+02  0.39467062750E+03  0.40208666781E+03  0.00000000000E+00 0.  1.
</event>
<event>
 6    1  0.1383644E-005  0.3622730E+02  0.7818608E-02  0.1590469E+00
          2   -1    0    0  502    0  0.00000000000E+00  0.00000000000E+00  0.27202003510E+03  0.27202003510E+03  0.00000000000E+00 0. -1.
          1   -1    0    0  501    0 -0.00000000000E+00 -0.00000000000E+00 -0.21349440381E+03  0.21349440381E+03  0.00000000000E+00 0. -1.
          2    1    1    2  501    0  0.47545096334E+02 -0.37460211147E+02  0.23059598033E+03  0.23840786427E+03  0.00000000000E+00 0. -1.
          1    1    1    2  502    0 -0.10225667677E+02  0.34876465814E+02 -0.84799579057E+02  0.92259962906E+02  0.00000000000E+00 0. -1.
         22    1    1    2    0    0 -0.98430696879E+01  0.11139762356E+02  0.30329428937E+02  0.33776538986E+02  0.00000000000E+00 0.  1.
         22    1    1    2    0    0 -0.27476358969E+02 -0.85560170229E+01 -0.11760019892E+03  0.12107007275E+03  0.00000000000E+00 0. -1.
</event>
<event>
 6    1  0.1383644E-005  0.2047155E+02  0.7818608E-02  0.1786662E+00
          2   -1    0    0  502    0  0.00000000000E+00  0.00000000000E+00  0.14162302100E+03  0.14162302100E+03  0.00000000000E+00 0.  1.
          1   -1    0    0  501    0 -0.00000000000E+00 -0.00000000000E+00 -0.65321363327E+02  0.65321363327E+02  0.00000000000E+00 0. -1.
          2    1    1    2  501    0  0.25685067758E+02 -0.47522516883E+00  0.35491610180E+02  0.43813273536E+02  0.00000000000E+00 0.  1.
          1    1    1    2  502    0 -0.90734133170E+01 -0.27412515112E+02 -0.64592781021E+01  0.29588766240E+02  0.00000000000E+00 0. -1.
         22    1    1    2    0    0 -0.30297347853E+01  0.12054331116E+02 -0.40999454656E+02  0.42842052631E+02  0.00000000000E+00 0.  1.
         22    1    1    2    0    0 -0.13581919656E+02  0.15833409165E+02  0.88268780249E+02  0.90700291918E+02  0.00000000000E+00 0.  1.
</event>
<event>
 6    1  0.1383644E-005  0.7121905E+02  0.7818608E-02  0.1413903E+00
          2   -1    0    0  502    0  0.00000000000E+00  0.00000000000E+00  0.92270788161E+02  0.92270788161E+02  0.00000000000E+00 0.  1.
          1   -1    0    0  501    0 -0.00000000000E+00 -0.00000000000E+00 -0.72568344449E+03  0.72568344449E+03  0.00000000000E+00 0.  1.
          2    1    1    2  501    0  0.41865281787E+02 -0.26047524715E+01  0.31817314033E+02  0.52648153119E+02  0.00000000000E+00 0.  1.
          1    1    1    2  502    0 -0.51573058401E+02  0.10891359479E+02 -0.63711808098E+03  0.63929480771E+03  0.00000000000E+00 0.  1.
         22    1    1    2    0    0 -0.11754213280E+02 -0.25276826152E+02 -0.70354114796E+02  0.75675497613E+02  0.00000000000E+00 0. -1.
         22    1    1    2    0    0  0.21461989894E+02  0.16990219144E+02  0.42242225413E+02  0.50335774203E+02  0.00000000000E+00 0. -1.
</event>
<event>
 6    1  0.1383644E-005  0.5620138E+03  0.7818608E-02  0.1116508E+00
          2   -1    0    0  502    0  0.00000000000E+00  0.00000000000E+00  0.45831876950E+03  0.45831876950E+03  0.00000000000E+00 0.  1.
          1   -1    0    0  501    0 -0.00000000000E+00 -0.00000000000E+00 -0.10141904651E+04  0.10141904651E+04  0.00000000000E+00 0.  1.
          2    1    1    2  501    0 -0.31741186328E+03  0.32358332238E+03  0.13122427953E+03  0.47188586439E+03  0.00000000000E+00 0.  1.
          1    1    1    2  502    0  0.43002475073E+03 -0.32565183659E+03 -0.60825059591E+03  0.81298166790E+03  0.00000000000E+00 0.  1.
         22    1    1    2    0    0 -0.10437383950E+03  0.20616731362E+02 -0.17003188937E+00  0.10639068049E+03  0.00000000000E+00 0.  1.
         22    1    1    2    0    0 -0.82390479483E+01 -0.18548217151E+02 -0.78675347314E+02  0.81251021812E+02  0.00000000000E+00 0.  1.
</event>
<event>
 6    1  0.1383644E-005  0.6919278E+02  0.7818608E-02  0.1447581E+00
          2   -1    0    0  502    0  0.00000000000E+00  0.00000000000E+00  0.44490840226E+03  0.44490840226E+03  0.00000000000E+00 0.  1.
          1   -1    0    0  501    0 -0.00000000000E+00 -0.00000000000E+00 -0.68786228963E+02  0.68786228963E+02  0.00000000000E+00 0.  1.
          2    1    1    2  501    0 -0.53435765931E+02 -0.11994645326E+02  0.30189979593E+03  0.30682688829E+03  0.00000000000E+00 0.  1.
          1    1    1    2  502    0  0.57799808137E+02  0.20614447425E+02  0.56930947984E+02  0.83707264330E+02  0.00000000000E+00 0.  1.
         22    1    1    2    0    0 -0.14061764104E+02  0.68419254521E+01  0.67734938692E+02  0.69516667593E+02  0.00000000000E+00 0.  1.
         22    1    1    2    0    0  0.96977218981E+01 -0.15461727552E+02 -0.50443509304E+02  0.53643811011E+02  0.00000000000E+00 0.  1.
</event>
<event>
 6    1  0.1383644E-005  0.8737642E+02  0.7818608E-02  0.1408746E+00
          2   -1    0    0  502    0  0.00000000000E+00  0.00000000000E+00  0.41116083127E+03  0.41116083127E+03  0.00000000000E+00 0. -1.
          1   -1    0    0  501    0 -0.00000000000E+00 -0.00000000000E+00 -0.42317613492E+02  0.42317613492E+02  0.00000000000E+00 0.  1.
          2    1    1    2  501    0 -0.26067809327E+02 -0.20050182279E+02  0.11176640289E+03  0.11650437463E+03  0.00000000000E+00 0. -1.
          1    1    1    2  502    0  0.75306730250E+02 -0.11573034036E+02  0.83453066906E+02  0.11300200491E+03  0.00000000000E+00 0.  1.
         22    1    1    2    0    0  0.41855776517E+01  0.15812984742E+02 -0.18053413170E+02  0.24361758431E+02  0.00000000000E+00 0.  1.
         22    1    1    2    0    0 -0.53424498575E+02  0.15810231572E+02  0.19167716115E+03  0.19961030679E+03  0.00000000000E+00 0. -1.
</event>
<event>
 6    1  0.1383644E-005  0.4276000E+02  0.7818608E-02  0.1523093E+00
          2   -1    0    0  502    0  0.00000000000E+00  0.00000000000E+00  0.91358014236E+02  0.91358014236E+02  0.00000000000E+00 0. -1.
          1   -1    0    0  501    0 -0.00000000000E+00 -0.00000000000E+00 -0.12867405016E+03  0.12867405016E+03  0.00000000000E+00 0. -1.
          2    1    1    2  501    0 -0.24654420674E+02  0.12761190578E+02  0.40974220531E+02  0.49493183287E+02  0.00000000000E+00 0. -1.
          1    1    1    2  502    0  0.23550572490E+02  0.89994272284E+00 -0.16424831884E+02  0.28726546328E+02  0.00000000000E+00 0. -1.
         22    1    1    2    0    0 -0.20776934841E+02  0.18189559116E+01  0.35309266804E+02  0.41008949563E+02  0.00000000000E+00 0. -1.
         22    1    1    2    0    0  0.21880783025E+02 -0.15480089213E+02 -0.97174691378E+02  0.10080338522E+03  0.00000000000E+00 0. -1.
</event>
<event>
 6    1  0.1383644E-005  0.4092876E+02  0.7818608E-02  0.1561107E+00
          2   -1    0    0  502    0  0.00000000000E+00  0.00000000000E+00  0.13424616536E+03  0.13424616536E+03  0.00000000000E+00 0. -1.
          1   -1    0    0  501    0 -0.00000000000E+00 -0.00000000000E+00 -0.14207393081E+03  0.14207393081E+03  0.00000000000E+00 0. -1.
          2    1    1    2  501    0 -0.42624601754E+02  0.24070597200E+02  0.35872139866E+01  0.49082771197E+02  0.00000000000E+00 0. -1.
          1    1    1    2  502    0  0.54992462997E+02 -0.54862052818E+02 -0.49972879349E+02  0.92365061015E+02  0.00000000000E+00 0. -1.
         22    1    1    2    0    0  0.46786946351E+01  0.11003186031E+02 -0.45398745732E+02  0.46946846543E+02  0.00000000000E+00 0. -1.
         22    1    1    2    0    0 -0.17046555879E+02  0.19788269587E+02  0.83956645641E+02  0.87925417417E+02  0.00000000000E+00 0. -1.
</event>
<event>
 6    1  0.1383644E-005  0.6576075E+03  0.7818608E-02  0.1107957E+00
          2   -1    0    0  502    0  0.00000000000E+00  0.00000000000E+00  0.19012797261E+04  0.19012797261E+04  0.00000000000E+00 0. -1.
          1   -1    0    0  501    0 -0.00000000000E+00 -0.00000000000E+00 -0.24032753998E+03  0.24032753998E+03  0.00000000000E+00 0. -1.
          2    1    1    2  501    0 -0.62079906447E+02  0.55100118695E+03  0.82381865794E+03  0.99304249858E+03  0.00000000000E+00 0. -1.
          1    1    1    2  502    0  0.14138943962E+03 -0.59511894184E+03  0.75353931541E+03  0.97055604086E+03  0.00000000000E+00 0. -1.
         22    1    1    2    0    0  0.10283794979E+02 -0.11913302896E+02 -0.23028534717E+02  0.27892591064E+02  0.00000000000E+00 0.  1.
         22    1    1    2    0    0 -0.89593328151E+02  0.56031057793E+02  0.10662274752E+03  0.15011613563E+03  0.00000000000E+00 0.  1.
</event>
<event>
 6    1  0.1383644E-005  0.3493675E+03  0.7818608E-02  0.1182240E+00
          2   -1    0    0  502    0  0.00000000000E+00  0.00000000000E+00  0.14296391853E+03  0.14296391853E+03  0.00000000000E+00 0. -1.
          1   -1    0    0  501    0 -0.00000000000E+00 -0.00000000000E+00 -0.93635455186E+03  0.93635455186E+03  0.00000000000E+00 0. -1.
          2    1    1    2  501    0  0.92020762995E+02  0.80837255431E+02 -0.14669814854E+03  0.19110946986E+03  0.00000000000E+00 0. -1.
          1    1    1    2  502    0 -0.30373942092E+03 -0.14593327374E+03 -0.26740299766E+03  0.43018428535E+03  0.00000000000E+00 0. -1.
         22    1    1    2    0    0 -0.12498777805E+02  0.12596187446E+02 -0.71233094591E+02  0.73410061639E+02  0.00000000000E+00 0. -1.
         22    1    1    2    0    0  0.22421743573E+03  0.52499830865E+02 -0.30805639255E+03  0.38461465354E+03  0.00000000000E+00 0. -1.
</event>
<event>
 6    1  0.1383644E-005  0.1094994E+03  0.7818608E-02  0.1358142E+00
          2   -1    0    0  502    0  0.00000000000E+00  0.00000000000E+00  0.86398016148E+03  0.86398016148E+03  0.00000000000E+00 0. -1.
          1   -1    0    0  501    0 -0.00000000000E+00 -0.00000000000E+00 -0.18555354653E+02  0.18555354653E+02  0.00000000000E+00 0. -1.
          2    1    1    2  501    0  0.22131333141E+02 -0.22398442378E+02  0.32480198330E+03  0.32632470713E+03  0.00000000000E+00 0. -1.
          1    1    1    2  502    0 -0.22608071796E+02 -0.44696279160E+02  0.14107141354E+03  0.14969978624E+03  0.00000000000E+00 0. -1.
         22    1    1    2    0    0  0.18550501287E+02 -0.36082798864E+01 -0.10973428308E+01  0.18930001137E+02  0.00000000000E+00 0. -1.
         22    1    1    2    0    0 -0.18073762632E+02  0.70703001425E+02  0.38064875281E+03  0.38758102163E+03  0.00000000000E+00 0. -1.
</event>
<event>
 6    1  0.1383644E-005  0.1048426E+03  0.7818608E-02  0.1270435E+00
          2   -1    0    0  502    0  0.00000000000E+00  0.00000000000E+00  0.27277955651E+03  0.27277955651E+03  0.00000000000E+00 0. -1.
          1   -1    0    0  501    0 -0.00000000000E+00 -0.00000000000E+00 -0.26913923959E+03  0.26913923959E+03  0.00000000000E+00 0. -1.
          2    1    1    2  501    0  0.68495216104E+02  0.39612280556E+02  0.18602448498E+03  0.20215300248E+03  0.00000000000E+00 0. -1.
          1    1    1    2  502    0 -0.73039206607E+02 -0.52579250709E+02 -0.19278754550E+03  0.21275887997E+03  0.00000000000E+00 0. -1.
         22    1    1    2    0    0  0.79567997387E+01  0.24393446635E+02  0.65650996313E+02  0.70486908130E+02  0.00000000000E+00 0. -1.
         22    1    1    2    0    0 -0.34128092359E+01 -0.11426476482E+02 -0.55247618875E+02  0.56520005512E+02  0.00000000000E+00 0. -1.
</event>
<event>
 6    1  0.1383644E-005  0.9283697E+02  0.7818608E-02  0.1403329E+00
          2   -1    0    0  502    0  0.00000000000E+00  0.00000000000E+00  0.39255703914E+03  0.39255703914E+03  0.00000000000E+00 0. -1.
          1   -1    0    0  501    0 -0.00000000000E+00 -0.00000000000E+00 -0.92473398491E+02  0.92473398491E+02  0.00000000000E+00 0.  1.
          2    1    1    2  501    0 -0.58474134858E+02 -0.18424395378E+02  0.23236051578E+03  0.24031248841E+03  0.00000000000E+00 0. -1.
          1    1    1    2  502    0  0.86409305103E+02  0.49045371574E+02  0.35591365537E+02  0.10554033249E+03  0.00000000000E+00 0.  1.
         22    1    1    2    0    0 -0.24443647754E+02 -0.16189393642E+02  0.82032666106E+02  0.87114560726E+02  0.00000000000E+00 0.  1.
         22    1    1    2    0    0 -0.34915224917E+01 -0.14431582554E+02 -0.49900906771E+02  0.52063056008E+02  0.00000000000E+00 0.  1.
</event>
<event>
 6    1  0.1383644E-005  0.2705584E+03  0.7818608E-02  0.1220348E+00
          2   -1    0    0  502    0  0.00000000000E+00  0.00000000000E+00  0.11000882392E+04  0.11000882392E+04  0.00000000000E+00 0. -1.
          1   -1    0    0  501    0 -0.00000000000E+00 -0.00000000000E+00 -0.84993198511E+02  0.84993198511E+02  0.00000000000E+00 0. -1.
          2    1    1    2  501    0 -0.13757757564E+03 -0.26684258611E+02  0.23572760740E+03  0.27423920921E+03  0.00000000000E+00 0. -1.
          1    1    1    2  502    0  0.22384516522E+03  0.13012353534E+03  0.59490355891E+03  0.64880585451E+03  0.00000000000E+00 0. -1.
         22    1    1    2    0    0 -0.96015455035E+02 -0.89848025773E+02  0.19990213226E+03  0.23927494190E+03  0.00000000000E+00 0. -1.
         22    1    1    2    0    0  0.97478654570E+01 -0.13591250956E+02 -0.15438257892E+02  0.22761432079E+02  0.00000000000E+00 0.  1.
</event>
<event>
 6    1  0.1383644E-005  0.2271623E+03  0.7818608E-02  0.1219083E+00
          2   -1    0    0  502    0  0.00000000000E+00  0.00000000000E+00  0.12126346577E+04  0.12126346577E+04  0.00000000000E+00 0.  1.
          1   -1    0    0  501    0 -0.00000000000E+00 -0.00000000000E+00 -0.10568599214E+04  0.10568599214E+04  0.00000000000E+00 0. -1.
          2    1    1    2  501    0  0.19080140393E+03 -0.21861323984E+03  0.90529208628E+03  0.95065802782E+03  0.00000000000E+00 0.  1.
          1    1    1    2  502    0 -0.33534993678E+03  0.14501782159E+03 -0.95883311864E+03  0.10260851320E+04  0.00000000000E+00 0. -1.
         22    1    1    2    0    0  0.12651615176E+03  0.80073151130E+02  0.22342607321E+03  0.26895586325E+03  0.00000000000E+00 0. -1.
         22    1    1    2    0    0  0.18032381092E+02 -0.64777328838E+01 -0.14110304624E+02  0.23795556050E+02  0.00000000000E+00 0. -1.
</event>
<event>
 6    1  0.1383644E-005  0.1100781E+03  0.7818608E-02  0.1289816E+00
          2   -1    0    0  502    0  0.00000000000E+00  0.00000000000E+00  0.87075211725E+02  0.87075211725E+02  0.00000000000E+00 0. -1.
          1   -1    0    0  501    0 -0.00000000000E+00 -0.00000000000E+00 -0.33997632714E+03  0.33997632714E+03  0.00000000000E+00 0. -1.
          2    1    1    2  501    0  0.19510247392E+02  0.75902699197E+02 -0.15499143872E+02  0.79888002601E+02  0.00000000000E+00 0. -1.
          1    1    1    2  502    0 -0.70105500046E+02 -0.87707188866E+02 -0.70577622787E+02  0.13262176652E+03  0.00000000000E+00 0. -1.
         22    1    1    2    0    0  0.59037370935E+02 -0.20934485003E+02 -0.16942342067E+03  0.18063211038E+03  0.00000000000E+00 0. -1.
         22    1    1    2    0    0 -0.84421182818E+01  0.32738974672E+02  0.25990719129E+01  0.33909659368E+02  0.00000000000E+00 0. -1.
</event>
<event>
 6    1  0.1383644E-005  0.3207137E+03  0.7818608E-02  0.1123529E+00
          2   -1    0    0  502    0  0.00000000000E+00  0.00000000000E+00  0.12623779086E+03  0.12623779086E+03  0.00000000000E+00 0.  1.
          1   -1    0    0  501    0 -0.00000000000E+00 -0.00000000000E+00 -0.76651917007E+03  0.76651917007E+03  0.00000000000E+00 0.  1.
          2    1    1    2  501    0  0.10292906878E+03  0.22236364047E+03 -0.13959722198E+03  0.28200596835E+03  0.00000000000E+00 0.  1.
          1    1    1    2  502    0 -0.78894616523E+02 -0.12734533084E+03 -0.10350253563E+03  0.18208231294E+03  0.00000000000E+00 0.  1.
         22    1    1    2    0    0  0.44009824381E+02 -0.80368581163E+02 -0.22932391091E+03  0.24695228203E+03  0.00000000000E+00 0. -1.
         22    1    1    2    0    0 -0.68044276643E+02 -0.14649728462E+02 -0.16785771068E+03  0.18171639762E+03  0.00000000000E+00 0.  1.
</event>
<event>
 6    1  0.1383644E-005  0.5680761E+02  0.7818608E-02  0.1476850E+00
          2   -1    0    0  502    0  0.00000000000E+00  0.00000000000E+00  0.10178376544E+04  0.10178376544E+04  0.00000000000E+00 0. -1.
          1   -1    0    0  501    0 -0.00000000000E+00 -0.00000000000E+00 -0.41893606111E+02  0.41893606111E+02  0.00000000000E+00 0. -1.
          2    1    1    2  501    0  0.40728458526E+02  0.92144119030E+02  0.38091426661E+03  0.39401145226E+03  0.00000000000E+00 0. -1.
          1    1    1    2  502    0 -0.23330708964E+02 -0.12422821827E+03  0.46729865665E+03  0.48409194034E+03  0.00000000000E+00 0. -1.
         22    1    1    2    0    0  0.11777677190E+01  0.10875685670E+02 -0.24487773042E+02  0.26820117527E+02  0.00000000000E+00 0. -1.
         22    1    1    2    0    0 -0.18575517280E+02  0.21208413573E+02  0.15221889807E+03  0.15480775038E+03  0.00000000000E+00 0. -1.
</event>
<event>
 6    1  0.1383644E-005  0.8648128E+02  0.7818608E-02  0.1314395E+00
          2   -1    0    0  502    0  0.00000000000E+00  0.00000000000E+00  0.43748868079E+03  0.43748868079E+03  0.00000000000E+00 0.  1.
          1   -1    0    0  501    0 -0.00000000000E+00 -0.00000000000E+00 -0.48221742621E+02  0.48221742621E+02  0.00000000000E+00 0. -1.
          2    1    1    2  501    0  0.39759091744E+02  0.21221419640E+02  0.23638815445E+03  0.24064599226E+03  0.00000000000E+00 0.  1.
          1    1    1    2  502    0 -0.50521118559E+02 -0.90884739923E+01  0.85324660436E+01  0.52036398383E+02  0.00000000000E+00 0. -1.
         22    1    1    2    0    0 -0.27219623601E+02  0.19383417487E+01 -0.13231922022E+02  0.30327361213E+02  0.00000000000E+00 0. -1.
         22    1    1    2    0    0  0.37981650416E+02 -0.14071287397E+02  0.15757823969E+03  0.16270067155E+03  0.00000000000E+00 0.  1.
</event>
<event>
 6    1  0.1383644E-005  0.6420349E+02  0.7818608E-02  0.1406209E+00
          2   -1    0    0  502    0  0.00000000000E+00  0.00000000000E+00  0.19643915098E+03  0.19643915098E+03  0.00000000000E+00 0. -1.
          1   -1    0    0  501    0 -0.00000000000E+00 -0.00000000000E+00 -0.24791054207E+03  0.24791054207E+03  0.00000000000E+00 0. -1.
          2    1    1    2  501    0  0.21528245978E+00  0.43262811645E+02 -0.77237661485E+02  0.88528941989E+02  0.00000000000E+00 0. -1.
          1    1    1    2  502    0 -0.39957046746E+02 -0.25278154271E+02  0.16091231758E+03  0.16771501011E+03  0.00000000000E+00 0. -1.
         22    1    1    2    0    0  0.35443042569E+02 -0.70088928808E+02 -0.82688206283E+02  0.11404388044E+03  0.00000000000E+00 0.  1.
         22    1    1    2    0    0  0.42987217173E+01  0.52104271434E+02 -0.52457840905E+02  0.74061860512E+02  0.00000000000E+00 0.  1.
</event>
<event>
 6    1  0.1383644E-005  0.1001693E+03  0.7818608E-02  0.1405242E+00
          2   -1    0    0  502    0  0.00000000000E+00  0.00000000000E+00  0.57968069702E+03  0.57968069702E+03  0.00000000000E+00 0.  1.
          1   -1    0    0  501    0 -0.00000000000E+00 -0.00000000000E+00 -0.94984594726E+02  0.94984594726E+02  0.00000000000E+00 0.  1.
          2    1    1    2  501    0 -0.97569728642E+02 -0.34335552011E+02  0.24097876431E+03  0.26223948393E+03  0.00000000000E+00 0.  1.
          1    1    1    2  502    0  0.88118704822E+01  0.41542917019E+02  0.25313628726E+03  0.25667380650E+03  0.00000000000E+00 0.  1.
         22    1    1    2    0    0 -0.53408019475E+01 -0.10150344690E+02 -0.51405174146E+02  0.52669209143E+02  0.00000000000E+00 0.  1.
         22    1    1    2    0    0  0.94098660108E+02  0.29429796823E+01  0.41986224860E+02  0.10308279217E+03  0.00000000000E+00 0.  1.
</event>
<event>
 6    1  0.1383644E-005  0.8483825E+02  0.7818608E-02  0.1430301E+00
          2   -1    0    0  502    0  0.00000000000E+00  0.00000000000E+00  0.13895420868E+03  0.13895420868E+03  0.00000000000E+00 0.  1.
          1   -1    0    0  501    0 -0.00000000000E+00 -0.00000000000E+00 -0.10319791320E+03  0.10319791320E+03  0.00000000000E+00 0.  1.
          2    1    1    2  501    0 -0.16813270423E+02 -0.24483206763E+02 -0.16114698260E+02  0.33790486468E+02  0.00000000000E+00 0.  1.
          1    1    1    2  502    0  0.41109819995E+02  0.35983169667E+02  0.60930715467E+02  0.81837386851E+02  0.00000000000E+00 0.  1.
         22    1    1    2    0    0 -0.29641622350E+02 -0.23157328021E+02  0.51974146439E+02  0.64157614627E+02  0.00000000000E+00 0.  1.
         22    1    1    2    0    0  0.53450727783E+01  0.11657365117E+02 -0.61033868169E+02  0.62366633933E+02  0.00000000000E+00 0.  1.
</event>
<event>
 6    1  0.1383644E-005  0.9768596E+02  0.7818608E-02  0.1405897E+00
          2   -1    0    0  502    0  0.00000000000E+00  0.00000000000E+00  0.10029097010E+03  0.10029097010E+03  0.00000000000E+00 0. -1.
          1   -1    0    0  501    0 -0.00000000000E+00 -0.00000000000E+00 -0.26628709985E+03  0.26628709985E+03  0.00000000000E+00 0. -1.
          2    1    1    2  501    0  0.34059651463E+02 -0.27033650022E+02  0.10024533167E+02  0.44624761697E+02  0.00000000000E+00 0. -1.
          1    1    1    2  502    0 -0.85891595864E+02  0.42131783295E+02 -0.15679013453E+03  0.18367253384E+03  0.00000000000E+00 0. -1.
         22    1    1    2    0    0  0.89626181748E+01  0.83365149677E+01 -0.68092163617E+02  0.69183587305E+02  0.00000000000E+00 0. -1.
         22    1    1    2    0    0  0.42869326226E+02 -0.23434648240E+02  0.48861635228E+02  0.69097187109E+02  0.00000000000E+00 0. -1.
</event>
<event>
 6    1  0.1383644E-005  0.9409997E+02  0.7818608E-02  0.1353560E+00
          2   -1    0    0  502    0  0.00000000000E+00  0.00000000000E+00  0.78629191583E+03  0.78629191583E+03  0.00000000000E+00 0.  1.
          1   -1    0    0  501    0 -0.00000000000E+00 -0.00000000000E+00 -0.17562725043E+03  0.17562725043E+03  0.00000000000E+00 0. -1.
          2    1    1    2  501    0  0.10189049284E+02 -0.31696181393E+02  0.46559916278E+03  0.46678800865E+03  0.00000000000E+00 0.  1.
          1    1    1    2  502    0  0.33734598686E+02  0.59165669160E+02 -0.15216964777E+03  0.16671592982E+03  0.00000000000E+00 0. -1.
         22    1    1    2    0    0 -0.19618321918E+02 -0.48554333848E+02  0.29095689112E+03  0.29563205912E+03  0.00000000000E+00 0.  1.
         22    1    1    2    0    0 -0.24305326051E+02  0.21084846081E+02  0.62782592669E+01  0.32783168672E+02  0.00000000000E+00 0. -1.
</event>
<event>
 6    1  0.1383644E-005  0.3446926E+02  0.7818608E-02  0.1623816E+00
          2   -1    0    0  502    0  0.00000000000E+00  0.00000000000E+00  0.13716513297E+03  0.13716513297E+03  0.00000000000E+00 0.  1.
          1   -1    0    0  501    0 -0.00000000000E+00 -0.00000000000E+00 -0.67535604738E+02  0.67535604738E+02  0.00000000000E+00 0.  1.
          2    1    1    2  501    0  0.13870263509E+02  0.16690735862E+02  0.55829053310E+02  0.59898648290E+02  0.00000000000E+00 0.  1.
          1    1    1    2  502    0 -0.60686804600E+01 -0.21874189844E+02  0.54195460964E+01  0.23338392056E+02  0.00000000000E+00 0.  1.
         22    1    1    2    0    0 -0.11256710777E+02 -0.92584637568E+01 -0.54725787664E+02  0.56633422324E+02  0.00000000000E+00 0.  1.
         22    1    1    2    0    0  0.34551277279E+01  0.14441917738E+02  0.63106716493E+02  0.64830275042E+02  0.00000000000E+00 0. -1.
</event>
<event>
 6    1  0.1383644E-005  0.4902130E+02  0.7818608E-02  0.1561681E+00
          2   -1    0    0  502    0  0.00000000000E+00  0.00000000000E+00  0.17422982197E+03  0.17422982197E+03  0.00000000000E+00 0.  1.
          1   -1    0    0  501    0 -0.00000000000E+00 -0.00000000000E+00 -0.57403248717E+02  0.57403248717E+02  0.00000000000E+00 0. -1.
          2    1    1    2  501    0  0.91982503600E+01  0.18633187322E+02  0.36865317617E+02  0.42318496222E+02  0.00000000000E+00 0.  1.
          1    1    1    2  502    0 -0.20772563398E+02 -0.26716491536E+02 -0.73625128948E+01  0.34633465120E+02  0.00000000000E+00 0. -1.
         22    1    1    2    0    0  0.22281448284E+02  0.93393491366E+01  0.11889251194E+03  0.12132236305E+03  0.00000000000E+00 0.  1.
         22    1    1    2    0    0 -0.10707135246E+02 -0.12560449231E+01 -0.31568743410E+02  0.33358746297E+02  0.00000000000E+00 0. -1.
</event>
<event>
 6    1  0.1383644E-005  0.1723271E+03  0.7818608E-02  0.1241467E+00
          2   -1    0    0  502    0  0.00000000000E+00  0.00000000000E+00  0.45341144391E+03  0.45341144391E+03  0.00000000000E+00 0.  1.
          1   -1    0    0  501    0 -0.00000000000E+00 -0.00000000000E+00 -0.13294974725E+03  0.13294974725E+03  0.00000000000E+00 0.  1.
          2    1    1    2  501    0 -0.28874231134E+02  0.11339629954E+03  0.23173492093E+03  0.25960261084E+03  0.00000000000E+00 0.  1.
          1    1    1    2  502    0  0.23514657858E+02 -0.17015116416E+03  0.81714803564E+02  0.19021479154E+03  0.00000000000E+00 0.  1.
         22    1    1    2    0    0 -0.32029119574E+02  0.37890704193E+02  0.54182106288E+02  0.73466118767E+02  0.00000000000E+00 0.  1.
         22    1    1    2    0    0  0.37388692851E+02  0.18864160421E+02 -0.47170134120E+02  0.63077670014E+02  0.00000000000E+00 0.  1.
</event>
<event>
 6    1  0.1383644E-005  0.6567789E+02  0.7818608E-02  0.1462705E+00
          2   -1    0    0  502    0  0.00000000000E+00  0.00000000000E+00  0.58807782453E+03  0.58807782453E+03  0.00000000000E+00 0. -1.
          1   -1    0    0  501    0 -0.00000000000E+00 -0.00000000000E+00 -0.23901999953E+02  0.23901999953E+02  0.00000000000E+00 0.  1.
          2    1    1    2  501    0  0.32074313483E+02  0.60463680620E+01  0.24716271348E+03  0.24930849782E+03  0.00000000000E+00 0. -1.
          1    1    1    2  502    0 -0.51272741615E+02  0.20266185374E+01  0.12683026980E+03  0.13681709891E+03  0.00000000000E+00 0.  1.
         22    1    1    2    0    0 -0.16658055372E+02  0.38869534277E+01 -0.11531186129E+02  0.20629286688E+02  0.00000000000E+00 0.  1.
         22    1    1    2    0    0  0.35856483503E+02 -0.11959940027E+02  0.20171402742E+03  0.20522494106E+03  0.00000000000E+00 0. -1.
</event>
<event>
 6    1  0.1383644E-005  0.6259854E+02  0.7818608E-02  0.1486430E+00
          2   -1    0    0  502    0  0.00000000000E+00  0.00000000000E+00  0.63927128896E+02  0.63927128896E+02  0.00000000000E+00 0. -1.
          1   -1    0    0  501    0 -0.00000000000E+00 -0.00000000000E+00 -0.15911302981E+03  0.15911302981E+03  0.00000000000E+00 0. -1.
          2    1    1    2  501    0  0.39765142711E+01 -0.20437685519E+02  0.16731123142E+01  0.20888057831E+02  0.00000000000E+00 0. -1.
          1    1    1    2  502    0 -0.31922761192E+02  0.12208174605E+02 -0.64027917807E+02  0.72578760447E+02  0.00000000000E+00 0. -1.
         22    1    1    2    0    0 -0.11434964711E+02  0.82387172626E+01 -0.72392892986E+02  0.73752056480E+02  0.00000000000E+00 0.  1.
         22    1    1    2    0    0  0.39381211632E+02 -0.92063480412E-02  0.39561797569E+02  0.55821283945E+02  0.00000000000E+00 0. -1.
</event>
<event>
 6    1  0.1459868E-005  0.1098733E+03  0.7818608E-02  0.1359464E+00
          2   -1    0    0  502    0  0.00000000000E+00  0.00000000000E+00  0.94833670826E+02  0.94833670826E+02  0.00000000000E+00 0.  1.
          1   -1    0    0  501    0 -0.00000000000E+00 -0.00000000000E+00 -0.75988040218E+03  0.75988040218E+03  0.00000000000E+00 0.  1.
          2    1    1    2  501    0 -0.18663699684E+02  0.28230650568E+02 -0.15373587968E+02  0.37170559915E+02  0.00000000000E+00 0.  1.
          1    1    1    2  502    0 -0.61298397632E+01 -0.75605916964E+02 -0.67755153547E+03  0.68178435948E+03  0.00000000000E+00 0.  1.
         22    1    1    2    0    0  0.18283338741E+02  0.62439070190E+00 -0.45200214835E+02  0.48761970432E+02  0.00000000000E+00 0.  1.
         22    1    1    2    0    0  0.65102007065E+01  0.46750875694E+02  0.73078606920E+02  0.86997183177E+02  0.00000000000E+00 0.  1.
</event>
<event>
 6    1  0.1383644E-005  0.7303466E+02  0.7818608E-02  0.1398507E+00
          2   -1    0    0  502    0  0.00000000000E+00  0.00000000000E+00  0.12901526532E+03  0.12901526532E+03  0.00000000000E+00 0.  1.
          1   -1    0    0  501    0 -0.00000000000E+00 -0.00000000000E+00 -0.20057253797E+03  0.20057253797E+03  0.00000000000E+00 0.  1.
          2    1    1    2  501    0 -0.10355374609E+02  0.52614684780E+02  0.65210268002E+02  0.84426997404E+02  0.00000000000E+00 0.  1.
          1    1    1    2  502    0 -0.79778940875E+01 -0.55818387641E+02 -0.89269496724E+02  0.10558589981E+03  0.00000000000E+00 0.  1.
         22    1    1    2    0    0 -0.11646530546E+02  0.16784536746E+02  0.40643451828E+02  0.45489037405E+02  0.00000000000E+00 0. -1.
         22    1    1    2    0    0  0.29979799242E+02 -0.13580833884E+02 -0.88141495751E+02  0.94085868678E+02  0.00000000000E+00 0. -1.
</event>
<event>
 6    1  0.1383644E-005  0.5858329E+02  0.7818608E-02  0.1501586E+00
          2   -1    0    0  502    0  0.00000000000E+00  0.00000000000E+00  0.17432591077E+03  0.17432591077E+03  0.00000000000E+00 0. -1.
          1   -1    0    0  501    0 -0.00000000000E+00 -0.00000000000E+00 -0.90909675217E+02  0.90909675217E+02  0.00000000000E+00 0.  1.
          2    1    1    2  501    0  0.21946643420E+02  0.68412289265E+01  0.72418780096E+02  0.75979847862E+02  0.00000000000E+00 0. -1.
          1    1    1    2  502    0 -0.55700743673E+02  0.12032140400E+02  0.15948321599E+02  0.59175114788E+02  0.00000000000E+00 0.  1.
         22    1    1    2    0    0  0.32967189914E+02 -0.49577343863E+01  0.57297790964E+02  0.66290659903E+02  0.00000000000E+00 0. -1.
         22    1    1    2    0    0  0.78691033968E+00 -0.13915634940E+02 -0.62248657104E+02  0.63789963434E+02  0.00000000000E+00 0.  1.
</event>
<event>
 6    1  0.1383644E-005  0.6067426E+02  0.7818608E-02  0.1456547E+00
          2   -1    0    0  502    0  0.00000000000E+00  0.00000000000E+00  0.18811696383E+03  0.18811696383E+03  0.00000000000E+00 0.  1.
          1   -1    0    0  501    0 -0.00000000000E+00 -0.00000000000E+00 -0.23741847761E+03  0.23741847761E+03  0.00000000000E+00 0.  1.
          2    1    1    2  501    0  0.71852942953E+02 -0.64315895904E+02  0.11929669708E+03  0.15339844136E+03  0.00000000000E+00 0.  1.
          1    1    1    2  502    0 -0.21652776818E+02  0.50949958426E+02 -0.11189475714E+03  0.12484060911E+03  0.00000000000E+00 0.  1.
         22    1    1    2    0    0 -0.46025995488E+02 -0.42602088576E+01 -0.94602621756E+02  0.10529101426E+03  0.00000000000E+00 0.  1.
         22    1    1    2    0    0 -0.41741706479E+01  0.17626146336E+02  0.37899168037E+02  0.42005376717E+02  0.00000000000E+00 0.  1.
</event>
<event>
 6    1  0.1383644E-005  0.6150632E+02  0.7818608E-02  0.1462885E+00
          2   -1    0    0  502    0  0.00000000000E+00  0.00000000000E+00  0.56307632746E+03  0.56307632746E+03  0.00000000000E+00 0.  1.
          1   -1    0    0  501    0 -0.00000000000E+00 -0.00000000000E+00 -0.14830522569E+03  0.14830522569E+03  0.00000000000E+00 0. -1.
          2    1    1    2  501    0  0.94118718876E+02 -0.11483416670E+02  0.46802305458E+03  0.47753092227E+03  0.00000000000E+00 0.  1.
          1    1    1    2  502    0  0.25560299082E+02  0.14317335265E+02 -0.56694458928E+02  0.63816742720E+02  0.00000000000E+00 0. -1.
         22    1    1    2    0    0 -0.10400696662E+02  0.35359758118E+01  0.49918017489E+02  0.51112484640E+02  0.00000000000E+00 0. -1.
         22    1    1    2    0    0 -0.10927832130E+03 -0.63698944064E+01 -0.46475511369E+02  0.11892140353E+03  0.00000000000E+00 0. -1.
</event>
<event>
 6    1  0.1383644E-005  0.6008235E+02  0.7818608E-02  0.1506723E+00
          2   -1    0    0  502    0  0.00000000000E+00  0.00000000000E+00  0.30988263964E+03  0.30988263964E+03  0.00000000000E+00 0. -1.
          1   -1    0    0  501    0 -0.00000000000E+00 -0.00000000000E+00 -0.14907918284E+03  0.14907918284E+03  0.00000000000E+00 0.  1.
          2    1    1    2  501    0 -0.16851262623E+02  0.44215628895E+02  0.23349389692E+03  0.23824018718E+03  0.00000000000E+00 0. -1.
          1    1    1    2  502    0  0.36435445185E+02 -0.58356747185E+02 -0.63903525936E+02  0.93897349456E+02  0.00000000000E+00 0.  1.
         22    1    1    2    0    0 -0.10741510867E+02  0.54491697614E+01 -0.66608215371E+02  0.67688461807E+02  0.00000000000E+00 0.  1.
         22    1    1    2    0    0 -0.88426716949E+01  0.86919485285E+01  0.57821301195E+02  0.59135824031E+02  0.00000000000E+00 0. -1.
</event>
<event>
 6    1  0.1383644E-005  0.4103823E+02  0.7818608E-02  0.1567989E+00
          2   -1    0    0  502    0  0.00000000000E+00  0.00000000000E+00  0.13137938439E+03  0.13137938439E+03  0.00000000000E+00 0. -1.
          1   -1    0    0  501    0 -0.00000000000E+00 -0.00000000000E+00 -0.25846469215E+03  0.25846469215E+03  0.00000000000E+00 0.  1.
          2    1    1    2  501    0  0.11994241164E+02 -0.25290514517E+02  0.74408575514E+02  0.79499107263E+02  0.00000000000E+00 0. -1.
          1    1    1    2  502    0 -0.32660357844E+02  0.31189168124E+02 -0.17745671258E+03  0.18311293789E+03  0.00000000000E+00 0.  1.
         22    1    1    2    0    0  0.16046142244E+02  0.55276204526E+01 -0.73923028681E+02  0.75846209122E+02  0.00000000000E+00 0.  1.
         22    1    1    2    0    0  0.46199744351E+01 -0.11426274059E+02  0.49885857991E+02  0.51385822268E+02  0.00000000000E+00 0. -1.
</event>
<event>
 6    1  0.1383644E-005  0.4575254E+02  0.7818608E-02  0.1544575E+00
          2   -1    0    0  502    0  0.00000000000E+00  0.00000000000E+00  0.33762838399E+03  0.33762838399E+03  0.00000000000E+00 0.  1.
          1   -1    0    0  501    0 -0.00000000000E+00 -0.00000000000E+00 -0.16210219293E+03  0.16210219293E+03  0.00000000000E+00 0.  1.
          2    1    1    2  501    0  0.22575991534E+02  0.14672063980E+02  0.28180320663E+03  0.28308654528E+03  0.00000000000E+00 0.  1.
          1    1    1    2  502    0 -0.26604915591E+02 -0.10872996144E+02 -0.85825570867E+02  0.90510066807E+02  0.00000000000E+00 0.  1.
         22    1    1    2    0    0  0.13094248431E+02  0.10046028139E+02  0.50577771705E+02  0.53202377897E+02  0.00000000000E+00 0. -1.
         22    1    1    2    0    0 -0.90653243736E+01 -0.13845095975E+02 -0.71029216403E+02  0.72931586925E+02  0.00000000000E+00 0.  1.
</event>
<event>
 6    1  0.1383644E-005  0.8316318E+02  0.7818608E-02  0.1322434E+00
          2   -1    0    0  502    0  0.00000000000E+00  0.00000000000E+00  0.22728517955E+03  0.22728517955E+03  0.00000000000E+00 0.  1.
          1   -1    0    0  501    0 -0.00000000000E+00 -0.00000000000E+00 -0.42463104849E+03  0.42463104849E+03  0.00000000000E+00 0. -1.
          2    1    1    2  501    0 -0.39599386839E+02  0.52005639903E+02  0.16917952966E+03  0.18136816500E+03  0.00000000000E+00 0.  1.
          1    1    1    2  502    0  0.35843494092E+02 -0.54011960963E+02 -0.33870169565E+03  0.34484907805E+03  0.00000000000E+00 0. -1.
         22    1    1    2    0    0 -0.14219149717E+02  0.24917034132E+01  0.46781094363E+02  0.48957773585E+02  0.00000000000E+00 0. -1.
         22    1    1    2    0    0  0.17975042464E+02 -0.48538235304E+00 -0.74604797307E+02  0.76741211411E+02  0.00000000000E+00 0. -1.
</event>
<event>
 6    1  0.1383644E-005  0.1126791E+03  0.7818608E-02  0.1365395E+00
          2   -1    0    0  502    0  0.00000000000E+00  0.00000000000E+00  0.30642729960E+03  0.30642729960E+03  0.00000000000E+00 0. -1.
          1   -1    0    0  501    0 -0.00000000000E+00 -0.00000000000E+00 -0.60375980095E+03  0.60375980095E+03  0.00000000000E+00 0.  1.
          2    1    1    2  501    0  0.33926989644E+02 -0.76381204271E+02  0.21363644987E+03  0.22940283717E+03  0.00000000000E+00 0. -1.
          1    1    1    2  502    0 -0.46125036880E+02  0.97450663004E+02 -0.53810835863E+03  0.54880302147E+03  0.00000000000E+00 0.  1.
         22    1    1    2    0    0 -0.85635379811E+00 -0.29158644100E+02  0.75659683285E+02  0.81088516710E+02  0.00000000000E+00 0. -1.
         22    1    1    2    0    0  0.13054401034E+02  0.80891853668E+01 -0.48520275879E+02  0.50892725193E+02  0.00000000000E+00 0.  1.
</event>
<event>
 6    1  0.1383644E-005  0.1132928E+03  0.7818608E-02  0.1257868E+00
          2   -1    0    0  502    0  0.00000000000E+00  0.00000000000E+00  0.17215750866E+03  0.17215750866E+03  0.00000000000E+00 0.  1.
          1   -1    0    0  501    0 -0.00000000000E+00 -0.00000000000E+00 -0.31594335277E+03  0.31594335277E+03  0.00000000000E+00 0.  1.
          2    1    1    2  501    0 -0.33668517305E+02  0.78891011390E+02  0.12576166534E+03  0.15222797773E+03  0.00000000000E+00 0.  1.
          1    1    1    2  502    0  0.21304836348E+02 -0.63228171303E+02 -0.12098522681E+03  0.13816339169E+03  0.00000000000E+00 0.  1.
         22    1    1    2    0    0 -0.33041540897E+01  0.19191687579E+02  0.18181888537E+02  0.26642435646E+02  0.00000000000E+00 0. -1.
         22    1    1    2    0    0  0.15667835047E+02 -0.34854527665E+02 -0.16674417117E+03  0.17106705636E+03  0.00000000000E+00 0.  1.
</event>
<event>
 6    1  0.1383644E-005  0.2659850E+02  0.7818608E-02  0.1668973E+00
          2   -1    0    0  502    0  0.00000000000E+00  0.00000000000E+00  0.40585956789E+03  0.40585956789E+03  0.00000000000E+00 0. -1.
          1   -1    0    0  501    0 -0.00000000000E+00 -0.00000000000E+00 -0.53632002456E+02  0.53632002456E+02  0.00000000000E+00 0. -1.
          2    1    1    2  501    0  0.62642427834E+01  0.22725017844E+02  0.29095322452E+03  0.29190657073E+03  0.00000000000E+00 0. -1.
          1    1    1    2  502    0 -0.21009231632E+02 -0.22461089814E+02  0.24249385723E+02  0.39165304510E+02  0.00000000000E+00 0. -1.
         22    1    1    2    0    0  0.15480734508E+02  0.13450459229E+02  0.80372927508E+02  0.82948028732E+02  0.00000000000E+00 0. -1.
         22    1    1    2    0    0 -0.73574565872E+00 -0.13714387259E+02 -0.43347972316E+02  0.45471666381E+02  0.00000000000E+00 0. -1.
</event>
<event>
 6    1  0.1383644E-005  0.1953196E+03  0.7818608E-02  0.1153974E+00
          2   -1    0    0  502    0  0.00000000000E+00  0.00000000000E+00  0.14485275997E+03  0.14485275997E+03  0.00000000000E+00 0.  1.
          1   -1    0    0  501    0 -0.00000000000E+00 -0.00000000000E+00 -0.31875319663E+03  0.31875319663E+03  0.00000000000E+00 0.  1.
          2    1    1    2  501    0 -0.39593124448E+02  0.34328466333E+02 -0.22829719934E+02  0.57159909173E+02  0.00000000000E+00 0.  1.
          1    1    1    2  502    0  0.13424607667E+03 -0.10848521613E+03 -0.15714559770E+03  0.23342191434E+03  0.00000000000E+00 0.  1.
         22    1    1    2    0    0 -0.11510069722E+03  0.69262203679E+02  0.33518836002E+02  0.13845192568E+03  0.00000000000E+00 0.  1.
         22    1    1    2    0    0  0.20447744994E+02  0.48945461175E+01 -0.27443955027E+02  0.34572207400E+02  0.00000000000E+00 0.  1.
</event>
<event>
 6    1  0.1383644E-005  0.7636880E+02  0.7818608E-02  0.1468247E+00
          2   -1    0    0  502    0  0.00000000000E+00  0.00000000000E+00  0.15922432348E+03  0.15922432348E+03  0.00000000000E+00 0. -1.
          1   -1    0    0  501    0 -0.00000000000E+00 -0.00000000000E+00 -0.15198226966E+03  0.15198226966E+03  0.00000000000E+00 0.  1.
          2    1    1    2  501    0 -0.48268533032E+02 -0.53805931779E+01  0.63657595870E+02  0.80069292341E+02  0.00000000000E+00 0. -1.
          1    1    1    2  502    0  0.63134494976E+02  0.13449506809E+02 -0.77610383619E+02  0.10094664598E+03  0.00000000000E+00 0.  1.
         22    1    1    2    0    0 -0.23751485902E+02 -0.33838067703E+01  0.73299856557E+02  0.77126209567E+02  0.00000000000E+00 0. -1.
         22    1    1    2    0    0  0.88855239588E+01 -0.46851068608E+01 -0.52105014987E+02  0.53064445244E+02  0.00000000000E+00 0. -1.
</event>
<event>
 6    1  0.1383644E-005  0.3809187E+02  0.7818608E-02  0.1604741E+00
          2   -1    0    0  502    0  0.00000000000E+00  0.00000000000E+00  0.19506895129E+03  0.19506895129E+03  0.00000000000E+00 0.  1.
          1   -1    0    0  501    0 -0.00000000000E+00 -0.00000000000E+00 -0.74835284686E+02  0.74835284686E+02  0.00000000000E+00 0.  1.
          2    1    1    2  501    0 -0.31485109823E+01 -0.33798077032E+02  0.50935306564E+02  0.61209709910E+02  0.00000000000E+00 0.  1.
          1    1    1    2  502    0  0.19731806580E+01  0.54919187933E+02 -0.16035699138E+02  0.57246434753E+02  0.00000000000E+00 0.  1.
         22    1    1    2    0    0  0.92953468769E+01 -0.27007084225E+02  0.11585389398E+03  0.11932271712E+03  0.00000000000E+00 0.  1.
         22    1    1    2    0    0 -0.81200165526E+01  0.58859733238E+01 -0.30519834798E+02  0.32125374190E+02  0.00000000000E+00 0.  1.
</event>
<event>
 6    1  0.1383644E-005  0.1071311E+03  0.7818608E-02  0.1321111E+00
          2   -1    0    0  502    0  0.00000000000E+00  0.00000000000E+00  0.30842311690E+03  0.30842311690E+03  0.00000000000E+00 0.  1.
          1   -1    0    0  501    0 -0.00000000000E+00 -0.00000000000E+00 -0.21963242973E+03  0.21963242973E+03  0.00000000000E+00 0.  1.
          2    1    1    2  501    0  0.16367862063E+02  0.79167630038E+02  0.16609485296E+03  0.18472390407E+03  0.00000000000E+00 0.  1.
          1    1    1    2  502    0 -0.37488461437E+01 -0.13220430116E+03  0.66334466624E+02  0.14796044254E+03  0.00000000000E+00 0.  1.
         22    1    1    2    0    0 -0.53861857620E+01  0.37968331994E+02 -0.16434545090E+03  0.16876028106E+03  0.00000000000E+00 0. -1.
         22    1    1    2    0    0 -0.72328301575E+01  0.15068339131E+02  0.20706818491E+02  0.26610918967E+02  0.00000000000E+00 0.  1.
</event>
<event>
 6    1  0.1383644E-005  0.2647532E+02  0.7818608E-02  0.1647534E+00
          2   -1    0    0  502    0  0.00000000000E+00  0.00000000000E+00  0.15016269085E+03  0.15016269085E+03  0.00000000000E+00 0.  1.
          1   -1    0    0  501    0 -0.00000000000E+00 -0.00000000000E+00 -0.22843840917E+03  0.22843840917E+03  0.00000000000E+00 0.  1.
          2    1    1    2  501    0  0.14868908162E+01 -0.20347275649E+02  0.10760336151E+03  0.10952034459E+03  0.00000000000E+00 0.  1.
          1    1    1    2  502    0  0.19475908412E+01  0.50246676902E+02 -0.11407191398E+03  0.12466323920E+03  0.00000000000E+00 0.  1.
         22    1    1    2    0    0  0.91133449017E+01 -0.15370755305E+02 -0.10476409663E+03  0.10627713356E+03  0.00000000000E+00 0.  1.
         22    1    1    2    0    0 -0.12547826559E+02 -0.14528645949E+02  0.32956930770E+02  0.38140382671E+02  0.00000000000E+00 0. -1.
</event>
<event>
 6    1  0.1383644E-005  0.1844650E+03  0.7818608E-02  0.1233942E+00
          2   -1    0    0  502    0  0.00000000000E+00  0.00000000000E+00  0.37814391820E+03  0.37814391820E+03  0.00000000000E+00 0.  1.
          1   -1    0    0  501    0 -0.00000000000E+00 -0.00000000000E+00 -0.14073375312E+03  0.14073375312E+03  0.00000000000E+00 0. -1.
          2    1    1    2  501    0 -0.15576890964E+03  0.36574501499E+01  0.15634761737E+03  0.22073039575E+03  0.00000000000E+00 0.  1.
          1    1    1    2  502    0  0.15725906700E+03  0.21521771562E+02  0.35515481380E+02  0.16264977781E+03  0.00000000000E+00 0. -1.
         22    1    1    2    0    0  0.27763196477E+02 -0.28523293486E+02 -0.32941863590E+02  0.51667588745E+02  0.00000000000E+00 0. -1.
         22    1    1    2    0    0 -0.29253353835E+02  0.33440717734E+01  0.78488929914E+02  0.83829909016E+02  0.00000000000E+00 0.  1.
</event>
<event>
 6    1  0.1383644E-005  0.2206404E+03  0.7818608E-02  0.1206145E+00
          2   -1    0    0  502    0  0.00000000000E+00  0.00000000000E+00  0.11444610656E+03  0.11444610656E+03  0.00000000000E+00 0.  1.
          1   -1    0    0  501    0 -0.00000000000E+00 -0.00000000000E+00 -0.50795905199E+03  0.50795905199E+03  0.00000000000E+00 0.  1.
          2    1    1    2  501    0 -0.13859388975E+03 -0.45112307540E+02 -0.68056259916E+02  0.16085720711E+03  0.00000000000E+00 0.  1.
          1    1    1    2  502    0  0.13637058172E+03  0.10203922689E+03 -0.95389175397E+02  0.19521279201E+03  0.00000000000E+00 0.  1.
         22    1    1    2    0    0  0.34914802067E+02  0.22795831393E+02 -0.11679171665E+03  0.12401208978E+03  0.00000000000E+00 0.  1.
         22    1    1    2    0    0 -0.32691494034E+02 -0.79722750746E+02 -0.11327579346E+03  0.14232306965E+03  0.00000000000E+00 0. -1.
</event>
<event>
 6    1  0.1383644E-005  0.6807204E+02  0.7818608E-02  0.1427018E+00
          2   -1    0    0  502    0  0.00000000000E+00  0.00000000000E+00  0.17291483694E+03  0.17291483694E+03  0.00000000000E+00 0. -1.
          1   -1    0    0  501    0 -0.00000000000E+00 -0.00000000000E+00 -0.20159822326E+03  0.20159822326E+03  0.00000000000E+00 0. -1.
          2    1    1    2  501    0 -0.19281258989E+02  0.51994814789E+02  0.10655186956E+03  0.12011881044E+03  0.00000000000E+00 0. -1.
          1    1    1    2  502    0  0.50778318691E+02 -0.65849681164E+02 -0.48954344781E+02  0.96494279786E+02  0.00000000000E+00 0. -1.
         22    1    1    2    0    0 -0.60688636976E+01  0.79915005794E+01  0.33675068182E+02  0.35138375107E+02  0.00000000000E+00 0.  1.
         22    1    1    2    0    0 -0.25428196004E+02  0.58633657959E+01 -0.11995597929E+03  0.12276159488E+03  0.00000000000E+00 0.  1.
</event>
<event>
 6    1  0.1383644E-005  0.6149300E+02  0.7818608E-02  0.1477329E+00
          2   -1    0    0  502    0  0.00000000000E+00  0.00000000000E+00  0.16317858637E+03  0.16317858637E+03  0.00000000000E+00 0.  1.
          1   -1    0    0  501    0 -0.00000000000E+00 -0.00000000000E+00 -0.79135635702E+02  0.79135635702E+02  0.00000000000E+00 0.  1.
          2    1    1    2  501    0  0.25635383784E+02  0.10109608818E+02  0.44715483014E+02  0.52524770475E+02  0.00000000000E+00 0.  1.
          1    1    1    2  502    0 -0.19379561937E+02 -0.40157623634E+02 -0.20538655323E+02  0.49092143152E+02  0.00000000000E+00 0.  1.
         22    1    1    2    0    0 -0.16777859015E+02 -0.20448301485E+01 -0.35613257526E+02  0.39420578319E+02  0.00000000000E+00 0.  1.
         22    1    1    2    0    0  0.10522037168E+02  0.32092844964E+02  0.95479380498E+02  0.10127673012E+03  0.00000000000E+00 0.  1.
</event>
<event>
 6    1  0.1383644E-005  0.1409856E+03  0.7818608E-02  0.1256823E+00
          2   -1    0    0  502    0  0.00000000000E+00  0.00000000000E+00  0.81568853023E+03  0.81568853023E+03  0.00000000000E+00 0.  1.
          1   -1    0    0  501    0 -0.00000000000E+00 -0.00000000000E+00 -0.68888791285E+02  0.68888791285E+02  0.00000000000E+00 0.  1.
          2    1    1    2  501    0 -0.16069717828E+02 -0.91555621813E+02  0.46941374671E+03  0.47852892631E+03  0.00000000000E+00 0.  1.
          1    1    1    2  502    0  0.14600538633E+02  0.12080279609E+03  0.25048979006E+03  0.27848092609E+03  0.00000000000E+00 0.  1.
         22    1    1    2    0    0  0.17750495493E+02 -0.53372904351E+02 -0.29934825049E+02  0.63716879709E+02  0.00000000000E+00 0.  1.
         22    1    1    2    0    0 -0.16281316299E+02  0.24125730071E+02  0.56831027233E+02  0.63850589412E+02  0.00000000000E+00 0.  1.
</event>
<event>
 6    1  0.1383644E-005  0.7520962E+02  0.7818608E-02  0.1346686E+00
          2   -1    0    0  502    0  0.00000000000E+00  0.00000000000E+00  0.51793017440E+03  0.51793017440E+03  0.00000000000E+00 0. -1.
          1   -1    0    0  501    0 -0.00000000000E+00 -0.00000000000E+00 -0.58440599612E+02  0.58440599612E+02  0.00000000000E+00 0.  1.
          2    1    1    2  501    0  0.26097364551E+02  0.38277349995E+02  0.38156288769E+03  0.38436501561E+03  0.00000000000E+00 0. -1.
          1    1    1    2  502    0 -0.27919704443E+02 -0.30186744058E+02 -0.27086745112E+01  0.41207843072E+02  0.00000000000E+00 0.  1.
         22    1    1    2    0    0  0.12942014675E+02  0.18323915584E+02  0.10851811179E+03  0.11081264464E+03  0.00000000000E+00 0. -1.
         22    1    1    2    0    0 -0.11119674783E+02 -0.26414521520E+02 -0.27882750183E+02  0.39985270691E+02  0.00000000000E+00 0.  1.
</event>
<event>
 6    1  0.1383644E-005  0.1046957E+03  0.7818608E-02  0.1369803E+00
          2   -1    0    0  502    0  0.00000000000E+00  0.00000000000E+00  0.46175101154E+02  0.46175101154E+02  0.00000000000E+00 0. -1.
          1   -1    0    0  501    0 -0.00000000000E+00 -0.00000000000E+00 -0.25980042088E+04  0.25980042088E+04  0.00000000000E+00 0. -1.
          2    1    1    2  501    0  0.19840575900E+02 -0.28017397917E+02 -0.44555958171E+02  0.56248168384E+02  0.00000000000E+00 0. -1.
          1    1    1    2  502    0  0.13468092150E+00  0.50807791182E+02 -0.24369600893E+04  0.24374896773E+04  0.00000000000E+00 0. -1.
         22    1    1    2    0    0 -0.36681757940E+02 -0.16666766010E+02  0.28939398996E+02  0.49606665570E+02  0.00000000000E+00 0. -1.
         22    1    1    2    0    0  0.16706501119E+02 -0.61236272552E+01 -0.99252459120E+02  0.10083479871E+03  0.00000000000E+00 0. -1.
</event>
<event>
 6    1  0.1383644E-005  0.8417847E+02  0.7818608E-02  0.1437269E+00
          2   -1    0    0  502    0  0.00000000000E+00  0.00000000000E+00  0.77247860837E+03  0.77247860837E+03  0.00000000000E+00 0. -1.
          1   -1    0    0  501    0 -0.00000000000E+00 -0.00000000000E+00 -0.31383468882E+02  0.31383468882E+02  0.00000000000E+00 0. -1.
          2    1    1    2  501    0 -0.16461777012E+02  0.48347564896E+02  0.27621787452E+03  0.28089996678E+03  0.00000000000E+00 0. -1.
          1    1    1    2  502    0  0.22170189013E+02 -0.24646391886E+02  0.34145949482E+03  0.34306493338E+03  0.00000000000E+00 0. -1.
         22    1    1    2    0    0 -0.15542584064E+02 -0.30256775705E+02  0.14840626698E+03  0.15225460412E+03  0.00000000000E+00 0. -1.
         22    1    1    2    0    0  0.98341720626E+01  0.65556026948E+01 -0.24988496830E+02  0.27642572975E+02  0.00000000000E+00 0. -1.
</event>
<event>
 6    1  0.1383644E-005  0.1010348E+03  0.7818608E-02  0.1333141E+00
          2   -1    0    0  502    0  0.00000000000E+00  0.00000000000E+00  0.19818662856E+03  0.19818662856E+03  0.00000000000E+00 0. -1.
          1   -1    0    0  501    0 -0.00000000000E+00 -0.00000000000E+00 -0.14770437167E+03  0.14770437167E+03  0.00000000000E+00 0. -1.
          2    1    1    2  501    0  0.65260822947E+02  0.20330724155E+02  0.46310693657E+02  0.82565087679E+02  0.00000000000E+00 0. -1.
          1    1    1    2  502    0 -0.90893726729E+02 -0.58976727716E+02  0.54700856350E+02  0.12137589405E+03  0.00000000000E+00 0. -1.
         22    1    1    2    0    0  0.24907930626E+02  0.16915399684E+01  0.38311083810E+02  0.45727513143E+02  0.00000000000E+00 0.  1.
         22    1    1    2    0    0  0.72497315619E+00  0.36954463592E+02 -0.88840376924E+02  0.96222505359E+02  0.00000000000E+00 0. -1.
</event>
<event>
 6    1  0.1383644E-005  0.6544949E+02  0.7818608E-02  0.1449976E+00
          2   -1    0    0  502    0  0.00000000000E+00  0.00000000000E+00  0.82301269861E+03  0.82301269861E+03  0.00000000000E+00 0. -1.
          1   -1    0    0  501    0 -0.00000000000E+00 -0.00000000000E+00 -0.22754595148E+02  0.22754595148E+02  0.00000000000E+00 0. -1.
          2    1    1    2  501    0 -0.36939042629E+02 -0.12094233924E+02  0.18311806883E+03  0.18719773101E+03  0.00000000000E+00 0. -1.
          1    1    1    2  502    0  0.55255199031E+02  0.21258118540E+01  0.42900942282E+03  0.43255836712E+03  0.00000000000E+00 0. -1.
         22    1    1    2    0    0 -0.39132148319E+02  0.98553530279E+01  0.19863640031E+03  0.20269403678E+03  0.00000000000E+00 0. -1.
         22    1    1    2    0    0  0.20815991918E+02  0.11306904256E+00 -0.10505788510E+02  0.23317158840E+02  0.00000000000E+00 0. -1.
</event>
<event>
 6    1  0.1383644E-005  0.7768600E+02  0.7818608E-02  0.1427666E+00
          2   -1    0    0  502    0  0.00000000000E+00  0.00000000000E+00  0.85222587315E+02  0.85222587315E+02  0.00000000000E+00 0.  1.
          1   -1    0    0  501    0 -0.00000000000E+00 -0.00000000000E+00 -0.99842874892E+03  0.99842874892E+03  0.00000000000E+00 0.  1.
          2    1    1    2  501    0  0.33091482760E+02  0.84568982833E+02  0.37734253106E+02  0.98340393258E+02  0.00000000000E+00 0.  1.
          1    1    1    2  502    0  0.19130462932E+02 -0.71636939375E+02 -0.65974375258E+03  0.66389731493E+03  0.00000000000E+00 0.  1.
         22    1    1    2    0    0 -0.66472355401E+02 -0.87548014896E+01 -0.29773300296E+03  0.30518873117E+03  0.00000000000E+00 0. -1.
         22    1    1    2    0    0  0.14250409709E+02 -0.41772419679E+01  0.65363408316E+01  0.16224896881E+02  0.00000000000E+00 0.  1.
</event>
<event>
 6    1  0.1383644E-005  0.5208319E+02  0.7818608E-02  0.1462736E+00
          2   -1    0    0  502    0  0.00000000000E+00  0.00000000000E+00  0.24451331067E+03  0.24451331067E+03  0.00000000000E+00 0.  1.
          1   -1    0    0  501    0 -0.00000000000E+00 -0.00000000000E+00 -0.79870994471E+02  0.79870994471E+02  0.00000000000E+00 0.  1.
          2    1    1    2  501    0  0.41801634984E+02  0.97536281550E+01  0.16038975991E+03  0.16603428873E+03  0.00000000000E+00 0.  1.
          1    1    1    2  502    0 -0.21693656587E+02 -0.20789596513E+02 -0.13107708986E+02  0.32781612134E+02  0.00000000000E+00 0.  1.
         22    1    1    2    0    0  0.12383311883E+02  0.89794437697E-01  0.65392567111E+02  0.66554806811E+02  0.00000000000E+00 0.  1.
         22    1    1    2    0    0 -0.32491290280E+02  0.10946173920E+02 -0.48032301831E+02  0.59013597473E+02  0.00000000000E+00 0.  1.
</event>
<event>
 6    1  0.1383644E-005  0.4943432E+02  0.7818608E-02  0.1470313E+00
          2   -1    0    0  502    0  0.00000000000E+00  0.00000000000E+00  0.62970901062E+02  0.62970901062E+02  0.00000000000E+00 0. -1.
          1   -1    0    0  501    0 -0.00000000000E+00 -0.00000000000E+00 -0.22783497788E+03  0.22783497788E+03  0.00000000000E+00 0.  1.
          2    1    1    2  501    0  0.70887779937E+01  0.26077200850E+02  0.26056922697E+02  0.37539770884E+02  0.00000000000E+00 0. -1.
          1    1    1    2  502    0 -0.19053364891E+02 -0.75761714674E+01 -0.96732508091E+02  0.98881784011E+02  0.00000000000E+00 0.  1.
         22    1    1    2    0    0  0.19734265928E+02  0.16603131631E+02  0.21287627203E+02  0.33440518890E+02  0.00000000000E+00 0. -1.
         22    1    1    2    0    0 -0.77696790313E+01 -0.35104161014E+02 -0.11547611862E+03  0.12094380515E+03  0.00000000000E+00 0.  1.
</event>
<event>
 6    1  0.1383644E-005  0.1737543E+03  0.7818608E-02  0.1313899E+00
          2   -1    0    0  502    0  0.00000000000E+00  0.00000000000E+00  0.19440315453E+04  0.19440315453E+04  0.00000000000E+00 0. -1.
          1   -1    0    0  501    0 -0.00000000000E+00 -0.00000000000E+00 -0.35359025628E+02  0.35359025628E+02  0.00000000000E+00 0. -1.
          2    1    1    2  501    0  0.15237662376E+03  0.96352432880E+02  0.14415792899E+04  0.14528087541E+04  0.00000000000E+00 0. -1.
          1    1    1    2  502    0 -0.27287196357E+02  0.16996657542E+02  0.60503257992E+02  0.68513660537E+02  0.00000000000E+00 0. -1.
         22    1    1    2    0    0 -0.81729909369E+01 -0.61522576328E+01 -0.87551248629E+01  0.13464778728E+02  0.00000000000E+00 0. -1.
         22    1    1    2    0    0 -0.11691643647E+03 -0.10719683279E+03  0.41534509667E+03  0.44460337764E+03  0.00000000000E+00 0. -1.
</event>
<event>
 6    1  0.1383644E-005  0.1160754E+03  0.7818608E-02  0.1363797E+00
          2   -1    0    0  502    0  0.00000000000E+00  0.00000000000E+00  0.53122837119E+03  0.53122837119E+03  0.00000000000E+00 0. -1.
          1   -1    0    0  501    0 -0.00000000000E+00 -0.00000000000E+00 -0.27539068278E+02  0.27539068278E+02  0.00000000000E+00 0. -1.
          2    1    1    2  501    0 -0.18666166235E+02  0.16500265575E+02  0.19334899764E+02  0.31536056742E+02  0.00000000000E+00 0. -1.
          1    1    1    2  502    0  0.71627853848E+02  0.97372987311E+01  0.14073045758E+03  0.15821006960E+03  0.00000000000E+00 0. -1.
         22    1    1    2    0    0 -0.48872931977E+02 -0.40074499603E+02  0.34819622871E+03  0.35388577633E+03  0.00000000000E+00 0. -1.
         22    1    1    2    0    0 -0.40887556363E+01  0.13836935297E+02 -0.45722831392E+01  0.15135536798E+02  0.00000000000E+00 0. -1.
</event>
<event>
 6    1  0.1383644E-005  0.5970021E+02  0.7818608E-02  0.1423976E+00
          2   -1    0    0  502    0  0.00000000000E+00  0.00000000000E+00  0.15803468183E+03  0.15803468183E+03  0.00000000000E+00 0. -1.
          1   -1    0    0  501    0 -0.00000000000E+00 -0.00000000000E+00 -0.19370264392E+03  0.19370264392E+03  0.00000000000E+00 0. -1.
          2    1    1    2  501    0  0.63689362429E+02  0.49563992262E+01 -0.58767977441E+01  0.64151675985E+02  0.00000000000E+00 0. -1.
          1    1    1    2  502    0 -0.37428698579E+02 -0.14021298258E+01  0.98304761488E+02  0.10519838201E+03  0.00000000000E+00 0. -1.
         22    1    1    2    0    0 -0.40518252417E+02 -0.60336785321E+00 -0.15039343081E+03  0.15575710855E+03  0.00000000000E+00 0. -1.
         22    1    1    2    0    0  0.14257588567E+02 -0.29509015472E+01  0.22297504975E+02  0.26630159215E+02  0.00000000000E+00 0. -1.
</event>
<event>
 6    1  0.1383644E-005  0.1586944E+03  0.7818608E-02  0.1303182E+00
          2   -1    0    0  502    0  0.00000000000E+00  0.00000000000E+00  0.50499288538E+03  0.50499288538E+03  0.00000000000E+00 0. -1.
          1   -1    0    0  501    0 -0.00000000000E+00 -0.00000000000E+00 -0.58359700694E+02  0.58359700694E+02  0.00000000000E+00 0. -1.
          2    1    1    2  501    0 -0.24972631878E+02 -0.18423292073E+01  0.23114660121E+02  0.34078057931E+02  0.00000000000E+00 0. -1.
          1    1    1    2  502    0  0.92552656024E+02 -0.95633004550E+02  0.12294193246E+03  0.18118053001E+03  0.00000000000E+00 0. -1.
         22    1    1    2    0    0 -0.12158541915E+01 -0.16271999663E+02 -0.35325839174E+01  0.16695371322E+02  0.00000000000E+00 0.  1.
         22    1    1    2    0    0 -0.66364169954E+02  0.11374733342E+03  0.30410917603E+03  0.33139862682E+03  0.00000000000E+00 0. -1.
</event>
<event>
 6    1  0.1383644E-005  0.5192776E+02  0.7818608E-02  0.1510589E+00
          2   -1    0    0  502    0  0.00000000000E+00  0.00000000000E+00  0.17321309152E+03  0.17321309152E+03  0.00000000000E+00 0.  1.
          1   -1    0    0  501    0 -0.00000000000E+00 -0.00000000000E+00 -0.12904259782E+03  0.12904259782E+03  0.00000000000E+00 0.  1.
          2    1    1    2  501    0 -0.32730259852E+02  0.13624009033E+02  0.11964611032E+03  0.12478812141E+03  0.00000000000E+00 0.  1.
          1    1    1    2  502    0  0.30927162496E+02 -0.15813783854E+02 -0.37760908543E+02  0.51307420066E+02  0.00000000000E+00 0.  1.
         22    1    1    2    0    0 -0.13757983228E+02  0.10629356721E+02  0.41498377653E+02  0.44993118081E+02  0.00000000000E+00 0.  1.
         22    1    1    2    0    0  0.15561080584E+02 -0.84395819007E+01 -0.79213085731E+02  0.81167029775E+02  0.00000000000E+00 0.  1.
</event>
<event>
 6    1  0.1383644E-005  0.1929244E+03  0.7818608E-02  0.1287157E+00
          2   -1    0    0  502    0  0.00000000000E+00  0.00000000000E+00  0.84378572953E+03  0.84378572953E+03  0.00000000000E+00 0. -1.
          1   -1    0    0  501    0 -0.00000000000E+00 -0.00000000000E+00 -0.52858558355E+03  0.52858558355E+03  0.00000000000E+00 0.  1.
          2    1    1    2  501    0 -0.14737033844E+03 -0.27149300940E+02  0.67822072783E+03  0.69457789833E+03  0.00000000000E+00 0. -1.
          1    1    1    2  502    0  0.17561262234E+03  0.52186514744E+02 -0.47250392250E+03  0.50677725110E+03  0.00000000000E+00 0.  1.
         22    1    1    2    0    0 -0.66042638204E+01  0.10294966469E+02 -0.26325467110E+02  0.29028139000E+02  0.00000000000E+00 0. -1.
         22    1    1    2    0    0 -0.21638020085E+02 -0.35332180274E+02  0.13580880777E+03  0.14198802465E+03  0.00000000000E+00 0.  1.
</event>
<event>
 6    1  0.1383644E-005  0.5895536E+02  0.7818608E-02  0.1433833E+00
          2   -1    0    0  502    0  0.00000000000E+00  0.00000000000E+00  0.14490118638E+03  0.14490118638E+03  0.00000000000E+00 0.  1.
          1   -1    0    0  501    0 -0.00000000000E+00 -0.00000000000E+00 -0.99773762089E+02  0.99773762089E+02  0.00000000000E+00 0.  1.
          2    1    1    2  501    0  0.97481643081E+01 -0.42411577503E+02  0.55278761377E+02  0.70352754552E+02  0.00000000000E+00 0.  1.
          1    1    1    2  502    0 -0.99995229642E+01  0.33470568416E+02  0.22467107177E+02  0.41533604641E+02  0.00000000000E+00 0.  1.
         22    1    1    2    0    0 -0.29447918389E+02  0.21102949183E+02 -0.72828229702E+02  0.81341658473E+02  0.00000000000E+00 0.  1.
         22    1    1    2    0    0  0.29699277045E+02 -0.12161940095E+02  0.40209785438E+02  0.51446930802E+02  0.00000000000E+00 0.  1.
</event>
<event>
 6    1  0.1383644E-005  0.1087885E+03  0.7818608E-02  0.1360828E+00
          2   -1    0    0  502    0  0.00000000000E+00  0.00000000000E+00  0.34871083205E+03  0.34871083205E+03  0.00000000000E+00 0. -1.
          1   -1    0    0  501    0 -0.00000000000E+00 -0.00000000000E+00 -0.48192224293E+02  0.48192224293E+02  0.00000000000E+00 0. -1.
          2    1    1    2  501    0 -0.12964196350E+02  0.21731400439E+02  0.34957639684E+02  0.43155077620E+02  0.00000000000E+00 0. -1.
          1    1    1    2  502    0  0.85064365355E+02 -0.25266523739E+02  0.94615080998E+02  0.12971644856E+03  0.00000000000E+00 0. -1.
         22    1    1    2    0    0 -0.89644864977E+02  0.91450983893E+01  0.18161795713E+03  0.20274347584E+03  0.00000000000E+00 0. -1.
         22    1    1    2    0    0  0.17544695973E+02 -0.56099750890E+01 -0.10672070064E+02  0.21288054320E+02  0.00000000000E+00 0. -1.
</event>
<event>
 6    1  0.1383644E-005  0.3843241E+02  0.7818608E-02  0.1573731E+00
          2   -1    0    0  502    0  0.00000000000E+00  0.00000000000E+00  0.20357410155E+03  0.20357410155E+03  0.00000000000E+00 0. -1.
          1   -1    0    0  501    0 -0.00000000000E+00 -0.00000000000E+00 -0.21728785369E+03  0.21728785369E+03  0.00000000000E+00 0.  1.
          2    1    1    2  501    0  0.79683999958E+01 -0.26934178566E+02  0.52085212927E+01  0.28567010126E+02  0.00000000000E+00 0. -1.
          1    1    1    2  502    0  0.21393160902E+02 -0.21918504673E+02 -0.17839282594E+03  0.18100300696E+03  0.00000000000E+00 0.  1.
         22    1    1    2    0    0 -0.13378818138E+02  0.38155423082E+02  0.17922055417E+03  0.18372489249E+03  0.00000000000E+00 0. -1.
         22    1    1    2    0    0 -0.15982742759E+02  0.10697260156E+02 -0.19750001657E+02  0.27567045660E+02  0.00000000000E+00 0.  1.
</event>
<event>
 6    1  0.1383644E-005  0.2395229E+03  0.7818608E-02  0.1202176E+00
          2   -1    0    0  502    0  0.00000000000E+00  0.00000000000E+00  0.41429112345E+03  0.41429112345E+03  0.00000000000E+00 0. -1.
          1   -1    0    0  501    0 -0.00000000000E+00 -0.00000000000E+00 -0.45129988081E+03  0.45129988081E+03  0.00000000000E+00 0.  1.
          2    1    1    2  501    0 -0.38714938724E+02  0.21225979970E+03  0.28287137649E+03  0.35576577223E+03  0.00000000000E+00 0. -1.
          1    1    1    2  502    0  0.64523908704E+02 -0.21342159752E+03 -0.30981888986E+03  0.38170650714E+03  0.00000000000E+00 0.  1.
         22    1    1    2    0    0 -0.27834232655E+02 -0.22043658719E+02 -0.61858833953E+02  0.71324489029E+02  0.00000000000E+00 0. -1.
         22    1    1    2    0    0  0.20252626755E+01  0.23205456534E+02  0.51797589957E+02  0.56794235863E+02  0.00000000000E+00 0.  1.
</event>
<event>
 6    1  0.1383644E-005  0.1817731E+03  0.7818608E-02  0.1213004E+00
          2   -1    0    0  502    0  0.00000000000E+00  0.00000000000E+00  0.10212175477E+04  0.10212175477E+04  0.00000000000E+00 0.  1.
          1   -1    0    0  501    0 -0.00000000000E+00 -0.00000000000E+00 -0.25600249659E+03  0.25600249659E+03  0.00000000000E+00 0.  1.
          2    1    1    2  501    0 -0.11593455706E+03 -0.41356991453E+02  0.82716807147E+03  0.83627641406E+03  0.00000000000E+00 0.  1.
          1    1    1    2  502    0  0.15052821012E+03  0.77052840713E+02 -0.18936218636E+03  0.25387776572E+03  0.00000000000E+00 0.  1.
         22    1    1    2    0    0 -0.42882797290E+02 -0.48053105991E+02  0.14814742490E+03  0.16154161942E+03  0.00000000000E+00 0. -1.
         22    1    1    2    0    0  0.82891442344E+01  0.12357256730E+02 -0.20738258893E+02  0.25524245100E+02  0.00000000000E+00 0.  1.
</event>
<event>
 6    1  0.1383644E-005  0.7851595E+02  0.7818608E-02  0.1414282E+00
          2   -1    0    0  502    0  0.00000000000E+00  0.00000000000E+00  0.10694891094E+04  0.10694891094E+04  0.00000000000E+00 0. -1.
          1   -1    0    0  501    0 -0.00000000000E+00 -0.00000000000E+00 -0.29632748581E+02  0.29632748581E+02  0.00000000000E+00 0. -1.
          2    1    1    2  501    0 -0.69082237226E+02  0.41980928746E+02  0.46023090910E+03  0.46727641025E+03  0.00000000000E+00 0. -1.
          1    1    1    2  502    0  0.89401993223E+02  0.33714101270E+02  0.16197592873E+03  0.18805732771E+03  0.00000000000E+00 0. -1.
         22    1    1    2    0    0 -0.20434850814E+02  0.42892809462E+01  0.25296252597E+01  0.21032832971E+02  0.00000000000E+00 0.  1.
         22    1    1    2    0    0  0.11509481721E+00 -0.79984310962E+02  0.41511989777E+03  0.42275528710E+03  0.00000000000E+00 0. -1.
</event>
<event>
 6    1  0.1383644E-005  0.9838928E+02  0.7818608E-02  0.1405639E+00
          2   -1    0    0  502    0  0.00000000000E+00  0.00000000000E+00  0.62693588489E+03  0.62693588489E+03  0.00000000000E+00 0. -1.
          1   -1    0    0  501    0 -0.00000000000E+00 -0.00000000000E+00 -0.31027925369E+02  0.31027925369E+02  0.00000000000E+00 0. -1.
          2    1    1    2  501    0 -0.25125954599E+02 -0.11570639184E+02  0.61196661388E+02  0.67158206130E+02  0.00000000000E+00 0. -1.
          1    1    1    2  502    0  0.91247009026E+02  0.35099827462E+02  0.30746811313E+03  0.32263703311E+03  0.00000000000E+00 0. -1.
         22    1    1    2    0    0 -0.59035492670E+02 -0.33249095315E+02  0.24073814678E+03  0.25009107751E+03  0.00000000000E+00 0. -1.
         22    1    1    2    0    0 -0.70855617570E+01  0.97199070367E+01 -0.13494961777E+02  0.18077493509E+02  0.00000000000E+00 0. -1.
</event>
<event>
 6    1  0.1383644E-005  0.2388620E+03  0.7818608E-02  0.1160513E+00
          2   -1    0    0  502    0  0.00000000000E+00  0.00000000000E+00  0.26215919594E+03  0.26215919594E+03  0.00000000000E+00 0. -1.
          1   -1    0    0  501    0 -0.00000000000E+00 -0.00000000000E+00 -0.44061013133E+03  0.44061013133E+03  0.00000000000E+00 0. -1.
          2    1    1    2  501    0 -0.94639554795E+02 -0.38897111167E+02 -0.20316276298E+03  0.22747469936E+03  0.00000000000E+00 0. -1.
          1    1    1    2  502    0  0.23269781059E+03 -0.52289889651E+01  0.11688002031E+03  0.26045451143E+03  0.00000000000E+00 0. -1.
         22    1    1    2    0    0 -0.92853786465E+02 -0.35038569934E+02 -0.68709120837E+02  0.12070820324E+03  0.00000000000E+00 0. -1.
         22    1    1    2    0    0 -0.45204469326E+02  0.79164670066E+02 -0.23459071881E+02  0.94131913225E+02  0.00000000000E+00 0. -1.
</event>
<event>
 6    1  0.1383644E-005  0.6924427E+02  0.7818608E-02  0.1432405E+00
          2   -1    0    0  502    0  0.00000000000E+00  0.00000000000E+00  0.39315892912E+03  0.39315892912E+03  0.00000000000E+00 0.  1.
          1   -1    0    0  501    0 -0.00000000000E+00 -0.00000000000E+00 -0.50537674733E+02  0.50537674733E+02  0.00000000000E+00 0.  1.
          2    1    1    2  501    0 -0.41043065162E+02  0.18764373009E+02  0.22271464603E+03  0.22724094800E+03  0.00000000000E+00 0.  1.
          1    1    1    2  502    0  0.46843123046E+02 -0.27241399855E+02  0.46535290588E+02  0.71427622898E+02  0.00000000000E+00 0.  1.
         22    1    1    2    0    0 -0.27940024071E+02  0.28362344218E+01  0.10348511542E+03  0.10722806668E+03  0.00000000000E+00 0.  1.
         22    1    1    2    0    0  0.22139966187E+02  0.56407924238E+01 -0.30113797645E+02  0.37799966277E+02  0.00000000000E+00 0.  1.
</event>
<event>
 6    1  0.1383644E-005  0.2167933E+03  0.7818608E-02  0.1225931E+00
          2   -1    0    0  502    0  0.00000000000E+00  0.00000000000E+00  0.71355271702E+03  0.71355271702E+03  0.00000000000E+00 0. -1.
          1   -1    0    0  501    0 -0.00000000000E+00 -0.00000000000E+00 -0.11990032187E+03  0.11990032187E+03  0.00000000000E+00 0. -1.
          2    1    1    2  501    0 -0.12156931577E+03 -0.45389859780E+02  0.21190647724E+02  0.13148528989E+03  0.00000000000E+00 0. -1.
          1    1    1    2  502    0  0.17747093786E+03  0.15647661496E+02  0.52177505228E+03  0.55135287092E+03  0.00000000000E+00 0. -1.
         22    1    1    2    0    0 -0.72629717238E+02  0.53348322012E+02  0.71448229294E+02  0.11500421191E+03  0.00000000000E+00 0. -1.
         22    1    1    2    0    0  0.16728095150E+02 -0.23606123728E+02 -0.20761534148E+02  0.35610666169E+02  0.00000000000E+00 0.  1.
</event>
<event>
 6    1  0.1383644E-005  0.8332633E+02  0.7818608E-02  0.1334509E+00
          2   -1    0    0  502    0  0.00000000000E+00  0.00000000000E+00  0.31817950756E+02  0.31817950756E+02  0.00000000000E+00 0.  1.
          1   -1    0    0  501    0 -0.00000000000E+00 -0.00000000000E+00 -0.15050771303E+04  0.15050771303E+04  0.00000000000E+00 0.  1.
          2    1    1    2  501    0 -0.21003097420E+02 -0.10795978054E+02 -0.10218531998E+02  0.25731335752E+02  0.00000000000E+00 0.  1.
          1    1    1    2  502    0  0.42249766880E+01  0.87126114858E+02 -0.12388399304E+04  0.12419070753E+04  0.00000000000E+00 0.  1.
         22    1    1    2    0    0  0.56554917320E+02 -0.30662343300E+02 -0.18799466910E+03  0.19869734166E+03  0.00000000000E+00 0. -1.
         22    1    1    2    0    0 -0.39776796587E+02 -0.45667793504E+02 -0.36206047987E+02  0.70559328378E+02  0.00000000000E+00 0.  1.
</event>
<event>
 6    1  0.1383644E-005  0.1567036E+03  0.7818608E-02  0.1257352E+00
          2   -1    0    0  502    0  0.00000000000E+00  0.00000000000E+00  0.42904458504E+03  0.42904458504E+03  0.00000000000E+00 0. -1.
          1   -1    0    0  501    0 -0.00000000000E+00 -0.00000000000E+00 -0.17570697317E+03  0.17570697317E+03  0.00000000000E+00 0. -1.
          2    1    1    2  501    0  0.17145572750E+02  0.11468908056E+03  0.26457079847E+03  0.28886893787E+03  0.00000000000E+00 0. -1.
          1    1    1    2  502    0 -0.85341947818E+02 -0.14876601794E+03 -0.16536655390E+02  0.17230216807E+03  0.00000000000E+00 0. -1.
         22    1    1    2    0    0  0.30207933711E+02  0.19930488423E+02  0.63244395814E+02  0.72866983125E+02  0.00000000000E+00 0. -1.
         22    1    1    2    0    0  0.37988441357E+02  0.14146448955E+02 -0.57940927021E+02  0.70713469147E+02  0.00000000000E+00 0. -1.
</event>
<event>
 6    1  0.1383644E-005  0.2351286E+03  0.7818608E-02  0.1227312E+00
          2   -1    0    0  502    0  0.00000000000E+00  0.00000000000E+00  0.21311319277E+04  0.21311319277E+04  0.00000000000E+00 0. -1.
          1   -1    0    0  501    0 -0.00000000000E+00 -0.00000000000E+00 -0.54290829317E+02  0.54290829317E+02  0.00000000000E+00 0. -1.
          2    1    1    2  501    0 -0.28533397647E+02 -0.14106364806E+03  0.16577617401E+03  0.21953324909E+03  0.00000000000E+00 0. -1.
          1    1    1    2  502    0  0.54410765519E+02  0.21003139401E+03  0.16834268555E+04  0.16973507874E+04  0.00000000000E+00 0. -1.
         22    1    1    2    0    0 -0.79475786671E+01 -0.81780158224E+02  0.23195935705E+03  0.24608190021E+03  0.00000000000E+00 0.  1.
         22    1    1    2    0    0 -0.17929789205E+02  0.12812412284E+02 -0.43212880890E+01  0.22456820349E+02  0.00000000000E+00 0.  1.
</event>
<event>
 6    1  0.1383644E-005  0.5742703E+02  0.7818608E-02  0.1497102E+00
          2   -1    0    0  502    0  0.00000000000E+00  0.00000000000E+00  0.18843833058E+03  0.18843833058E+03  0.00000000000E+00 0.  1.
          1   -1    0    0  501    0 -0.00000000000E+00 -0.00000000000E+00 -0.60749360832E+03  0.60749360832E+03  0.00000000000E+00 0. -1.
          2    1    1    2  501    0  0.81671651244E+01 -0.18613991889E+02  0.41748072089E+02  0.46433660241E+02  0.00000000000E+00 0.  1.
          1    1    1    2  502    0 -0.31887707385E+02  0.50106593260E+02 -0.57339567572E+03  0.57646343987E+03  0.00000000000E+00 0. -1.
         22    1    1    2    0    0 -0.62606570085E+01 -0.14439394989E+02 -0.25902851355E+02  0.30309233942E+02  0.00000000000E+00 0.  1.
         22    1    1    2    0    0  0.29981199269E+02 -0.17053206382E+02  0.13849517725E+03  0.14272560484E+03  0.00000000000E+00 0.  1.
</event>
<event>
 6    1  0.1383644E-005  0.8728305E+02  0.7818608E-02  0.1435408E+00
          2   -1    0    0  502    0  0.00000000000E+00  0.00000000000E+00  0.22403862099E+03  0.22403862099E+03  0.00000000000E+00 0. -1.
          1   -1    0    0  501    0 -0.00000000000E+00 -0.00000000000E+00 -0.93959065400E+02  0.93959065400E+02  0.00000000000E+00 0.  1.
          2    1    1    2  501    0  0.20978435635E+02  0.32090040554E+02  0.60313010655E+02  0.71466948436E+02  0.00000000000E+00 0. -1.
          1    1    1    2  502    0  0.33235698308E+02 -0.30250289827E+02 -0.46792122786E+02  0.64878304783E+02  0.00000000000E+00 0.  1.
         22    1    1    2    0    0 -0.44096028064E+02  0.22214225604E+01  0.14479888261E+03  0.15138068178E+03  0.00000000000E+00 0. -1.
         22    1    1    2    0    0 -0.10118105879E+02 -0.40611732873E+01 -0.28240214895E+02  0.30271751392E+02  0.00000000000E+00 0. -1.
</event>
<event>
 6    1  0.1383644E-005  0.7330298E+02  0.7818608E-02  0.1352090E+00
          2   -1    0    0  502    0  0.00000000000E+00  0.00000000000E+00  0.10535445304E+03  0.10535445304E+03  0.00000000000E+00 0. -1.
          1   -1    0    0  501    0 -0.00000000000E+00 -0.00000000000E+00 -0.12221335088E+03  0.12221335088E+03  0.00000000000E+00 0. -1.
          2    1    1    2  501    0 -0.48431916712E+00  0.37639846089E+02  0.31697211851E+02  0.49210830290E+02  0.00000000000E+00 0. -1.
          1    1    1    2  502    0  0.29768585899E+01 -0.39054642055E+02 -0.30870223801E+02  0.49870807801E+02  0.00000000000E+00 0. -1.
         22    1    1    2    0    0  0.11757663848E+02 -0.25188236790E+02 -0.65946885862E+02  0.71565925458E+02  0.00000000000E+00 0. -1.
         22    1    1    2    0    0 -0.14250203270E+02  0.26603032756E+02  0.48260999973E+02  0.56920240367E+02  0.00000000000E+00 0.  1.
</event>
<event>
 6    1  0.1383644E-005  0.1079362E+03  0.7818608E-02  0.1323887E+00
          2   -1    0    0  502    0  0.00000000000E+00  0.00000000000E+00  0.23395620049E+03  0.23395620049E+03  0.00000000000E+00 0.  1.
          1   -1    0    0  501    0 -0.00000000000E+00 -0.00000000000E+00 -0.37139598940E+03  0.37139598940E+03  0.00000000000E+00 0.  1.
          2    1    1    2  501    0 -0.51305648027E+02 -0.30034253063E+02  0.12563385918E+03  0.13898990053E+03  0.00000000000E+00 0.  1.
          1    1    1    2  502    0  0.10861967529E+03  0.68106327535E+02 -0.29225123576E+03  0.31913553627E+03  0.00000000000E+00 0.  1.
         22    1    1    2    0    0 -0.46696746797E+02 -0.39986520869E+01  0.75430706103E+02  0.88805218333E+02  0.00000000000E+00 0. -1.
         22    1    1    2    0    0 -0.10617280467E+02 -0.34073422385E+02 -0.46253118442E+02  0.58421534755E+02  0.00000000000E+00 0. -1.
</event>
<event>
 6    1  0.1383644E-005  0.5239279E+02  0.7818608E-02  0.1456400E+00
          2   -1    0    0  502    0  0.00000000000E+00  0.00000000000E+00  0.22676213637E+03  0.22676213637E+03  0.00000000000E+00 0. -1.
          1   -1    0    0  501    0 -0.00000000000E+00 -0.00000000000E+00 -0.28986505911E+03  0.28986505911E+03  0.00000000000E+00 0. -1.
          2    1    1    2  501    0  0.45165595014E+02 -0.18455967629E+02  0.12338636839E+03  0.13268289120E+03  0.00000000000E+00 0. -1.
          1    1    1    2  502    0 -0.34538446581E+02  0.78493523033E+02 -0.22443372793E+03  0.24025951737E+03  0.00000000000E+00 0. -1.
         22    1    1    2    0    0 -0.14345106033E+02 -0.22600878697E+02 -0.45139606692E+02  0.52480147459E+02  0.00000000000E+00 0. -1.
         22    1    1    2    0    0  0.37179576001E+01 -0.37436676708E+02  0.83084043506E+02  0.91204639448E+02  0.00000000000E+00 0.  1.
</event>
<event>
 6    1  0.1383644E-005  0.9247543E+02  0.7818608E-02  0.1393625E+00
          2   -1    0    0  502    0  0.00000000000E+00  0.00000000000E+00  0.36000887807E+03  0.36000887807E+03  0.00000000000E+00 0. -1.
          1   -1    0    0  501    0 -0.00000000000E+00 -0.00000000000E+00 -0.12994304717E+03  0.12994304717E+03  0.00000000000E+00 0. -1.
          2    1    1    2  501    0 -0.54762136240E+01 -0.22955120974E+02  0.28389012608E+03  0.28486932124E+03  0.00000000000E+00 0. -1.
          1    1    1    2  502    0 -0.18429422614E+02  0.13116393611E+02 -0.76644449314E+02  0.79912796284E+02  0.00000000000E+00 0. -1.
         22    1    1    2    0    0 -0.62857743231E+01 -0.16358208881E+02 -0.43969141018E+02  0.47332729886E+02  0.00000000000E+00 0. -1.
         22    1    1    2    0    0  0.30191410561E+02  0.26196936243E+02  0.66789295146E+02  0.77837077838E+02  0.00000000000E+00 0. -1.
</event>
<event>
 6    1  0.1383644E-005  0.6110144E+02  0.7818608E-02  0.1466843E+00
          2   -1    0    0  502    0  0.00000000000E+00  0.00000000000E+00  0.18644152423E+03  0.18644152423E+03  0.00000000000E+00 0.  1.
          1   -1    0    0  501    0 -0.00000000000E+00 -0.00000000000E+00 -0.11617533941E+03  0.11617533941E+03  0.00000000000E+00 0.  1.
          2    1    1    2  501    0 -0.15498264829E+02  0.24231128768E+02  0.64583437896E+02  0.70699110777E+02  0.00000000000E+00 0.  1.
          1    1    1    2  502    0 -0.56275449647E+00 -0.71626591241E+02 -0.50318803035E+02  0.87536662058E+02  0.00000000000E+00 0.  1.
         22    1    1    2    0    0  0.36441703346E+01  0.19678186468E+02 -0.39438196400E+02  0.44225358510E+02  0.00000000000E+00 0. -1.
         22    1    1    2    0    0  0.12416848991E+02  0.27717276005E+02  0.95439746355E+02  0.10015573230E+03  0.00000000000E+00 0.  1.
</event>
<event>
 6    1  0.1383644E-005  0.3760954E+02  0.7818608E-02  0.1595707E+00
          2   -1    0    0  502    0  0.00000000000E+00  0.00000000000E+00  0.27345387218E+03  0.27345387218E+03  0.00000000000E+00 0.  1.
          1   -1    0    0  501    0 -0.00000000000E+00 -0.00000000000E+00 -0.47668195748E+03  0.47668195748E+03  0.00000000000E+00 0.  1.
          2    1    1    2  501    0 -0.37586061289E+02 -0.80982758306E+01  0.18698175696E+03  0.19089387499E+03  0.00000000000E+00 0.  1.
          1    1    1    2  502    0  0.47791845695E+02 -0.25750699499E+01 -0.42683410368E+03  0.42950907274E+03  0.00000000000E+00 0.  1.
         22    1    1    2    0    0  0.79090526004E+01 -0.69015806174E+01 -0.44008086032E+02  0.45242640995E+02  0.00000000000E+00 0. -1.
         22    1    1    2    0    0 -0.18114837007E+02  0.17574926398E+02  0.80632347450E+02  0.84490240934E+02  0.00000000000E+00 0. -1.
</event>
<event>
 6    1  0.1383644E-005  0.5788644E+02  0.7818608E-02  0.1425305E+00
          2   -1    0    0  502    0  0.00000000000E+00  0.00000000000E+00  0.30770123707E+03  0.30770123707E+03  0.00000000000E+00 0.  1.
          1   -1    0    0  501    0 -0.00000000000E+00 -0.00000000000E+00 -0.21525393399E+03  0.21525393399E+03  0.00000000000E+00 0.  1.
          2    1    1    2  501    0 -0.96764635420E+02 -0.60690968237E+02  0.14089261843E+03  0.18137673010E+03  0.00000000000E+00 0.  1.
          1    1    1    2  502    0  0.67752426205E+02  0.43908809242E+01 -0.15200428405E+03  0.16647814710E+03  0.00000000000E+00 0.  1.
         22    1    1    2    0    0  0.97849780194E+01  0.35740466266E+02  0.13078821749E+03  0.13593632538E+03  0.00000000000E+00 0. -1.
         22    1    1    2    0    0  0.19227231195E+02  0.20559621047E+02 -0.27229248795E+02  0.39163968478E+02  0.00000000000E+00 0. -1.
</event>
<event>
 6    1  0.1383644E-005  0.2270767E+03  0.7818608E-02  0.1165607E+00
          2   -1    0    0  502    0  0.00000000000E+00  0.00000000000E+00  0.72339172063E+03  0.72339172063E+03  0.00000000000E+00 0.  1.
          1   -1    0    0  501    0 -0.00000000000E+00 -0.00000000000E+00 -0.16364863987E+03  0.16364863987E+03  0.00000000000E+00 0.  1.
          2    1    1    2  501    0 -0.26731236693E+02  0.21925817622E+03  0.51350584016E+03  0.55899638168E+03  0.00000000000E+00 0.  1.
          1    1    1    2  502    0 -0.30966482263E+02 -0.17637008464E+03  0.30509634567E+02  0.18164847256E+03  0.00000000000E+00 0.  1.
         22    1    1    2    0    0 -0.17685456817E+02  0.13769300452E+02  0.42775657772E+02  0.48292089576E+02  0.00000000000E+00 0. -1.
         22    1    1    2    0    0  0.75383175773E+02 -0.56657392028E+02 -0.27048051740E+02  0.98103416679E+02  0.00000000000E+00 0.  1.
</event>
<event>
 6    1  0.1383644E-005  0.2627115E+02  0.7818608E-02  0.1671396E+00
          2   -1    0    0  502    0  0.00000000000E+00  0.00000000000E+00  0.24565712775E+03  0.24565712775E+03  0.00000000000E+00 0.  1.
          1   -1    0    0  501    0 -0.00000000000E+00 -0.00000000000E+00 -0.70824116034E+02  0.70824116034E+02  0.00000000000E+00 0.  1.
          2    1    1    2  501    0  0.41288075298E+02 -0.15711839534E+02  0.73020599724E+02  0.85343863560E+02  0.00000000000E+00 0.  1.
          1    1    1    2  502    0 -0.49009785204E+02  0.10857777471E+02  0.90229886277E+02  0.10325348786E+03  0.00000000000E+00 0.  1.
         22    1    1    2    0    0  0.15643454610E+02 -0.30582157262E+01  0.68267552151E+02  0.70103701986E+02  0.00000000000E+00 0. -1.
         22    1    1    2    0    0 -0.79217447029E+01  0.79122777892E+01 -0.56685026432E+02  0.57780190382E+02  0.00000000000E+00 0.  1.
</event>
<event>
 6    1  0.1383644E-005  0.4779152E+03  0.7818608E-02  0.1129989E+00
          2   -1    0    0  502    0  0.00000000000E+00  0.00000000000E+00  0.10203229617E+04  0.10203229617E+04  0.00000000000E+00 0. -1.
          1   -1    0    0  501    0 -0.00000000000E+00 -0.00000000000E+00 -0.54157253915E+03  0.54157253915E+03  0.00000000000E+00 0.  1.
          2    1    1    2  501    0  0.43934085816E+03  0.15014394520E+02  0.78281773015E+03  0.89780255086E+03  0.00000000000E+00 0. -1.
          1    1    1    2  502    0 -0.44788099639E+03  0.23713850833E+01 -0.29456864299E+03  0.53607247255E+03  0.00000000000E+00 0.  1.
         22    1    1    2    0    0  0.30865337910E+02 -0.25055999607E+02  0.50076757445E+02  0.63938672467E+02  0.00000000000E+00 0.  1.
         22    1    1    2    0    0 -0.22325199679E+02  0.76702200042E+01 -0.59575422057E+02  0.64081804975E+02  0.00000000000E+00 0.  1.
</event>
<event>
 6    1  0.1383644E-005  0.2341334E+02  0.7818608E-02  0.1718050E+00
          2   -1    0    0  502    0  0.00000000000E+00  0.00000000000E+00  0.10175093405E+03  0.10175093405E+03  0.00000000000E+00 0.  1.
          1   -1    0    0  501    0 -0.00000000000E+00 -0.00000000000E+00 -0.22291340669E+03  0.22291340669E+03  0.00000000000E+00 0.  1.
          2    1    1    2  501    0 -0.26481911523E+02 -0.62843651159E+01  0.38716617368E+02  0.47326116926E+02  0.00000000000E+00 0.  1.
          1    1    1    2  502    0  0.24842584508E+02  0.39735508070E+00 -0.15205655290E+03  0.15407305791E+03  0.00000000000E+00 0.  1.
         22    1    1    2    0    0  0.28546993838E+01 -0.12711922051E+02 -0.63358909831E+02  0.64684571002E+02  0.00000000000E+00 0. -1.
         22    1    1    2    0    0 -0.12153723688E+01  0.18598932087E+02  0.55536372713E+02  0.58580594900E+02  0.00000000000E+00 0.  1.
</event>
<event>
 6    1  0.1383644E-005  0.1359802E+03  0.7818608E-02  0.1259338E+00
          2   -1    0    0  502    0  0.00000000000E+00  0.00000000000E+00  0.34860037243E+03  0.34860037243E+03  0.00000000000E+00 0. -1.
          1   -1    0    0  501    0 -0.00000000000E+00 -0.00000000000E+00 -0.96943972761E+02  0.96943972761E+02  0.00000000000E+00 0.  1.
          2    1    1    2  501    0  0.74093263482E+01  0.20506425654E+02  0.12406876274E+02  0.25086693463E+02  0.00000000000E+00 0. -1.
          1    1    1    2  502    0 -0.99692324529E+02 -0.10599936868E+03  0.31517300067E+02  0.14888843452E+03  0.00000000000E+00 0.  1.
         22    1    1    2    0    0  0.10699910553E+03  0.51721418892E+02  0.20188720012E+03  0.23426983444E+03  0.00000000000E+00 0. -1.
         22    1    1    2    0    0 -0.14716107350E+02  0.33771524137E+02  0.58450232037E+01  0.37299382761E+02  0.00000000000E+00 0.  1.
</event>
<event>
 6    1  0.1383644E-005  0.1094285E+03  0.7818608E-02  0.1279817E+00
          2   -1    0    0  502    0  0.00000000000E+00  0.00000000000E+00  0.63875632556E+03  0.63875632556E+03  0.00000000000E+00 0.  1.
          1   -1    0    0  501    0 -0.00000000000E+00 -0.00000000000E+00 -0.93857185230E+02  0.93857185230E+02  0.00000000000E+00 0.  1.
          2    1    1    2  501    0  0.51248143587E+02  0.15499532141E+02  0.39251235811E+03  0.39614714310E+03  0.00000000000E+00 0.  1.
          1    1    1    2  502    0 -0.65400402505E+02  0.95097763547E+02  0.13390746142E+02  0.11618997100E+03  0.00000000000E+00 0.  1.
         22    1    1    2    0    0 -0.67165172559E+01 -0.11555203603E+03  0.45528472748E+02  0.12437936511E+03  0.00000000000E+00 0.  1.
         22    1    1    2    0    0  0.20868776174E+02  0.49547403388E+01  0.93467563326E+02  0.95897031576E+02  0.00000000000E+00 0.  1.
</event>
<event>
 6    1  0.1383644E-005  0.1654476E+03  0.7818608E-02  0.1184202E+00
          2   -1    0    0  502    0  0.00000000000E+00  0.00000000000E+00  0.12029254104E+03  0.12029254104E+03  0.00000000000E+00 0.  1.
          1   -1    0    0  501    0 -0.00000000000E+00 -0.00000000000E+00 -0.39193623770E+03  0.39193623770E+03  0.00000000000E+00 0.  1.
          2    1    1    2  501    0  0.33994484554E+02  0.11541498114E+03  0.52629408942E+01  0.12043231045E+03  0.00000000000E+00 0.  1.
          1    1    1    2  502    0 -0.16006358527E+02 -0.13053145365E+03 -0.22026218743E+03  0.25653478344E+03  0.00000000000E+00 0.  1.
         22    1    1    2    0    0 -0.12234782543E+02  0.37809855677E+02  0.27234605689E+02  0.48176745814E+02  0.00000000000E+00 0.  1.
         22    1    1    2    0    0 -0.57533434843E+01 -0.22693383177E+02 -0.83879055816E+02  0.87084939030E+02  0.00000000000E+00 0. -1.
</event>
<event>
 6    1  0.1383644E-005  0.1935418E+03  0.7818608E-02  0.1157626E+00
          2   -1    0    0  502    0  0.00000000000E+00  0.00000000000E+00  0.80749537659E+02  0.80749537659E+02  0.00000000000E+00 0.  1.
          1   -1    0    0  501    0 -0.00000000000E+00 -0.00000000000E+00 -0.44090384490E+03  0.44090384490E+03  0.00000000000E+00 0.  1.
          2    1    1    2  501    0  0.68981268146E+02 -0.51916198276E+01 -0.10030302294E+03  0.12184442819E+03  0.00000000000E+00 0.  1.
          1    1    1    2  502    0 -0.14973944155E+03  0.16828087276E+02 -0.11576673485E+03  0.19001847745E+03  0.00000000000E+00 0.  1.
         22    1    1    2    0    0 -0.28121036968E+02 -0.28525258252E+02 -0.55333786442E+02  0.68310401847E+02  0.00000000000E+00 0.  1.
         22    1    1    2    0    0  0.10887921037E+03  0.16888790804E+02 -0.88750763010E+02  0.14148007506E+03  0.00000000000E+00 0.  1.
</event>
<event>
 6    1  0.1383644E-005  0.8818495E+02  0.7818608E-02  0.1399772E+00
          2   -1    0    0  502    0  0.00000000000E+00  0.00000000000E+00  0.58524033590E+03  0.58524033590E+03  0.00000000000E+00 0. -1.
          1   -1    0    0  501    0 -0.00000000000E+00 -0.00000000000E+00 -0.10552733456E+03  0.10552733456E+03  0.00000000000E+00 0. -1.
          2    1    1    2  501    0 -0.65191301735E+02  0.44445718602E+02  0.46448529876E+03  0.47113896091E+03  0.00000000000E+00 0. -1.
          1    1    1    2  502    0  0.76887807736E+02 -0.23231444511E+02  0.42085204301E+02  0.90678549909E+02  0.00000000000E+00 0. -1.
         22    1    1    2    0    0 -0.21320388402E+01 -0.18200882328E+02 -0.76315973534E+02  0.78485320434E+02  0.00000000000E+00 0. -1.
         22    1    1    2    0    0 -0.95644671604E+01 -0.30133917623E+01  0.49458471810E+02  0.50464839203E+02  0.00000000000E+00 0.  1.
</event>
<event>
 6    1  0.1383644E-005  0.1456141E+03  0.7818608E-02  0.1289725E+00
          2   -1    0    0  502    0  0.00000000000E+00  0.00000000000E+00  0.14781027739E+03  0.14781027739E+03  0.00000000000E+00 0. -1.
          1   -1    0    0  501    0 -0.00000000000E+00 -0.00000000000E+00 -0.39480469844E+03  0.39480469844E+03  0.00000000000E+00 0. -1.
          2    1    1    2  501    0  0.89512811460E+02  0.81550053077E+02  0.61999934390E+02  0.13604023830E+03  0.00000000000E+00 0. -1.
          1    1    1    2  502    0 -0.75012128026E+02 -0.10165344699E+03 -0.22465947349E+03  0.25774429511E+03  0.00000000000E+00 0. -1.
         22    1    1    2    0    0  0.12442489870E+02  0.23079256013E+02  0.24974344968E+02  0.36210295758E+02  0.00000000000E+00 0. -1.
         22    1    1    2    0    0 -0.26943173304E+02 -0.29758620964E+01 -0.10930922693E+03  0.11262014666E+03  0.00000000000E+00 0. -1.
</event>
<event>
 6    1  0.1383644E-005  0.3900480E+03  0.7818608E-02  0.1048024E+00
          2   -1    0    0  502    0  0.00000000000E+00  0.00000000000E+00  0.74842034882E+03  0.74842034882E+03  0.00000000000E+00 0. -1.
          1   -1    0    0  501    0 -0.00000000000E+00 -0.00000000000E+00 -0.76137196119E+03  0.76137196119E+03  0.00000000000E+00 0. -1.
          2    1    1    2  501    0 -0.19294464663E+03 -0.28671354627E+03  0.52386568255E+03  0.62758867711E+03  0.00000000000E+00 0. -1.
          1    1    1    2  502    0  0.20107429105E+03  0.31067409455E+03 -0.62685302868E+03  0.72793817259E+03  0.00000000000E+00 0. -1.
         22    1    1    2    0    0 -0.11818356819E+02 -0.34316534740E+02  0.11840386170E+03  0.12384172390E+03  0.00000000000E+00 0.  1.
         22    1    1    2    0    0  0.36887124036E+01  0.10355986459E+02 -0.28368127937E+02  0.30423736414E+02  0.00000000000E+00 0. -1.
</event>
<event>
 6    1  0.1383644E-005  0.1028760E+03  0.7818608E-02  0.1307773E+00
          2   -1    0    0  502    0  0.00000000000E+00  0.00000000000E+00  0.75537745733E+02  0.75537745733E+02  0.00000000000E+00 0. -1.
          1   -1    0    0  501    0 -0.00000000000E+00 -0.00000000000E+00 -0.67113473402E+03  0.67113473402E+03  0.00000000000E+00 0.  1.
          2    1    1    2  501    0  0.11075268678E+02  0.33704179558E+02 -0.86937400537E+01  0.36526899843E+02  0.00000000000E+00 0. -1.
          1    1    1    2  502    0  0.15535536935E+02 -0.13940634975E+03 -0.50803138401E+03  0.52704019809E+03  0.00000000000E+00 0.  1.
         22    1    1    2    0    0  0.32063484593E+01  0.54981837611E+02 -0.10512500937E+03  0.11867834989E+03  0.00000000000E+00 0. -1.
         22    1    1    2    0    0 -0.29817154072E+02  0.50720332581E+02  0.26253145144E+02  0.64427031936E+02  0.00000000000E+00 0. -1.
</event>
<event>
 6    1  0.1383644E-005  0.5851826E+02  0.7818608E-02  0.1446327E+00
          2   -1    0    0  502    0  0.00000000000E+00  0.00000000000E+00  0.43127807796E+03  0.43127807796E+03  0.00000000000E+00 0. -1.
          1   -1    0    0  501    0 -0.00000000000E+00 -0.00000000000E+00 -0.77818072482E+02  0.77818072482E+02  0.00000000000E+00 0.  1.
          2    1    1    2  501    0 -0.46743146674E+02  0.21269006982E+02  0.31394389438E+03  0.31811642718E+03  0.00000000000E+00 0. -1.
          1    1    1    2  502    0  0.23988998356E+02 -0.35871936673E+02  0.41082127540E+02  0.59581952687E+02  0.00000000000E+00 0.  1.
         22    1    1    2    0    0 -0.75412266202E+01  0.94101709628E+01  0.60738392322E+02  0.61923934939E+02  0.00000000000E+00 0. -1.
         22    1    1    2    0    0  0.30295374938E+02  0.51927587284E+01 -0.62304408770E+02  0.69473835636E+02  0.00000000000E+00 0.  1.
</event>
<event>
 6    1  0.1383644E-005  0.5262787E+03  0.7818608E-02  0.1111236E+00
          2   -1    0    0  502    0  0.00000000000E+00  0.00000000000E+00  0.63002819657E+03  0.63002819657E+03  0.00000000000E+00 0. -1.
          1   -1    0    0  501    0 -0.00000000000E+00 -0.00000000000E+00 -0.63787568199E+03  0.63787568199E+03  0.00000000000E+00 0. -1.
          2    1    1    2  501    0  0.48336468296E+03 -0.10327041176E+03 -0.10940736121E+03  0.50623726193E+03  0.00000000000E+00 0. -1.
          1    1    1    2  502    0 -0.48870438440E+03  0.13143506284E+03  0.24910972327E+03  0.56405922145E+03  0.00000000000E+00 0. -1.
         22    1    1    2    0    0 -0.26104217844E+02  0.10779596446E+02 -0.14474564479E+03  0.14747518969E+03  0.00000000000E+00 0. -1.
         22    1    1    2    0    0  0.31443919281E+02 -0.38944247524E+02 -0.28042026859E+01  0.50132205494E+02  0.00000000000E+00 0.  1.
</event>
<event>
 6    1  0.1383644E-005  0.3973342E+02  0.7818608E-02  0.1583685E+00
          2   -1    0    0  502    0  0.00000000000E+00  0.00000000000E+00  0.27691158997E+03  0.27691158997E+03  0.00000000000E+00 0. -1.
          1   -1    0    0  501    0 -0.00000000000E+00 -0.00000000000E+00 -0.52084363911E+02  0.52084363911E+02  0.00000000000E+00 0. -1.
          2    1    1    2  501    0 -0.10113968421E+02 -0.17554775876E+02  0.12002547905E+03  0.12172336725E+03  0.00000000000E+00 0. -1.
          1    1    1    2  502    0 -0.68218042651E+00  0.48150647812E+02  0.39752938077E+02  0.62443945589E+02  0.00000000000E+00 0. -1.
         22    1    1    2    0    0  0.90137330511E+01 -0.12471507057E+02 -0.37573761906E+02  0.40602628678E+02  0.00000000000E+00 0. -1.
         22    1    1    2    0    0  0.17824157959E+01 -0.18124364879E+02  0.10262257084E+03  0.10422601236E+03  0.00000000000E+00 0. -1.
</event>
<event>
 6    1  0.1383644E-005  0.1029653E+03  0.7818608E-02  0.1275731E+00
          2   -1    0    0  502    0  0.00000000000E+00  0.00000000000E+00  0.48203040175E+03  0.48203040175E+03  0.00000000000E+00 0. -1.
          1   -1    0    0  501    0 -0.00000000000E+00 -0.00000000000E+00 -0.24169623336E+03  0.24169623336E+03  0.00000000000E+00 0.  1.
          2    1    1    2  501    0 -0.83240059252E+02  0.14333921703E+01  0.42596483342E+03  0.43402419447E+03  0.00000000000E+00 0. -1.
          1    1    1    2  502    0  0.75219753717E+02  0.20029431942E+01 -0.13541480031E+03  0.15491672367E+03  0.00000000000E+00 0.  1.
         22    1    1    2    0    0  0.20270976831E+02 -0.11058167982E+02 -0.89764778479E+02  0.92687167592E+02  0.00000000000E+00 0.  1.
         22    1    1    2    0    0 -0.12250671297E+02  0.76218326173E+01  0.39548913764E+02  0.42098549376E+02  0.00000000000E+00 0.  1.
</event>
<event>
 6    1  0.1383644E-005  0.1078698E+03  0.7818608E-02  0.1370533E+00
          2   -1    0    0  502    0  0.00000000000E+00  0.00000000000E+00  0.24168727351E+02  0.24168727351E+02  0.00000000000E+00 0. -1.
          1   -1    0    0  501    0 -0.00000000000E+00 -0.00000000000E+00 -0.93081235262E+03  0.93081235262E+03  0.00000000000E+00 0. -1.
          2    1    1    2  501    0 -0.37546859947E+02  0.74220202904E+01 -0.86524174821E+02  0.94611235620E+02  0.00000000000E+00 0. -1.
          1    1    1    2  502    0 -0.58982974743E+02  0.65005321022E+02 -0.28610453136E+03  0.29926658005E+03  0.00000000000E+00 0. -1.
         22    1    1    2    0    0  0.10096002224E+03 -0.87877771681E+02 -0.52670503568E+03  0.54344606306E+03  0.00000000000E+00 0. -1.
         22    1    1    2    0    0 -0.44301875498E+01  0.15450430369E+02 -0.73098834153E+01  0.17657201246E+02  0.00000000000E+00 0. -1.
</event>
<event>
 6    1  0.1383644E-005  0.1199901E+03  0.7818608E-02  0.1342155E+00
          2   -1    0    0  502    0  0.00000000000E+00  0.00000000000E+00  0.15663623438E+04  0.15663623438E+04  0.00000000000E+00 0.  1.
          1   -1    0    0  501    0 -0.00000000000E+00 -0.00000000000E+00 -0.58061966639E+02  0.58061966639E+02  0.00000000000E+00 0.  1.
          2    1    1    2  501    0 -0.13253481513E+03  0.40481652036E+02  0.10224720036E+04  0.10318203523E+04  0.00000000000E+00 0.  1.
          1    1    1    2  502    0  0.16449702165E+03  0.28584750634E+02  0.14529896916E+03  0.22133266487E+03  0.00000000000E+00 0.  1.
         22    1    1    2    0    0  0.31001145556E+01  0.13497849037E+02 -0.46640488809E+01  0.14613555038E+02  0.00000000000E+00 0.  1.
         22    1    1    2    0    0 -0.35062321067E+02 -0.82564251706E+02  0.34519345333E+03  0.35665773823E+03  0.00000000000E+00 0.  1.
</event>
<event>
 6    1  0.1383644E-005  0.2256731E+04  0.7818608E-02  0.9691543E-01
          2   -1    0    0  502    0  0.00000000000E+00  0.00000000000E+00  0.17094080046E+04  0.17094080046E+04  0.00000000000E+00 0. -1.
          1   -1    0    0  501    0 -0.00000000000E+00 -0.00000000000E+00 -0.18935014847E+04  0.18935014847E+04  0.00000000000E+00 0. -1.
          2    1    1    2  501    0  0.80609490151E+03  0.24364326320E+03  0.14405113785E+04  0.16685994311E+04  0.00000000000E+00 0. -1.
          1    1    1    2  502    0 -0.75773153937E+03 -0.67191846109E+02 -0.91044996645E+03  0.11864193910E+04  0.00000000000E+00 0. -1.
         22    1    1    2    0    0 -0.27685168603E+02 -0.18598093413E+03 -0.68791547640E+03  0.71315010979E+03  0.00000000000E+00 0. -1.
         22    1    1    2    0    0 -0.20678193543E+02  0.95295170372E+01 -0.26239415749E+02  0.34740557307E+02  0.00000000000E+00 0. -1.
</event>
<event>
 6    1  0.1383644E-005  0.8091011E+02  0.7818608E-02  0.1352112E+00
          2   -1    0    0  502    0  0.00000000000E+00  0.00000000000E+00  0.34415761635E+02  0.34415761635E+02  0.00000000000E+00 0. -1.
          1   -1    0    0  501    0 -0.00000000000E+00 -0.00000000000E+00 -0.88572814682E+03  0.88572814682E+03  0.00000000000E+00 0. -1.
          2    1    1    2  501    0  0.75167163734E+02  0.22339930823E+02 -0.96043141975E+02  0.12398975818E+03  0.00000000000E+00 0. -1.
          1    1    1    2  502    0 -0.10407525263E+03 -0.51860801608E+02 -0.39944923138E+03  0.41602991407E+03  0.00000000000E+00 0. -1.
         22    1    1    2    0    0  0.12767712009E+02 -0.38998290487E+02 -0.24791139005E+03  0.25128457662E+03  0.00000000000E+00 0. -1.
         22    1    1    2    0    0  0.16140376884E+02  0.68519161272E+02 -0.10790862178E+03  0.12883965959E+03  0.00000000000E+00 0. -1.
</event>
<event>
 6    1  0.1383644E-005  0.7910985E+02  0.7818608E-02  0.1361561E+00
          2   -1    0    0  502    0  0.00000000000E+00  0.00000000000E+00  0.98497345722E+02  0.98497345722E+02  0.00000000000E+00 0.  1.
          1   -1    0    0  501    0 -0.00000000000E+00 -0.00000000000E+00 -0.19556740200E+03  0.19556740200E+03  0.00000000000E+00 0.  1.
          2    1    1    2  501    0 -0.10319629182E+02 -0.58732870470E+02  0.18618953194E+02  0.62471675487E+02  0.00000000000E+00 0.  1.
          1    1    1    2  502    0  0.39279066634E+02  0.23248123945E+02  0.10453448932E+02  0.46825152826E+02  0.00000000000E+00 0.  1.
         22    1    1    2    0    0 -0.40674463343E+02 -0.10357045366E+02  0.78205099634E+01  0.42694738939E+02  0.00000000000E+00 0.  1.
         22    1    1    2    0    0  0.11715025891E+02  0.45841791891E+02 -0.13396296836E+03  0.14207318047E+03  0.00000000000E+00 0.  1.
</event>
<event>
 6    1  0.1383644E-005  0.5923946E+02  0.7818608E-02  0.1494358E+00
          2   -1    0    0  502    0  0.00000000000E+00  0.00000000000E+00  0.24198526607E+03  0.24198526607E+03  0.00000000000E+00 0. -1.
          1   -1    0    0  501    0 -0.00000000000E+00 -0.00000000000E+00 -0.10528863836E+03  0.10528863836E+03  0.00000000000E+00 0. -1.
          2    1    1    2  501    0 -0.40785755799E+02 -0.16804398258E+02  0.15733288247E+03  0.16339982125E+03  0.00000000000E+00 0. -1.
          1    1    1    2  502    0  0.36427981810E+02  0.32202096341E+02 -0.23479106371E+02  0.53992974575E+02  0.00000000000E+00 0. -1.
         22    1    1    2    0    0  0.14585054285E+02 -0.30063958574E+01 -0.61646911095E+02  0.63420058909E+02  0.00000000000E+00 0.  1.
         22    1    1    2    0    0 -0.10227280296E+02 -0.12391302225E+02  0.64489762703E+02  0.66461049695E+02  0.00000000000E+00 0. -1.
</event>
<event>
 6    1  0.1383644E-005  0.1852659E+03  0.7818608E-02  0.1279970E+00
          2   -1    0    0  502    0  0.00000000000E+00  0.00000000000E+00  0.72893788182E+03  0.72893788182E+03  0.00000000000E+00 0.  1.
          1   -1    0    0  501    0 -0.00000000000E+00 -0.00000000000E+00 -0.17137918825E+03  0.17137918825E+03  0.00000000000E+00 0. -1.
          2    1    1    2  501    0 -0.10776877054E+03  0.90484768878E+02  0.51136260680E+03  0.53037092392E+03  0.00000000000E+00 0.  1.
          1    1    1    2  502    0  0.16365064517E+03 -0.89111688939E+02 -0.57253530348E+02  0.19493689622E+03  0.00000000000E+00 0. -1.
         22    1    1    2    0    0 -0.12990057645E+02 -0.90358158760E+01 -0.30386315340E+02  0.34259534821E+02  0.00000000000E+00 0.  1.
         22    1    1    2    0    0 -0.42891816978E+02  0.76627359375E+01  0.13383593246E+03  0.14074971511E+03  0.00000000000E+00 0.  1.
</event>
<event>
 6    1  0.1383644E-005  0.5769629E+02  0.7818608E-02  0.1411252E+00
          2   -1    0    0  502    0  0.00000000000E+00  0.00000000000E+00  0.11276205700E+03  0.11276205700E+03  0.00000000000E+00 0.  1.
          1   -1    0    0  501    0 -0.00000000000E+00 -0.00000000000E+00 -0.33754294093E+03  0.33754294093E+03  0.00000000000E+00 0. -1.
          2    1    1    2  501    0 -0.26256683819E+02 -0.32819707580E+02  0.66709618972E+02  0.78846178818E+02  0.00000000000E+00 0.  1.
          1    1    1    2  502    0  0.13621030778E+02  0.20112554433E+02 -0.22928035718E+03  0.23056350430E+03  0.00000000000E+00 0. -1.
         22    1    1    2    0    0  0.15935283898E+02  0.22410058250E+02 -0.98977517792E+02  0.10272630146E+03  0.00000000000E+00 0. -1.
         22    1    1    2    0    0 -0.32996308574E+01 -0.97029051027E+01  0.36767372074E+02  0.38169013354E+02  0.00000000000E+00 0. -1.
</event>
<event>
 6    1  0.1383644E-005  0.2456540E+03  0.7818608E-02  0.1221611E+00
          2   -1    0    0  502    0  0.00000000000E+00  0.00000000000E+00  0.14829848980E+04  0.14829848980E+04  0.00000000000E+00 0. -1.
          1   -1    0    0  501    0 -0.00000000000E+00 -0.00000000000E+00 -0.18665154951E+03  0.18665154951E+03  0.00000000000E+00 0. -1.
          2    1    1    2  501    0  0.16307569298E+03 -0.27431684551E+03  0.63637062281E+03  0.71190658302E+03  0.00000000000E+00 0. -1.
          1    1    1    2  502    0 -0.50574473608E+02  0.39782350552E+03  0.19154478602E+03  0.44442178612E+03  0.00000000000E+00 0. -1.
         22    1    1    2    0    0 -0.13459749782E+02  0.51508779166E+01 -0.29935535353E+01  0.14719299245E+02  0.00000000000E+00 0. -1.
         22    1    1    2    0    0 -0.99041469589E+02 -0.12865753793E+03  0.47141149317E+03  0.49858877912E+03  0.00000000000E+00 0.  1.
</event>
<event>
 6    1  0.1383644E-005  0.7182839E+02  0.7818608E-02  0.1418796E+00
          2   -1    0    0  502    0  0.00000000000E+00  0.00000000000E+00  0.83041448681E+03  0.83041448681E+03  0.00000000000E+00 0.  1.
          1   -1    0    0  501    0 -0.00000000000E+00 -0.00000000000E+00 -0.49191857162E+02  0.49191857162E+02  0.00000000000E+00 0.  1.
          2    1    1    2  501    0  0.16038139756E+02  0.33061691340E+02  0.26066263665E+03  0.26324001881E+03  0.00000000000E+00 0.  1.
          1    1    1    2  502    0 -0.10857080799E+02 -0.34416171079E+02  0.48553108934E+03  0.48687040140E+03  0.00000000000E+00 0.  1.
         22    1    1    2    0    0  0.23968089842E+02 -0.77580794001E+01 -0.40685797986E+02  0.47853853391E+02  0.00000000000E+00 0.  1.
         22    1    1    2    0    0 -0.29149148799E+02  0.91125591392E+01  0.75714701645E+02  0.81642070374E+02  0.00000000000E+00 0.  1.
</event>
<event>
 6    1  0.1383644E-005  0.2268232E+03  0.7818608E-02  0.1182752E+00
          2   -1    0    0  502    0  0.00000000000E+00  0.00000000000E+00  0.21979308454E+04  0.21979308454E+04  0.00000000000E+00 0.  1.
          1   -1    0    0  501    0 -0.00000000000E+00 -0.00000000000E+00 -0.32388279408E+02  0.32388279408E+02  0.00000000000E+00 0.  1.
          2    1    1    2  501    0 -0.77145229305E+02 -0.10400480713E+02  0.12776404387E+04  0.12800096277E+04  0.00000000000E+00 0.  1.
          1    1    1    2  502    0 -0.18790568104E+02  0.13439301180E+03  0.38087488063E+03  0.40432689963E+03  0.00000000000E+00 0.  1.
         22    1    1    2    0    0  0.80317085135E+02 -0.61820896654E+02  0.44636137438E+03  0.45772386213E+03  0.00000000000E+00 0.  1.
         22    1    1    2    0    0  0.15618712274E+02 -0.62171634430E+02  0.60665872205E+02  0.88258735268E+02  0.00000000000E+00 0.  1.
</event>
<event>
 6    1  0.1383644E-005  0.1610720E+03  0.7818608E-02  0.1189670E+00
          2   -1    0    0  502    0  0.00000000000E+00  0.00000000000E+00  0.57012449711E+03  0.57012449711E+03  0.00000000000E+00 0.  1.
          1   -1    0    0  501    0 -0.00000000000E+00 -0.00000000000E+00 -0.20966241890E+03  0.20966241890E+03  0.00000000000E+00 0. -1.
          2    1    1    2  501    0 -0.12226171956E+03  0.12970470562E+02  0.45981315614E+03  0.47596670024E+03  0.00000000000E+00 0.  1.
          1    1    1    2  502    0  0.12602292447E+03  0.11806135752E+02 -0.12466460412E+03  0.17765817137E+03  0.00000000000E+00 0. -1.
         22    1    1    2    0    0 -0.28301627078E+02 -0.97837512770E+00  0.66712119470E+02  0.72473762131E+02  0.00000000000E+00 0. -1.
         22    1    1    2    0    0  0.24540422169E+02 -0.23798231186E+02 -0.41398593275E+02  0.53688282269E+02  0.00000000000E+00 0. -1.
</event>
<event>
 6    1  0.1383644E-005  0.1164775E+03  0.7818608E-02  0.1354641E+00
          2   -1    0    0  502    0  0.00000000000E+00  0.00000000000E+00  0.34236865297E+03  0.34236865297E+03  0.00000000000E+00 0. -1.
          1   -1    0    0  501    0 -0.00000000000E+00 -0.00000000000E+00 -0.93553255541E+02  0.93553255541E+02  0.00000000000E+00 0. -1.
          2    1    1    2  501    0  0.61727627490E+02 -0.51594413419E+02  0.14796589386E+03  0.16842265061E+03  0.00000000000E+00 0. -1.
          1    1    1    2  502    0 -0.26246564648E+02  0.78615419980E+02  0.10914735192E+03  0.13704893595E+03  0.00000000000E+00 0. -1.
         22    1    1    2    0    0 -0.14753380121E+02  0.77341737841E+01 -0.61438102523E+02  0.63656265290E+02  0.00000000000E+00 0. -1.
         22    1    1    2    0    0 -0.20727682722E+02 -0.34755180345E+02  0.53140254165E+02  0.66794056656E+02  0.00000000000E+00 0.  1.
</event>
<event>
 6    1  0.1383644E-005  0.4409955E+02  0.7818608E-02  0.1513441E+00
          2   -1    0    0  502    0  0.00000000000E+00  0.00000000000E+00  0.12495141779E+03  0.12495141779E+03  0.00000000000E+00 0.  1.
          1   -1    0    0  501    0 -0.00000000000E+00 -0.00000000000E+00 -0.67200264207E+03  0.67200264207E+03  0.00000000000E+00 0.  1.
          2    1    1    2  501    0  0.52516010700E+02 -0.40537508629E+02  0.62657042454E+02  0.91253087371E+02  0.00000000000E+00 0.  1.
          1    1    1    2  502    0 -0.70805748781E+02  0.75763118639E+01 -0.56761219808E+03  0.57206158931E+03  0.00000000000E+00 0.  1.
         22    1    1    2    0    0  0.19642289376E+02  0.16715431780E+02  0.41285177125E+02  0.48679472488E+02  0.00000000000E+00 0.  1.
         22    1    1    2    0    0 -0.13525512961E+01  0.16245764985E+02 -0.83381245787E+02  0.84959910687E+02  0.00000000000E+00 0.  1.
</event>
<event>
 6    1  0.1383644E-005  0.1139062E+03  0.7818608E-02  0.1375435E+00
          2   -1    0    0  502    0  0.00000000000E+00  0.00000000000E+00  0.21996839439E+03  0.21996839439E+03  0.00000000000E+00 0. -1.
          1   -1    0    0  501    0 -0.00000000000E+00 -0.00000000000E+00 -0.24882150263E+03  0.24882150263E+03  0.00000000000E+00 0. -1.
          2    1    1    2  501    0  0.29192189164E+02  0.93725248735E+02  0.14969635823E+03  0.17901286498E+03  0.00000000000E+00 0. -1.
          1    1    1    2  502    0 -0.35785339908E+02 -0.64386950428E+02 -0.13642926565E+03  0.15504584633E+03  0.00000000000E+00 0. -1.
         22    1    1    2    0    0 -0.99977370992E+01  0.76539487785E+01  0.40655238035E+02  0.42560381327E+02  0.00000000000E+00 0. -1.
         22    1    1    2    0    0  0.16590887843E+02 -0.36992247086E+02 -0.82775438852E+02  0.92170804385E+02  0.00000000000E+00 0. -1.
</event>
<event>
 6    1  0.1383644E-005  0.9752093E+02  0.7818608E-02  0.1415517E+00
          2   -1    0    0  502    0  0.00000000000E+00  0.00000000000E+00  0.59999783730E+03  0.59999783730E+03  0.00000000000E+00 0. -1.
          1   -1    0    0  501    0 -0.00000000000E+00 -0.00000000000E+00 -0.42382685762E+02  0.42382685762E+02  0.00000000000E+00 0.  1.
          2    1    1    2  501    0  0.61287599874E+02  0.60612828668E+01  0.30406255820E+03  0.31023692293E+03  0.00000000000E+00 0. -1.
          1    1    1    2  502    0 -0.83955679664E+02 -0.21648057366E+02  0.82167993553E+02  0.11945197236E+03  0.00000000000E+00 0.  1.
         22    1    1    2    0    0  0.28870941374E+02  0.24169018641E+02  0.18868649380E+03  0.19240651148E+03  0.00000000000E+00 0. -1.
         22    1    1    2    0    0 -0.62028615845E+01 -0.85822441413E+01 -0.17301894018E+02  0.20285116292E+02  0.00000000000E+00 0. -1.
</event>
<event>
 6    1  0.1383644E-005  0.9540061E+02  0.7818608E-02  0.1340657E+00
          2   -1    0    0  502    0  0.00000000000E+00  0.00000000000E+00  0.99275105716E+02  0.99275105716E+02  0.00000000000E+00 0.  1.
          1   -1    0    0  501    0 -0.00000000000E+00 -0.00000000000E+00 -0.22079163156E+03  0.22079163156E+03  0.00000000000E+00 0.  1.
          2    1    1    2  501    0 -0.18132024242E+02  0.32542846640E+02  0.35604166066E+01  0.37423037517E+02  0.00000000000E+00 0.  1.
          1    1    1    2  502    0 -0.51333827229E+02  0.67331451863E+01 -0.12534807618E+03  0.13561945754E+03  0.00000000000E+00 0.  1.
         22    1    1    2    0    0  0.31124132304E+02 -0.35572966359E+02  0.59735268983E+02  0.76173813793E+02  0.00000000000E+00 0.  1.
         22    1    1    2    0    0  0.38341719168E+02 -0.37030254672E+01 -0.59464135251E+02  0.70850428421E+02  0.00000000000E+00 0.  1.
</event>
<event>
 6    1  0.1383644E-005  0.5828750E+02  0.7818608E-02  0.1450232E+00
          2   -1    0    0  502    0  0.00000000000E+00  0.00000000000E+00  0.31835636051E+03  0.31835636051E+03  0.00000000000E+00 0. -1.
          1   -1    0    0  501    0 -0.00000000000E+00 -0.00000000000E+00 -0.50993555592E+02  0.50993555592E+02  0.00000000000E+00 0. -1.
          2    1    1    2  501    0  0.13646985833E+02  0.18078572032E+02  0.99327581618E+02  0.10187759056E+03  0.00000000000E+00 0. -1.
          1    1    1    2  502    0 -0.55553574048E+02  0.19061575373E+00  0.19181080633E+01  0.55587004438E+02  0.00000000000E+00 0. -1.
         22    1    1    2    0    0  0.70711053689E+01 -0.28496161345E+02 -0.10798259862E+02  0.31283128977E+02  0.00000000000E+00 0. -1.
         22    1    1    2    0    0  0.34835482846E+02  0.10226973560E+02  0.17691537510E+03  0.18060219212E+03  0.00000000000E+00 0. -1.
</event>
<event>
 6    1  0.1383644E-005  0.6746895E+02  0.7818608E-02  0.1404475E+00
          2   -1    0    0  502    0  0.00000000000E+00  0.00000000000E+00  0.32259958413E+03  0.32259958413E+03  0.00000000000E+00 0. -1.
          1   -1    0    0  501    0 -0.00000000000E+00 -0.00000000000E+00 -0.85212484978E+02  0.85212484978E+02  0.00000000000E+00 0. -1.
          2    1    1    2  501    0 -0.61032088245E+02 -0.30450425216E+01  0.21925345078E+03  0.22760989381E+03  0.00000000000E+00 0. -1.
          1    1    1    2  502    0  0.46660672853E+02 -0.21137792173E+02  0.20022417740E+02  0.54999289643E+02  0.00000000000E+00 0. -1.
         22    1    1    2    0    0 -0.11040327450E+02 -0.40586987247E+01  0.55304358382E+02  0.56541435440E+02  0.00000000000E+00 0.  1.
         22    1    1    2    0    0  0.25411742842E+02  0.28241533419E+02 -0.57193127752E+02  0.68661450219E+02  0.00000000000E+00 0. -1.
</event>
<event>
 6    1  0.1609981E-005  0.1775665E+03  0.7818608E-02  0.1311024E+00
          2   -1    0    0  502    0  0.00000000000E+00  0.00000000000E+00  0.85387500299E+03  0.85387500299E+03  0.00000000000E+00 0. -1.
          1   -1    0    0  501    0 -0.00000000000E+00 -0.00000000000E+00 -0.30056430771E+03  0.30056430771E+03  0.00000000000E+00 0. -1.
          2    1    1    2  501    0  0.10572740181E+03 -0.12616255268E+03  0.74113314635E+03  0.75919273825E+03  0.00000000000E+00 0. -1.
          1    1    1    2  502    0 -0.11876963308E+03  0.13405529392E+03 -0.19604363433E+03  0.26553748159E+03  0.00000000000E+00 0. -1.
         22    1    1    2    0    0  0.91813222605E+01  0.41997942063E+01 -0.59732596303E+02  0.60579848224E+02  0.00000000000E+00 0. -1.
         22    1    1    2    0    0  0.38609090106E+01 -0.12092535445E+02  0.67953779557E+02  0.69129242640E+02  0.00000000000E+00 0.  1.
</event>
<event>
 6    1  0.1383644E-005  0.4473734E+02  0.7818608E-02  0.1539476E+00
          2   -1    0    0  502    0  0.00000000000E+00  0.00000000000E+00  0.24831080825E+03  0.24831080825E+03  0.00000000000E+00 0.  1.
          1   -1    0    0  501    0 -0.00000000000E+00 -0.00000000000E+00 -0.15455233007E+03  0.15455233007E+03  0.00000000000E+00 0. -1.
          2    1    1    2  501    0 -0.23210503978E+02  0.17494957724E+02  0.20011556006E+03  0.20221532686E+03  0.00000000000E+00 0.  1.
          1    1    1    2  502    0  0.11781070945E+02 -0.28502334458E+02 -0.53298711130E+02  0.61578643297E+02  0.00000000000E+00 0. -1.
         22    1    1    2    0    0 -0.74320131633E+01  0.11010346449E+02  0.41020711870E+02  0.43117993355E+02  0.00000000000E+00 0. -1.
         22    1    1    2    0    0  0.18861446196E+02 -0.29697141656E-02 -0.94079082614E+02  0.95951174807E+02  0.00000000000E+00 0. -1.
</event>
<event>
 6    1  0.1383644E-005  0.4344670E+02  0.7818608E-02  0.1567147E+00
          2   -1    0    0  502    0  0.00000000000E+00  0.00000000000E+00  0.29501686290E+03  0.29501686290E+03  0.00000000000E+00 0. -1.
          1   -1    0    0  501    0 -0.00000000000E+00 -0.00000000000E+00 -0.60436496724E+02  0.60436496724E+02  0.00000000000E+00 0.  1.
          2    1    1    2  501    0 -0.17790581655E+02 -0.19931710031E+02  0.12613857285E+03  0.12893687379E+03  0.00000000000E+00 0. -1.
          1    1    1    2  502    0  0.10221356048E+02  0.44653381670E+02  0.88779310120E+02  0.99900783378E+02  0.00000000000E+00 0.  1.
         22    1    1    2    0    0  0.11137983329E+02 -0.92130075392E+01 -0.51605981656E+02  0.53592084520E+02  0.00000000000E+00 0.  1.
         22    1    1    2    0    0 -0.35687577229E+01 -0.15508664099E+02  0.71268464860E+02  0.73023617942E+02  0.00000000000E+00 0. -1.
</event>
<event>
 6    1  0.1383644E-005  0.1135424E+03  0.7818608E-02  0.1357254E+00
          2   -1    0    0  502    0  0.00000000000E+00  0.00000000000E+00  0.10466587053E+03  0.10466587053E+03  0.00000000000E+00 0.  1.
          1   -1    0    0  501    0 -0.00000000000E+00 -0.00000000000E+00 -0.22553335996E+03  0.22553335996E+03  0.00000000000E+00 0. -1.
          2    1    1    2  501    0  0.19622269349E+02 -0.74368154451E+01  0.10362193351E+02  0.23403305950E+02  0.00000000000E+00 0.  1.
          1    1    1    2  502    0 -0.56691187073E+02  0.90174696349E+02 -0.10794704808E+03  0.15165068988E+03  0.00000000000E+00 0. -1.
         22    1    1    2    0    0  0.53330150990E+02 -0.77114509268E+02  0.30565132819E+02  0.98615312647E+02  0.00000000000E+00 0.  1.
         22    1    1    2    0    0 -0.16261233266E+02 -0.56233716352E+01 -0.53847767515E+02  0.56529922008E+02  0.00000000000E+00 0. -1.
</event>
<event>
 6    1  0.1383644E-005  0.8950348E+02  0.7818608E-02  0.1388015E+00
          2   -1    0    0  502    0  0.00000000000E+00  0.00000000000E+00  0.44002941818E+03  0.44002941818E+03  0.00000000000E+00 0. -1.
          1   -1    0    0  501    0 -0.00000000000E+00 -0.00000000000E+00 -0.28209239489E+02  0.28209239489E+02  0.00000000000E+00 0. -1.
          2    1    1    2  501    0  0.21577905083E+02  0.20182181812E+02  0.74414032250E+02  0.80064815282E+02  0.00000000000E+00 0. -1.
          1    1    1    2  502    0  0.47386787713E+02  0.21962575796E+01  0.78305791717E+02  0.91553963396E+02  0.00000000000E+00 0. -1.
         22    1    1    2    0    0 -0.52639320949E+02 -0.89322371986E+01  0.26829629629E+03  0.27355728024E+03  0.00000000000E+00 0. -1.
         22    1    1    2    0    0 -0.16325371848E+02 -0.13446202193E+02 -0.91959415708E+01  0.23062598742E+02  0.00000000000E+00 0. -1.
</event>
<event>
 6    1  0.1383644E-005  0.1272091E+03  0.7818608E-02  0.1233084E+00
          2   -1    0    0  502    0  0.00000000000E+00  0.00000000000E+00  0.13760582588E+04  0.13760582588E+04  0.00000000000E+00 0. -1.
          1   -1    0    0  501    0 -0.00000000000E+00 -0.00000000000E+00 -0.69430229395E+02  0.69430229395E+02  0.00000000000E+00 0. -1.
          2    1    1    2  501    0  0.94456575424E+02  0.10326034481E+02  0.11534903438E+04  0.11573973583E+04  0.00000000000E+00 0. -1.
          1    1    1    2  502    0 -0.76766055603E+02 -0.26899740146E+02 -0.59707069189E+01  0.81561465496E+02  0.00000000000E+00 0. -1.
         22    1    1    2    0    0 -0.41919890262E+02  0.47314137402E+01 -0.29060169889E+01  0.42286030912E+02  0.00000000000E+00 0. -1.
         22    1    1    2    0    0  0.24229370441E+02  0.11842291925E+02  0.16201440946E+03  0.16424363349E+03  0.00000000000E+00 0. -1.
</event>
<event>
 6    1  0.1383644E-005  0.9486113E+02  0.7818608E-02  0.1413760E+00
          2   -1    0    0  502    0  0.00000000000E+00  0.00000000000E+00  0.28062246761E+03  0.28062246761E+03  0.00000000000E+00 0.  1.
          1   -1    0    0  501    0 -0.00000000000E+00 -0.00000000000E+00 -0.85614923147E+02  0.85614923147E+02  0.00000000000E+00 0.  1.
          2    1    1    2  501    0 -0.40217435742E+02  0.17786354816E+02  0.81661304048E+02  0.92748936027E+02  0.00000000000E+00 0.  1.
          1    1    1    2  502    0  0.58761305264E+02 -0.51094379889E+02 -0.26554925411E+02  0.82272053068E+02  0.00000000000E+00 0.  1.
         22    1    1    2    0    0 -0.16138843548E+00 -0.11821646623E+02 -0.20451504485E+02  0.23622900135E+02  0.00000000000E+00 0.  1.
         22    1    1    2    0    0 -0.18382481086E+02  0.45129671696E+02  0.16035267031E+03  0.16759350153E+03  0.00000000000E+00 0.  1.
</event>
<event>
 6    1  0.1383644E-005  0.9547870E+02  0.7818608E-02  0.1402130E+00
          2   -1    0    0  502    0  0.00000000000E+00  0.00000000000E+00  0.42862086727E+03  0.42862086727E+03  0.00000000000E+00 0. -1.
          1   -1    0    0  501    0 -0.00000000000E+00 -0.00000000000E+00 -0.68202632318E+02  0.68202632318E+02  0.00000000000E+00 0. -1.
          2    1    1    2  501    0 -0.17818303415E+02  0.16980124886E+02  0.84333364831E+02  0.87851767207E+02  0.00000000000E+00 0. -1.
          1    1    1    2  502    0 -0.32122397150E+02  0.40666199101E+02 -0.36442531776E+02  0.63353344586E+02  0.00000000000E+00 0. -1.
         22    1    1    2    0    0  0.13734190951E+02  0.22039557081E+01 -0.90015815118E+01  0.16568460748E+02  0.00000000000E+00 0.  1.
         22    1    1    2    0    0  0.36206509614E+02 -0.59850279695E+02  0.32152898341E+03  0.32904992705E+03  0.00000000000E+00 0. -1.
</event>
<event>
 6    1  0.1383644E-005  0.5700839E+02  0.7818608E-02  0.1492954E+00
          2   -1    0    0  502    0  0.00000000000E+00  0.00000000000E+00  0.53367904569E+03  0.53367904569E+03  0.00000000000E+00 0. -1.
          1   -1    0    0  501    0 -0.00000000000E+00 -0.00000000000E+00 -0.48453801078E+02  0.48453801078E+02  0.00000000000E+00 0. -1.
          2    1    1    2  501    0  0.45278567660E+02 -0.63460649691E+01  0.18371614736E+03  0.18931995148E+03  0.00000000000E+00 0. -1.
          1    1    1    2  502    0 -0.49060849604E+02  0.98552646138E+01  0.24883877819E+03  0.25382046949E+03  0.00000000000E+00 0. -1.
         22    1    1    2    0    0  0.17740902778E+02  0.62603394789E+01  0.93172331116E+02  0.95052694687E+02  0.00000000000E+00 0. -1.
         22    1    1    2    0    0 -0.13958620834E+02 -0.97695391236E+01 -0.40502012043E+02  0.43939731108E+02  0.00000000000E+00 0. -1.
</event>
<event>
 6    1  0.1383644E-005  0.5698246E+02  0.7818608E-02  0.1520559E+00
          2   -1    0    0  502    0  0.00000000000E+00  0.00000000000E+00  0.23862833450E+03  0.23862833450E+03  0.00000000000E+00 0. -1.
          1   -1    0    0  501    0 -0.00000000000E+00 -0.00000000000E+00 -0.55796540774E+02  0.55796540774E+02  0.00000000000E+00 0.  1.
          2    1    1    2  501    0 -0.13535422652E+02 -0.29247383329E+02  0.10271604722E+03  0.10765316277E+03  0.00000000000E+00 0. -1.
          1    1    1    2  502    0  0.29300877927E+02  0.31801175359E+02  0.72939282274E+01  0.43852680539E+02  0.00000000000E+00 0.  1.
         22    1    1    2    0    0  0.83536172806E+01  0.82138023077E+01 -0.32389329021E+02  0.34442968868E+02  0.00000000000E+00 0.  1.
         22    1    1    2    0    0 -0.24119072555E+02 -0.10767594338E+02  0.10521114730E+03  0.10847606310E+03  0.00000000000E+00 0. -1.
</event>
<event>
 6    1  0.1383644E-005  0.9754937E+02  0.7818608E-02  0.1310772E+00
          2   -1    0    0  502    0  0.00000000000E+00  0.00000000000E+00  0.16728999453E+03  0.16728999453E+03  0.00000000000E+00 0. -1.
          1   -1    0    0  501    0 -0.00000000000E+00 -0.00000000000E+00 -0.15207474468E+03  0.15207474468E+03  0.00000000000E+00 0. -1.
          2    1    1    2  501    0 -0.74598518132E+01  0.48386252346E+02 -0.41982335016E+02  0.64493373757E+02  0.00000000000E+00 0. -1.
          1    1    1    2  502    0 -0.38503446564E+01 -0.21037609066E+02  0.11585142892E+03  0.11780899682E+03  0.00000000000E+00 0. -1.
         22    1    1    2    0    0 -0.49713963000E+02 -0.31602547335E+02 -0.11971609846E+02  0.60112549085E+02  0.00000000000E+00 0.  1.
         22    1    1    2    0    0  0.61024159470E+02  0.42539040550E+01 -0.46682234209E+02  0.76949819554E+02  0.00000000000E+00 0. -1.
</event>
<event>
 6    1  0.1383644E-005  0.1097302E+03  0.7818608E-02  0.1391812E+00
          2   -1    0    0  502    0  0.00000000000E+00  0.00000000000E+00  0.36870431408E+03  0.36870431408E+03  0.00000000000E+00 0. -1.
          1   -1    0    0  501    0 -0.00000000000E+00 -0.00000000000E+00 -0.30366128745E+03  0.30366128745E+03  0.00000000000E+00 0. -1.
          2    1    1    2  501    0  0.20838713591E+02  0.78210295859E+02  0.28448941437E+03  0.29577919002E+03  0.00000000000E+00 0. -1.
          1    1    1    2  502    0 -0.46923806238E+02 -0.97109527892E+02 -0.22164214741E+03  0.24649005154E+03  0.00000000000E+00 0. -1.
         22    1    1    2    0    0  0.15781861256E+02  0.22130216989E+02  0.62856653832E+02  0.68481914252E+02  0.00000000000E+00 0. -1.
         22    1    1    2    0    0  0.10303231390E+02 -0.32309849555E+01 -0.60660894168E+02  0.61614445726E+02  0.00000000000E+00 0. -1.
</event>
<event>
 6    1  0.1383644E-005  0.2093484E+02  0.7818608E-02  0.1737737E+00
          2   -1    0    0  502    0  0.00000000000E+00  0.00000000000E+00  0.14961388526E+03  0.14961388526E+03  0.00000000000E+00 0.  1.
          1   -1    0    0  501    0 -0.00000000000E+00 -0.00000000000E+00 -0.81674627350E+03  0.81674627350E+03  0.00000000000E+00 0.  1.
          2    1    1    2  501    0  0.29347622567E+02 -0.10281579520E+02  0.85033829839E+02  0.90541405140E+02  0.00000000000E+00 0.  1.
          1    1    1    2  502    0 -0.28865737809E+02  0.11954384651E+02 -0.74946077209E+03  0.75011171637E+03  0.00000000000E+00 0.  1.
         22    1    1    2    0    0  0.92755765367E+01  0.40207984557E+01  0.60581736828E+02  0.61419459274E+02  0.00000000000E+00 0.  1.
         22    1    1    2    0    0 -0.97574612952E+01 -0.56936035870E+01 -0.63287182825E+02  0.64287577981E+02  0.00000000000E+00 0. -1.
</event>
<event>
 6    1  0.1383644E-005  0.1313634E+03  0.7818608E-02  0.1289684E+00
          2   -1    0    0  502    0  0.00000000000E+00  0.00000000000E+00  0.56835639996E+03  0.56835639996E+03  0.00000000000E+00 0.  1.
          1   -1    0    0  501    0 -0.00000000000E+00 -0.00000000000E+00 -0.45646438598E+02  0.45646438598E+02  0.00000000000E+00 0.  1.
          2    1    1    2  501    0  0.34406286155E+02  0.74230481263E+02  0.16833340744E+03  0.18716327882E+03  0.00000000000E+00 0.  1.
          1    1    1    2  502    0 -0.36054247048E+02 -0.10339483007E+03  0.14431138813E+03  0.18115235675E+03  0.00000000000E+00 0.  1.
         22    1    1    2    0    0  0.32069573773E+02  0.50134701883E+02  0.19810375509E+03  0.20685029291E+03  0.00000000000E+00 0.  1.
         22    1    1    2    0    0 -0.30421612880E+02 -0.20970353081E+02  0.11961410699E+02  0.38836910079E+02  0.00000000000E+00 0.  1.
</event>
<event>
 6    1  0.1383644E-005  0.4904529E+02  0.7818608E-02  0.1456792E+00
          2   -1    0    0  502    0  0.00000000000E+00  0.00000000000E+00  0.13065320914E+03  0.13065320914E+03  0.00000000000E+00 0. -1.
          1   -1    0    0  501    0 -0.00000000000E+00 -0.00000000000E+00 -0.20726572475E+03  0.20726572475E+03  0.00000000000E+00 0. -1.
          2    1    1    2  501    0  0.30831599545E+02 -0.10527051624E+02  0.86556720386E+02  0.92484983594E+02  0.00000000000E+00 0. -1.
          1    1    1    2  502    0 -0.25914316711E+02 -0.39439124147E+02 -0.67153708899E+02  0.82076896524E+02  0.00000000000E+00 0. -1.
         22    1    1    2    0    0  0.16734858079E+02 -0.33663344033E+01  0.24465694759E+02  0.29832162213E+02  0.00000000000E+00 0. -1.
         22    1    1    2    0    0 -0.21652140914E+02  0.53332510174E+02 -0.12048122186E+03  0.13352489156E+03  0.00000000000E+00 0. -1.
</event>
<event>
 6    1  0.1383644E-005  0.5765260E+02  0.7818608E-02  0.1501667E+00
          2   -1    0    0  502    0  0.00000000000E+00  0.00000000000E+00  0.14256141619E+03  0.14256141619E+03  0.00000000000E+00 0.  1.
          1   -1    0    0  501    0 -0.00000000000E+00 -0.00000000000E+00 -0.45799098646E+03  0.45799098646E+03  0.00000000000E+00 0. -1.
          2    1    1    2  501    0 -0.84824702272E+01 -0.32307376721E+02  0.71144017928E+02  0.78595102765E+02  0.00000000000E+00 0.  1.
          1    1    1    2  502    0 -0.86233765185E+01  0.47979623775E+02 -0.38725874670E+03  0.39031492902E+03  0.00000000000E+00 0. -1.
         22    1    1    2    0    0  0.12247353983E+02  0.79613948199E+01 -0.62407135991E+02  0.64093931925E+02  0.00000000000E+00 0. -1.
         22    1    1    2    0    0  0.48584927625E+01 -0.23633641873E+02  0.63092294490E+02  0.67548438947E+02  0.00000000000E+00 0. -1.
</event>
<event>
 6    1  0.1383644E-005  0.1509116E+03  0.7818608E-02  0.1251372E+00
          2   -1    0    0  502    0  0.00000000000E+00  0.00000000000E+00  0.15588166772E+03  0.15588166772E+03  0.00000000000E+00 0. -1.
          1   -1    0    0  501    0 -0.00000000000E+00 -0.00000000000E+00 -0.47507924858E+03  0.47507924858E+03  0.00000000000E+00 0. -1.
          2    1    1    2  501    0 -0.34307794455E+02 -0.11916187942E+03  0.57850307311E+02  0.13683287734E+03  0.00000000000E+00 0. -1.
          1    1    1    2  502    0  0.34985158227E+01  0.16961029369E+03 -0.27185234653E+03  0.32044280246E+03  0.00000000000E+00 0. -1.
         22    1    1    2    0    0 -0.98965358403E+01 -0.19554280265E+02  0.25340468861E+02  0.33502994798E+02  0.00000000000E+00 0. -1.
         22    1    1    2    0    0  0.40705814473E+02 -0.30894134004E+02 -0.13053601050E+03  0.14018224169E+03  0.00000000000E+00 0.  1.
</event>
<event>
 6    1  0.1383644E-005  0.4788939E+02  0.7818608E-02  0.1494939E+00
          2   -1    0    0  502    0  0.00000000000E+00  0.00000000000E+00  0.17241937637E+03  0.17241937637E+03  0.00000000000E+00 0.  1.
          1   -1    0    0  501    0 -0.00000000000E+00 -0.00000000000E+00 -0.24596496910E+03  0.24596496910E+03  0.00000000000E+00 0.  1.
          2    1    1    2  501    0 -0.23784211732E+01 -0.69045608394E+02  0.12918468829E+03  0.14649790652E+03  0.00000000000E+00 0.  1.
          1    1    1    2  502    0  0.13316423600E+02  0.47674575676E+02 -0.25421366999E+02  0.55645648559E+02  0.00000000000E+00 0.  1.
         22    1    1    2    0    0 -0.15518568762E+02 -0.10696081404E+02  0.13191885321E+02  0.23005607407E+02  0.00000000000E+00 0. -1.
         22    1    1    2    0    0  0.45805663350E+01  0.32067114122E+02 -0.19050079934E+03  0.19323518299E+03  0.00000000000E+00 0.  1.
</event>
<event>
 6    1  0.1383644E-005  0.6631218E+02  0.7818608E-02  0.1474751E+00
          2   -1    0    0  502    0  0.00000000000E+00  0.00000000000E+00  0.22835168914E+03  0.22835168914E+03  0.00000000000E+00 0. -1.
          1   -1    0    0  501    0 -0.00000000000E+00 -0.00000000000E+00 -0.83530369147E+02  0.83530369147E+02  0.00000000000E+00 0.  1.
          2    1    1    2  501    0 -0.14901594386E+02  0.28454843824E+02  0.11479876389E+03  0.11920776755E+03  0.00000000000E+00 0. -1.
          1    1    1    2  502    0  0.20914451153E+02 -0.53147273247E+02 -0.87835084145E+01  0.57785784936E+02  0.00000000000E+00 0.  1.
         22    1    1    2    0    0  0.46961897118E+01  0.33680436867E+02  0.82381952313E+02  0.89124699676E+02  0.00000000000E+00 0.  1.
         22    1    1    2    0    0 -0.10709046479E+02 -0.89880074442E+01 -0.43575887797E+02  0.45763806131E+02  0.00000000000E+00 0.  1.
</event>
<event>
 6    1  0.1383644E-005  0.3183574E+02  0.7818608E-02  0.1584333E+00
          2   -1    0    0  502    0  0.00000000000E+00  0.00000000000E+00  0.85731032924E+02  0.85731032924E+02  0.00000000000E+00 0.  1.
          1   -1    0    0  501    0 -0.00000000000E+00 -0.00000000000E+00 -0.37936503194E+03  0.37936503194E+03  0.00000000000E+00 0.  1.
          2    1    1    2  501    0 -0.49907227638E+02 -0.96988507860E+01 -0.65934001164E+01  0.51266675357E+02  0.00000000000E+00 0.  1.
          1    1    1    2  502    0  0.39581191041E+02  0.37886641096E+02 -0.28401204860E+03  0.28924887555E+03  0.00000000000E+00 0.  1.
         22    1    1    2    0    0  0.13001165982E+02 -0.11696116890E+02 -0.61412074325E+02  0.63853522535E+02  0.00000000000E+00 0. -1.
         22    1    1    2    0    0 -0.26751293850E+01 -0.16491673420E+02  0.58383524025E+02  0.60726991421E+02  0.00000000000E+00 0.  1.
</event>
<event>
 6    1  0.1383644E-005  0.6688433E+02  0.7818608E-02  0.1424627E+00
          2   -1    0    0  502    0  0.00000000000E+00  0.00000000000E+00  0.53401838944E+02  0.53401838944E+02  0.00000000000E+00 0. -1.
          1   -1    0    0  501    0 -0.00000000000E+00 -0.00000000000E+00 -0.33617910777E+03  0.33617910777E+03  0.00000000000E+00 0. -1.
          2    1    1    2  501    0  0.17788891131E+02  0.22046748696E+02  0.11912373838E+02  0.30731228843E+02  0.00000000000E+00 0. -1.
          1    1    1    2  502    0 -0.28661691664E+02 -0.43341099815E+02 -0.19093157030E+03  0.19787573888E+03  0.00000000000E+00 0. -1.
         22    1    1    2    0    0 -0.27342401648E+02  0.81522997782E+01 -0.11543511655E+03  0.11890892756E+03  0.00000000000E+00 0.  1.
         22    1    1    2    0    0  0.38215202181E+02  0.13142051341E+02  0.11677044184E+02  0.42065051433E+02  0.00000000000E+00 0. -1.
</event>
<event>
 6    1  0.1383644E-005  0.6385499E+02  0.7818608E-02  0.1486755E+00
          2   -1    0    0  502    0  0.00000000000E+00  0.00000000000E+00  0.15826426684E+03  0.15826426684E+03  0.00000000000E+00 0.  1.
          1   -1    0    0  501    0 -0.00000000000E+00 -0.00000000000E+00 -0.15070424917E+03  0.15070424917E+03  0.00000000000E+00 0. -1.
          2    1    1    2  501    0 -0.17648648921E+02  0.27332939755E+02  0.54423188625E+02  0.63407001699E+02  0.00000000000E+00 0.  1.
          1    1    1    2  502    0  0.51675460191E+02 -0.25735511845E+02 -0.89058144883E+02  0.10613210130E+03  0.00000000000E+00 0. -1.
         22    1    1    2    0    0 -0.27567342133E+02  0.99346522147E+01  0.87478682171E+02  0.92256032330E+02  0.00000000000E+00 0.  1.
         22    1    1    2    0    0 -0.64594691367E+01 -0.11532080125E+02 -0.45283708239E+02  0.47173380686E+02  0.00000000000E+00 0. -1.
</event>
<event>
 6    1  0.1383644E-005  0.5156003E+02  0.7818608E-02  0.1473192E+00
          2   -1    0    0  502    0  0.00000000000E+00  0.00000000000E+00  0.20573780074E+03  0.20573780074E+03  0.00000000000E+00 0. -1.
          1   -1    0    0  501    0 -0.00000000000E+00 -0.00000000000E+00 -0.17770809695E+03  0.17770809695E+03  0.00000000000E+00 0. -1.
          2    1    1    2  501    0 -0.31190322487E+02  0.49642202991E+02  0.12741649746E+03  0.14025743602E+03  0.00000000000E+00 0. -1.
          1    1    1    2  502    0 -0.10091166906E+02 -0.85095143265E+02 -0.32525824142E+02  0.91656665295E+02  0.00000000000E+00 0. -1.
         22    1    1    2    0    0  0.19152700703E+02  0.93013000147E+01 -0.10096915603E+03  0.10318968261E+03  0.00000000000E+00 0. -1.
         22    1    1    2    0    0  0.22128788690E+02  0.26151640260E+02  0.34108186507E+02  0.48342113772E+02  0.00000000000E+00 0. -1.
</event>
<event>
 6    1  0.1383644E-005  0.6425900E+02  0.7818608E-02  0.1454086E+00
          2   -1    0    0  502    0  0.00000000000E+00  0.00000000000E+00  0.71212906617E+02  0.71212906617E+02  0.00000000000E+00 0. -1.
          1   -1    0    0  501    0 -0.00000000000E+00 -0.00000000000E+00 -0.29214826704E+03  0.29214826704E+03  0.00000000000E+00 0.  1.
          2    1    1    2  501    0  0.78726485259E+01 -0.23873783431E+02  0.28800443158E+02  0.38228283459E+02  0.00000000000E+00 0. -1.
          1    1    1    2  502    0 -0.25103086078E+02  0.46632750332E+02 -0.15247812705E+03  0.16141362261E+03  0.00000000000E+00 0.  1.
         22    1    1    2    0    0 -0.18500043073E+02 -0.93003317137E+01 -0.11831713957E+03  0.12011533324E+03  0.00000000000E+00 0.  1.
         22    1    1    2    0    0  0.35730480626E+02 -0.13458635187E+02  0.21059463043E+02  0.43603934347E+02  0.00000000000E+00 0. -1.
</event>
<event>
 6    1  0.1383644E-005  0.9583660E+02  0.7818608E-02  0.1385051E+00
          2   -1    0    0  502    0  0.00000000000E+00  0.00000000000E+00  0.41748735336E+03  0.41748735336E+03  0.00000000000E+00 0. -1.
          1   -1    0    0  501    0 -0.00000000000E+00 -0.00000000000E+00 -0.13833504867E+03  0.13833504867E+03  0.00000000000E+00 0.  1.
          2    1    1    2  501    0  0.42456629468E+02 -0.62775409991E+02  0.28441543747E+03  0.29433901977E+03  0.00000000000E+00 0. -1.
          1    1    1    2  502    0 -0.63960400297E+02  0.81686580959E+02 -0.61772099556E+02  0.12074527982E+03  0.00000000000E+00 0.  1.
         22    1    1    2    0    0  0.18068524837E+02 -0.38619106709E+00 -0.39214186751E+02  0.43178387833E+02  0.00000000000E+00 0.  1.
         22    1    1    2    0    0  0.34352459923E+01 -0.18524979901E+02  0.95723153524E+02  0.97559714616E+02  0.00000000000E+00 0.  1.
</event>
<event>
 6    1  0.1383644E-005  0.1850179E+03  0.7818608E-02  0.1170843E+00
          2   -1    0    0  502    0  0.00000000000E+00  0.00000000000E+00  0.61052947815E+03  0.61052947815E+03  0.00000000000E+00 0. -1.
          1   -1    0    0  501    0 -0.00000000000E+00 -0.00000000000E+00 -0.21983551661E+03  0.21983551661E+03  0.00000000000E+00 0. -1.
          2    1    1    2  501    0  0.50651090416E+02 -0.19283908452E+03  0.48676555240E+03  0.52601630059E+03  0.00000000000E+00 0. -1.
          1    1    1    2  502    0  0.24640946644E+02  0.52572487895E+02 -0.80719547722E+02  0.99431826491E+02  0.00000000000E+00 0. -1.
         22    1    1    2    0    0 -0.65074962051E+02  0.14024029643E+03 -0.54907039943E+02  0.16406362932E+03  0.00000000000E+00 0. -1.
         22    1    1    2    0    0 -0.10217075009E+02  0.26300194142E-01  0.39554996803E+02  0.40853238372E+02  0.00000000000E+00 0.  1.
</event>
<event>
 6    1  0.1383644E-005  0.8145026E+02  0.7818608E-02  0.1353737E+00
          2   -1    0    0  502    0  0.00000000000E+00  0.00000000000E+00  0.22787458196E+03  0.22787458196E+03  0.00000000000E+00 0.  1.
          1   -1    0    0  501    0 -0.00000000000E+00 -0.00000000000E+00 -0.24369449504E+03  0.24369449504E+03  0.00000000000E+00 0. -1.
          2    1    1    2  501    0 -0.62131937275E+02 -0.19905224204E+02  0.15761902281E+03  0.17058825262E+03  0.00000000000E+00 0.  1.
          1    1    1    2  502    0  0.31707384998E+02  0.57376489739E+02 -0.14551035972E+03  0.15959537783E+03  0.00000000000E+00 0. -1.
         22    1    1    2    0    0 -0.12279962880E+02 -0.12503247679E+02  0.47811395031E+02  0.50922079550E+02  0.00000000000E+00 0.  1.
         22    1    1    2    0    0  0.42704515157E+02 -0.24968017855E+02 -0.75739971199E+02  0.90463366993E+02  0.00000000000E+00 0.  1.
</event>
<event>
 6    1  0.1383644E-005  0.1053659E+03  0.7818608E-02  0.1376366E+00
          2   -1    0    0  502    0  0.00000000000E+00  0.00000000000E+00  0.33692806189E+03  0.33692806189E+03  0.00000000000E+00 0.  1.
          1   -1    0    0  501    0 -0.00000000000E+00 -0.00000000000E+00 -0.73714535632E+02  0.73714535632E+02  0.00000000000E+00 0.  1.
          2    1    1    2  501    0 -0.88975666336E+02 -0.55914021702E+00  0.10587383526E+02  0.89605103246E+02  0.00000000000E+00 0.  1.
          1    1    1    2  502    0 -0.22915365328E+02 -0.17481725674E+02  0.18736558618E+02  0.34377075639E+02  0.00000000000E+00 0.  1.
         22    1    1    2    0    0  0.11026832683E+03  0.24584664985E+01  0.24416746757E+03  0.26792331026E+03  0.00000000000E+00 0.  1.
         22    1    1    2    0    0  0.16227048380E+01  0.15582399392E+02 -0.10277883462E+02  0.18737108376E+02  0.00000000000E+00 0.  1.
</event>
<event>
 6    1  0.1383644E-005  0.4964529E+02  0.7818608E-02  0.1475637E+00
          2   -1    0    0  502    0  0.00000000000E+00  0.00000000000E+00  0.99879055809E+03  0.99879055809E+03  0.00000000000E+00 0. -1.
          1   -1    0    0  501    0 -0.00000000000E+00 -0.00000000000E+00 -0.51055581694E+02  0.51055581694E+02  0.00000000000E+00 0. -1.
          2    1    1    2  501    0 -0.20671538766E+02  0.23959822871E+01  0.38254591268E+02  0.43548444280E+02  0.00000000000E+00 0. -1.
          1    1    1    2  502    0  0.46814008233E+02  0.85883030081E+01  0.86857775048E+03  0.86988080732E+03  0.00000000000E+00 0. -1.
         22    1    1    2    0    0 -0.30004336899E+02  0.21689382051E+02  0.78297059851E+02  0.86609001309E+02  0.00000000000E+00 0. -1.
         22    1    1    2    0    0  0.38618674321E+01 -0.32673667347E+02 -0.37394425207E+02  0.49807886870E+02  0.00000000000E+00 0. -1.
</event>
<event>
 6    1  0.1383644E-005  0.3916219E+02  0.7818608E-02  0.1561029E+00
          2   -1    0    0  502    0  0.00000000000E+00  0.00000000000E+00  0.45122949089E+03  0.45122949089E+03  0.00000000000E+00 0.  1.
          1   -1    0    0  501    0 -0.00000000000E+00 -0.00000000000E+00 -0.49679330668E+02  0.49679330668E+02  0.00000000000E+00 0.  1.
          2    1    1    2  501    0 -0.27654689629E+02  0.40351225300E+02  0.24349799216E+03  0.24836319258E+03  0.00000000000E+00 0.  1.
          1    1    1    2  502    0 -0.19606452656E+02 -0.50225357457E+02  0.71057081820E+02  0.89197020097E+02  0.00000000000E+00 0.  1.
         22    1    1    2    0    0  0.29561296054E+02  0.70994677040E+01  0.12108187250E+03  0.12484026800E+03  0.00000000000E+00 0.  1.
         22    1    1    2    0    0  0.17699846231E+02  0.27746644536E+01 -0.34086786263E+02  0.38508340878E+02  0.00000000000E+00 0.  1.
</event>
<event>
 6    1  0.1383644E-005  0.8698209E+02  0.7818608E-02  0.1433366E+00
          2   -1    0    0  502    0  0.00000000000E+00  0.00000000000E+00  0.26863384864E+03  0.26863384864E+03  0.00000000000E+00 0. -1.
          1   -1    0    0  501    0 -0.00000000000E+00 -0.00000000000E+00 -0.18658778984E+03  0.18658778984E+03  0.00000000000E+00 0. -1.
          2    1    1    2  501    0 -0.60823547207E+02 -0.11446044945E+01  0.17617246727E+03  0.18638012833E+03  0.00000000000E+00 0. -1.
          1    1    1    2  502    0  0.77059224069E+02  0.11213080732E+02 -0.12134561433E+03  0.14418257631E+03  0.00000000000E+00 0. -1.
         22    1    1    2    0    0 -0.10272358813E+01  0.11313866579E+02 -0.45737431850E+02  0.47127183904E+02  0.00000000000E+00 0. -1.
         22    1    1    2    0    0 -0.15208440981E+02 -0.21382342816E+02  0.72956637715E+02  0.77531749935E+02  0.00000000000E+00 0. -1.
</event>
<event>
 6    1  0.1383644E-005  0.4849930E+03  0.7818608E-02  0.1116526E+00
          2   -1    0    0  502    0  0.00000000000E+00  0.00000000000E+00  0.14159179080E+04  0.14159179080E+04  0.00000000000E+00 0.  1.
          1   -1    0    0  501    0 -0.00000000000E+00 -0.00000000000E+00 -0.17437036155E+03  0.17437036155E+03  0.00000000000E+00 0.  1.
          2    1    1    2  501    0  0.90883627948E+00  0.12397970058E+03  0.75792367750E+02  0.14531440103E+03  0.00000000000E+00 0.  1.
          1    1    1    2  502    0 -0.83970456357E+02 -0.46853525122E+03  0.62680057546E+03  0.78705481421E+03  0.00000000000E+00 0.  1.
         22    1    1    2    0    0  0.20115775433E+02  0.24328680590E+02  0.47626938734E+01  0.31925105692E+02  0.00000000000E+00 0.  1.
         22    1    1    2    0    0  0.62945844644E+02  0.32022687006E+03  0.53419190942E+03  0.62599394865E+03  0.00000000000E+00 0.  1.
</event>
<event>
 6    1  0.1383644E-005  0.4104862E+02  0.7818608E-02  0.1588795E+00
          2   -1    0    0  502    0  0.00000000000E+00  0.00000000000E+00  0.16748511836E+03  0.16748511836E+03  0.00000000000E+00 0. -1.
          1   -1    0    0  501    0 -0.00000000000E+00 -0.00000000000E+00 -0.10345519575E+03  0.10345519575E+03  0.00000000000E+00 0. -1.
          2    1    1    2  501    0  0.13321885130E+02 -0.45616813715E+02  0.99542037739E+02  0.11030405067E+03  0.00000000000E+00 0. -1.
          1    1    1    2  502    0 -0.21195910462E+02  0.84592184034E+01 -0.25185211173E+02  0.33987054272E+02  0.00000000000E+00 0. -1.
         22    1    1    2    0    0  0.12842131090E+02  0.26317970207E+01 -0.62516470194E+02  0.63876096719E+02  0.00000000000E+00 0. -1.
         22    1    1    2    0    0 -0.49681057583E+01  0.34525798291E+02  0.52189566242E+02  0.62773112453E+02  0.00000000000E+00 0. -1.
</event>
<event>
 6    1  0.1383644E-005  0.1123224E+03  0.7818608E-02  0.1360903E+00
          2   -1    0    0  502    0  0.00000000000E+00  0.00000000000E+00  0.23074925262E+03  0.23074925262E+03  0.00000000000E+00 0. -1.
          1   -1    0    0  501    0 -0.00000000000E+00 -0.00000000000E+00 -0.20617126424E+03  0.20617126424E+03  0.00000000000E+00 0.  1.
          2    1    1    2  501    0 -0.62253255202E+02  0.61404403570E+02  0.14952310590E+03  0.17321410958E+03  0.00000000000E+00 0. -1.
          1    1    1    2  502    0  0.67091392762E+02 -0.70470864195E+02 -0.84102462299E+02  0.12861034891E+03  0.00000000000E+00 0.  1.
         22    1    1    2    0    0  0.29463020783E+01 -0.16452362295E+02 -0.83295422567E+02  0.84955802284E+02  0.00000000000E+00 0.  1.
         22    1    1    2    0    0 -0.77844396380E+01  0.25518822920E+02  0.42452767346E+02  0.50140256072E+02  0.00000000000E+00 0. -1.
</event>
<event>
 6    1  0.1383644E-005  0.1479331E+03  0.7818608E-02  0.1293982E+00
          2   -1    0    0  502    0  0.00000000000E+00  0.00000000000E+00  0.22499727754E+03  0.22499727754E+03  0.00000000000E+00 0. -1.
          1   -1    0    0  501    0 -0.00000000000E+00 -0.00000000000E+00 -0.80821841129E+03  0.80821841129E+03  0.00000000000E+00 0. -1.
          2    1    1    2  501    0  0.11104651988E+03  0.12442670512E+02  0.16359969428E+03  0.19811867553E+03  0.00000000000E+00 0. -1.
          1    1    1    2  502    0 -0.13804810185E+03 -0.41314860718E+02 -0.66666906933E+03  0.68206439882E+03  0.00000000000E+00 0. -1.
         22    1    1    2    0    0  0.33250940593E+02  0.58280047339E+01  0.27016048033E+02  0.43237224018E+02  0.00000000000E+00 0. -1.
         22    1    1    2    0    0 -0.62493586197E+01  0.23044185471E+02 -0.10716780673E+03  0.10979539046E+03  0.00000000000E+00 0. -1.
</event>
<event>
 6    1  0.1383644E-005  0.5753564E+02  0.7818608E-02  0.1462883E+00
          2   -1    0    0  502    0  0.00000000000E+00  0.00000000000E+00  0.13732008710E+03  0.13732008710E+03  0.00000000000E+00 0. -1.
          1   -1    0    0  501    0 -0.00000000000E+00 -0.00000000000E+00 -0.21297368876E+03  0.21297368876E+03  0.00000000000E+00 0. -1.
          2    1    1    2  501    0 -0.37853811485E+02  0.22082249809E+02  0.87323411613E+02  0.97703198598E+02  0.00000000000E+00 0. -1.
          1    1    1    2  502    0  0.44148414941E+02 -0.46690820576E+02 -0.47413050856E+02  0.79856826003E+02  0.00000000000E+00 0. -1.
         22    1    1    2    0    0  0.70507631073E+01  0.24379470706E+02 -0.14139691494E+03  0.14365639355E+03  0.00000000000E+00 0. -1.
         22    1    1    2    0    0 -0.13345366563E+02  0.22910006165E+00  0.25832952526E+02  0.29077357717E+02  0.00000000000E+00 0. -1.
</event>
<event>
 6    1  0.1383644E-005  0.3465948E+02  0.7818608E-02  0.1592289E+00
          2   -1    0    0  502    0  0.00000000000E+00  0.00000000000E+00  0.19820095608E+03  0.19820095608E+03  0.00000000000E+00 0.  1.
          1   -1    0    0  501    0 -0.00000000000E+00 -0.00000000000E+00 -0.83403737786E+02  0.83403737786E+02  0.00000000000E+00 0. -1.
          2    1    1    2  501    0 -0.31039228293E+02 -0.30869773539E+01  0.10531720463E+03  0.10983932226E+03  0.00000000000E+00 0.  1.
          1    1    1    2  502    0  0.28500492378E+02 -0.15494344115E+02 -0.25790502359E+02  0.41442765077E+02  0.00000000000E+00 0. -1.
         22    1    1    2    0    0  0.15105126192E+02 -0.68355920618E+01 -0.43527678895E+02  0.46578417600E+02  0.00000000000E+00 0. -1.
         22    1    1    2    0    0 -0.12566390277E+02  0.25416913530E+02  0.78798194914E+02  0.83744188931E+02  0.00000000000E+00 0.  1.
</event>
<event>
 6    1  0.1383644E-005  0.1963275E+03  0.7818608E-02  0.1230204E+00
          2   -1    0    0  502    0  0.00000000000E+00  0.00000000000E+00  0.19530659442E+04  0.19530659442E+04  0.00000000000E+00 0.  1.
          1   -1    0    0  501    0 -0.00000000000E+00 -0.00000000000E+00 -0.36910652290E+02  0.36910652290E+02  0.00000000000E+00 0.  1.
          2    1    1    2  501    0 -0.11325614839E+03  0.11160716198E+03  0.60309780800E+03  0.62370672576E+03  0.00000000000E+00 0.  1.
          1    1    1    2  502    0  0.89650803154E+02 -0.14742917291E+03  0.11150034913E+04  0.11282754155E+04  0.00000000000E+00 0.  1.
         22    1    1    2    0    0  0.27124868088E+02 -0.23143091406E+02  0.48772102632E+01  0.35988169286E+02  0.00000000000E+00 0.  1.
         22    1    1    2    0    0 -0.35195228558E+01  0.58965102331E+02  0.19317678232E+03  0.20200628595E+03  0.00000000000E+00 0.  1.
</event>
<event>
 6    1  0.1383644E-005  0.5319197E+02  0.7818608E-02  0.1533855E+00
          2   -1    0    0  502    0  0.00000000000E+00  0.00000000000E+00  0.19878466887E+03  0.19878466887E+03  0.00000000000E+00 0.  1.
          1   -1    0    0  501    0 -0.00000000000E+00 -0.00000000000E+00 -0.85301871790E+02  0.85301871790E+02  0.00000000000E+00 0.  1.
          2    1    1    2  501    0  0.12578732713E+02  0.20907137903E+02  0.69851448448E+02  0.73990254644E+02  0.00000000000E+00 0.  1.
          1    1    1    2  502    0 -0.24313529589E+02 -0.37716657848E+02 -0.39385022379E+02  0.59706565703E+02  0.00000000000E+00 0.  1.
         22    1    1    2    0    0  0.47788407440E+01 -0.11091553599E+02 -0.30754693129E+02  0.33041050673E+02  0.00000000000E+00 0. -1.
         22    1    1    2    0    0  0.69559561313E+01  0.27901073544E+02  0.11377106414E+03  0.11734866964E+03  0.00000000000E+00 0.  1.
</event>
<event>
 6    1  0.1383644E-005  0.8884286E+02  0.7818608E-02  0.1416172E+00
          2   -1    0    0  502    0  0.00000000000E+00  0.00000000000E+00  0.32701678674E+03  0.32701678674E+03  0.00000000000E+00 0.  1.
          1   -1    0    0  501    0 -0.00000000000E+00 -0.00000000000E+00 -0.89733625243E+02  0.89733625243E+02  0.00000000000E+00 0.  1.
          2    1    1    2  501    0  0.57046458167E+02 -0.26193018658E+02  0.63164930295E+02  0.89051563911E+02  0.00000000000E+00 0.  1.
          1    1    1    2  502    0 -0.78716876088E+02  0.23984296689E+02  0.18017567400E+03  0.19807793054E+03  0.00000000000E+00 0.  1.
         22    1    1    2    0    0  0.19045395722E+02 -0.11404498760E+02  0.59033770180E+02  0.63069610050E+02  0.00000000000E+00 0.  1.
         22    1    1    2    0    0  0.26250221997E+01  0.13613220729E+02 -0.65091212976E+02  0.66551307477E+02  0.00000000000E+00 0.  1.
</event>
<event>
 6    1  0.1593295E-005  0.7792660E+02  0.7818608E-02  0.1417591E+00
          2   -1    0    0  502    0  0.00000000000E+00  0.00000000000E+00  0.31379218851E+03  0.31379218851E+03  0.00000000000E+00 0. -1.
          1   -1    0    0  501    0 -0.00000000000E+00 -0.00000000000E+00 -0.78484500852E+03  0.78484500852E+03  0.00000000000E+00 0.  1.
          2    1    1    2  501    0  0.56524882224E+02 -0.33133830030E+02  0.25756738304E+03  0.26577033282E+03  0.00000000000E+00 0. -1.
          1    1    1    2  502    0 -0.54179231394E+02  0.47948122785E+02 -0.69569021343E+03  0.69944212388E+03  0.00000000000E+00 0.  1.
         22    1    1    2    0    0 -0.14745844340E+02 -0.13657671082E+02 -0.81160527220E+02  0.83612218505E+02  0.00000000000E+00 0.  1.
         22    1    1    2    0    0  0.12400193510E+02 -0.11566216731E+01  0.48230537607E+02  0.49812521826E+02  0.00000000000E+00 0. -1.
</event>
<event>
 6    1  0.1383644E-005  0.2978057E+02  0.7818608E-02  0.1618819E+00
          2   -1    0    0  502    0  0.00000000000E+00  0.00000000000E+00  0.69614124674E+02  0.69614124674E+02  0.00000000000E+00 0.  1.
          1   -1    0    0  501    0 -0.00000000000E+00 -0.00000000000E+00 -0.20403766048E+03  0.20403766048E+03  0.00000000000E+00 0. -1.
          2    1    1    2  501    0  0.22971995715E+02  0.49638262673E+02 -0.56174427033E+01  0.54983864641E+02  0.00000000000E+00 0.  1.
          1    1    1    2  502    0 -0.96554071706E+01 -0.28040232257E+02 -0.71164216098E+02  0.77096220177E+02  0.00000000000E+00 0. -1.
         22    1    1    2    0    0  0.53028085312E+01 -0.22730971122E+02  0.37744397896E+02  0.44378557875E+02  0.00000000000E+00 0. -1.
         22    1    1    2    0    0 -0.18619397076E+02  0.11329407063E+01 -0.95386274903E+02  0.97193142464E+02  0.00000000000E+00 0. -1.
</event>
<event>
 6    1  0.1383644E-005  0.3902846E+02  0.7818608E-02  0.1541975E+00
          2   -1    0    0  502    0  0.00000000000E+00  0.00000000000E+00  0.38602238842E+03  0.38602238842E+03  0.00000000000E+00 0. -1.
          1   -1    0    0  501    0 -0.00000000000E+00 -0.00000000000E+00 -0.12372769770E+03  0.12372769770E+03  0.00000000000E+00 0.  1.
          2    1    1    2  501    0  0.46180217361E+02  0.58504465141E+02  0.22814430506E+03  0.24001085152E+03  0.00000000000E+00 0. -1.
          1    1    1    2  502    0 -0.52607960866E+02 -0.54105939782E+02 -0.73392423388E+02  0.10526869467E+03  0.00000000000E+00 0.  1.
         22    1    1    2    0    0  0.10775533162E+02 -0.19162757643E+02  0.13295526805E+03  0.13476062740E+03  0.00000000000E+00 0. -1.
         22    1    1    2    0    0 -0.43477896567E+01  0.14764232283E+02 -0.25412459006E+02  0.29709912530E+02  0.00000000000E+00 0. -1.
</event>
<event>
 6    1  0.1383644E-005  0.3856971E+02  0.7818608E-02  0.1576049E+00
          2   -1    0    0  502    0  0.00000000000E+00  0.00000000000E+00  0.17081503479E+03  0.17081503479E+03  0.00000000000E+00 0. -1.
          1   -1    0    0  501    0 -0.00000000000E+00 -0.00000000000E+00 -0.15000679334E+03  0.15000679334E+03  0.00000000000E+00 0. -1.
          2    1    1    2  501    0 -0.29677301796E+01 -0.22312007975E+02  0.81329103801E+02  0.84386351073E+02  0.00000000000E+00 0. -1.
          1    1    1    2  502    0 -0.20133295348E+02  0.38844440973E+02 -0.95753812249E+02  0.10527598366E+03  0.00000000000E+00 0. -1.
         22    1    1    2    0    0  0.47084954573E+01 -0.14664855857E+02  0.80658607560E+02  0.82116008794E+02  0.00000000000E+00 0. -1.
         22    1    1    2    0    0  0.18392530070E+02 -0.18675771406E+01 -0.45425657666E+02  0.49043484594E+02  0.00000000000E+00 0.  1.
</event>
<event>
 6    1  0.1383644E-005  0.1066282E+03  0.7818608E-02  0.1401808E+00
          2   -1    0    0  502    0  0.00000000000E+00  0.00000000000E+00  0.73020780686E+03  0.73020780686E+03  0.00000000000E+00 0. -1.
          1   -1    0    0  501    0 -0.00000000000E+00 -0.00000000000E+00 -0.88702737177E+02  0.88702737177E+02  0.00000000000E+00 0.  1.
          2    1    1    2  501    0 -0.35166419090E+02 -0.57006874540E+01  0.59664991614E+03  0.59771255408E+03  0.00000000000E+00 0. -1.
          1    1    1    2  502    0  0.43743786297E+02  0.38911599883E+02 -0.31718433868E+02  0.66585963176E+02  0.00000000000E+00 0.  1.
         22    1    1    2    0    0 -0.18318431071E+02 -0.35632926838E+02  0.11139053889E+03  0.11837703556E+03  0.00000000000E+00 0. -1.
         22    1    1    2    0    0  0.97410638642E+01  0.24220144092E+01 -0.34816951482E+02  0.36234991231E+02  0.00000000000E+00 0.  1.
</event>
<event>
 6    1  0.1383644E-005  0.6043018E+02  0.7818608E-02  0.1429803E+00
          2   -1    0    0  502    0  0.00000000000E+00  0.00000000000E+00  0.50012364292E+02  0.50012364292E+02  0.00000000000E+00 0. -1.
          1   -1    0    0  501    0 -0.00000000000E+00 -0.00000000000E+00 -0.26966896709E+03  0.26966896709E+03  0.00000000000E+00 0. -1.
          2    1    1    2  501    0  0.33510533313E+02 -0.12872686929E+02 -0.37995414351E+02  0.52271535499E+02  0.00000000000E+00 0. -1.
          1    1    1    2  502    0 -0.27138935344E+02  0.25968262869E+02 -0.11466309180E+03  0.12065859733E+03  0.00000000000E+00 0. -1.
         22    1    1    2    0    0 -0.38317063473E+02  0.29626483019E+01 -0.94257107659E+02  0.10179084921E+03  0.00000000000E+00 0. -1.
         22    1    1    2    0    0  0.31945465505E+02 -0.16058224242E+02  0.27259011012E+02  0.44960349348E+02  0.00000000000E+00 0. -1.
</event>
<event>
 6    1  0.1383644E-005  0.1794229E+03  0.7818608E-02  0.1187957E+00
          2   -1    0    0  502    0  0.00000000000E+00  0.00000000000E+00  0.27480130399E+03  0.27480130399E+03  0.00000000000E+00 0. -1.
          1   -1    0    0  501    0 -0.00000000000E+00 -0.00000000000E+00 -0.28601374265E+03  0.28601374265E+03  0.00000000000E+00 0. -1.
          2    1    1    2  501    0  0.17862261945E+03  0.38182752432E+01 -0.95783481057E+02  0.20271925081E+03  0.00000000000E+00 0. -1.
          1    1    1    2  502    0 -0.14635107933E+03 -0.80720873960E+02  0.11305559567E+03  0.20178222327E+03  0.00000000000E+00 0. -1.
         22    1    1    2    0    0 -0.66181537730E+02  0.94458535319E+02 -0.24609940022E+02  0.11793243820E+03  0.00000000000E+00 0. -1.
         22    1    1    2    0    0  0.33909997612E+02 -0.17555936602E+02 -0.38746132547E+01  0.38381134375E+02  0.00000000000E+00 0. -1.
</event>
<event>
 6    1  0.1383644E-005  0.5897532E+02  0.7818608E-02  0.1481428E+00
          2   -1    0    0  502    0  0.00000000000E+00  0.00000000000E+00  0.15336217550E+03  0.15336217550E+03  0.00000000000E+00 0.  1.
          1   -1    0    0  501    0 -0.00000000000E+00 -0.00000000000E+00 -0.10008196979E+03  0.10008196979E+03  0.00000000000E+00 0. -1.
          2    1    1    2  501    0 -0.21674585670E+02  0.10689131403E+02  0.63219846087E+02  0.67681564206E+02  0.00000000000E+00 0.  1.
          1    1    1    2  502    0  0.39879332781E+02 -0.26603597212E+02 -0.25627810266E+02  0.54358966387E+02  0.00000000000E+00 0. -1.
         22    1    1    2    0    0 -0.54882660343E+01 -0.17228367318E+02 -0.51955028541E+02  0.55011477850E+02  0.00000000000E+00 0. -1.
         22    1    1    2    0    0 -0.12716481077E+02  0.33142833127E+02  0.67643198429E+02  0.76392136849E+02  0.00000000000E+00 0.  1.
</event>
<event>
 6    1  0.1682611E-005  0.1071115E+03  0.7818608E-02  0.1367417E+00
          2   -1    0    0  502    0  0.00000000000E+00  0.00000000000E+00  0.33536489521E+03  0.33536489521E+03  0.00000000000E+00 0.  1.
          1   -1    0    0  501    0 -0.00000000000E+00 -0.00000000000E+00 -0.45740626079E+03  0.45740626079E+03  0.00000000000E+00 0.  1.
          2    1    1    2  501    0 -0.42667997103E+02  0.84285601969E+02  0.26566556022E+03  0.28196242757E+03  0.00000000000E+00 0.  1.
          1    1    1    2  502    0  0.28064543777E+02 -0.10216854903E+03 -0.37074996437E+03  0.38559248839E+03  0.00000000000E+00 0.  1.
         22    1    1    2    0    0  0.16051976563E+02  0.64175607023E+01 -0.69397058903E+02  0.71517849670E+02  0.00000000000E+00 0.  1.
         22    1    1    2    0    0 -0.14485232373E+01  0.11465386355E+02  0.52440097482E+02  0.53698390365E+02  0.00000000000E+00 0. -1.
</event>
<event>
 6    1  0.1383644E-005  0.1831605E+02  0.7818608E-02  0.1816455E+00
          2   -1    0    0  502    0  0.00000000000E+00  0.00000000000E+00  0.23972988087E+03  0.23972988087E+03  0.00000000000E+00 0. -1.
          1   -1    0    0  501    0 -0.00000000000E+00 -0.00000000000E+00 -0.92822930832E+02  0.92822930832E+02  0.00000000000E+00 0.  1.
          2    1    1    2  501    0  0.17585263740E+01 -0.23737672566E+02  0.16054617861E+03  0.16230109359E+03  0.00000000000E+00 0. -1.
          1    1    1    2  502    0 -0.24775661176E+02  0.15897970097E+02 -0.26033080135E+02  0.39297583911E+02  0.00000000000E+00 0.  1.
         22    1    1    2    0    0  0.10065308924E+02  0.21079911857E+01 -0.58124649099E+02  0.59027357246E+02  0.00000000000E+00 0.  1.
         22    1    1    2    0    0  0.12951825878E+02  0.57317112833E+01  0.70518500658E+02  0.71926776953E+02  0.00000000000E+00 0.  1.
</event>
<event>
 6    1  0.1383644E-005  0.8158802E+02  0.7818608E-02  0.1449050E+00
          2   -1    0    0  502    0  0.00000000000E+00  0.00000000000E+00  0.33049409449E+03  0.33049409449E+03  0.00000000000E+00 0.  1.
          1   -1    0    0  501    0 -0.00000000000E+00 -0.00000000000E+00 -0.84261679663E+02  0.84261679663E+02  0.00000000000E+00 0.  1.
          2    1    1    2  501    0 -0.17258004095E+02  0.25097635083E+02  0.93530318201E+02  0.98364884054E+02  0.00000000000E+00 0.  1.
          1    1    1    2  502    0  0.14040102713E+02 -0.66991727087E+02 -0.42740248020E+02  0.80695382663E+02  0.00000000000E+00 0.  1.
         22    1    1    2    0    0  0.10824394571E+02  0.49692520531E+02  0.21081021579E+03  0.21685815916E+03  0.00000000000E+00 0.  1.
         22    1    1    2    0    0 -0.76064931891E+01 -0.77984285272E+01 -0.15367871149E+02  0.18837348268E+02  0.00000000000E+00 0.  1.
</event>
<event>
 6    1  0.1383644E-005  0.2147196E+02  0.7818608E-02  0.1747350E+00
          2   -1    0    0  502    0  0.00000000000E+00  0.00000000000E+00  0.93173285043E+02  0.93173285043E+02  0.00000000000E+00 0. -1.
          1   -1    0    0  501    0 -0.00000000000E+00 -0.00000000000E+00 -0.10408700173E+03  0.10408700173E+03  0.00000000000E+00 0. -1.
          2    1    1    2  501    0  0.39288569723E+02 -0.57581007983E+01 -0.89775128497E+01  0.40710479887E+02  0.00000000000E+00 0. -1.
          1    1    1    2  502    0 -0.16591459171E+02  0.18828821863E+02 -0.97767384129E+01  0.26932984687E+02  0.00000000000E+00 0. -1.
         22    1    1    2    0    0 -0.14008141473E+02 -0.56370351247E+01 -0.59462257984E+02  0.61349525810E+02  0.00000000000E+00 0.  1.
         22    1    1    2    0    0 -0.86889690788E+01 -0.74336859396E+01  0.67302792558E+02  0.68267296390E+02  0.00000000000E+00 0. -1.
</event>
<event>
 6    1  0.1383644E-005  0.7080119E+02  0.7818608E-02  0.1415699E+00
          2   -1    0    0  502    0  0.00000000000E+00  0.00000000000E+00  0.63372672803E+02  0.63372672803E+02  0.00000000000E+00 0.  1.
          1   -1    0    0  501    0 -0.00000000000E+00 -0.00000000000E+00 -0.22011111084E+03  0.22011111084E+03  0.00000000000E+00 0.  1.
          2    1    1    2  501    0  0.42984500092E+02  0.19267841075E+02  0.28270032622E+01  0.47190135572E+02  0.00000000000E+00 0.  1.
          1    1    1    2  502    0 -0.41272205628E+02 -0.26592716085E+02 -0.50028406151E+02  0.70095712624E+02  0.00000000000E+00 0.  1.
         22    1    1    2    0    0  0.23305126136E+02  0.18966711459E+02  0.18456763630E+02  0.35263538839E+02  0.00000000000E+00 0.  1.
         22    1    1    2    0    0 -0.25017420600E+02 -0.11641836449E+02 -0.12799379878E+03  0.13093439661E+03  0.00000000000E+00 0.  1.
</event>
<event>
 6    1  0.1383644E-005  0.1058110E+03  0.7818608E-02  0.1388039E+00
          2   -1    0    0  502    0  0.00000000000E+00  0.00000000000E+00  0.21592351487E+03  0.21592351487E+03  0.00000000000E+00 0.  1.
          1   -1    0    0  501    0 -0.00000000000E+00 -0.00000000000E+00 -0.10006392107E+03  0.10006392107E+03  0.00000000000E+00 0. -1.
          2    1    1    2  501    0  0.16717518871E+02 -0.83989143042E+02  0.10280051534E+03  0.13379685176E+03  0.00000000000E+00 0.  1.
          1    1    1    2  502    0 -0.20477977012E+02  0.48178477481E+02 -0.39184293338E+01  0.52496355334E+02  0.00000000000E+00 0. -1.
         22    1    1    2    0    0  0.93059195663E+01  0.47342328761E+02 -0.45260521577E+02  0.66154448414E+02  0.00000000000E+00 0. -1.
         22    1    1    2    0    0 -0.55454614254E+01 -0.11531663200E+02  0.62238029370E+02  0.63539780440E+02  0.00000000000E+00 0.  1.
</event>
<event>
 6    1  0.1383644E-005  0.1120392E+03  0.7818608E-02  0.1351758E+00
          2   -1    0    0  502    0  0.00000000000E+00  0.00000000000E+00  0.70159177897E+02  0.70159177897E+02  0.00000000000E+00 0.  1.
          1   -1    0    0  501    0 -0.00000000000E+00 -0.00000000000E+00 -0.32174265504E+03  0.32174265504E+03  0.00000000000E+00 0. -1.
          2    1    1    2  501    0 -0.63399040176E+01 -0.24652319954E+02 -0.11671282418E+02  0.28002680146E+02  0.00000000000E+00 0.  1.
          1    1    1    2  502    0  0.98460225915E+02  0.45182991146E+02 -0.14795919834E+03  0.18337896049E+03  0.00000000000E+00 0. -1.
         22    1    1    2    0    0 -0.76064770565E+02 -0.31869656571E+02  0.40061673994E+01  0.82568600014E+02  0.00000000000E+00 0.  1.
         22    1    1    2    0    0 -0.16055551332E+02  0.11338985379E+02 -0.95959163776E+02  0.97951592282E+02  0.00000000000E+00 0. -1.
</event>
<event>
 6    1  0.1383644E-005  0.8698939E+02  0.7818608E-02  0.1366732E+00
          2   -1    0    0  502    0  0.00000000000E+00  0.00000000000E+00  0.34403899825E+03  0.34403899825E+03  0.00000000000E+00 0.  1.
          1   -1    0    0  501    0 -0.00000000000E+00 -0.00000000000E+00 -0.11859756681E+03  0.11859756681E+03  0.00000000000E+00 0.  1.
          2    1    1    2  501    0 -0.49873535257E+02 -0.78299284325E+02  0.94399155630E+02  0.13239844421E+03  0.00000000000E+00 0.  1.
          1    1    1    2  502    0  0.91954406183E+02  0.10296979619E+03 -0.28712562471E+01  0.13808198962E+03  0.00000000000E+00 0.  1.
         22    1    1    2    0    0  0.20141749064E+02 -0.11914710613E+02 -0.16665143334E+02  0.28729381941E+02  0.00000000000E+00 0.  1.
         22    1    1    2    0    0 -0.62222619990E+02 -0.12755801254E+02  0.15057867539E+03  0.16342674929E+03  0.00000000000E+00 0.  1.
</event>
<event>
 6    1  0.1383644E-005  0.5446803E+02  0.7818608E-02  0.1492722E+00
          2   -1    0    0  502    0  0.00000000000E+00  0.00000000000E+00  0.60470360626E+03  0.60470360626E+03  0.00000000000E+00 0.  1.
          1   -1    0    0  501    0 -0.00000000000E+00 -0.00000000000E+00 -0.63393470358E+02  0.63393470358E+02  0.00000000000E+00 0.  1.
          2    1    1    2  501    0  0.24663717672E+02  0.26380721656E+02  0.44142589372E+03  0.44290073503E+03  0.00000000000E+00 0.  1.
          1    1    1    2  502    0 -0.64483321638E+02 -0.20367053143E+02  0.26158821017E+02  0.72506548257E+02  0.00000000000E+00 0.  1.
         22    1    1    2    0    0  0.48990826983E+02 -0.23332798211E+02 -0.19322068311E+02  0.57600893436E+02  0.00000000000E+00 0.  1.
         22    1    1    2    0    0 -0.91712230167E+01  0.17319129697E+02  0.93047489483E+02  0.95088899900E+02  0.00000000000E+00 0. -1.
</event>
<event>
 6    1  0.1383644E-005  0.2732061E+03  0.7818608E-02  0.1137493E+00
          2   -1    0    0  502    0  0.00000000000E+00  0.00000000000E+00  0.54577039071E+03  0.54577039071E+03  0.00000000000E+00 0.  1.
          1   -1    0    0  501    0 -0.00000000000E+00 -0.00000000000E+00 -0.21185526992E+03  0.21185526992E+03  0.00000000000E+00 0.  1.
          2    1    1    2  501    0  0.31194459887E+02  0.40693291950E+02 -0.22525315609E+02  0.56003822911E+02  0.00000000000E+00 0.  1.
          1    1    1    2  502    0 -0.28851315812E+03  0.61279434077E+02  0.12186459568E+03  0.31913318713E+03  0.00000000000E+00 0.  1.
         22    1    1    2    0    0  0.37980566662E+02  0.25397212989E+02  0.18509290550E+02  0.49296406647E+02  0.00000000000E+00 0. -1.
         22    1    1    2    0    0  0.21933813157E+03 -0.12736993902E+03  0.21606655016E+03  0.33319224394E+03  0.00000000000E+00 0.  1.
</event>
<event>
 6    1  0.1383644E-005  0.7874438E+02  0.7818608E-02  0.1333204E+00
          2   -1    0    0  502    0  0.00000000000E+00  0.00000000000E+00  0.22294387455E+03  0.22294387455E+03  0.00000000000E+00 0.  1.
          1   -1    0    0  501    0 -0.00000000000E+00 -0.00000000000E+00 -0.14656529730E+03  0.14656529730E+03  0.00000000000E+00 0. -1.
          2    1    1    2  501    0  0.11424477071E+02  0.30349972118E+02  0.12216387301E+03  0.12639482328E+03  0.00000000000E+00 0.  1.
          1    1    1    2  502    0 -0.33714128046E+02 -0.52041513836E+02 -0.84564114118E+02  0.10486205695E+03  0.00000000000E+00 0. -1.
         22    1    1    2    0    0 -0.69712089015E+01 -0.94120006945E+01 -0.43770966876E+02  0.45310937442E+02  0.00000000000E+00 0. -1.
         22    1    1    2    0    0  0.29260859876E+02  0.31103542412E+02  0.82549785248E+02  0.92941354175E+02  0.00000000000E+00 0.  1.
</event>
<event>
 6    1  0.3737220E-005  0.5833645E+02  0.7818608E-02  0.1428059E+00
          2   -1    0    0  502    0  0.00000000000E+00  0.00000000000E+00  0.65614794419E+03  0.65614794419E+03  0.00000000000E+00 0.  1.
          1   -1    0    0  501    0 -0.00000000000E+00 -0.00000000000E+00 -0.48929311302E+03  0.48929311302E+03  0.00000000000E+00 0. -1.
          2    1    1    2  501    0 -0.19712489767E+03  0.10359612598E+03  0.56126972986E+03  0.60383283470E+03  0.00000000000E+00 0.  1.
          1    1    1    2  502    0  0.19231451544E+03 -0.84080162255E+02 -0.35608351700E+03  0.41333983308E+03  0.00000000000E+00 0. -1.
         22    1    1    2    0    0  0.10831067935E+02 -0.10717554143E+02 -0.81955745975E+02  0.83360196124E+02  0.00000000000E+00 0.  1.
         22    1    1    2    0    0 -0.60206857062E+01 -0.87984095855E+01  0.43624364279E+02  0.44908193310E+02  0.00000000000E+00 0.  1.
</event>
<event>
 6    1  0.1383644E-005  0.8814102E+02  0.7818608E-02  0.1426948E+00
          2   -1    0    0  502    0  0.00000000000E+00  0.00000000000E+00  0.26886224862E+03  0.26886224862E+03  0.00000000000E+00 0.  1.
          1   -1    0    0  501    0 -0.00000000000E+00 -0.00000000000E+00 -0.23893517906E+03  0.23893517906E+03  0.00000000000E+00 0.  1.
          2    1    1    2  501    0 -0.38448318617E+02  0.19679945133E+01  0.97536157949E+02  0.10485918326E+03  0.00000000000E+00 0.  1.
          1    1    1    2  502    0  0.55358439804E+02 -0.55101067828E+02 -0.19818563398E+03  0.21302166568E+03  0.00000000000E+00 0.  1.
         22    1    1    2    0    0 -0.23602421099E+02  0.43131902224E+02  0.15504224489E+03  0.16265156923E+03  0.00000000000E+00 0.  1.
         22    1    1    2    0    0  0.66922999117E+01  0.10001171091E+02 -0.24465699293E+02  0.27265009503E+02  0.00000000000E+00 0. -1.
</event>
<event>
 6    1  0.1383644E-005  0.1465134E+03  0.7818608E-02  0.1320988E+00
          2   -1    0    0  502    0  0.00000000000E+00  0.00000000000E+00  0.21083217002E+03  0.21083217002E+03  0.00000000000E+00 0. -1.
          1   -1    0    0  501    0 -0.00000000000E+00 -0.00000000000E+00 -0.14000819454E+03  0.14000819454E+03  0.00000000000E+00 0. -1.
          2    1    1    2  501    0 -0.74204052413E+02  0.14682168893E+02  0.14241881958E+02  0.76971674528E+02  0.00000000000E+00 0. -1.
          1    1    1    2  502    0  0.13104610491E+03 -0.27711255407E+02  0.27996263153E+02  0.13683854004E+03  0.00000000000E+00 0. -1.
         22    1    1    2    0    0  0.41047358436E+01  0.14453313147E+02 -0.41502342916E+02  0.44138323311E+02  0.00000000000E+00 0. -1.
         22    1    1    2    0    0 -0.60946788343E+02 -0.14242266324E+01  0.70088173286E+02  0.92891826688E+02  0.00000000000E+00 0. -1.
</event>
<event>
 6    1  0.1383644E-005  0.3458517E+02  0.7818608E-02  0.1619771E+00
          2   -1    0    0  502    0  0.00000000000E+00  0.00000000000E+00  0.22077310152E+03  0.22077310152E+03  0.00000000000E+00 0. -1.
          1   -1    0    0  501    0 -0.00000000000E+00 -0.00000000000E+00 -0.43347250530E+03  0.43347250530E+03  0.00000000000E+00 0.  1.
          2    1    1    2  501    0 -0.26094813309E+02  0.11553246606E+02  0.45006791023E+02  0.53291913336E+02  0.00000000000E+00 0. -1.
          1    1    1    2  502    0  0.32739824958E+02 -0.36010227494E+02 -0.40379080646E+03  0.40671322576E+03  0.00000000000E+00 0.  1.
         22    1    1    2    0    0  0.51708460503E+01  0.27326452518E+02  0.16740339387E+03  0.16969787546E+03  0.00000000000E+00 0. -1.
         22    1    1    2    0    0 -0.11815857699E+02 -0.28694716301E+01 -0.21318782209E+02  0.24542592273E+02  0.00000000000E+00 0.  1.
</event>
<event>
 6    1  0.1383644E-005  0.3155143E+02  0.7818608E-02  0.1609509E+00
          2   -1    0    0  502    0  0.00000000000E+00  0.00000000000E+00  0.13294587242E+04  0.13294587242E+04  0.00000000000E+00 0. -1.
          1   -1    0    0  501    0 -0.00000000000E+00 -0.00000000000E+00 -0.21613370886E+03  0.21613370886E+03  0.00000000000E+00 0. -1.
          2    1    1    2  501    0 -0.29576111027E+02  0.31369103071E+02  0.12370178579E+04  0.12377689395E+04  0.00000000000E+00 0. -1.
          1    1    1    2  502    0  0.53348181596E+02 -0.40547584829E+02 -0.15936261304E+03  0.17287734828E+03  0.00000000000E+00 0. -1.
         22    1    1    2    0    0 -0.11673349164E+02 -0.22480732253E+01 -0.48095950278E+02  0.49543327978E+02  0.00000000000E+00 0.  1.
         22    1    1    2    0    0 -0.12098721404E+02  0.11426554984E+02  0.83765720797E+02  0.85402817278E+02  0.00000000000E+00 0. -1.
</event>
<event>
 6    1  0.1383644E-005  0.6611583E+02  0.7818608E-02  0.1397663E+00
          2   -1    0    0  502    0  0.00000000000E+00  0.00000000000E+00  0.13740498427E+03  0.13740498427E+03  0.00000000000E+00 0. -1.
          1   -1    0    0  501    0 -0.00000000000E+00 -0.00000000000E+00 -0.12724811804E+03  0.12724811804E+03  0.00000000000E+00 0.  1.
          2    1    1    2  501    0 -0.28807505350E+02  0.27251475764E+02  0.27100576428E+02  0.48030787403E+02  0.00000000000E+00 0. -1.
          1    1    1    2  502    0 -0.15610948489E+02 -0.55589168229E+02 -0.50083153932E+02  0.76434152347E+02  0.00000000000E+00 0.  1.
         22    1    1    2    0    0 -0.35325783110E+02  0.17710970187E+02  0.43850268439E+02  0.59029106884E+02  0.00000000000E+00 0.  1.
         22    1    1    2    0    0  0.79744236950E+02  0.10626722278E+02 -0.10710824698E+02  0.81159055679E+02  0.00000000000E+00 0. -1.
</event>
<event>
 6    1  0.1383644E-005  0.6402348E+02  0.7818608E-02  0.1403505E+00
          2   -1    0    0  502    0  0.00000000000E+00  0.00000000000E+00  0.12878719498E+03  0.12878719498E+03  0.00000000000E+00 0.  1.
          1   -1    0    0  501    0 -0.00000000000E+00 -0.00000000000E+00 -0.22040220452E+03  0.22040220452E+03  0.00000000000E+00 0.  1.
          2    1    1    2  501    0  0.33670208471E+02 -0.82464771556E+01  0.74574368038E+02  0.82237605098E+02  0.00000000000E+00 0.  1.
          1    1    1    2  502    0  0.11680473272E+02  0.49940212420E+02 -0.55797508162E+01  0.51590618251E+02  0.00000000000E+00 0.  1.
         22    1    1    2    0    0  0.10296431287E+02  0.15575091601E+01  0.19415353139E+02  0.22031755934E+02  0.00000000000E+00 0.  1.
         22    1    1    2    0    0 -0.55647113029E+02 -0.43251244424E+02 -0.18002497990E+03  0.19332942021E+03  0.00000000000E+00 0.  1.
</event>
<event>
 6    1  0.1383644E-005  0.2180703E+03  0.7818608E-02  0.1155540E+00
          2   -1    0    0  502    0  0.00000000000E+00  0.00000000000E+00  0.84376440939E+03  0.84376440939E+03  0.00000000000E+00 0. -1.
          1   -1    0    0  501    0 -0.00000000000E+00 -0.00000000000E+00 -0.10489184770E+03  0.10489184770E+03  0.00000000000E+00 0. -1.
          2    1    1    2  501    0 -0.22957325181E+02 -0.11231909945E+03  0.19697029325E+03  0.22790330253E+03  0.00000000000E+00 0. -1.
          1    1    1    2  502    0 -0.20000973868E+03  0.36535640977E+02  0.28098313589E+03  0.34682887896E+03  0.00000000000E+00 0. -1.
         22    1    1    2    0    0  0.23075782189E+03  0.93040058424E+02  0.23973626308E+03  0.34551280826E+03  0.00000000000E+00 0. -1.
         22    1    1    2    0    0 -0.77907580257E+01 -0.17256599954E+02  0.21182869480E+02  0.28411267342E+02  0.00000000000E+00 0. -1.
</event>
<event>
 6    1  0.1383644E-005  0.3790958E+02  0.7818608E-02  0.1586832E+00
          2   -1    0    0  502    0  0.00000000000E+00  0.00000000000E+00  0.37381555613E+02  0.37381555613E+02  0.00000000000E+00 0.  1.
          1   -1    0    0  501    0 -0.00000000000E+00 -0.00000000000E+00 -0.31166626978E+03  0.31166626978E+03  0.00000000000E+00 0.  1.
          2    1    1    2  501    0  0.37658324702E+02 -0.38089900892E+01 -0.26163195990E+02  0.46012722690E+02  0.00000000000E+00 0.  1.
          1    1    1    2  502    0 -0.28080845145E+02  0.29409074846E+02 -0.10960317448E+03  0.11690288022E+03  0.00000000000E+00 0.  1.
         22    1    1    2    0    0 -0.25272830493E+02 -0.26201452550E+02 -0.15740958719E+03  0.16156426033E+03  0.00000000000E+00 0.  1.
         22    1    1    2    0    0  0.15695350935E+02  0.60136779322E+00  0.18891243487E+02  0.24567962160E+02  0.00000000000E+00 0. -1.
</event>
<event>
 6    1  0.1383644E-005  0.4489222E+02  0.7818608E-02  0.1475410E+00
          2   -1    0    0  502    0  0.00000000000E+00  0.00000000000E+00  0.30646633971E+03  0.30646633971E+03  0.00000000000E+00 0.  1.
          1   -1    0    0  501    0 -0.00000000000E+00 -0.00000000000E+00 -0.13775003544E+03  0.13775003544E+03  0.00000000000E+00 0. -1.
          2    1    1    2  501    0  0.15141888204E+02 -0.22326026744E+02  0.22407365970E+03  0.22569167734E+03  0.00000000000E+00 0.  1.
          1    1    1    2  502    0 -0.15813644037E+02  0.28189417208E+02 -0.79895907879E+02  0.86186255726E+02  0.00000000000E+00 0. -1.
         22    1    1    2    0    0  0.33104007148E+00  0.10456395500E+02 -0.52529271264E+02  0.53560901167E+02  0.00000000000E+00 0. -1.
         22    1    1    2    0    0  0.34071576158E+00 -0.16319785963E+02  0.77067823704E+02  0.78777540909E+02  0.00000000000E+00 0. -1.
</event>
<event>
 6    1  0.1383644E-005  0.3246237E+02  0.7818608E-02  0.1581033E+00
          2   -1    0    0  502    0  0.00000000000E+00  0.00000000000E+00  0.38139329674E+03  0.38139329674E+03  0.00000000000E+00 0. -1.
          1   -1    0    0  501    0 -0.00000000000E+00 -0.00000000000E+00 -0.49548565630E+02  0.49548565630E+02  0.00000000000E+00 0. -1.
          2    1    1    2  501    0 -0.36173784476E+02  0.22857054708E+02  0.11901625067E+03  0.12647472299E+03  0.00000000000E+00 0. -1.
          1    1    1    2  502    0 -0.41194636089E+01 -0.51218290618E+02  0.14459779429E+03  0.15345620022E+03  0.00000000000E+00 0. -1.
         22    1    1    2    0    0  0.19706620551E+02  0.16836615228E+02 -0.35878690337E+02  0.44261754667E+02  0.00000000000E+00 0. -1.
         22    1    1    2    0    0  0.20586627534E+02  0.11524620682E+02  0.10410937649E+03  0.10674918449E+03  0.00000000000E+00 0. -1.
</event>
<event>
 6    1  0.1383644E-005  0.1414524E+03  0.7818608E-02  0.1228584E+00
          2   -1    0    0  502    0  0.00000000000E+00  0.00000000000E+00  0.50054177984E+03  0.50054177984E+03  0.00000000000E+00 0. -1.
          1   -1    0    0  501    0 -0.00000000000E+00 -0.00000000000E+00 -0.12259886569E+03  0.12259886569E+03  0.00000000000E+00 0.  1.
          2    1    1    2  501    0  0.43318507911E+02  0.13361760410E+03  0.31490722510E+03  0.34481403347E+03  0.00000000000E+00 0. -1.
          1    1    1    2  502    0 -0.72096538417E+02 -0.27968752297E+02  0.83698704457E+02  0.11395453078E+03  0.00000000000E+00 0.  1.
         22    1    1    2    0    0 -0.31865888880E+01 -0.98529766043E+02 -0.58262338552E+02  0.11451100051E+03  0.00000000000E+00 0.  1.
         22    1    1    2    0    0  0.31964619394E+02 -0.71190857595E+01  0.37599323147E+02  0.49861080776E+02  0.00000000000E+00 0.  1.
</event>
<event>
 6    1  0.1383644E-005  0.1102331E+03  0.7818608E-02  0.1334774E+00
          2   -1    0    0  502    0  0.00000000000E+00  0.00000000000E+00  0.35070281651E+03  0.35070281651E+03  0.00000000000E+00 0. -1.
          1   -1    0    0  501    0 -0.00000000000E+00 -0.00000000000E+00 -0.50588101952E+02  0.50588101952E+02  0.00000000000E+00 0.  1.
          2    1    1    2  501    0 -0.15603564830E+02 -0.27865182539E+02  0.33426772478E+02  0.46230820365E+02  0.00000000000E+00 0. -1.
          1    1    1    2  502    0  0.69298194723E+00  0.91803886022E+02  0.10975075413E+03  0.14308620389E+03  0.00000000000E+00 0.  1.
         22    1    1    2    0    0  0.12959301897E+02  0.24434359143E+02 -0.44022519746E+01  0.28006449879E+02  0.00000000000E+00 0.  1.
         22    1    1    2    0    0  0.19512809859E+01 -0.88373062626E+02  0.16133943993E+03  0.18396744432E+03  0.00000000000E+00 0. -1.
</event>
<event>
 6    1  0.1383644E-005  0.5760695E+02  0.7818608E-02  0.1467071E+00
          2   -1    0    0  502    0  0.00000000000E+00  0.00000000000E+00  0.22402899493E+03  0.22402899493E+03  0.00000000000E+00 0. -1.
          1   -1    0    0  501    0 -0.00000000000E+00 -0.00000000000E+00 -0.76463335741E+02  0.76463335741E+02  0.00000000000E+00 0.  1.
          2    1    1    2  501    0 -0.19524524726E+02  0.81299174044E+01  0.10139597160E+03  0.10357821045E+03  0.00000000000E+00 0. -1.
          1    1    1    2  502    0 -0.29060079319E+02  0.20970387339E+02 -0.26443879936E+02  0.44536772910E+02  0.00000000000E+00 0.  1.
         22    1    1    2    0    0  0.25393356492E+02 -0.23742686541E+02  0.10589791285E+03  0.11145808927E+03  0.00000000000E+00 0. -1.
         22    1    1    2    0    0  0.23191247553E+02 -0.53576182024E+01 -0.33284345319E+02  0.40919258048E+02  0.00000000000E+00 0. -1.
</event>
<event>
 6    1  0.1383644E-005  0.1804517E+02  0.7818608E-02  0.1811077E+00
          2   -1    0    0  502    0  0.00000000000E+00  0.00000000000E+00  0.15358224508E+03  0.15358224508E+03  0.00000000000E+00 0.  1.
          1   -1    0    0  501    0 -0.00000000000E+00 -0.00000000000E+00 -0.14560889324E+03  0.14560889324E+03  0.00000000000E+00 0.  1.
          2    1    1    2  501    0 -0.21331837491E+02 -0.25214965418E+02  0.94203190209E+02  0.99825261419E+02  0.00000000000E+00 0.  1.
          1    1    1    2  502    0  0.19034318323E+02  0.22224620374E+02 -0.71146731380E+02  0.76929164891E+02  0.00000000000E+00 0.  1.
         22    1    1    2    0    0  0.38480779916E+01  0.15471728814E+02  0.51894556396E+02  0.54288369659E+02  0.00000000000E+00 0. -1.
         22    1    1    2    0    0 -0.15505588233E+01 -0.12481383770E+02 -0.66977663383E+02  0.68148342355E+02  0.00000000000E+00 0.  1.
</event>
<event>
 6    1  0.1383644E-005  0.2428981E+02  0.7818608E-02  0.1674917E+00
          2   -1    0    0  502    0  0.00000000000E+00  0.00000000000E+00  0.14337660622E+03  0.14337660622E+03  0.00000000000E+00 0. -1.
          1   -1    0    0  501    0 -0.00000000000E+00 -0.00000000000E+00 -0.70331267727E+02  0.70331267727E+02  0.00000000000E+00 0. -1.
          2    1    1    2  501    0  0.44422284987E+02  0.19880636974E+02  0.17445259053E+02  0.51700253321E+02  0.00000000000E+00 0. -1.
          1    1    1    2  502    0 -0.10955660368E+02 -0.20596726118E+02  0.80058773125E+01  0.24664664855E+02  0.00000000000E+00 0. -1.
         22    1    1    2    0    0 -0.17005068751E+02 -0.63655043374E+01 -0.42114448462E+02  0.45861953491E+02  0.00000000000E+00 0. -1.
         22    1    1    2    0    0 -0.16461555868E+02  0.70815934815E+01  0.89708650586E+02  0.91481002278E+02  0.00000000000E+00 0. -1.
</event>
<event>
 6    1  0.1383644E-005  0.3055610E+03  0.7818608E-02  0.1206189E+00
          2   -1    0    0  502    0  0.00000000000E+00  0.00000000000E+00  0.52006487906E+03  0.52006487906E+03  0.00000000000E+00 0.  1.
          1   -1    0    0  501    0 -0.00000000000E+00 -0.00000000000E+00 -0.30870422655E+03  0.30870422655E+03  0.00000000000E+00 0.  1.
          2    1    1    2  501    0 -0.58185706160E+02 -0.25680757107E+03  0.28796389019E+03  0.39020367376E+03  0.00000000000E+00 0.  1.
          1    1    1    2  502    0  0.53108379718E+02  0.28469594295E+03 -0.10430617852E+03  0.30781822364E+03  0.00000000000E+00 0.  1.
         22    1    1    2    0    0 -0.12818730250E+02  0.90370953726E+01 -0.44784482803E+02  0.47451436627E+02  0.00000000000E+00 0.  1.
         22    1    1    2    0    0  0.17896056692E+02 -0.36925467252E+02  0.72487423645E+02  0.83295771583E+02  0.00000000000E+00 0. -1.
</event>
<event>
 6    1  0.1383644E-005  0.5813772E+02  0.7818608E-02  0.1460018E+00
          2   -1    0    0  502    0  0.00000000000E+00  0.00000000000E+00  0.21737290093E+03  0.21737290093E+03  0.00000000000E+00 0. -1.
          1   -1    0    0  501    0 -0.00000000000E+00 -0.00000000000E+00 -0.21207598760E+03  0.21207598760E+03  0.00000000000E+00 0.  1.
          2    1    1    2  501    0 -0.41289785729E+01  0.34107155090E+02  0.12190078050E+03  0.12664970106E+03  0.00000000000E+00 0. -1.
          1    1    1    2  502    0 -0.65051761582E+01 -0.56054792883E+02 -0.15513078614E+03  0.16507579450E+03  0.00000000000E+00 0.  1.
         22    1    1    2    0    0  0.25443863344E+02  0.31783917954E+01 -0.44480154184E+02  0.51341761486E+02  0.00000000000E+00 0. -1.
         22    1    1    2    0    0 -0.14809708613E+02  0.18769245997E+02  0.83007073152E+02  0.86381631483E+02  0.00000000000E+00 0.  1.
</event>
<event>
 6    1  0.1383644E-005  0.8983392E+02  0.7818608E-02  0.1379468E+00
          2   -1    0    0  502    0  0.00000000000E+00  0.00000000000E+00  0.75203619233E+03  0.75203619233E+03  0.00000000000E+00 0. -1.
          1   -1    0    0  501    0 -0.00000000000E+00 -0.00000000000E+00 -0.23492460108E+03  0.23492460108E+03  0.00000000000E+00 0. -1.
          2    1    1    2  501    0  0.80062933510E+02  0.12398533948E+03  0.51989268780E+03  0.54043579133E+03  0.00000000000E+00 0. -1.
          1    1    1    2  502    0 -0.12188293503E+03 -0.15084772809E+03  0.14630621838E+03  0.24293208198E+03  0.00000000000E+00 0. -1.
         22    1    1    2    0    0  0.48040032233E+02  0.14934240327E+02 -0.17079767093E+03  0.17805257826E+03  0.00000000000E+00 0. -1.
         22    1    1    2    0    0 -0.62200307109E+01  0.11928148285E+02  0.21710356000E+02  0.25540341838E+02  0.00000000000E+00 0.  1.
</event>
<event>
 6    1  0.1383644E-005  0.4245064E+02  0.7818608E-02  0.1598727E+00
          2   -1    0    0  502    0  0.00000000000E+00  0.00000000000E+00  0.11066554704E+03  0.11066554704E+03  0.00000000000E+00 0.  1.
          1   -1    0    0  501    0 -0.00000000000E+00 -0.00000000000E+00 -0.76976718222E+02  0.76976718222E+02  0.00000000000E+00 0. -1.
          2    1    1    2  501    0  0.11024179700E+02  0.17737955110E+02  0.23460854771E+02  0.31409859855E+02  0.00000000000E+00 0.  1.
          1    1    1    2  502    0 -0.12665456959E+02 -0.28877448106E+02  0.11536857835E+02  0.33577073991E+02  0.00000000000E+00 0. -1.
         22    1    1    2    0    0  0.19264603170E+01  0.21642898993E+02  0.58253157764E+02  0.62173601437E+02  0.00000000000E+00 0. -1.
         22    1    1    2    0    0 -0.28518305831E+00 -0.10503405998E+02 -0.59562041554E+02  0.60481729977E+02  0.00000000000E+00 0. -1.
</event>
<event>
 6    1  0.1383644E-005  0.1102376E+03  0.7818608E-02  0.1389816E+00
          2   -1    0    0  502    0  0.00000000000E+00  0.00000000000E+00  0.36687014910E+03  0.36687014910E+03  0.00000000000E+00 0. -1.
          1   -1    0    0  501    0 -0.00000000000E+00 -0.00000000000E+00 -0.77533925595E+02  0.77533925595E+02  0.00000000000E+00 0.  1.
          2    1    1    2  501    0  0.38984758130E+02 -0.24162793644E+02  0.21144333381E+03  0.21636066041E+03  0.00000000000E+00 0. -1.
          1    1    1    2  502    0 -0.43311515275E+02  0.69216623310E+02  0.10569730569E+02  0.82331934887E+02  0.00000000000E+00 0.  1.
         22    1    1    2    0    0  0.86158336127E+01 -0.55179162893E+02  0.98180694444E+02  0.11295318219E+03  0.00000000000E+00 0.  1.
         22    1    1    2    0    0 -0.42890764677E+01  0.10125333227E+02 -0.30857535314E+02  0.32758297201E+02  0.00000000000E+00 0.  1.
</event>
<event>
 6    1  0.1383644E-005  0.5426759E+02  0.7818608E-02  0.1436344E+00
          2   -1    0    0  502    0  0.00000000000E+00  0.00000000000E+00  0.15297661325E+03  0.15297661325E+03  0.00000000000E+00 0. -1.
          1   -1    0    0  501    0 -0.00000000000E+00 -0.00000000000E+00 -0.83000208317E+02  0.83000208317E+02  0.00000000000E+00 0. -1.
          2    1    1    2  501    0 -0.20615473192E+02 -0.47318101581E+01  0.33932264175E+02  0.39984826051E+02  0.00000000000E+00 0. -1.
          1    1    1    2  502    0  0.14260336242E+02  0.52452607763E+02  0.26002290172E+02  0.60255724583E+02  0.00000000000E+00 0. -1.
         22    1    1    2    0    0  0.28891254830E+02 -0.50640963251E+02 -0.46644002423E+02  0.74665083718E+02  0.00000000000E+00 0. -1.
         22    1    1    2    0    0 -0.22536117880E+02  0.29201656461E+01  0.56685853006E+02  0.61071187212E+02  0.00000000000E+00 0. -1.
</event>
<event>
 6    1  0.1383644E-005  0.7994115E+02  0.7818608E-02  0.1439409E+00
          2   -1    0    0  502    0  0.00000000000E+00  0.00000000000E+00  0.27730112111E+03  0.27730112111E+03  0.00000000000E+00 0.  1.
          1   -1    0    0  501    0 -0.00000000000E+00 -0.00000000000E+00 -0.18584380668E+03  0.18584380668E+03  0.00000000000E+00 0. -1.
          2    1    1    2  501    0  0.24379255061E+02  0.51580483714E+02  0.16255156501E+03  0.17227276530E+03  0.00000000000E+00 0.  1.
          1    1    1    2  502    0 -0.45058824960E+02 -0.57072609291E+02 -0.13296029191E+03  0.15154543762E+03  0.00000000000E+00 0. -1.
         22    1    1    2    0    0  0.13497402623E+02  0.16762418683E+02  0.98242979196E+02  0.10057256842E+03  0.00000000000E+00 0.  1.
         22    1    1    2    0    0  0.71821672767E+01 -0.11270293106E+02 -0.36376937863E+02  0.38754156445E+02  0.00000000000E+00 0.  1.
</event>
<event>
 6    1  0.1383644E-005  0.6354487E+02  0.7818608E-02  0.1433953E+00
          2   -1    0    0  502    0  0.00000000000E+00  0.00000000000E+00  0.25425644230E+03  0.25425644230E+03  0.00000000000E+00 0.  1.
          1   -1    0    0  501    0 -0.00000000000E+00 -0.00000000000E+00 -0.25646791178E+03  0.25646791178E+03  0.00000000000E+00 0.  1.
          2    1    1    2  501    0  0.42973660227E+02  0.12471723298E+03  0.12534597757E+03  0.18196905718E+03  0.00000000000E+00 0.  1.
          1    1    1    2  502    0 -0.17861872027E+02 -0.15463598660E+03 -0.11358784315E+03  0.19270063034E+03  0.00000000000E+00 0.  1.
         22    1    1    2    0    0 -0.32665704836E+01  0.12388657991E+02 -0.71196957730E+02  0.72340556534E+02  0.00000000000E+00 0.  1.
         22    1    1    2    0    0 -0.21845217716E+02  0.17530095623E+02  0.57227353833E+02  0.63714110025E+02  0.00000000000E+00 0.  1.
</event>
<event>
 6    1  0.1383644E-005  0.9008705E+02  0.7818608E-02  0.1433577E+00
          2   -1    0    0  502    0  0.00000000000E+00  0.00000000000E+00  0.26183584089E+03  0.26183584089E+03  0.00000000000E+00 0. -1.
          1   -1    0    0  501    0 -0.00000000000E+00 -0.00000000000E+00 -0.10623977798E+03  0.10623977798E+03  0.00000000000E+00 0. -1.
          2    1    1    2  501    0  0.98788550318E+00  0.29641334221E+02  0.37028668702E+02  0.47441615887E+02  0.00000000000E+00 0. -1.
          1    1    1    2  502    0  0.10922388932E+02 -0.85834823982E+02 -0.53643331799E+02  0.10180629958E+03  0.00000000000E+00 0. -1.
         22    1    1    2    0    0 -0.82977283160E+01  0.59202157478E+01 -0.18742195069E+02  0.21334739879E+02  0.00000000000E+00 0.  1.
         22    1    1    2    0    0 -0.36125461189E+01  0.50273274013E+02  0.19095292108E+03  0.19749296352E+03  0.00000000000E+00 0.  1.
</event>
<event>
 6    1  0.1383644E-005  0.3692343E+02  0.7818608E-02  0.1534597E+00
          2   -1    0    0  502    0  0.00000000000E+00  0.00000000000E+00  0.81099145701E+02  0.81099145701E+02  0.00000000000E+00 0. -1.
          1   -1    0    0  501    0 -0.00000000000E+00 -0.00000000000E+00 -0.55373643558E+03  0.55373643558E+03  0.00000000000E+00 0. -1.
          2    1    1    2  501    0 -0.54771622771E+02  0.43519027391E+02 -0.16951319513E+02  0.71980439283E+02  0.00000000000E+00 0. -1.
          1    1    1    2  502    0  0.53755246635E+02  0.56368314636E+01 -0.42434025701E+03  0.42776869231E+03  0.00000000000E+00 0. -1.
         22    1    1    2    0    0  0.12710695872E+02 -0.24742812032E+02  0.45657538377E+02  0.53463813439E+02  0.00000000000E+00 0. -1.
         22    1    1    2    0    0 -0.11694319735E+02 -0.24413046823E+02 -0.77003251741E+02  0.81622636247E+02  0.00000000000E+00 0. -1.
</event>
<event>
 6    1  0.1383644E-005  0.1173190E+03  0.7818608E-02  0.1350507E+00
          2   -1    0    0  502    0  0.00000000000E+00  0.00000000000E+00  0.11939057900E+03  0.11939057900E+03  0.00000000000E+00 0. -1.
          1   -1    0    0  501    0 -0.00000000000E+00 -0.00000000000E+00 -0.44154601133E+03  0.44154601133E+03  0.00000000000E+00 0. -1.
          2    1    1    2  501    0 -0.21443454402E+01 -0.45099133152E+02 -0.31994498638E+01  0.45263301999E+02  0.00000000000E+00 0. -1.
          1    1    1    2  502    0  0.33683414743E+02  0.49350946504E+02 -0.37135992872E+03  0.37613599270E+03  0.00000000000E+00 0. -1.
         22    1    1    2    0    0  0.14924847520E+02 -0.91158453956E+01 -0.35733616017E+02  0.39783677864E+02  0.00000000000E+00 0.  1.
         22    1    1    2    0    0 -0.46463916823E+02  0.48640320430E+01  0.88137562269E+02  0.99753617764E+02  0.00000000000E+00 0. -1.
</event>
<event>
 6    1  0.1383644E-005  0.7401115E+02  0.7818608E-02  0.1466443E+00
          2   -1    0    0  502    0  0.00000000000E+00  0.00000000000E+00  0.15095254353E+03  0.15095254353E+03  0.00000000000E+00 0.  1.
          1   -1    0    0  501    0 -0.00000000000E+00 -0.00000000000E+00 -0.30740475125E+03  0.30740475125E+03  0.00000000000E+00 0. -1.
          2    1    1    2  501    0 -0.33930797013E+02  0.51735434040E+02  0.90810813828E+02  0.10988383880E+03  0.00000000000E+00 0.  1.
          1    1    1    2  502    0  0.44216567719E+02 -0.37461432771E+02 -0.21458514916E+03  0.22227291794E+03  0.00000000000E+00 0. -1.
         22    1    1    2    0    0  0.91845047070E+00 -0.15929984099E+02 -0.77932966700E+02  0.79549702975E+02  0.00000000000E+00 0. -1.
         22    1    1    2    0    0 -0.11204221178E+02  0.16559828304E+01  0.45255094316E+02  0.46650835072E+02  0.00000000000E+00 0.  1.
</event>
<event>
 6    1  0.1383644E-005  0.3212825E+02  0.7818608E-02  0.1582239E+00
          2   -1    0    0  502    0  0.00000000000E+00  0.00000000000E+00  0.95294515347E+02  0.95294515347E+02  0.00000000000E+00 0.  1.
          1   -1    0    0  501    0 -0.00000000000E+00 -0.00000000000E+00 -0.17928351814E+03  0.17928351814E+03  0.00000000000E+00 0.  1.
          2    1    1    2  501    0 -0.45676131949E+02 -0.43319605766E+02  0.30525650395E+02  0.69962222703E+02  0.00000000000E+00 0.  1.
          1    1    1    2  502    0  0.14823680870E+02  0.38772591490E+02 -0.41088337342E+02  0.58406393751E+02  0.00000000000E+00 0.  1.
         22    1    1    2    0    0  0.17561362881E+02 -0.72778231879E+01  0.33120219883E+02  0.38187918793E+02  0.00000000000E+00 0.  1.
         22    1    1    2    0    0  0.13291088197E+02  0.11824837464E+02 -0.10654653573E+03  0.10802149824E+03  0.00000000000E+00 0. -1.
</event>
<event>
 6    1  0.1383644E-005  0.4574704E+03  0.7818608E-02  0.1165705E+00
          2   -1    0    0  502    0  0.00000000000E+00  0.00000000000E+00  0.14137835531E+04  0.14137835531E+04  0.00000000000E+00 0.  1.
          1   -1    0    0  501    0 -0.00000000000E+00 -0.00000000000E+00 -0.13431054501E+03  0.13431054501E+03  0.00000000000E+00 0.  1.
          2    1    1    2  501    0 -0.51631553838E+02  0.14661141193E+03  0.10996286731E+04  0.11105601930E+04  0.00000000000E+00 0.  1.
          1    1    1    2  502    0 -0.12152286301E+03 -0.13283713380E+03  0.46720571589E+02  0.18600086602E+03  0.00000000000E+00 0.  1.
         22    1    1    2    0    0  0.16291458201E+03 -0.85249257606E+01  0.15612937134E+03  0.22581013260E+03  0.00000000000E+00 0.  1.
         22    1    1    2    0    0  0.10239834835E+02 -0.52493523688E+01 -0.23005608010E+02  0.25722906478E+02  0.00000000000E+00 0. -1.
</event>
<event>
 6    1  0.1383644E-005  0.4290620E+02  0.7818608E-02  0.1496120E+00
          2   -1    0    0  502    0  0.00000000000E+00  0.00000000000E+00  0.61210606741E+03  0.61210606741E+03  0.00000000000E+00 0. -1.
          1   -1    0    0  501    0 -0.00000000000E+00 -0.00000000000E+00 -0.29060019474E+02  0.29060019474E+02  0.00000000000E+00 0. -1.
          2    1    1    2  501    0  0.49884675534E+02 -0.13527902768E+02  0.33254130268E+03  0.33653410376E+03  0.00000000000E+00 0. -1.
          1    1    1    2  502    0 -0.47879798209E+02  0.47241749354E+01  0.50340867687E+02  0.69634731742E+02  0.00000000000E+00 0. -1.
         22    1    1    2    0    0 -0.15219213491E+02 -0.24868565432E+02 -0.23760275948E+01  0.29252615491E+02  0.00000000000E+00 0.  1.
         22    1    1    2    0    0  0.13214336166E+02  0.33672293264E+02  0.20253990516E+03  0.20574463589E+03  0.00000000000E+00 0. -1.
</event>
<event>
 6    1  0.1383644E-005  0.2758826E+02  0.7818608E-02  0.1651518E+00
          2   -1    0    0  502    0  0.00000000000E+00  0.00000000000E+00  0.17917520860E+03  0.17917520860E+03  0.00000000000E+00 0.  1.
          1   -1    0    0  501    0 -0.00000000000E+00 -0.00000000000E+00 -0.95500604538E+02  0.95500604538E+02  0.00000000000E+00 0.  1.
          2    1    1    2  501    0  0.14675795787E+02  0.39060078181E+02  0.56236130252E+02  0.70025502749E+02  0.00000000000E+00 0.  1.
          1    1    1    2  502    0  0.37574225293E+01 -0.44893447040E+02  0.63087868774E+02  0.77521732422E+02  0.00000000000E+00 0.  1.
         22    1    1    2    0    0 -0.88273781703E+01 -0.10956593180E+02 -0.78691569465E+02  0.79939556193E+02  0.00000000000E+00 0.  1.
         22    1    1    2    0    0 -0.96058401460E+01  0.16789962039E+02  0.43042174498E+02  0.47189021771E+02  0.00000000000E+00 0.  1.
</event>
<event>
 6    1  0.1383644E-005  0.3589457E+02  0.7818608E-02  0.1573520E+00
          2   -1    0    0  502    0  0.00000000000E+00  0.00000000000E+00  0.45335641213E+03  0.45335641213E+03  0.00000000000E+00 0. -1.
          1   -1    0    0  501    0 -0.00000000000E+00 -0.00000000000E+00 -0.37507796150E+02  0.37507796150E+02  0.00000000000E+00 0. -1.
          2    1    1    2  501    0  0.31265644679E+01  0.25945691048E+02  0.10064274083E+03  0.10398036147E+03  0.00000000000E+00 0. -1.
          1    1    1    2  502    0 -0.16682380234E+01 -0.29530213376E+02  0.23917247251E+03  0.24099437364E+03  0.00000000000E+00 0. -1.
         22    1    1    2    0    0 -0.15492560216E+02 -0.17893758646E+02 -0.29191808147E+02  0.37581480591E+02  0.00000000000E+00 0. -1.
         22    1    1    2    0    0  0.14034233772E+02  0.21478280974E+02  0.10522521079E+03  0.10830799258E+03  0.00000000000E+00 0.  1.
</event>
<event>
 6    1  0.1383644E-005  0.5953381E+02  0.7818608E-02  0.1403271E+00
          2   -1    0    0  502    0  0.00000000000E+00  0.00000000000E+00  0.18030596976E+03  0.18030596976E+03  0.00000000000E+00 0. -1.
          1   -1    0    0  501    0 -0.00000000000E+00 -0.00000000000E+00 -0.19680286665E+03  0.19680286665E+03  0.00000000000E+00 0.  1.
          2    1    1    2  501    0 -0.23646138602E+02  0.23737447708E+02  0.12438469722E+03  0.12881831856E+03  0.00000000000E+00 0. -1.
          1    1    1    2  502    0  0.16445972093E+02 -0.37879921804E+02 -0.11634210360E+03  0.12345381138E+03  0.00000000000E+00 0.  1.
         22    1    1    2    0    0  0.89130768100E+01 -0.94106503577E+01 -0.71290807227E+02  0.72459523000E+02  0.00000000000E+00 0. -1.
         22    1    1    2    0    0 -0.17129103003E+01  0.23553124454E+02  0.46751316719E+02  0.52377183469E+02  0.00000000000E+00 0.  1.
</event>
<event>
 6    1  0.1383644E-005  0.1225146E+03  0.7818608E-02  0.1331574E+00
          2   -1    0    0  502    0  0.00000000000E+00  0.00000000000E+00  0.14704366595E+03  0.14704366595E+03  0.00000000000E+00 0.  1.
          1   -1    0    0  501    0 -0.00000000000E+00 -0.00000000000E+00 -0.28012497869E+03  0.28012497869E+03  0.00000000000E+00 0.  1.
          2    1    1    2  501    0 -0.37492482846E+02  0.18026567476E+02  0.20584323432E+02  0.46415059799E+02  0.00000000000E+00 0.  1.
          1    1    1    2  502    0  0.10991882442E+03  0.26167051135E+02 -0.19237845264E+03  0.22310609935E+03  0.00000000000E+00 0.  1.
         22    1    1    2    0    0 -0.75365059612E+02 -0.23089740363E+02  0.79298143259E+02  0.11180887194E+03  0.00000000000E+00 0.  1.
         22    1    1    2    0    0  0.29387180429E+01 -0.21103878249E+02 -0.40585326795E+02  0.45838613547E+02  0.00000000000E+00 0. -1.
</event>
<event>
 6    1  0.1383644E-005  0.1050139E+03  0.7818608E-02  0.1364408E+00
          2   -1    0    0  502    0  0.00000000000E+00  0.00000000000E+00  0.14404563159E+03  0.14404563159E+03  0.00000000000E+00 0.  1.
          1   -1    0    0  501    0 -0.00000000000E+00 -0.00000000000E+00 -0.65071046298E+03  0.65071046298E+03  0.00000000000E+00 0.  1.
          2    1    1    2  501    0 -0.19244477002E+03 -0.72291259572E+02  0.92549632340E+00  0.20557692541E+03  0.00000000000E+00 0.  1.
          1    1    1    2  502    0  0.14719202323E+03  0.79872727919E+02 -0.30534877333E+03  0.34825711441E+03  0.00000000000E+00 0.  1.
         22    1    1    2    0    0  0.54198329464E+02 -0.12402776427E+02 -0.21643694303E+03  0.22346417630E+03  0.00000000000E+00 0.  1.
         22    1    1    2    0    0 -0.89455826761E+01  0.48213080804E+01  0.14195388651E+02  0.17457878450E+02  0.00000000000E+00 0. -1.
</event>
<event>
 6    1  0.1383644E-005  0.6944583E+02  0.7818608E-02  0.1454254E+00
          2   -1    0    0  502    0  0.00000000000E+00  0.00000000000E+00  0.78129226637E+03  0.78129226637E+03  0.00000000000E+00 0. -1.
          1   -1    0    0  501    0 -0.00000000000E+00 -0.00000000000E+00 -0.56541697577E+02  0.56541697577E+02  0.00000000000E+00 0. -1.
          2    1    1    2  501    0  0.30502074395E+02  0.11154480015E+03  0.47183145416E+03  0.48579578026E+03  0.00000000000E+00 0. -1.
          1    1    1    2  502    0  0.54418084163E+01 -0.91898863798E+02  0.42092686319E+02  0.10122652166E+03  0.00000000000E+00 0. -1.
         22    1    1    2    0    0 -0.47717783511E+02 -0.23106140922E+02  0.22551960480E+03  0.23166780692E+03  0.00000000000E+00 0. -1.
         22    1    1    2    0    0  0.11773900700E+02  0.34602045679E+01 -0.14693176484E+02  0.19143855112E+02  0.00000000000E+00 0. -1.
</event>
<event>
 6    1  0.1383644E-005  0.8098453E+02  0.7818608E-02  0.1439042E+00
          2   -1    0    0  502    0  0.00000000000E+00  0.00000000000E+00  0.12425118091E+03  0.12425118091E+03  0.00000000000E+00 0.  1.
          1   -1    0    0  501    0 -0.00000000000E+00 -0.00000000000E+00 -0.37759396586E+03  0.37759396586E+03  0.00000000000E+00 0. -1.
          2    1    1    2  501    0  0.45910337493E+02  0.12136253139E+01 -0.25306190055E+03  0.25719556272E+03  0.00000000000E+00 0.  1.
          1    1    1    2  502    0  0.22380226129E+02 -0.32018062529E+02 -0.72527162700E+02  0.82378517703E+02  0.00000000000E+00 0. -1.
         22    1    1    2    0    0 -0.79513488866E+02  0.24393066728E+02  0.10094567736E+03  0.13079543721E+03  0.00000000000E+00 0.  1.
         22    1    1    2    0    0  0.11222925243E+02  0.64113704867E+01 -0.28699399066E+02  0.31475629133E+02  0.00000000000E+00 0.  1.
</event>
<event>
 6    1  0.1383644E-005  0.1018690E+03  0.7818608E-02  0.1394078E+00
          2   -1    0    0  502    0  0.00000000000E+00  0.00000000000E+00  0.17262151221E+03  0.17262151221E+03  0.00000000000E+00 0. -1.
          1   -1    0    0  501    0 -0.00000000000E+00 -0.00000000000E+00 -0.10509606692E+03  0.10509606692E+03  0.00000000000E+00 0.  1.
          2    1    1    2  501    0  0.33884687096E+02  0.45313202327E+01  0.26447801451E+02  0.43222576094E+02  0.00000000000E+00 0. -1.
          1    1    1    2  502    0 -0.55112372404E+02  0.50180267958E+02 -0.31228686946E+02  0.80812522375E+02  0.00000000000E+00 0.  1.
         22    1    1    2    0    0 -0.12462556311E+02  0.37522932822E+01 -0.29100086813E+02  0.31878049928E+02  0.00000000000E+00 0.  1.
         22    1    1    2    0    0  0.33690241619E+02 -0.58463881473E+02  0.10140641759E+03  0.12180443073E+03  0.00000000000E+00 0. -1.
</event>
<event>
 6    1  0.1383644E-005  0.9458819E+02  0.7818608E-02  0.1417970E+00
          2   -1    0    0  502    0  0.00000000000E+00  0.00000000000E+00  0.70280267397E+03  0.70280267397E+03  0.00000000000E+00 0.  1.
          1   -1    0    0  501    0 -0.00000000000E+00 -0.00000000000E+00 -0.34864566578E+02  0.34864566578E+02  0.00000000000E+00 0. -1.
          2    1    1    2  501    0 -0.26894744164E+01  0.23986678297E+02  0.44444576989E+03  0.44510070364E+03  0.00000000000E+00 0.  1.
          1    1    1    2  502    0  0.43932952568E+02 -0.29685808680E+02  0.35181981844E+02  0.63632722752E+02  0.00000000000E+00 0. -1.
         22    1    1    2    0    0  0.87254711797E+01 -0.69791759672E+01 -0.15273563612E+02  0.18924177390E+02  0.00000000000E+00 0.  1.
         22    1    1    2    0    0 -0.49968949332E+02  0.12678306350E+02  0.20358391927E+03  0.21000963677E+03  0.00000000000E+00 0.  1.
</event>
<event>
 6    1  0.1383644E-005  0.9165152E+02  0.7818608E-02  0.1384742E+00
          2   -1    0    0  502    0  0.00000000000E+00  0.00000000000E+00  0.10722897644E+03  0.10722897644E+03  0.00000000000E+00 0.  1.
          1   -1    0    0  501    0 -0.00000000000E+00 -0.00000000000E+00 -0.11187895429E+03  0.11187895429E+03  0.00000000000E+00 0.  1.
          2    1    1    2  501    0 -0.58580670080E+01  0.31598615274E+02 -0.73451167916E+01  0.32965742476E+02  0.00000000000E+00 0.  1.
          1    1    1    2  502    0 -0.44646933994E+02 -0.25566019066E+02 -0.15392884370E+02  0.53702057085E+02  0.00000000000E+00 0.  1.
         22    1    1    2    0    0  0.29984865158E+02 -0.28405984091E+01  0.70175215698E+02  0.76365712437E+02  0.00000000000E+00 0. -1.
         22    1    1    2    0    0  0.20520135844E+02 -0.31919977989E+01 -0.52087192383E+02  0.56074418725E+02  0.00000000000E+00 0.  1.
</event>
<event>
 6    1  0.1383644E-005  0.1281464E+03  0.7818608E-02  0.1317099E+00
          2   -1    0    0  502    0  0.00000000000E+00  0.00000000000E+00  0.48740903228E+03  0.48740903228E+03  0.00000000000E+00 0.  1.
          1   -1    0    0  501    0 -0.00000000000E+00 -0.00000000000E+00 -0.14254689637E+03  0.14254689637E+03  0.00000000000E+00 0.  1.
          2    1    1    2  501    0 -0.11197952214E+03 -0.14522593523E+02  0.37422098001E+03  0.39088573903E+03  0.00000000000E+00 0.  1.
          1    1    1    2  502    0  0.10742161070E+03  0.98232229667E+01  0.18497821605E+00  0.10786997901E+03  0.00000000000E+00 0.  1.
         22    1    1    2    0    0  0.14092088602E+02  0.19518374189E+02 -0.76948487972E+02  0.80626445372E+02  0.00000000000E+00 0. -1.
         22    1    1    2    0    0 -0.95341771615E+01 -0.14819003632E+02  0.47404665661E+02  0.50573765227E+02  0.00000000000E+00 0. -1.
</event>
<event>
 6    1  0.1383644E-005  0.5290042E+02  0.7818608E-02  0.1529919E+00
          2   -1    0    0  502    0  0.00000000000E+00  0.00000000000E+00  0.15505350490E+03  0.15505350490E+03  0.00000000000E+00 0.  1.
          1   -1    0    0  501    0 -0.00000000000E+00 -0.00000000000E+00 -0.13963006009E+03  0.13963006009E+03  0.00000000000E+00 0.  1.
          2    1    1    2  501    0 -0.69183595954E+01 -0.38265739435E+02  0.83450333095E+02  0.92065675513E+02  0.00000000000E+00 0.  1.
          1    1    1    2  502    0  0.17275377956E+02  0.54963006105E+02 -0.47292456290E+02  0.74538226069E+02  0.00000000000E+00 0.  1.
         22    1    1    2    0    0  0.11954015049E+01 -0.10888284511E+02  0.52541709222E+02  0.53671360448E+02  0.00000000000E+00 0.  1.
         22    1    1    2    0    0 -0.11552419865E+02 -0.58089821584E+01 -0.73276141214E+02  0.74408302962E+02  0.00000000000E+00 0. -1.
</event>
<event>
 6    1  0.1383644E-005  0.6058669E+02  0.7818608E-02  0.1415120E+00
          2   -1    0    0  502    0  0.00000000000E+00  0.00000000000E+00  0.13075047735E+03  0.13075047735E+03  0.00000000000E+00 0. -1.
          1   -1    0    0  501    0 -0.00000000000E+00 -0.00000000000E+00 -0.63465543393E+03  0.63465543393E+03  0.00000000000E+00 0.  1.
          2    1    1    2  501    0  0.40362672032E+02 -0.16776999190E+02  0.78059547247E+02  0.89464551146E+02  0.00000000000E+00 0. -1.
          1    1    1    2  502    0 -0.33658441368E+02 -0.22323036471E+02 -0.53631238648E+03  0.53783099997E+03  0.00000000000E+00 0.  1.
         22    1    1    2    0    0  0.16937287303E+02  0.14801699781E+01  0.38978559657E+02  0.42525177452E+02  0.00000000000E+00 0.  1.
         22    1    1    2    0    0 -0.23641517967E+02  0.37619865684E+02 -0.84630676993E+02  0.95585182712E+02  0.00000000000E+00 0. -1.
</event>
<event>
 6    1  0.1383644E-005  0.1308180E+03  0.7818608E-02  0.1249679E+00
          2   -1    0    0  502    0  0.00000000000E+00  0.00000000000E+00  0.41490884933E+03  0.41490884933E+03  0.00000000000E+00 0.  1.
          1   -1    0    0  501    0 -0.00000000000E+00 -0.00000000000E+00 -0.18261618498E+03  0.18261618498E+03  0.00000000000E+00 0. -1.
          2    1    1    2  501    0 -0.10967699766E+03 -0.13034095046E+02  0.30096923160E+03  0.32059539894E+03  0.00000000000E+00 0.  1.
          1    1    1    2  502    0  0.65342704557E+02 -0.19314300825E+02 -0.11752581409E+03  0.13584928499E+03  0.00000000000E+00 0. -1.
         22    1    1    2    0    0  0.66001285534E+02  0.47209017867E+02 -0.48565064898E+01  0.81292353364E+02  0.00000000000E+00 0. -1.
         22    1    1    2    0    0 -0.21666992434E+02 -0.14860621996E+02  0.53705753323E+02  0.59787997016E+02  0.00000000000E+00 0.  1.
</event>
<event>
 6    1  0.1383644E-005  0.3035319E+02  0.7818608E-02  0.1682106E+00
          2   -1    0    0  502    0  0.00000000000E+00  0.00000000000E+00  0.13206637576E+03  0.13206637576E+03  0.00000000000E+00 0. -1.
          1   -1    0    0  501    0 -0.00000000000E+00 -0.00000000000E+00 -0.79372804403E+02  0.79372804403E+02  0.00000000000E+00 0. -1.
          2    1    1    2  501    0  0.22931652586E+02 -0.26314143501E+02  0.45535796332E+02  0.57374241487E+02  0.00000000000E+00 0. -1.
          1    1    1    2  502    0  0.14148671926E+02  0.22784192827E+02  0.42661779777E+01  0.27157036557E+02  0.00000000000E+00 0. -1.
         22    1    1    2    0    0 -0.92955136536E+01 -0.60219151250E+01 -0.58133049919E+02  0.59178725305E+02  0.00000000000E+00 0. -1.
         22    1    1    2    0    0 -0.27784810858E+02  0.95518657996E+01  0.61024646961E+02  0.67729176810E+02  0.00000000000E+00 0. -1.
</event>
<event>
 6    1  0.1383644E-005  0.8013034E+02  0.7818608E-02  0.1413032E+00
          2   -1    0    0  502    0  0.00000000000E+00  0.00000000000E+00  0.18051575573E+03  0.18051575573E+03  0.00000000000E+00 0.  1.
          1   -1    0    0  501    0 -0.00000000000E+00 -0.00000000000E+00 -0.26478430638E+03  0.26478430638E+03  0.00000000000E+00 0. -1.
          2    1    1    2  501    0  0.91392808188E+01  0.25623034066E+02  0.31178480480E+02  0.41378303175E+02  0.00000000000E+00 0.  1.
          1    1    1    2  502    0 -0.16914578445E+02 -0.61091120721E+02 -0.22382399025E+03  0.23262718373E+03  0.00000000000E+00 0. -1.
         22    1    1    2    0    0  0.15525387314E+02 -0.12349821206E+02 -0.23528243606E+02  0.30775541949E+02  0.00000000000E+00 0. -1.
         22    1    1    2    0    0 -0.77500896874E+01  0.47817907860E+02  0.13190520273E+03  0.14051903326E+03  0.00000000000E+00 0.  1.
</event>
<event>
 6    1  0.1383644E-005  0.1793639E+03  0.7818608E-02  0.1226116E+00
          2   -1    0    0  502    0  0.00000000000E+00  0.00000000000E+00  0.14686872319E+04  0.14686872319E+04  0.00000000000E+00 0. -1.
          1   -1    0    0  501    0 -0.00000000000E+00 -0.00000000000E+00 -0.21581232428E+03  0.21581232428E+03  0.00000000000E+00 0.  1.
          2    1    1    2  501    0  0.82219298830E+02 -0.10160875389E+03  0.10963033223E+04  0.11040676277E+04  0.00000000000E+00 0. -1.
          1    1    1    2  502    0 -0.16791953915E+03  0.12049695621E+03 -0.13917314632E+03  0.24916992744E+03  0.00000000000E+00 0.  1.
         22    1    1    2    0    0  0.35760281908E+02 -0.28685355902E+02  0.27067612091E+03  0.27453089050E+03  0.00000000000E+00 0. -1.
         22    1    1    2    0    0  0.49939958409E+02  0.97971535912E+01  0.25068610751E+02  0.56731110595E+02  0.00000000000E+00 0.  1.
</event>
<event>
 6    1  0.1383644E-005  0.2340616E+03  0.7818608E-02  0.1252849E+00
          2   -1    0    0  502    0  0.00000000000E+00  0.00000000000E+00  0.11673600916E+04  0.11673600916E+04  0.00000000000E+00 0.  1.
          1   -1    0    0  501    0 -0.00000000000E+00 -0.00000000000E+00 -0.11359545845E+03  0.11359545845E+03  0.00000000000E+00 0. -1.
          2    1    1    2  501    0  0.10576445200E+03 -0.17560838782E+03  0.85052235495E+03  0.87487867813E+03  0.00000000000E+00 0.  1.
          1    1    1    2  502    0 -0.11772448101E+03  0.18796952943E+03  0.15370803819E+03  0.26984765781E+03  0.00000000000E+00 0. -1.
         22    1    1    2    0    0 -0.12100630477E+02  0.55183571328E+01 -0.39819207987E+02  0.41981506024E+02  0.00000000000E+00 0.  1.
         22    1    1    2    0    0  0.24060659482E+02 -0.17879498734E+02  0.89353447972E+02  0.94247708058E+02  0.00000000000E+00 0.  1.
</event>
<event>
 6    1  0.1383644E-005  0.3831768E+02  0.7818608E-02  0.1603429E+00
          2   -1    0    0  502    0  0.00000000000E+00  0.00000000000E+00  0.12092380366E+04  0.12092380366E+04  0.00000000000E+00 0.  1.
          1   -1    0    0  501    0 -0.00000000000E+00 -0.00000000000E+00 -0.42434841074E+02  0.42434841074E+02  0.00000000000E+00 0. -1.
          2    1    1    2  501    0  0.37206066853E+02 -0.21704978349E+02  0.10535064490E+04  0.10543866632E+04  0.00000000000E+00 0.  1.
          1    1    1    2  502    0  0.70150318448E+00  0.23215594483E+02 -0.41380000232E+01  0.23591926121E+02  0.00000000000E+00 0. -1.
         22    1    1    2    0    0 -0.25999818334E+02  0.48548377384E+01  0.14265544310E+03  0.14508664807E+03  0.00000000000E+00 0.  1.
         22    1    1    2    0    0 -0.11907751704E+02 -0.63654538719E+01 -0.25220696486E+02  0.28607640323E+02  0.00000000000E+00 0. -1.
</event>
<event>
 6    1  0.1383644E-005  0.1554444E+03  0.7818608E-02  0.1293839E+00
          2   -1    0    0  502    0  0.00000000000E+00  0.00000000000E+00  0.62029311941E+03  0.62029311941E+03  0.00000000000E+00 0. -1.
          1   -1    0    0  501    0 -0.00000000000E+00 -0.00000000000E+00 -0.45871790181E+02  0.45871790181E+02  0.00000000000E+00 0. -1.
          2    1    1    2  501    0 -0.36288541712E+02  0.21284208285E+02  0.37857195987E+02  0.56595433296E+02  0.00000000000E+00 0. -1.
          1    1    1    2  502    0  0.13039203498E+03 -0.25092336176E+02  0.24276515639E+03  0.27670675683E+03  0.00000000000E+00 0. -1.
         22    1    1    2    0    0  0.11731005454E+02 -0.16975412230E+02  0.80800080700E+00  0.20650277834E+02  0.00000000000E+00 0.  1.
         22    1    1    2    0    0 -0.10583449873E+03  0.20783540120E+02  0.29299097605E+03  0.31221244163E+03  0.00000000000E+00 0. -1.
</event>
<event>
 6    1  0.1383644E-005  0.3413612E+02  0.7818608E-02  0.1563794E+00
          2   -1    0    0  502    0  0.00000000000E+00  0.00000000000E+00  0.20947782654E+03  0.20947782654E+03  0.00000000000E+00 0.  1.
          1   -1    0    0  501    0 -0.00000000000E+00 -0.00000000000E+00 -0.64865991572E+02  0.64865991572E+02  0.00000000000E+00 0.  1.
          2    1    1    2  501    0  0.21395620695E+02  0.36349892227E+01  0.11988604030E+03  0.12183451231E+03  0.00000000000E+00 0.  1.
          1    1    1    2  502    0 -0.71587314807E+01 -0.20523215128E+02  0.77849007353E+01  0.23087972519E+02  0.00000000000E+00 0.  1.
         22    1    1    2    0    0 -0.29564068899E+02  0.96056646798E+01 -0.50817071139E+02  0.59570778768E+02  0.00000000000E+00 0.  1.
         22    1    1    2    0    0  0.15327179685E+02  0.72825612253E+01  0.67757965069E+02  0.69850554510E+02  0.00000000000E+00 0.  1.
</event>
<event>
 6    1  0.1383644E-005  0.2905224E+02  0.7818608E-02  0.1611873E+00
          2   -1    0    0  502    0  0.00000000000E+00  0.00000000000E+00  0.17223832182E+03  0.17223832182E+03  0.00000000000E+00 0. -1.
          1   -1    0    0  501    0 -0.00000000000E+00 -0.00000000000E+00 -0.91962214532E+02  0.91962214532E+02  0.00000000000E+00 0. -1.
          2    1    1    2  501    0  0.14914556559E+02  0.45539525891E+02  0.67133765567E+02  0.82481724612E+02  0.00000000000E+00 0. -1.
          1    1    1    2  502    0 -0.96862438491E+01 -0.51832282004E+02 -0.24350249042E+01  0.52785775773E+02  0.00000000000E+00 0. -1.
         22    1    1    2    0    0 -0.14577971186E+02 -0.51563396463E+01 -0.54841344338E+02  0.56979629090E+02  0.00000000000E+00 0.  1.
         22    1    1    2    0    0  0.93496584761E+01  0.11449095759E+02  0.70418710965E+02  0.71953406877E+02  0.00000000000E+00 0.  1.
</event>
<event>
 6    1  0.1383644E-005  0.4787183E+02  0.7818608E-02  0.1544042E+00
          2   -1    0    0  502    0  0.00000000000E+00  0.00000000000E+00  0.58600148336E+02  0.58600148336E+02  0.00000000000E+00 0. -1.
          1   -1    0    0  501    0 -0.00000000000E+00 -0.00000000000E+00 -0.49594169922E+03  0.49594169922E+03  0.00000000000E+00 0. -1.
          2    1    1    2  501    0  0.37980517359E+02 -0.43176080756E+02 -0.10592508400E+03  0.12052724617E+03  0.00000000000E+00 0. -1.
          1    1    1    2  502    0 -0.54395212010E+01  0.27187587287E+02 -0.30282343419E+03  0.30409009452E+03  0.00000000000E+00 0. -1.
         22    1    1    2    0    0  0.13841181722E+02  0.43456525106E+01 -0.67023122444E+02  0.68575228395E+02  0.00000000000E+00 0. -1.
         22    1    1    2    0    0 -0.46382177881E+02  0.11642840959E+02  0.38430089750E+02  0.61349278470E+02  0.00000000000E+00 0. -1.
</event>
<event>
 6    1  0.1383644E-005  0.6893477E+02  0.7818608E-02  0.1366921E+00
          2   -1    0    0  502    0  0.00000000000E+00  0.00000000000E+00  0.32909716160E+03  0.32909716160E+03  0.00000000000E+00 0.  1.
          1   -1    0    0  501    0 -0.00000000000E+00 -0.00000000000E+00 -0.15802459401E+03  0.15802459401E+03  0.00000000000E+00 0.  1.
          2    1    1    2  501    0  0.10619796554E+03 -0.12351018871E+03  0.94088422016E+02  0.18811008947E+03  0.00000000000E+00 0.  1.
          1    1    1    2  502    0 -0.10693104431E+03  0.12115808091E+03  0.31347983366E+02  0.16460930978E+03  0.00000000000E+00 0.  1.
         22    1    1    2    0    0  0.82059971741E+01 -0.26098931108E+02  0.82686173121E+02  0.87094751966E+02  0.00000000000E+00 0.  1.
         22    1    1    2    0    0 -0.74729184077E+01  0.28451038917E+02 -0.37050010920E+02  0.47307604401E+02  0.00000000000E+00 0. -1.
</event>
<event>
 6    1  0.1383644E-005  0.7301992E+02  0.7818608E-02  0.1418933E+00
          2   -1    0    0  502    0  0.00000000000E+00  0.00000000000E+00  0.21905583989E+03  0.21905583989E+03  0.00000000000E+00 0.  1.
          1   -1    0    0  501    0 -0.00000000000E+00 -0.00000000000E+00 -0.92507812483E+02  0.92507812483E+02  0.00000000000E+00 0.  1.
          2    1    1    2  501    0  0.21516448097E+02 -0.88776334315E+01  0.12935938533E+03  0.13143675471E+03  0.00000000000E+00 0.  1.
          1    1    1    2  502    0 -0.30678777487E+02  0.25485009066E+02 -0.33813951903E+02  0.52288205348E+02  0.00000000000E+00 0.  1.
         22    1    1    2    0    0 -0.27497139230E+01  0.23770061756E+02 -0.39232171197E+02  0.45953672534E+02  0.00000000000E+00 0. -1.
         22    1    1    2    0    0  0.11912043314E+02 -0.40377437390E+02  0.70234765175E+02  0.81885019785E+02  0.00000000000E+00 0.  1.
</event>
<event>
 6    1  0.1383644E-005  0.4099083E+02  0.7818608E-02  0.1505271E+00
          2   -1    0    0  502    0  0.00000000000E+00  0.00000000000E+00  0.75879459634E+02  0.75879459634E+02  0.00000000000E+00 0.  1.
          1   -1    0    0  501    0 -0.00000000000E+00 -0.00000000000E+00 -0.16245519254E+03  0.16245519254E+03  0.00000000000E+00 0.  1.
          2    1    1    2  501    0  0.15833338621E+02  0.15065548182E+02  0.24069069712E+02  0.32511312965E+02  0.00000000000E+00 0.  1.
          1    1    1    2  502    0 -0.30385506936E+02  0.18945598144E+02 -0.56608467253E+02  0.66983082085E+02  0.00000000000E+00 0.  1.
         22    1    1    2    0    0 -0.32415190923E+01 -0.42068729305E+02 -0.89166106566E+02  0.98645222853E+02  0.00000000000E+00 0.  1.
         22    1    1    2    0    0  0.17793687407E+02  0.80575829790E+01  0.35129771205E+02  0.40195034269E+02  0.00000000000E+00 0.  1.
</event>
<event>
 6    1  0.1383644E-005  0.1134401E+03  0.7818608E-02  0.1313534E+00
          2   -1    0    0  502    0  0.00000000000E+00  0.00000000000E+00  0.99876458311E+02  0.99876458311E+02  0.00000000000E+00 0.  1.
          1   -1    0    0  501    0 -0.00000000000E+00 -0.00000000000E+00 -0.95540499484E+03  0.95540499484E+03  0.00000000000E+00 0.  1.
          2    1    1    2  501    0 -0.61386564382E+02 -0.74873537521E+02  0.44275193421E+02  0.10646431167E+03  0.00000000000E+00 0.  1.
          1    1    1    2  502    0  0.86030337052E+02  0.41025400556E+02 -0.72736662867E+03  0.73358470192E+03  0.00000000000E+00 0.  1.
         22    1    1    2    0    0 -0.15867492565E+02 -0.20988842350E+01  0.16334043267E+02  0.22868834793E+02  0.00000000000E+00 0.  1.
         22    1    1    2    0    0 -0.87762801058E+01  0.35947021200E+02 -0.18877114455E+03  0.19236360477E+03  0.00000000000E+00 0.  1.
</event>
<event>
 6    1  0.1383644E-005  0.2939039E+03  0.7818608E-02  0.1138998E+00
          2   -1    0    0  502    0  0.00000000000E+00  0.00000000000E+00  0.14861084652E+03  0.14861084652E+03  0.00000000000E+00 0. -1.
          1   -1    0    0  501    0 -0.00000000000E+00 -0.00000000000E+00 -0.79372169617E+03  0.79372169617E+03  0.00000000000E+00 0.  1.
          2    1    1    2  501    0  0.36240277965E+02 -0.15105078471E+03 -0.10407150457E+03  0.18697747290E+03  0.00000000000E+00 0. -1.
          1    1    1    2  502    0  0.13252286289E+03  0.16408098670E+03 -0.49584389586E+03  0.53883768284E+03  0.00000000000E+00 0.  1.
         22    1    1    2    0    0 -0.69107408438E+02 -0.43200098755E+02 -0.72276234401E+02  0.10893087943E+03  0.00000000000E+00 0. -1.
         22    1    1    2    0    0 -0.99655732422E+02  0.30169896764E+02  0.27080785172E+02  0.10758650752E+03  0.00000000000E+00 0.  1.
</event>
<event>
 6    1  0.1383644E-005  0.2902915E+02  0.7818608E-02  0.1679404E+00
          2   -1    0    0  502    0  0.00000000000E+00  0.00000000000E+00  0.22372053057E+03  0.22372053057E+03  0.00000000000E+00 0. -1.
          1   -1    0    0  501    0 -0.00000000000E+00 -0.00000000000E+00 -0.59949823599E+02  0.59949823599E+02  0.00000000000E+00 0. -1.
          2    1    1    2  501    0  0.48111628631E+02  0.14630236803E+02  0.11678894895E+03  0.12715514632E+03  0.00000000000E+00 0. -1.
          1    1    1    2  502    0 -0.20010421821E+02 -0.15554895775E+02  0.43201536690E+01  0.25710610490E+02  0.00000000000E+00 0. -1.
         22    1    1    2    0    0 -0.57583724565E+01 -0.95434158442E+01 -0.41567533158E+02  0.43035978578E+02  0.00000000000E+00 0. -1.
         22    1    1    2    0    0 -0.22342834353E+02  0.10468074816E+02  0.84229137508E+02  0.87768618780E+02  0.00000000000E+00 0. -1.
</event>
<event>
 6    1  0.1383644E-005  0.1756269E+03  0.7818608E-02  0.1173124E+00
          2   -1    0    0  502    0  0.00000000000E+00  0.00000000000E+00  0.73556164946E+02  0.73556164946E+02  0.00000000000E+00 0.  1.
          1   -1    0    0  501    0 -0.00000000000E+00 -0.00000000000E+00 -0.55754094080E+03  0.55754094080E+03  0.00000000000E+00 0.  1.
          2    1    1    2  501    0  0.89194165784E+02  0.66922151941E+02 -0.57753744085E+02  0.12557734105E+03  0.00000000000E+00 0.  1.
          1    1    1    2  502    0 -0.57686202772E+02 -0.11664455635E+03 -0.26529632638E+03  0.29549245558E+03  0.00000000000E+00 0.  1.
         22    1    1    2    0    0 -0.41044199610E+02 -0.90232194861E+01 -0.14120781787E+03  0.14732851944E+03  0.00000000000E+00 0.  1.
         22    1    1    2    0    0  0.95362365973E+01  0.58745623897E+02 -0.19726887524E+02  0.62698789676E+02  0.00000000000E+00 0.  1.
</event>
<event>
 6    1  0.1383644E-005  0.8734102E+02  0.7818608E-02  0.1408109E+00
          2   -1    0    0  502    0  0.00000000000E+00  0.00000000000E+00  0.14285398491E+03  0.14285398491E+03  0.00000000000E+00 0.  1.
          1   -1    0    0  501    0 -0.00000000000E+00 -0.00000000000E+00 -0.20862123292E+03  0.20862123292E+03  0.00000000000E+00 0.  1.
          2    1    1    2  501    0 -0.38624685419E+02  0.45970406179E+02  0.78105686267E+02  0.98517220806E+02  0.00000000000E+00 0.  1.
          1    1    1    2  502    0  0.53254597555E+02 -0.34647372501E+02 -0.10126128241E+03  0.11954220968E+03  0.00000000000E+00 0.  1.
         22    1    1    2    0    0  0.14265947472E+02 -0.83728291962E+01 -0.82461190847E+02  0.84103920967E+02  0.00000000000E+00 0.  1.
         22    1    1    2    0    0 -0.28895859608E+02 -0.29502044820E+01  0.39849538978E+02  0.49311866378E+02  0.00000000000E+00 0. -1.
</event>
<event>
 6    1  0.1383644E-005  0.8042191E+02  0.7818608E-02  0.1411706E+00
          2   -1    0    0  502    0  0.00000000000E+00  0.00000000000E+00  0.33435440757E+03  0.33435440757E+03  0.00000000000E+00 0.  1.
          1   -1    0    0  501    0 -0.00000000000E+00 -0.00000000000E+00 -0.11979660148E+03  0.11979660148E+03  0.00000000000E+00 0. -1.
          2    1    1    2  501    0  0.75724637437E+01 -0.61201942333E+02  0.18514098159E+03  0.19514149486E+03  0.00000000000E+00 0.  1.
          1    1    1    2  502    0 -0.31454324551E+01  0.12119911528E+03  0.12891684136E+02  0.12192339731E+03  0.00000000000E+00 0. -1.
         22    1    1    2    0    0  0.15306256093E+02 -0.99370365763E+00 -0.46235623033E+02  0.48713465898E+02  0.00000000000E+00 0.  1.
         22    1    1    2    0    0 -0.19733287382E+02 -0.59003469292E+02  0.62760763397E+02  0.88372650982E+02  0.00000000000E+00 0.  1.
</event>
<event>
 6    1  0.1383644E-005  0.1075719E+03  0.7818608E-02  0.1320292E+00
          2   -1    0    0  502    0  0.00000000000E+00  0.00000000000E+00  0.52125146795E+03  0.52125146795E+03  0.00000000000E+00 0.  1.
          1   -1    0    0  501    0 -0.00000000000E+00 -0.00000000000E+00 -0.67036621373E+02  0.67036621373E+02  0.00000000000E+00 0. -1.
          2    1    1    2  501    0 -0.90524554105E+02 -0.34980701476E+02  0.31574990642E+03  0.33032763701E+03  0.00000000000E+00 0.  1.
          1    1    1    2  502    0  0.67771324008E+02  0.49290070925E+02  0.85828892613E+02  0.11995441741E+03  0.00000000000E+00 0. -1.
         22    1    1    2    0    0 -0.15675813677E+02 -0.15064234493E+02  0.85013922730E+02  0.87749811129E+02  0.00000000000E+00 0.  1.
         22    1    1    2    0    0  0.38429043775E+02  0.75486504326E+00 -0.32377875180E+02  0.50256223772E+02  0.00000000000E+00 0. -1.
</event>
<event>
 6    1  0.1383644E-005  0.1881709E+03  0.7818608E-02  0.1258664E+00
          2   -1    0    0  502    0  0.00000000000E+00  0.00000000000E+00  0.73742788338E+03  0.73742788338E+03  0.00000000000E+00 0.  1.
          1   -1    0    0  501    0 -0.00000000000E+00 -0.00000000000E+00 -0.97631547843E+02  0.97631547843E+02  0.00000000000E+00 0.  1.
          2    1    1    2  501    0 -0.16346327384E+02 -0.64615956215E+02  0.40484995362E+03  0.41029977962E+03  0.00000000000E+00 0.  1.
          1    1    1    2  502    0  0.76596209875E+02 -0.29196307709E+01 -0.55269630296E+02  0.94499924043E+02  0.00000000000E+00 0.  1.
         22    1    1    2    0    0  0.22451111918E+02 -0.40500680383E+01  0.31106868383E+01  0.23024592289E+02  0.00000000000E+00 0.  1.
         22    1    1    2    0    0 -0.82700994410E+02  0.71585655024E+02  0.28710532538E+03  0.30723513527E+03  0.00000000000E+00 0. -1.
</event>
<event>
 6    1  0.1383644E-005  0.1042946E+03  0.7818608E-02  0.1359255E+00
          2   -1    0    0  502    0  0.00000000000E+00  0.00000000000E+00  0.48723106072E+02  0.48723106072E+02  0.00000000000E+00 0.  1.
          1   -1    0    0  501    0 -0.00000000000E+00 -0.00000000000E+00 -0.37253579580E+03  0.37253579580E+03  0.00000000000E+00 0. -1.
          2    1    1    2  501    0 -0.57461068055E+01  0.27550372810E+02 -0.29944420782E+02  0.41093906134E+02  0.00000000000E+00 0.  1.
          1    1    1    2  502    0  0.88764613390E+01 -0.85836866541E+02 -0.18974992112E+03  0.20845093377E+03  0.00000000000E+00 0. -1.
         22    1    1    2    0    0  0.17471938312E+02 -0.12468556856E+02 -0.95074846767E+02  0.97467738387E+02  0.00000000000E+00 0. -1.
         22    1    1    2    0    0 -0.20602292845E+02  0.70755050587E+02 -0.90435010580E+01  0.74246323582E+02  0.00000000000E+00 0.  1.
</event>
<event>
 6    1  0.1383644E-005  0.3749808E+02  0.7818608E-02  0.1530629E+00
          2   -1    0    0  502    0  0.00000000000E+00  0.00000000000E+00  0.32596497844E+03  0.32596497844E+03  0.00000000000E+00 0.  1.
          1   -1    0    0  501    0 -0.00000000000E+00 -0.00000000000E+00 -0.40930658608E+02  0.40930658608E+02  0.00000000000E+00 0.  1.
          2    1    1    2  501    0  0.53530690382E+02 -0.13847190964E+02  0.11292869949E+03  0.12573850118E+03  0.00000000000E+00 0.  1.
          1    1    1    2  502    0 -0.42123120277E+02 -0.57400918747E+01  0.32546873906E+02  0.53540684696E+02  0.00000000000E+00 0.  1.
         22    1    1    2    0    0  0.24461301597E+02  0.30051242403E+02 -0.42985876844E+01  0.38986027008E+02  0.00000000000E+00 0. -1.
         22    1    1    2    0    0 -0.35868871702E+02 -0.10463959564E+02  0.14385733412E+03  0.14863042417E+03  0.00000000000E+00 0.  1.
</event>
<event>
 6    1  0.1383644E-005  0.1515229E+03  0.7818608E-02  0.1268720E+00
          2   -1    0    0  502    0  0.00000000000E+00  0.00000000000E+00  0.35871645414E+03  0.35871645414E+03  0.00000000000E+00 0. -1.
          1   -1    0    0  501    0 -0.00000000000E+00 -0.00000000000E+00 -0.21398882710E+03  0.21398882710E+03  0.00000000000E+00 0. -1.
          2    1    1    2  501    0  0.18209302785E+02 -0.11775725693E+03  0.27565644939E+03  0.30030788927E+03  0.00000000000E+00 0. -1.
          1    1    1    2  502    0 -0.16130417450E+02  0.89344222680E+02 -0.11284593041E+03  0.14483364424E+03  0.00000000000E+00 0. -1.
         22    1    1    2    0    0  0.14566832625E+02  0.60220346328E+02 -0.49931564782E+02  0.79572884114E+02  0.00000000000E+00 0.  1.
         22    1    1    2    0    0 -0.16645717959E+02 -0.31807312083E+02  0.31848672842E+02  0.47990863611E+02  0.00000000000E+00 0. -1.
</event>
<event>
 6    1  0.1383644E-005  0.1561790E+03  0.7818608E-02  0.1318987E+00
          2   -1    0    0  502    0  0.00000000000E+00  0.00000000000E+00  0.71213204194E+03  0.71213204194E+03  0.00000000000E+00 0.  1.
          1   -1    0    0  501    0 -0.00000000000E+00 -0.00000000000E+00 -0.19180102363E+03  0.19180102363E+03  0.00000000000E+00 0.  1.
          2    1    1    2  501    0  0.13055483424E+03 -0.43683269439E+02  0.55759678604E+03  0.57434046399E+03  0.00000000000E+00 0.  1.
          1    1    1    2  502    0 -0.15973252877E+03  0.39912736890E+02 -0.97912889871E+02  0.19155793201E+03  0.00000000000E+00 0.  1.
         22    1    1    2    0    0  0.12166186758E+02  0.41545195185E+01 -0.36868477748E+02  0.39045624392E+02  0.00000000000E+00 0.  1.
         22    1    1    2    0    0  0.17011507774E+02 -0.38398696900E+00  0.97515599895E+02  0.98989045180E+02  0.00000000000E+00 0.  1.
</event>
<event>
 6    1  0.1383644E-005  0.5953978E+02  0.7818608E-02  0.1469620E+00
          2   -1    0    0  502    0  0.00000000000E+00  0.00000000000E+00  0.13856970130E+03  0.13856970130E+03  0.00000000000E+00 0.  1.
          1   -1    0    0  501    0 -0.00000000000E+00 -0.00000000000E+00 -0.10438043570E+03  0.10438043570E+03  0.00000000000E+00 0. -1.
          2    1    1    2  501    0 -0.24758753775E+02 -0.64397566566E+01  0.30354283387E+02  0.39696963035E+02  0.00000000000E+00 0.  1.
          1    1    1    2  502    0  0.66808155408E+02 -0.99197284630E+00 -0.26150892186E+02  0.71750838332E+02  0.00000000000E+00 0. -1.
         22    1    1    2    0    0 -0.23509201396E+02  0.16824265755E+02  0.75837211712E+02  0.81160465429E+02  0.00000000000E+00 0.  1.
         22    1    1    2    0    0 -0.18540200238E+02 -0.93925362523E+01 -0.45851337308E+02  0.50341870198E+02  0.00000000000E+00 0.  1.
</event>
<event>
 6    1  0.1383644E-005  0.2196555E+03  0.7818608E-02  0.1268359E+00
          2   -1    0    0  502    0  0.00000000000E+00  0.00000000000E+00  0.10932003479E+04  0.10932003479E+04  0.00000000000E+00 0. -1.
          1   -1    0    0  501    0 -0.00000000000E+00 -0.00000000000E+00 -0.69535875652E+02  0.69535875652E+02  0.00000000000E+00 0. -1.
          2    1    1    2  501    0 -0.86943768588E+02 -0.32989858467E+02  0.29516338572E+03  0.30946562640E+03  0.00000000000E+00 0. -1.
          1    1    1    2  502    0  0.20727024417E+03 -0.49483652828E+01  0.17100600649E+03  0.26875359475E+03  0.00000000000E+00 0. -1.
         22    1    1    2    0    0 -0.12099968275E+03  0.26090363458E+02  0.55901313392E+03  0.57255332869E+03  0.00000000000E+00 0. -1.
         22    1    1    2    0    0  0.67320717172E+00  0.11847860292E+02 -0.15180538688E+01  0.11963673722E+02  0.00000000000E+00 0.  1.
</event>
<event>
 6    1  0.1383644E-005  0.3531500E+03  0.7818608E-02  0.1083287E+00
          2   -1    0    0  502    0  0.00000000000E+00  0.00000000000E+00  0.35607957089E+03  0.35607957089E+03  0.00000000000E+00 0.  1.
          1   -1    0    0  501    0 -0.00000000000E+00 -0.00000000000E+00 -0.79579300106E+03  0.79579300106E+03  0.00000000000E+00 0.  1.
          2    1    1    2  501    0  0.53509141662E+01  0.17189417873E+03 -0.26052179455E+03  0.31216637615E+03  0.00000000000E+00 0.  1.
          1    1    1    2  502    0 -0.95111542497E+02 -0.39395739401E+03 -0.33825666156E+03  0.52788843794E+03  0.00000000000E+00 0.  1.
         22    1    1    2    0    0  0.10194593244E+03  0.20725644665E+03  0.17260666839E+03  0.28834227888E+03  0.00000000000E+00 0.  1.
         22    1    1    2    0    0 -0.12185304107E+02  0.14806768632E+02 -0.13541642437E+02  0.23475478981E+02  0.00000000000E+00 0. -1.
</event>
<event>
 6    1  0.1383644E-005  0.5651393E+02  0.7818608E-02  0.1448217E+00
          2   -1    0    0  502    0  0.00000000000E+00  0.00000000000E+00  0.38599774282E+02  0.38599774282E+02  0.00000000000E+00 0. -1.
          1   -1    0    0  501    0 -0.00000000000E+00 -0.00000000000E+00 -0.28512538241E+03  0.28512538241E+03  0.00000000000E+00 0.  1.
          2    1    1    2  501    0 -0.21362373725E+02  0.23268650674E+02 -0.91409924286E+01  0.32883717216E+02  0.00000000000E+00 0. -1.
          1    1    1    2  502    0  0.40087227816E+02 -0.73627699458E+01 -0.59153001036E+02  0.71835045395E+02  0.00000000000E+00 0.  1.
         22    1    1    2    0    0 -0.27169586028E+02  0.16185734414E+02  0.56744601617E+01  0.32130420190E+02  0.00000000000E+00 0. -1.
         22    1    1    2    0    0  0.84447319366E+01 -0.32091615143E+02 -0.18390607482E+03  0.18687597389E+03  0.00000000000E+00 0.  1.
</event>
<event>
 6    1  0.1383644E-005  0.1105107E+03  0.7818608E-02  0.1390877E+00
          2   -1    0    0  502    0  0.00000000000E+00  0.00000000000E+00  0.64411882364E+03  0.64411882364E+03  0.00000000000E+00 0.  1.
          1   -1    0    0  501    0 -0.00000000000E+00 -0.00000000000E+00 -0.14981246334E+04  0.14981246334E+04  0.00000000000E+00 0.  1.
          2    1    1    2  501    0  0.60845663471E+02 -0.61375495714E+02  0.55990538398E+03  0.56653612881E+03  0.00000000000E+00 0.  1.
          1    1    1    2  502    0 -0.66655026633E+02  0.87917248588E+02 -0.14417602132E+04  0.14459753966E+04  0.00000000000E+00 0.  1.
         22    1    1    2    0    0  0.11827651293E+02 -0.17657864287E+02  0.76765047217E+02  0.79652783884E+02  0.00000000000E+00 0. -1.
         22    1    1    2    0    0 -0.60182881304E+01 -0.88838885879E+01 -0.48916027719E+02  0.50079147719E+02  0.00000000000E+00 0.  1.
</event>
<event>
 6    1  0.1383644E-005  0.2125692E+03  0.7818608E-02  0.1183861E+00
          2   -1    0    0  502    0  0.00000000000E+00  0.00000000000E+00  0.42412759571E+03  0.42412759571E+03  0.00000000000E+00 0. -1.
          1   -1    0    0  501    0 -0.00000000000E+00 -0.00000000000E+00 -0.15243231989E+04  0.15243231989E+04  0.00000000000E+00 0. -1.
          2    1    1    2  501    0  0.39699781580E+03 -0.42600716985E+03  0.47051076084E+02  0.58421158691E+03  0.00000000000E+00 0. -1.
          1    1    1    2  502    0 -0.45585192039E+03  0.36400797235E+03 -0.98540123589E+03  0.11451281033E+04  0.00000000000E+00 0. -1.
         22    1    1    2    0    0  0.66642149829E+02  0.35992012092E+02 -0.25241599298E+02  0.79835702561E+02  0.00000000000E+00 0.  1.
         22    1    1    2    0    0 -0.77880452390E+01  0.26007185414E+02 -0.13660384412E+03  0.13927540189E+03  0.00000000000E+00 0. -1.
</event>
<event>
 6    1  0.1383644E-005  0.5484187E+02  0.7818608E-02  0.1495592E+00
          2   -1    0    0  502    0  0.00000000000E+00  0.00000000000E+00  0.17025778449E+04  0.17025778449E+04  0.00000000000E+00 0.  1.
          1   -1    0    0  501    0 -0.00000000000E+00 -0.00000000000E+00 -0.34941803297E+02  0.34941803297E+02  0.00000000000E+00 0. -1.
          2    1    1    2  501    0  0.62798903071E+02  0.44906401352E+02  0.13780240469E+04  0.13801849735E+04  0.00000000000E+00 0.  1.
          1    1    1    2  502    0 -0.46618696841E+02 -0.68329819629E+02  0.97575720524E+02  0.12791906966E+03  0.00000000000E+00 0. -1.
         22    1    1    2    0    0 -0.28501867315E+02  0.26839675654E+02  0.20646066346E+03  0.21013978725E+03  0.00000000000E+00 0. -1.
         22    1    1    2    0    0  0.12321661086E+02 -0.34162573773E+01 -0.14424389293E+02  0.19275817826E+02  0.00000000000E+00 0.  1.
</event>
<event>
 6    1  0.1383644E-005  0.3653543E+02  0.7818608E-02  0.1539093E+00
          2   -1    0    0  502    0  0.00000000000E+00  0.00000000000E+00  0.23275142847E+03  0.23275142847E+03  0.00000000000E+00 0. -1.
          1   -1    0    0  501    0 -0.00000000000E+00 -0.00000000000E+00 -0.14595331185E+03  0.14595331185E+03  0.00000000000E+00 0.  1.
          2    1    1    2  501    0  0.70409791615E+02  0.37707375491E+01  0.14951831098E+03  0.16531026143E+03  0.00000000000E+00 0. -1.
          1    1    1    2  502    0 -0.37071487809E+02  0.13189672363E+02 -0.70175165131E+02  0.80453815737E+02  0.00000000000E+00 0.  1.
         22    1    1    2    0    0 -0.83915925189E+01 -0.26990471881E+02 -0.56713569767E+02  0.63366658371E+02  0.00000000000E+00 0.  1.
         22    1    1    2    0    0 -0.24946711287E+02  0.10030061969E+02  0.64168540532E+02  0.69574004780E+02  0.00000000000E+00 0. -1.
</event>
<event>
 6    1  0.1383644E-005  0.5021162E+02  0.7818608E-02  0.1495232E+00
          2   -1    0    0  502    0  0.00000000000E+00  0.00000000000E+00  0.55791682518E+02  0.55791682518E+02  0.00000000000E+00 0. -1.
          1   -1    0    0  501    0 -0.00000000000E+00 -0.00000000000E+00 -0.18307113534E+03  0.18307113534E+03  0.00000000000E+00 0.  1.
          2    1    1    2  501    0  0.68132247655E+01 -0.19443682608E+02  0.72586931716E+01  0.21844117094E+02  0.00000000000E+00 0. -1.
          1    1    1    2  502    0 -0.95009008760E+01  0.33706725323E+02 -0.54474816884E+02  0.64760451852E+02  0.00000000000E+00 0.  1.
         22    1    1    2    0    0  0.26723540491E+02 -0.16715642726E+02  0.27612683414E+02  0.41904899636E+02  0.00000000000E+00 0. -1.
         22    1    1    2    0    0 -0.24035864381E+02  0.24526000111E+01 -0.10767601252E+03  0.11035334927E+03  0.00000000000E+00 0. -1.
</event>
<event>
 6    1  0.1383644E-005  0.1507789E+03  0.7818608E-02  0.1279550E+00
          2   -1    0    0  502    0  0.00000000000E+00  0.00000000000E+00  0.11499302413E+03  0.11499302413E+03  0.00000000000E+00 0. -1.
          1   -1    0    0  501    0 -0.00000000000E+00 -0.00000000000E+00 -0.64700836947E+03  0.64700836947E+03  0.00000000000E+00 0. -1.
          2    1    1    2  501    0  0.21341556855E+02  0.41913711854E+02 -0.25721180433E+02  0.53607839102E+02  0.00000000000E+00 0. -1.
          1    1    1    2  502    0  0.52595797415E+02  0.46501501653E+01 -0.54972431401E+03  0.55225425595E+03  0.00000000000E+00 0. -1.
         22    1    1    2    0    0 -0.67243702125E+02 -0.17741099983E+02  0.82004534820E+02  0.10752304793E+03  0.00000000000E+00 0. -1.
         22    1    1    2    0    0 -0.66936521448E+01 -0.28822762037E+02 -0.38574385728E+02  0.48616250624E+02  0.00000000000E+00 0. -1.
</event>
<event>
 6    1  0.1383644E-005  0.1147330E+03  0.7818608E-02  0.1273853E+00
          2   -1    0    0  502    0  0.00000000000E+00  0.00000000000E+00  0.73682050635E+03  0.73682050635E+03  0.00000000000E+00 0. -1.
          1   -1    0    0  501    0 -0.00000000000E+00 -0.00000000000E+00 -0.64082400327E+02  0.64082400327E+02  0.00000000000E+00 0. -1.
          2    1    1    2  501    0  0.24236238380E+02 -0.30056582753E+02  0.13401360626E+03  0.13946483456E+03  0.00000000000E+00 0. -1.
          1    1    1    2  502    0 -0.88772963091E+02  0.13733404932E+03  0.41234418761E+03  0.44358652948E+03  0.00000000000E+00 0. -1.
         22    1    1    2    0    0  0.18877825044E+02 -0.47912697838E+02  0.13304410038E+03  0.14266299989E+03  0.00000000000E+00 0.  1.
         22    1    1    2    0    0  0.45658899667E+02 -0.59364768728E+02 -0.66637882331E+01  0.75188542734E+02  0.00000000000E+00 0.  1.
</event>
<event>
 6    1  0.1383644E-005  0.1017003E+03  0.7818608E-02  0.1289374E+00
          2   -1    0    0  502    0  0.00000000000E+00  0.00000000000E+00  0.15137059202E+04  0.15137059202E+04  0.00000000000E+00 0.  1.
          1   -1    0    0  501    0 -0.00000000000E+00 -0.00000000000E+00 -0.30773567752E+02  0.30773567752E+02  0.00000000000E+00 0.  1.
          2    1    1    2  501    0 -0.23045536936E+02  0.75619591853E+02  0.21418388266E+03  0.22830715065E+03  0.00000000000E+00 0.  1.
          1    1    1    2  502    0  0.94088876963E+02 -0.67822182900E-01  0.98779767659E+03  0.99226859834E+03  0.00000000000E+00 0.  1.
         22    1    1    2    0    0 -0.49298881080E+02 -0.10345690276E+03  0.15305567773E+03  0.19120604303E+03  0.00000000000E+00 0.  1.
         22    1    1    2    0    0 -0.21744458947E+02  0.27905133090E+02  0.12789511546E+03  0.13269769593E+03  0.00000000000E+00 0.  1.
</event>
<event>
 6    1  0.1383644E-005  0.7290452E+02  0.7818608E-02  0.1420308E+00
          2   -1    0    0  502    0  0.00000000000E+00  0.00000000000E+00  0.19971275927E+03  0.19971275927E+03  0.00000000000E+00 0. -1.
          1   -1    0    0  501    0 -0.00000000000E+00 -0.00000000000E+00 -0.68177136716E+02  0.68177136716E+02  0.00000000000E+00 0.  1.
          2    1    1    2  501    0 -0.78773020510E+01  0.33741216866E+02  0.42650970329E+02  0.54951131682E+02  0.00000000000E+00 0. -1.
          1    1    1    2  502    0  0.24007156714E+02 -0.55797741721E+02  0.33045016078E+02  0.69149870877E+02  0.00000000000E+00 0.  1.
         22    1    1    2    0    0 -0.39324680336E+01  0.42188923741E+02  0.91629387776E+02  0.10095203958E+03  0.00000000000E+00 0. -1.
         22    1    1    2    0    0 -0.12197386630E+02 -0.20132398886E+02 -0.35789751630E+02  0.42836853844E+02  0.00000000000E+00 0. -1.
</event>
<event>
 6    1  0.1383644E-005  0.2405480E+03  0.7818608E-02  0.1227619E+00
          2   -1    0    0  502    0  0.00000000000E+00  0.00000000000E+00  0.42447928366E+03  0.42447928366E+03  0.00000000000E+00 0.  1.
          1   -1    0    0  501    0 -0.00000000000E+00 -0.00000000000E+00 -0.19967453901E+03  0.19967453901E+03  0.00000000000E+00 0.  1.
          2    1    1    2  501    0  0.84856010781E+02  0.12840083980E+03  0.30796738067E+03  0.34428364148E+03  0.00000000000E+00 0.  1.
          1    1    1    2  502    0 -0.10507335555E+02 -0.10801480391E+03  0.40849669469E+01  0.10860151435E+03  0.00000000000E+00 0.  1.
         22    1    1    2    0    0 -0.60525654589E+02 -0.53151379712E+01  0.18538626396E+02  0.63523902774E+02  0.00000000000E+00 0. -1.
         22    1    1    2    0    0 -0.13823020638E+02 -0.15070897926E+02 -0.10578622937E+03  0.10774476408E+03  0.00000000000E+00 0.  1.
</event>
<event>
 6    1  0.1383644E-005  0.1041660E+03  0.7818608E-02  0.1298432E+00
          2   -1    0    0  502    0  0.00000000000E+00  0.00000000000E+00  0.43836328236E+03  0.43836328236E+03  0.00000000000E+00 0. -1.
          1   -1    0    0  501    0 -0.00000000000E+00 -0.00000000000E+00 -0.22306954989E+03  0.22306954989E+03  0.00000000000E+00 0. -1.
          2    1    1    2  501    0  0.39012070400E+02  0.10108644769E+03 -0.45345396792E+02  0.11745899946E+03  0.00000000000E+00 0. -1.
          1    1    1    2  502    0 -0.16306477618E+03 -0.10596664359E+03 -0.37360486055E+02  0.19802741402E+03  0.00000000000E+00 0. -1.
         22    1    1    2    0    0  0.46855082489E+02  0.71181325529E+01  0.10885523405E+02  0.48626753808E+02  0.00000000000E+00 0.  1.
         22    1    1    2    0    0  0.77197623293E+02 -0.22379366544E+01  0.28711409191E+03  0.29731966497E+03  0.00000000000E+00 0. -1.
</event>
<event>
 6    1  0.1383644E-005  0.1343309E+03  0.7818608E-02  0.1224647E+00
          2   -1    0    0  502    0  0.00000000000E+00  0.00000000000E+00  0.21406911979E+03  0.21406911979E+03  0.00000000000E+00 0. -1.
          1   -1    0    0  501    0 -0.00000000000E+00 -0.00000000000E+00 -0.20746053840E+03  0.20746053840E+03  0.00000000000E+00 0.  1.
          2    1    1    2  501    0  0.83547091724E+02 -0.29156117329E+02  0.11371179398E+03  0.14408527962E+03  0.00000000000E+00 0. -1.
          1    1    1    2  502    0 -0.92676924656E+02 -0.36202773438E+01 -0.11109908778E+03  0.14472431060E+03  0.00000000000E+00 0.  1.
         22    1    1    2    0    0 -0.30040365112E+02  0.90115971660E+01 -0.51781236621E+02  0.60538656126E+02  0.00000000000E+00 0. -1.
         22    1    1    2    0    0  0.39170198043E+02  0.23764797507E+02  0.55777111803E+02  0.72181411848E+02  0.00000000000E+00 0. -1.
</event>
<event>
 6    1  0.1383644E-005  0.1177960E+03  0.7818608E-02  0.1276102E+00
          2   -1    0    0  502    0  0.00000000000E+00  0.00000000000E+00  0.16444935947E+03  0.16444935947E+03  0.00000000000E+00 0. -1.
          1   -1    0    0  501    0 -0.00000000000E+00 -0.00000000000E+00 -0.40191092494E+03  0.40191092494E+03  0.00000000000E+00 0.  1.
          2    1    1    2  501    0  0.18986054532E+02  0.65498501430E+01  0.26919466064E+00  0.20085897275E+02  0.00000000000E+00 0. -1.
          1    1    1    2  502    0 -0.11596569108E+03 -0.38308795790E+02 -0.33797177245E+03  0.35936127270E+03  0.00000000000E+00 0.  1.
         22    1    1    2    0    0  0.26492188208E+02  0.36361304799E+02 -0.18585384528E+02  0.48676452632E+02  0.00000000000E+00 0. -1.
         22    1    1    2    0    0  0.70487448336E+02 -0.46023591521E+01  0.11882639684E+03  0.13823666181E+03  0.00000000000E+00 0. -1.
</event>
<event>
 6    1  0.1383644E-005  0.7282978E+02  0.7818608E-02  0.1445207E+00
          2   -1    0    0  502    0  0.00000000000E+00  0.00000000000E+00  0.22644874044E+03  0.22644874044E+03  0.00000000000E+00 0.  1.
          1   -1    0    0  501    0 -0.00000000000E+00 -0.00000000000E+00 -0.16399602233E+03  0.16399602233E+03  0.00000000000E+00 0.  1.
          2    1    1    2  501    0 -0.46733730534E+02 -0.15175469276E+02  0.15463046180E+03  0.16224954901E+03  0.00000000000E+00 0.  1.
          1    1    1    2  502    0  0.66294527867E+02 -0.23538048660E+01 -0.69468074554E+02  0.96053725616E+02  0.00000000000E+00 0.  1.
         22    1    1    2    0    0  0.36412607960E+01  0.15797174439E+02 -0.74034831374E+02  0.75788955376E+02  0.00000000000E+00 0.  1.
         22    1    1    2    0    0 -0.23202058129E+02  0.17320997034E+01  0.51325162235E+02  0.56352532768E+02  0.00000000000E+00 0. -1.
</event>
<event>
 6    1  0.1383644E-005  0.5190606E+02  0.7818608E-02  0.1496123E+00
          2   -1    0    0  502    0  0.00000000000E+00  0.00000000000E+00  0.87742303916E+02  0.87742303916E+02  0.00000000000E+00 0. -1.
          1   -1    0    0  501    0 -0.00000000000E+00 -0.00000000000E+00 -0.42281727007E+03  0.42281727007E+03  0.00000000000E+00 0. -1.
          2    1    1    2  501    0  0.15121494900E+02  0.18059405498E+02  0.44790826838E+02  0.50606520368E+02  0.00000000000E+00 0. -1.
          1    1    1    2  502    0 -0.39774288209E+02 -0.29219021872E+02 -0.30976722455E+03  0.31367415999E+03  0.00000000000E+00 0. -1.
         22    1    1    2    0    0  0.15754165518E+02 -0.14781909688E+02 -0.10196928761E+03  0.10423259663E+03  0.00000000000E+00 0. -1.
         22    1    1    2    0    0  0.88986277917E+01  0.25941526062E+02  0.31870719164E+02  0.42046296996E+02  0.00000000000E+00 0. -1.
</event>
<event>
 6    1  0.1383644E-005  0.8710909E+02  0.7818608E-02  0.1319306E+00
          2   -1    0    0  502    0  0.00000000000E+00  0.00000000000E+00  0.94454750893E+02  0.94454750893E+02  0.00000000000E+00 0. -1.
          1   -1    0    0  501    0 -0.00000000000E+00 -0.00000000000E+00 -0.40749246294E+03  0.40749246294E+03  0.00000000000E+00 0. -1.
          2    1    1    2  501    0  0.17367913466E+02 -0.89385866890E+02 -0.14591820355E+03  0.17199883646E+03  0.00000000000E+00 0. -1.
          1    1    1    2  502    0 -0.10270043582E+03  0.24533959745E+02 -0.20287173580E+02  0.10752145883E+03  0.00000000000E+00 0. -1.
         22    1    1    2    0    0  0.66855109483E+02 -0.11044298439E+02 -0.12356006515E+03  0.14092080006E+03  0.00000000000E+00 0. -1.
         22    1    1    2    0    0  0.18477412870E+02  0.75896205584E+02 -0.23272269778E+02  0.81506118476E+02  0.00000000000E+00 0.  1.
</event>
<event>
 6    1  0.1383644E-005  0.4133942E+02  0.7818608E-02  0.1560372E+00
          2   -1    0    0  502    0  0.00000000000E+00  0.00000000000E+00  0.47025600688E+03  0.47025600688E+03  0.00000000000E+00 0.  1.
          1   -1    0    0  501    0 -0.00000000000E+00 -0.00000000000E+00 -0.66312908018E+02  0.66312908018E+02  0.00000000000E+00 0. -1.
          2    1    1    2  501    0  0.14972777356E+02 -0.43565646110E+02  0.33664324575E+03  0.33978055343E+03  0.00000000000E+00 0.  1.
          1    1    1    2  502    0  0.41279397588E+01  0.57150581192E+02  0.18782209522E+02  0.60299255483E+02  0.00000000000E+00 0. -1.
         22    1    1    2    0    0 -0.56059120828E+01  0.10621946010E+02 -0.41029517893E+02  0.42751296189E+02  0.00000000000E+00 0. -1.
         22    1    1    2    0    0 -0.13494805032E+02 -0.24206881092E+02  0.89547161477E+02  0.93737809787E+02  0.00000000000E+00 0. -1.
</event>
<event>
 6    1  0.1383644E-005  0.1096602E+03  0.7818608E-02  0.1305955E+00
          2   -1    0    0  502    0  0.00000000000E+00  0.00000000000E+00  0.67520215401E+03  0.67520215401E+03  0.00000000000E+00 0.  1.
          1   -1    0    0  501    0 -0.00000000000E+00 -0.00000000000E+00 -0.54944389866E+02  0.54944389866E+02  0.00000000000E+00 0.  1.
          2    1    1    2  501    0 -0.61054519093E+01 -0.84460065291E+02  0.28895857976E+03  0.30111100941E+03  0.00000000000E+00 0.  1.
          1    1    1    2  502    0  0.69851535711E+02  0.77160820356E+02  0.22989119632E+03  0.25235489174E+03  0.00000000000E+00 0.  1.
         22    1    1    2    0    0 -0.42195180140E+02  0.20714059306E+02 -0.21133360139E+02  0.51537601717E+02  0.00000000000E+00 0.  1.
         22    1    1    2    0    0 -0.21550903662E+02 -0.13414814371E+02  0.12254134821E+03  0.12514304101E+03  0.00000000000E+00 0. -1.
</event>
<event>
 6    1  0.1383644E-005  0.1105046E+03  0.7818608E-02  0.1306950E+00
          2   -1    0    0  502    0  0.00000000000E+00  0.00000000000E+00  0.61295588678E+02  0.61295588678E+02  0.00000000000E+00 0.  1.
          1   -1    0    0  501    0 -0.00000000000E+00 -0.00000000000E+00 -0.48162123322E+03  0.48162123322E+03  0.00000000000E+00 0. -1.
          2    1    1    2  501    0  0.62841971344E+02 -0.77549091180E+02 -0.33799798798E+02  0.10538216787E+03  0.00000000000E+00 0.  1.
          1    1    1    2  502    0 -0.32673873253E+02  0.73485987024E+02 -0.15985269075E+03  0.17894316143E+03  0.00000000000E+00 0. -1.
         22    1    1    2    0    0  0.12620643564E+02 -0.10219433257E+02  0.90500454584E+01  0.18590879023E+02  0.00000000000E+00 0.  1.
         22    1    1    2    0    0 -0.42788741654E+02  0.14282537413E+02 -0.23572320046E+03  0.24000061359E+03  0.00000000000E+00 0. -1.
</event>
<event>
 6    1  0.1383644E-005  0.3818574E+02  0.7818608E-02  0.1562584E+00
          2   -1    0    0  502    0  0.00000000000E+00  0.00000000000E+00  0.18123190607E+03  0.18123190607E+03  0.00000000000E+00 0. -1.
          1   -1    0    0  501    0 -0.00000000000E+00 -0.00000000000E+00 -0.11486369628E+03  0.11486369628E+03  0.00000000000E+00 0. -1.
          2    1    1    2  501    0  0.34867652346E+02  0.96284269982E+01  0.11072394221E+03  0.11648283635E+03  0.00000000000E+00 0. -1.
          1    1    1    2  502    0  0.20492231906E+02  0.21490395626E+02 -0.16276235703E+02  0.33862730565E+02  0.00000000000E+00 0. -1.
         22    1    1    2    0    0 -0.20097686908E+02  0.10225114857E+02 -0.72272701188E+02  0.75708740115E+02  0.00000000000E+00 0. -1.
         22    1    1    2    0    0 -0.35262197344E+02 -0.41343937481E+02  0.44193204471E+02  0.70041295315E+02  0.00000000000E+00 0. -1.
</event>
<event>
 6    1  0.1383644E-005  0.8300315E+02  0.7818608E-02  0.1371666E+00
          2   -1    0    0  502    0  0.00000000000E+00  0.00000000000E+00  0.46913794646E+03  0.46913794646E+03  0.00000000000E+00 0. -1.
          1   -1    0    0  501    0 -0.00000000000E+00 -0.00000000000E+00 -0.36855794844E+03  0.36855794844E+03  0.00000000000E+00 0. -1.
          2    1    1    2  501    0 -0.20509134961E+03  0.20039324044E+03  0.26000797560E+03  0.38707113025E+03  0.00000000000E+00 0. -1.
          1    1    1    2  502    0  0.19108330065E+03 -0.19994133146E+03 -0.45494342738E+02  0.28028396143E+03  0.00000000000E+00 0. -1.
         22    1    1    2    0    0  0.24009960589E+02 -0.93196325953E+00 -0.14019289792E+03  0.14223710975E+03  0.00000000000E+00 0. -1.
         22    1    1    2    0    0 -0.10001911630E+02  0.48005427990E+00  0.26259263076E+02  0.28103693452E+02  0.00000000000E+00 0.  1.
</event>
<event>
 6    1  0.1383644E-005  0.1306296E+03  0.7818608E-02  0.1226758E+00
          2   -1    0    0  502    0  0.00000000000E+00  0.00000000000E+00  0.58915081457E+03  0.58915081457E+03  0.00000000000E+00 0. -1.
          1   -1    0    0  501    0 -0.00000000000E+00 -0.00000000000E+00 -0.52143059171E+03  0.52143059171E+03  0.00000000000E+00 0. -1.
          2    1    1    2  501    0 -0.10105908759E+03 -0.21124143867E+02  0.50330459082E+03  0.51378466285E+03  0.00000000000E+00 0. -1.
          1    1    1    2  502    0  0.11757635830E+03  0.13870720351E+02 -0.45349279444E+03  0.46869212872E+03  0.00000000000E+00 0. -1.
         22    1    1    2    0    0 -0.24150619153E+02 -0.22214463815E+01  0.70275474542E+02  0.74342649614E+02  0.00000000000E+00 0. -1.
         22    1    1    2    0    0  0.76333484492E+01  0.94748698979E+01 -0.52367048068E+02  0.53761965101E+02  0.00000000000E+00 0.  1.
</event>
<event>
 6    1  0.1383644E-005  0.5859187E+02  0.7818608E-02  0.1476265E+00
          2   -1    0    0  502    0  0.00000000000E+00  0.00000000000E+00  0.37472348634E+03  0.37472348634E+03  0.00000000000E+00 0.  1.
          1   -1    0    0  501    0 -0.00000000000E+00 -0.00000000000E+00 -0.10780077088E+03  0.10780077088E+03  0.00000000000E+00 0.  1.
          2    1    1    2  501    0 -0.29022690846E+02 -0.15817483411E+02  0.22708059341E+03  0.22947353936E+03  0.00000000000E+00 0.  1.
          1    1    1    2  502    0  0.41402146151E+02  0.16651683414E+02 -0.70752810441E+02  0.83650322484E+02  0.00000000000E+00 0.  1.
         22    1    1    2    0    0  0.28212925685E+01  0.19634566318E+02 -0.24725547972E+02  0.31699031670E+02  0.00000000000E+00 0.  1.
         22    1    1    2    0    0 -0.15200747874E+02 -0.20468766321E+02  0.13532048047E+03  0.13770136370E+03  0.00000000000E+00 0. -1.
</event>
<event>
 6    1  0.1383644E-005  0.2807615E+02  0.7818608E-02  0.1653197E+00
          2   -1    0    0  502    0  0.00000000000E+00  0.00000000000E+00  0.88532484573E+02  0.88532484573E+02  0.00000000000E+00 0.  1.
          1   -1    0    0  501    0 -0.00000000000E+00 -0.00000000000E+00 -0.15904019440E+03  0.15904019440E+03  0.00000000000E+00 0.  1.
          2    1    1    2  501    0 -0.19146798343E+02 -0.23406073107E+02  0.28110326028E+02  0.41287220474E+02  0.00000000000E+00 0.  1.
          1    1    1    2  502    0  0.83500149679E+00  0.26881137220E+02 -0.65659459004E+02  0.70953909846E+02  0.00000000000E+00 0.  1.
         22    1    1    2    0    0  0.18101357485E+02  0.10826521326E+02 -0.81780995564E+02  0.84457113035E+02  0.00000000000E+00 0.  1.
         22    1    1    2    0    0  0.21043936193E+00 -0.14301585439E+02  0.48822418711E+02  0.50874435620E+02  0.00000000000E+00 0.  1.
</event>
<event>
 6    1  0.1383644E-005  0.3053424E+03  0.7818608E-02  0.1221530E+00
          2   -1    0    0  502    0  0.00000000000E+00  0.00000000000E+00  0.17488039670E+04  0.17488039670E+04  0.00000000000E+00 0. -1.
          1   -1    0    0  501    0 -0.00000000000E+00 -0.00000000000E+00 -0.17862167740E+03  0.17862167740E+03  0.00000000000E+00 0.  1.
          2    1    1    2  501    0  0.18798530279E+03  0.21715595782E+03  0.14545221222E+04  0.14826091151E+04  0.00000000000E+00 0. -1.
          1    1    1    2  502    0 -0.19433126214E+03 -0.23088034728E+03  0.96235707031E+02  0.31675177271E+03  0.00000000000E+00 0.  1.
         22    1    1    2    0    0 -0.97612783414E+01  0.57935470105E+01 -0.52613063456E+02  0.53823621097E+02  0.00000000000E+00 0.  1.
         22    1    1    2    0    0  0.16107237697E+02  0.79308424543E+01  0.72037523831E+02  0.74241135551E+02  0.00000000000E+00 0.  1.
</event>
<event>
 6    1  0.1383644E-005  0.4487621E+02  0.7818608E-02  0.1530682E+00
          2   -1    0    0  502    0  0.00000000000E+00  0.00000000000E+00  0.24887085309E+03  0.24887085309E+03  0.00000000000E+00 0. -1.
          1   -1    0    0  501    0 -0.00000000000E+00 -0.00000000000E+00 -0.30454503414E+03  0.30454503414E+03  0.00000000000E+00 0.  1.
          2    1    1    2  501    0  0.43053647605E+02  0.26900339687E+02 -0.11409999024E+02  0.52032998425E+02  0.00000000000E+00 0. -1.
          1    1    1    2  502    0 -0.18964980029E+01  0.23767525024E+02 -0.24961581057E+03  0.25075195879E+03  0.00000000000E+00 0.  1.
         22    1    1    2    0    0 -0.15733337856E+02 -0.13862356328E+02 -0.15001795662E+02  0.25782876414E+02  0.00000000000E+00 0. -1.
         22    1    1    2    0    0 -0.25423811745E+02 -0.36805508383E+02  0.22035342420E+03  0.22484805360E+03  0.00000000000E+00 0. -1.
</event>
<event>
 6    1  0.1383644E-005  0.2253523E+02  0.7818608E-02  0.1729911E+00
          2   -1    0    0  502    0  0.00000000000E+00  0.00000000000E+00  0.31862696900E+03  0.31862696900E+03  0.00000000000E+00 0.  1.
          1   -1    0    0  501    0 -0.00000000000E+00 -0.00000000000E+00 -0.45154836766E+02  0.45154836766E+02  0.00000000000E+00 0.  1.
          2    1    1    2  501    0  0.10950833847E+02 -0.22161264047E+02  0.19313712845E+03  0.19471259017E+03  0.00000000000E+00 0.  1.
          1    1    1    2  502    0 -0.21530780463E+02  0.24809562294E+01  0.97290263170E+01  0.23756759128E+02  0.00000000000E+00 0.  1.
         22    1    1    2    0    0 -0.61752354014E+01  0.11888603674E+02 -0.35325996270E+02  0.37780926961E+02  0.00000000000E+00 0.  1.
         22    1    1    2    0    0  0.16755182018E+02  0.77917041440E+01  0.10593197373E+03  0.10753152950E+03  0.00000000000E+00 0.  1.
</event>
<event>
 6    1  0.1383644E-005  0.6051267E+02  0.7818608E-02  0.1504902E+00
          2   -1    0    0  502    0  0.00000000000E+00  0.00000000000E+00  0.20198463357E+03  0.20198463357E+03  0.00000000000E+00 0.  1.
          1   -1    0    0  501    0 -0.00000000000E+00 -0.00000000000E+00 -0.11929977442E+03  0.11929977442E+03  0.00000000000E+00 0. -1.
          2    1    1    2  501    0  0.99954871196E+01  0.24059028311E+02  0.11086993973E+03  0.11388981579E+03  0.00000000000E+00 0.  1.
          1    1    1    2  502    0  0.28304652447E+02 -0.33399805780E+02 -0.60582604814E+02  0.74745918834E+02  0.00000000000E+00 0. -1.
         22    1    1    2    0    0 -0.28219243667E+02  0.16007398845E+02  0.78525532638E+02  0.84963649916E+02  0.00000000000E+00 0.  1.
         22    1    1    2    0    0 -0.10080895900E+02 -0.66666213768E+01 -0.46128008395E+02  0.47685023448E+02  0.00000000000E+00 0. -1.
</event>
<event>
 6    1  0.1383644E-005  0.4756366E+02  0.7818608E-02  0.1548292E+00
          2   -1    0    0  502    0  0.00000000000E+00  0.00000000000E+00  0.32875560905E+03  0.32875560905E+03  0.00000000000E+00 0. -1.
          1   -1    0    0  501    0 -0.00000000000E+00 -0.00000000000E+00 -0.29323264369E+03  0.29323264369E+03  0.00000000000E+00 0. -1.
          2    1    1    2  501    0 -0.11325895734E+02  0.45039275809E+02  0.20923716755E+03  0.21432919672E+03  0.00000000000E+00 0. -1.
          1    1    1    2  502    0 -0.25007777626E+02 -0.59636946632E+02 -0.25055218053E+03  0.25876311467E+03  0.00000000000E+00 0. -1.
         22    1    1    2    0    0  0.85804645456E+01 -0.52396875796E+01 -0.32678064722E+02  0.34189685750E+02  0.00000000000E+00 0.  1.
         22    1    1    2    0    0  0.27753208814E+02  0.19837358403E+02  0.10951604306E+03  0.11470625560E+03  0.00000000000E+00 0. -1.
</event>
<event>
 6    1  0.1383644E-005  0.1451957E+03  0.7818608E-02  0.1298787E+00
          2   -1    0    0  502    0  0.00000000000E+00  0.00000000000E+00  0.64256587684E+02  0.64256587684E+02  0.00000000000E+00 0. -1.
          1   -1    0    0  501    0 -0.00000000000E+00 -0.00000000000E+00 -0.50444466192E+03  0.50444466192E+03  0.00000000000E+00 0. -1.
          2    1    1    2  501    0 -0.17474865232E+02 -0.55892010629E+02 -0.11898288953E+02  0.59756648560E+02  0.00000000000E+00 0. -1.
          1    1    1    2  502    0  0.52760736967E+02  0.11327457348E+03 -0.23952269249E+03  0.27015910975E+03  0.00000000000E+00 0. -1.
         22    1    1    2    0    0  0.14052096188E+02  0.18334378680E+02 -0.12756312940E+03  0.12963781405E+03  0.00000000000E+00 0. -1.
         22    1    1    2    0    0 -0.49337967922E+02 -0.75716941531E+02 -0.61203963388E+02  0.10914767724E+03  0.00000000000E+00 0. -1.
</event>
<event>
 6    1  0.1383644E-005  0.3390988E+02  0.7818608E-02  0.1615902E+00
          2   -1    0    0  502    0  0.00000000000E+00  0.00000000000E+00  0.58722233017E+03  0.58722233017E+03  0.00000000000E+00 0.  1.
          1   -1    0    0  501    0 -0.00000000000E+00 -0.00000000000E+00 -0.65246710738E+02  0.65246710738E+02  0.00000000000E+00 0. -1.
          2    1    1    2  501    0 -0.15596968316E+01  0.36566750358E+02  0.43627171890E+03  0.43780426288E+03  0.00000000000E+00 0.  1.
          1    1    1    2  502    0  0.18549305535E+02 -0.32949291130E+02 -0.23204464212E+02  0.44364171142E+02  0.00000000000E+00 0. -1.
         22    1    1    2    0    0  0.62137878824E+01 -0.10030688643E+02 -0.28475588139E+02  0.30823448774E+02  0.00000000000E+00 0. -1.
         22    1    1    2    0    0 -0.23203396585E+02  0.64132294148E+01  0.13738395288E+03  0.13947715811E+03  0.00000000000E+00 0. -1.
</event>
<event>
 6    1  0.1383644E-005  0.3069568E+02  0.7818608E-02  0.1624193E+00
          2   -1    0    0  502    0  0.00000000000E+00  0.00000000000E+00  0.66332761772E+03  0.66332761772E+03  0.00000000000E+00 0.  1.
          1   -1    0    0  501    0 -0.00000000000E+00 -0.00000000000E+00 -0.24265454782E+03  0.24265454782E+03  0.00000000000E+00 0. -1.
          2    1    1    2  501    0  0.49223894829E+02 -0.99623709496E+01  0.56645954890E+03  0.56868151121E+03  0.00000000000E+00 0.  1.
          1    1    1    2  502    0 -0.44928266805E+02  0.38644896066E+02 -0.18946382319E+03  0.19851578640E+03  0.00000000000E+00 0. -1.
         22    1    1    2    0    0  0.63004910260E+01 -0.11793911514E+02 -0.45490650480E+02  0.47415101150E+02  0.00000000000E+00 0.  1.
         22    1    1    2    0    0 -0.10596119050E+02 -0.16888613601E+02  0.89167994665E+02  0.91369766777E+02  0.00000000000E+00 0. -1.
</event>
<event>
 6    1  0.1383644E-005  0.5302777E+02  0.7818608E-02  0.1518924E+00
          2   -1    0    0  502    0  0.00000000000E+00  0.00000000000E+00  0.10418378041E+04  0.10418378041E+04  0.00000000000E+00 0. -1.
          1   -1    0    0  501    0 -0.00000000000E+00 -0.00000000000E+00 -0.21435389402E+02  0.21435389402E+02  0.00000000000E+00 0. -1.
          2    1    1    2  501    0  0.49544234803E+02 -0.24298190838E+02  0.72073731700E+03  0.72284667350E+03  0.00000000000E+00 0. -1.
          1    1    1    2  502    0 -0.30191309775E+01  0.30932902229E+02  0.56164214604E+02  0.64190175216E+02  0.00000000000E+00 0. -1.
         22    1    1    2    0    0 -0.48991097437E+02  0.80175248785E+01  0.25350764473E+03  0.25832253922E+03  0.00000000000E+00 0. -1.
         22    1    1    2    0    0  0.24659936115E+01 -0.14652236270E+02 -0.10006761618E+02  0.17913805578E+02  0.00000000000E+00 0. -1.
</event>
<event>
 6    1  0.1383644E-005  0.1485504E+03  0.7818608E-02  0.1302900E+00
          2   -1    0    0  502    0  0.00000000000E+00  0.00000000000E+00  0.43558357200E+03  0.43558357200E+03  0.00000000000E+00 0. -1.
          1   -1    0    0  501    0 -0.00000000000E+00 -0.00000000000E+00 -0.81245505732E+02  0.81245505732E+02  0.00000000000E+00 0. -1.
          2    1    1    2  501    0 -0.45635185854E+02  0.64423902773E+02  0.10387315616E+03  0.13047084735E+03  0.00000000000E+00 0. -1.
          1    1    1    2  502    0  0.49745928134E+02 -0.13844508771E+03  0.14838470375E+03  0.20894908467E+03  0.00000000000E+00 0. -1.
         22    1    1    2    0    0 -0.21160613854E+02  0.63572404556E+02  0.12811705312E+03  0.14457939515E+03  0.00000000000E+00 0. -1.
         22    1    1    2    0    0  0.17049871574E+02  0.10448780379E+02 -0.26036846776E+02  0.32829750565E+02  0.00000000000E+00 0. -1.
</event>
<event>
 6    1  0.1383644E-005  0.2100617E+03  0.7818608E-02  0.1200353E+00
          2   -1    0    0  502    0  0.00000000000E+00  0.00000000000E+00  0.15649250499E+04  0.15649250499E+04  0.00000000000E+00 0. -1.
          1   -1    0    0  501    0 -0.00000000000E+00 -0.00000000000E+00 -0.12043083185E+03  0.12043083185E+03  0.00000000000E+00 0. -1.
          2    1    1    2  501    0  0.66314638387E+02 -0.20165986123E+03  0.17906677565E+03  0.27772151706E+03  0.00000000000E+00 0. -1.
          1    1    1    2  502    0 -0.27619417428E+02  0.19178698784E+03  0.12620496267E+04  0.12768376330E+04  0.00000000000E+00 0. -1.
         22    1    1    2    0    0 -0.23685502559E+02  0.49371341632E+02 -0.41836498167E+02  0.68911718778E+02  0.00000000000E+00 0. -1.
         22    1    1    2    0    0 -0.15009718400E+02 -0.39498468245E+02  0.45214313894E+02  0.61885012895E+02  0.00000000000E+00 0. -1.
</event>
<event>
 6    1  0.1383644E-005  0.5190850E+02  0.7818608E-02  0.1462095E+00
          2   -1    0    0  502    0  0.00000000000E+00  0.00000000000E+00  0.32891836566E+03  0.32891836566E+03  0.00000000000E+00 0.  1.
          1   -1    0    0  501    0 -0.00000000000E+00 -0.00000000000E+00 -0.52853693248E+02  0.52853693248E+02  0.00000000000E+00 0.  1.
          2    1    1    2  501    0 -0.36093563578E+02  0.30983629006E+02  0.75523567964E+02  0.89255475553E+02  0.00000000000E+00 0.  1.
          1    1    1    2  502    0  0.63193691986E+02  0.16560672255E+02  0.28039588058E+02  0.71090907090E+02  0.00000000000E+00 0.  1.
         22    1    1    2    0    0  0.15669789295E+02 -0.31246805954E+02  0.17214117703E+03  0.17565446197E+03  0.00000000000E+00 0.  1.
         22    1    1    2    0    0 -0.42769917703E+02 -0.16297495306E+02  0.36033935420E+00  0.45771214295E+02  0.00000000000E+00 0.  1.
</event>
<event>
 6    1  0.1383644E-005  0.6858242E+02  0.7818608E-02  0.1392961E+00
          2   -1    0    0  502    0  0.00000000000E+00  0.00000000000E+00  0.43395510891E+03  0.43395510891E+03  0.00000000000E+00 0.  1.
          1   -1    0    0  501    0 -0.00000000000E+00 -0.00000000000E+00 -0.11896556568E+03  0.11896556568E+03  0.00000000000E+00 0. -1.
          2    1    1    2  501    0  0.15105489275E+03  0.99121390851E+01  0.20192442224E+03  0.25236739770E+03  0.00000000000E+00 0.  1.
          1    1    1    2  502    0 -0.15092528795E+03 -0.22267833109E+02  0.41207849644E+02  0.15802653513E+03  0.00000000000E+00 0. -1.
         22    1    1    2    0    0  0.81448403652E+01  0.29590572340E+02  0.10217472483E+03  0.10668465115E+03  0.00000000000E+00 0.  1.
         22    1    1    2    0    0 -0.82744451669E+01 -0.17234878316E+02 -0.30317453488E+02  0.35842090612E+02  0.00000000000E+00 0.  1.
</event>
<event>
 6    1  0.1383644E-005  0.4897164E+02  0.7818608E-02  0.1539221E+00
          2   -1    0    0  502    0  0.00000000000E+00  0.00000000000E+00  0.16993012086E+03  0.16993012086E+03  0.00000000000E+00 0.  1.
          1   -1    0    0  501    0 -0.00000000000E+00 -0.00000000000E+00 -0.52822715621E+03  0.52822715621E+03  0.00000000000E+00 0.  1.
          2    1    1    2  501    0 -0.25878180434E+02  0.49960673684E+02  0.14233078182E+03  0.15304836030E+03  0.00000000000E+00 0.  1.
          1    1    1    2  502    0 -0.18509588215E+01 -0.40686865314E+02 -0.31075100388E+03  0.31340873228E+03  0.00000000000E+00 0.  1.
         22    1    1    2    0    0 -0.11608489933E+02 -0.18376265912E+01  0.17176152590E+02  0.20812355172E+02  0.00000000000E+00 0. -1.
         22    1    1    2    0    0  0.39337629188E+02 -0.74361817784E+01 -0.20705296588E+03  0.21088782931E+03  0.00000000000E+00 0.  1.
</event>
<event>
 6    1  0.1383644E-005  0.3807464E+02  0.7818608E-02  0.1610814E+00
          2   -1    0    0  502    0  0.00000000000E+00  0.00000000000E+00  0.23236809033E+03  0.23236809033E+03  0.00000000000E+00 0. -1.
          1   -1    0    0  501    0 -0.00000000000E+00 -0.00000000000E+00 -0.24377675939E+03  0.24377675939E+03  0.00000000000E+00 0. -1.
          2    1    1    2  501    0  0.42540771188E+02 -0.12301237247E+02  0.12714589860E+03  0.13463698297E+03  0.00000000000E+00 0. -1.
          1    1    1    2  502    0 -0.20054311186E+02 -0.23064002689E+02 -0.19561454645E+03  0.19798781376E+03  0.00000000000E+00 0. -1.
         22    1    1    2    0    0  0.34221827344E+01  0.12128974862E+02 -0.39192614323E+02  0.41168973552E+02  0.00000000000E+00 0.  1.
         22    1    1    2    0    0 -0.25908642736E+02  0.23236265073E+02  0.96252593107E+02  0.10235107944E+03  0.00000000000E+00 0. -1.
</event>
<event>
 6    1  0.1383644E-005  0.3840304E+02  0.7818608E-02  0.1565730E+00
          2   -1    0    0  502    0  0.00000000000E+00  0.00000000000E+00  0.67033816380E+02  0.67033816380E+02  0.00000000000E+00 0.  1.
          1   -1    0    0  501    0 -0.00000000000E+00 -0.00000000000E+00 -0.14977990332E+03  0.14977990332E+03  0.00000000000E+00 0. -1.
          2    1    1    2  501    0  0.20149035922E+02  0.22336902097E+01  0.21153127547E+02  0.29298938984E+02  0.00000000000E+00 0.  1.
          1    1    1    2  502    0 -0.22596748765E+02 -0.84504286856E+01 -0.49130839800E+01  0.24620341060E+02  0.00000000000E+00 0. -1.
         22    1    1    2    0    0 -0.19905938800E+02 -0.75973378347E+01 -0.12447522711E+03  0.12628558154E+03  0.00000000000E+00 0. -1.
         22    1    1    2    0    0  0.22353651642E+02  0.13814076311E+02  0.25489096608E+02  0.36608858108E+02  0.00000000000E+00 0.  1.
</event>
<event>
 6    1  0.1383644E-005  0.1171120E+03  0.7818608E-02  0.1363639E+00
          2   -1    0    0  502    0  0.00000000000E+00  0.00000000000E+00  0.22374279785E+03  0.22374279785E+03  0.00000000000E+00 0.  1.
          1   -1    0    0  501    0 -0.00000000000E+00 -0.00000000000E+00 -0.33921866068E+03  0.33921866068E+03  0.00000000000E+00 0.  1.
          2    1    1    2  501    0 -0.26364925887E+01 -0.55136081573E+02  0.11252405720E+03  0.12533396201E+03  0.00000000000E+00 0.  1.
          1    1    1    2  502    0  0.70090808966E+01  0.10753514743E+03 -0.27552868143E+03  0.29585298620E+03  0.00000000000E+00 0.  1.
         22    1    1    2    0    0 -0.17213237291E+02 -0.58189136287E+02  0.83455740257E+02  0.10318493932E+03  0.00000000000E+00 0.  1.
         22    1    1    2    0    0  0.12840648983E+02  0.57900704268E+01 -0.35926978845E+02  0.38589571011E+02  0.00000000000E+00 0.  1.
</event>
<event>
 6    1  0.1383644E-005  0.1081415E+03  0.7818608E-02  0.1383252E+00
          2   -1    0    0  502    0  0.00000000000E+00  0.00000000000E+00  0.10486755768E+03  0.10486755768E+03  0.00000000000E+00 0.  1.
          1   -1    0    0  501    0 -0.00000000000E+00 -0.00000000000E+00 -0.36016260804E+03  0.36016260804E+03  0.00000000000E+00 0.  1.
          2    1    1    2  501    0 -0.19971219565E+02  0.28856406895E+02  0.77377823461E+01  0.35936264489E+02  0.00000000000E+00 0.  1.
          1    1    1    2  502    0  0.42807997286E+02 -0.94830608884E+02 -0.26193720569E+03  0.28184476000E+03  0.00000000000E+00 0.  1.
         22    1    1    2    0    0 -0.34803576476E+02  0.61021966580E+02  0.55288472217E+02  0.89396781267E+02  0.00000000000E+00 0.  1.
         22    1    1    2    0    0  0.11966798755E+02  0.49522354093E+01 -0.56384099232E+02  0.57852359971E+02  0.00000000000E+00 0. -1.
</event>
<event>
 6    1  0.1383644E-005  0.7174348E+02  0.7818608E-02  0.1355538E+00
          2   -1    0    0  502    0  0.00000000000E+00  0.00000000000E+00  0.35791840586E+03  0.35791840586E+03  0.00000000000E+00 0.  1.
          1   -1    0    0  501    0 -0.00000000000E+00 -0.00000000000E+00 -0.10577775690E+03  0.10577775690E+03  0.00000000000E+00 0.  1.
          2    1    1    2  501    0  0.40137454197E+02  0.25994133653E+02  0.22981483222E+03  0.23473723037E+03  0.00000000000E+00 0.  1.
          1    1    1    2  502    0 -0.37933562268E+02 -0.25963033697E+02 -0.60246173484E+02  0.75780180024E+02  0.00000000000E+00 0.  1.
         22    1    1    2    0    0  0.18607743328E+01  0.23847285558E+02  0.11230745729E+03  0.11482647984E+03  0.00000000000E+00 0.  1.
         22    1    1    2    0    0 -0.40646662621E+01 -0.23878385513E+02 -0.29735467065E+02  0.38352272529E+02  0.00000000000E+00 0. -1.
</event>
<event>
 6    1  0.1383644E-005  0.2171942E+03  0.7818608E-02  0.1247392E+00
          2   -1    0    0  502    0  0.00000000000E+00  0.00000000000E+00  0.56610129891E+03  0.56610129891E+03  0.00000000000E+00 0. -1.
          1   -1    0    0  501    0 -0.00000000000E+00 -0.00000000000E+00 -0.10592468773E+03  0.10592468773E+03  0.00000000000E+00 0. -1.
          2    1    1    2  501    0 -0.20799933276E+02 -0.41894258388E+02  0.18503114645E+02  0.50300411149E+02  0.00000000000E+00 0. -1.
          1    1    1    2  502    0  0.17098957508E+03  0.10628543247E+03  0.33694760573E+03  0.39251460730E+03  0.00000000000E+00 0. -1.
         22    1    1    2    0    0 -0.16872735248E+03 -0.65339913336E+02  0.10747008029E+03  0.21044724257E+03  0.00000000000E+00 0. -1.
         22    1    1    2    0    0  0.18537710678E+02  0.94873925537E+00 -0.27441894837E+01  0.18763725624E+02  0.00000000000E+00 0.  1.
</event>
<event>
 6    1  0.1383644E-005  0.1005632E+03  0.7818608E-02  0.1366475E+00
          2   -1    0    0  502    0  0.00000000000E+00  0.00000000000E+00  0.16284275055E+03  0.16284275055E+03  0.00000000000E+00 0. -1.
          1   -1    0    0  501    0 -0.00000000000E+00 -0.00000000000E+00 -0.19023227053E+03  0.19023227053E+03  0.00000000000E+00 0. -1.
          2    1    1    2  501    0  0.60414853504E+02  0.94308955415E+01  0.49977074207E+02  0.78972173966E+02  0.00000000000E+00 0. -1.
          1    1    1    2  502    0 -0.94609390352E+02  0.15899946013E+02 -0.97614385416E+02  0.13686604132E+03  0.00000000000E+00 0. -1.
         22    1    1    2    0    0  0.24571237777E+01 -0.21076115318E+02 -0.53111547330E+02  0.57193326131E+02  0.00000000000E+00 0. -1.
         22    1    1    2    0    0  0.31737413071E+02 -0.42547262363E+01  0.73359338560E+02  0.80043479670E+02  0.00000000000E+00 0. -1.
</event>
<event>
 6    1  0.1383644E-005  0.1029441E+03  0.7818608E-02  0.1274469E+00
          2   -1    0    0  502    0  0.00000000000E+00  0.00000000000E+00  0.34068516863E+03  0.34068516863E+03  0.00000000000E+00 0.  1.
          1   -1    0    0  501    0 -0.00000000000E+00 -0.00000000000E+00 -0.47426915111E+02  0.47426915111E+02  0.00000000000E+00 0.  1.
          2    1    1    2  501    0 -0.28188895301E+02 -0.38455014000E+02  0.13297695155E+03  0.14126666826E+03  0.00000000000E+00 0.  1.
          1    1    1    2  502    0  0.89139314335E+01  0.44738653554E+02  0.86540151438E+01  0.46431640866E+02  0.00000000000E+00 0.  1.
         22    1    1    2    0    0 -0.10750538815E+02 -0.53852132541E+02  0.12822234628E+03  0.13948690386E+03  0.00000000000E+00 0. -1.
         22    1    1    2    0    0  0.30025502682E+02  0.47568492988E+02  0.23404940544E+02  0.60926870742E+02  0.00000000000E+00 0.  1.
</event>
<event>
 6    1  0.1383644E-005  0.3037555E+02  0.7818608E-02  0.1635048E+00
          2   -1    0    0  502    0  0.00000000000E+00  0.00000000000E+00  0.53371630134E+02  0.53371630134E+02  0.00000000000E+00 0. -1.
          1   -1    0    0  501    0 -0.00000000000E+00 -0.00000000000E+00 -0.54237877154E+03  0.54237877154E+03  0.00000000000E+00 0. -1.
          2    1    1    2  501    0 -0.20994232945E+02 -0.28575670228E+02 -0.61653357508E+02  0.71122874225E+02  0.00000000000E+00 0. -1.
          1    1    1    2  502    0  0.29271019508E+02  0.25400241956E+02 -0.39525817258E+03  0.39715360739E+03  0.00000000000E+00 0. -1.
         22    1    1    2    0    0 -0.20387697922E+02  0.10118959476E+02  0.44304397111E+02  0.49808946694E+02  0.00000000000E+00 0. -1.
         22    1    1    2    0    0  0.12110911359E+02 -0.69435312031E+01 -0.76400008427E+02  0.77664973361E+02  0.00000000000E+00 0.  1.
</event>
<event>
 6    1  0.1383644E-005  0.5811335E+02  0.7818608E-02  0.1425959E+00
          2   -1    0    0  502    0  0.00000000000E+00  0.00000000000E+00  0.15381766500E+03  0.15381766500E+03  0.00000000000E+00 0.  1.
          1   -1    0    0  501    0 -0.00000000000E+00 -0.00000000000E+00 -0.12532070908E+03  0.12532070908E+03  0.00000000000E+00 0.  1.
          2    1    1    2  501    0  0.11557641874E+01  0.31238088545E+02  0.48158286240E+02  0.57414061869E+02  0.00000000000E+00 0.  1.
          1    1    1    2  502    0  0.48727055653E+01 -0.85048595454E+02  0.12402781353E+02  0.86086211634E+02  0.00000000000E+00 0.  1.
         22    1    1    2    0    0  0.14364975435E+02  0.16382628203E+02  0.43630239147E+02  0.48768235504E+02  0.00000000000E+00 0. -1.
         22    1    1    2    0    0 -0.20393445188E+02  0.37427878706E+02 -0.75694350824E+02  0.86869865073E+02  0.00000000000E+00 0.  1.
</event>
<event>
 6    1  0.1383644E-005  0.5821181E+02  0.7818608E-02  0.1463001E+00
          2   -1    0    0  502    0  0.00000000000E+00  0.00000000000E+00  0.50457685273E+03  0.50457685273E+03  0.00000000000E+00 0. -1.
          1   -1    0    0  501    0 -0.00000000000E+00 -0.00000000000E+00 -0.49445595593E+02  0.49445595593E+02  0.00000000000E+00 0. -1.
          2    1    1    2  501    0 -0.55535635266E+02  0.55003762645E+01  0.18875242739E+03  0.19682972277E+03  0.00000000000E+00 0. -1.
          1    1    1    2  502    0  0.79099265180E+02  0.48580321435E+02  0.62431464921E+02  0.11186790959E+03  0.00000000000E+00 0. -1.
         22    1    1    2    0    0  0.14350222865E+01 -0.18604656510E+02 -0.13854683775E+02  0.23241015368E+02  0.00000000000E+00 0. -1.
         22    1    1    2    0    0 -0.24998652200E+02 -0.35476041189E+02  0.21780204861E+03  0.22208380060E+03  0.00000000000E+00 0. -1.
</event>
<event>
 6    1  0.1383644E-005  0.6072912E+02  0.7818608E-02  0.1440619E+00
          2   -1    0    0  502    0  0.00000000000E+00  0.00000000000E+00  0.33197425985E+03  0.33197425985E+03  0.00000000000E+00 0. -1.
          1   -1    0    0  501    0 -0.00000000000E+00 -0.00000000000E+00 -0.50667382682E+03  0.50667382682E+03  0.00000000000E+00 0.  1.
          2    1    1    2  501    0 -0.16478604958E+01 -0.84091870918E+02  0.19916824056E+03  0.21619932064E+03  0.00000000000E+00 0. -1.
          1    1    1    2  502    0  0.39293377192E+02  0.57017539446E+02 -0.46153715167E+03  0.46670280872E+03  0.00000000000E+00 0.  1.
         22    1    1    2    0    0 -0.41560382189E+02  0.66971193826E+01  0.11440428163E+03  0.12190347178E+03  0.00000000000E+00 0. -1.
         22    1    1    2    0    0  0.39148654930E+01  0.20377212089E+02 -0.26734937484E+02  0.33842485527E+02  0.00000000000E+00 0.  1.
</event>
<event>
 6    1  0.1383644E-005  0.2683607E+02  0.7818608E-02  0.1650494E+00
          2   -1    0    0  502    0  0.00000000000E+00  0.00000000000E+00  0.77319873776E+02  0.77319873776E+02  0.00000000000E+00 0. -1.
          1   -1    0    0  501    0 -0.00000000000E+00 -0.00000000000E+00 -0.16269352016E+03  0.16269352016E+03  0.00000000000E+00 0. -1.
          2    1    1    2  501    0  0.85236154647E+00 -0.31217541884E+02  0.22929165562E+02  0.38742845467E+02  0.00000000000E+00 0. -1.
          1    1    1    2  502    0  0.20017331605E+01  0.45379678946E+02 -0.18102415444E+02  0.48898053559E+02  0.00000000000E+00 0. -1.
         22    1    1    2    0    0  0.14475648753E+02 -0.14804648514E+02 -0.11789337505E+03  0.11969782749E+03  0.00000000000E+00 0. -1.
         22    1    1    2    0    0 -0.17329743460E+02  0.64251145237E+00  0.27692978556E+02  0.32674667415E+02  0.00000000000E+00 0. -1.
</event>
<event>
 6    1  0.1383644E-005  0.3168282E+03  0.7818608E-02  0.1215029E+00
          2   -1    0    0  502    0  0.00000000000E+00  0.00000000000E+00  0.65635053341E+03  0.65635053341E+03  0.00000000000E+00 0. -1.
          1   -1    0    0  501    0 -0.00000000000E+00 -0.00000000000E+00 -0.14744106963E+03  0.14744106963E+03  0.00000000000E+00 0. -1.
          2    1    1    2  501    0  0.42455733045E+02 -0.93096291485E+02  0.31402598179E+03  0.33027522764E+03  0.00000000000E+00 0. -1.
          1    1    1    2  502    0  0.94439964471E+02 -0.34911113974E+02 -0.71341901287E+02  0.12339918820E+03  0.00000000000E+00 0. -1.
         22    1    1    2    0    0 -0.14077918339E+03  0.13899288222E+03  0.27261119873E+03  0.33683032146E+03  0.00000000000E+00 0.  1.
         22    1    1    2    0    0  0.38834858743E+01 -0.10985476758E+02 -0.63858154554E+01  0.13286865739E+02  0.00000000000E+00 0.  1.
</event>
<event>
 6    1  0.1383644E-005  0.5554698E+02  0.7818608E-02  0.1489933E+00
          2   -1    0    0  502    0  0.00000000000E+00  0.00000000000E+00  0.82051946332E+02  0.82051946332E+02  0.00000000000E+00 0.  1.
          1   -1    0    0  501    0 -0.00000000000E+00 -0.00000000000E+00 -0.56486939869E+03  0.56486939869E+03  0.00000000000E+00 0.  1.
          2    1    1    2  501    0 -0.81369130501E+02  0.13368928200E+02  0.18440393972E+02  0.84496815145E+02  0.00000000000E+00 0.  1.
          1    1    1    2  502    0  0.71651021065E+02 -0.39602705130E+02 -0.35815048541E+03  0.36738809626E+03  0.00000000000E+00 0.  1.
         22    1    1    2    0    0  0.21447795566E+02  0.26593973354E+02 -0.16591002986E+03  0.16939121985E+03  0.00000000000E+00 0.  1.
         22    1    1    2    0    0 -0.11729686130E+02 -0.36019642383E+00  0.22802668943E+02  0.25645213766E+02  0.00000000000E+00 0. -1.
</event>
<event>
 6    1  0.1383644E-005  0.9365600E+02  0.7818608E-02  0.1385680E+00
          2   -1    0    0  502    0  0.00000000000E+00  0.00000000000E+00  0.21581789747E+03  0.21581789747E+03  0.00000000000E+00 0. -1.
          1   -1    0    0  501    0 -0.00000000000E+00 -0.00000000000E+00 -0.33545515245E+03  0.33545515245E+03  0.00000000000E+00 0. -1.
          2    1    1    2  501    0 -0.26820184108E+02  0.13204124995E+02  0.15090481745E+03  0.15383736582E+03  0.00000000000E+00 0. -1.
          1    1    1    2  502    0  0.32894195327E+02 -0.11789954622E+03 -0.83967113549E+02  0.14843452173E+03  0.00000000000E+00 0. -1.
         22    1    1    2    0    0 -0.67183557791E+01  0.17952585445E+02  0.18310713237E+02  0.26508750400E+02  0.00000000000E+00 0.  1.
         22    1    1    2    0    0  0.64434456052E+00  0.86742835779E+02 -0.20488567212E+03  0.22249241196E+03  0.00000000000E+00 0. -1.
</event>
<event>
 6    1  0.1383644E-005  0.6920667E+02  0.7818608E-02  0.1462662E+00
          2   -1    0    0  502    0  0.00000000000E+00  0.00000000000E+00  0.20063896410E+03  0.20063896410E+03  0.00000000000E+00 0. -1.
          1   -1    0    0  501    0 -0.00000000000E+00 -0.00000000000E+00 -0.12377082380E+03  0.12377082380E+03  0.00000000000E+00 0. -1.
          2    1    1    2  501    0 -0.26244601080E+02  0.51750469601E+02  0.12148756438E+03  0.13463327408E+03  0.00000000000E+00 0. -1.
          1    1    1    2  502    0  0.19782445127E+02 -0.59293875140E+02 -0.41480167968E+01  0.62644351761E+02  0.00000000000E+00 0. -1.
         22    1    1    2    0    0  0.14618529314E+02  0.55925790518E+00 -0.82482848491E+02  0.83770128709E+02  0.00000000000E+00 0. -1.
         22    1    1    2    0    0 -0.81563733602E+01  0.69841476330E+01  0.42011441206E+02  0.43362033356E+02  0.00000000000E+00 0. -1.
</event>
<event>
 6    1  0.1383644E-005  0.1020508E+03  0.7818608E-02  0.1392500E+00
          2   -1    0    0  502    0  0.00000000000E+00  0.00000000000E+00  0.11302888465E+04  0.11302888465E+04  0.00000000000E+00 0.  1.
          1   -1    0    0  501    0 -0.00000000000E+00 -0.00000000000E+00 -0.30654368980E+02  0.30654368980E+02  0.00000000000E+00 0.  1.
          2    1    1    2  501    0  0.16967269372E+02 -0.31654323498E+02  0.75464410745E+03  0.75549825501E+03  0.00000000000E+00 0.  1.
          1    1    1    2  502    0  0.33676191386E+01  0.50592244805E+02  0.22455804072E+03  0.23021127198E+03  0.00000000000E+00 0.  1.
         22    1    1    2    0    0 -0.33593985845E+02 -0.18257567925E+02  0.14356099724E+03  0.14856532099E+03  0.00000000000E+00 0.  1.
         22    1    1    2    0    0  0.13259097335E+02 -0.68035338220E+00 -0.23128667928E+02  0.26668367460E+02  0.00000000000E+00 0.  1.
</event>
<event>
 6    1  0.1383644E-005  0.6478896E+02  0.7818608E-02  0.1476469E+00
          2   -1    0    0  502    0  0.00000000000E+00  0.00000000000E+00  0.61296773422E+02  0.61296773422E+02  0.00000000000E+00 0.  1.
          1   -1    0    0  501    0 -0.00000000000E+00 -0.00000000000E+00 -0.18034569313E+03  0.18034569313E+03  0.00000000000E+00 0. -1.
          2    1    1    2  501    0 -0.40468988589E-01 -0.21530369834E+02 -0.41366011884E+01  0.21924186013E+02  0.00000000000E+00 0.  1.
          1    1    1    2  502    0 -0.35678886740E+02  0.25867577438E+02 -0.75645125716E+02  0.87545985437E+02  0.00000000000E+00 0. -1.
         22    1    1    2    0    0  0.51577048996E+01 -0.13689464766E+02 -0.79474580221E+02  0.80809728787E+02  0.00000000000E+00 0. -1.
         22    1    1    2    0    0  0.30561650829E+02  0.93522571617E+01  0.40207387418E+02  0.51362566315E+02  0.00000000000E+00 0.  1.
</event>
<event>
 6    1  0.1383644E-005  0.5483784E+02  0.7818608E-02  0.1522549E+00
          2   -1    0    0  502    0  0.00000000000E+00  0.00000000000E+00  0.41007146136E+03  0.41007146136E+03  0.00000000000E+00 0.  1.
          1   -1    0    0  501    0 -0.00000000000E+00 -0.00000000000E+00 -0.90311013954E+02  0.90311013954E+02  0.00000000000E+00 0.  1.
          2    1    1    2  501    0  0.32103142153E+02  0.52432419729E+01  0.28606527683E+03  0.28790874584E+03  0.00000000000E+00 0.  1.
          1    1    1    2  502    0 -0.63140539512E+02 -0.12576432670E+02 -0.26174244799E+02  0.69498096948E+02  0.00000000000E+00 0.  1.
         22    1    1    2    0    0  0.12784396153E+02 -0.62677666077E+00 -0.39556174574E+02  0.41575528631E+02  0.00000000000E+00 0.  1.
         22    1    1    2    0    0  0.18253001207E+02  0.79599673579E+01  0.99425589944E+02  0.10140010389E+03  0.00000000000E+00 0.  1.
</event>
<event>
 6    1  0.1383644E-005  0.2164653E+03  0.7818608E-02  0.1257754E+00
          2   -1    0    0  502    0  0.00000000000E+00  0.00000000000E+00  0.45824001107E+03  0.45824001107E+03  0.00000000000E+00 0. -1.
          1   -1    0    0  501    0 -0.00000000000E+00 -0.00000000000E+00 -0.13602981422E+03  0.13602981422E+03  0.00000000000E+00 0. -1.
          2    1    1    2  501    0 -0.62978972528E+02  0.95805616017E+02  0.15067699494E+03  0.18933732819E+03  0.00000000000E+00 0. -1.
          1    1    1    2  502    0  0.13638611372E+03 -0.15103477473E+03  0.14803783748E+03  0.25165030601E+03  0.00000000000E+00 0. -1.
         22    1    1    2    0    0 -0.69532170838E+02  0.69986133596E+02  0.58781199524E+02  0.11483906606E+03  0.00000000000E+00 0.  1.
         22    1    1    2    0    0 -0.38749703496E+01 -0.14756974884E+02 -0.35285835093E+02  0.38443125018E+02  0.00000000000E+00 0. -1.
</event>
<event>
 6    1  0.1383644E-005  0.2009937E+03  0.7818608E-02  0.1224476E+00
          2   -1    0    0  502    0  0.00000000000E+00  0.00000000000E+00  0.40863987402E+03  0.40863987402E+03  0.00000000000E+00 0.  1.
          1   -1    0    0  501    0 -0.00000000000E+00 -0.00000000000E+00 -0.30756394600E+03  0.30756394600E+03  0.00000000000E+00 0.  1.
          2    1    1    2  501    0 -0.80419396858E+02  0.77468632989E+02  0.14446955055E+03  0.18259276964E+03  0.00000000000E+00 0.  1.
          1    1    1    2  502    0  0.14104091316E+03 -0.11886061085E+03 -0.23166416474E+03  0.29612272662E+03  0.00000000000E+00 0.  1.
         22    1    1    2    0    0 -0.44126604869E+02  0.74982490360E+02  0.17886488258E+03  0.19890243170E+03  0.00000000000E+00 0.  1.
         22    1    1    2    0    0 -0.16494911428E+02 -0.33590512495E+02  0.94056596294E+01  0.38585892056E+02  0.00000000000E+00 0.  1.
</event>
<event>
 6    1  0.1383644E-005  0.1576526E+03  0.7818608E-02  0.1248190E+00
          2   -1    0    0  502    0  0.00000000000E+00  0.00000000000E+00  0.22738136030E+03  0.22738136030E+03  0.00000000000E+00 0. -1.
          1   -1    0    0  501    0 -0.00000000000E+00 -0.00000000000E+00 -0.75306139688E+03  0.75306139688E+03  0.00000000000E+00 0. -1.
          2    1    1    2  501    0  0.17950680806E+03 -0.17144628369E+03 -0.34565691604E+03  0.42555284741E+03  0.00000000000E+00 0. -1.
          1    1    1    2  502    0 -0.24166136442E+03  0.12389709062E+03  0.54937098345E+02  0.27707181180E+03  0.00000000000E+00 0. -1.
         22    1    1    2    0    0  0.60930320692E+02  0.76944354870E+02 -0.22704592865E+03  0.24735155435E+03  0.00000000000E+00 0.  1.
         22    1    1    2    0    0  0.12242356650E+01 -0.29395161797E+02 -0.79142902365E+01  0.30466543617E+02  0.00000000000E+00 0. -1.
</event>
<event>
 6    1  0.1383644E-005  0.4520494E+02  0.7818608E-02  0.1478596E+00
          2   -1    0    0  502    0  0.00000000000E+00  0.00000000000E+00  0.37350579969E+03  0.37350579969E+03  0.00000000000E+00 0.  1.
          1   -1    0    0  501    0 -0.00000000000E+00 -0.00000000000E+00 -0.18404857122E+03  0.18404857122E+03  0.00000000000E+00 0. -1.
          2    1    1    2  501    0  0.11789907714E+03  0.21335791540E+02  0.27222964752E+03  0.29742963769E+03  0.00000000000E+00 0.  1.
          1    1    1    2  502    0 -0.94502511134E+02 -0.17500714874E+02 -0.91727701917E+02  0.13285695665E+03  0.00000000000E+00 0. -1.
         22    1    1    2    0    0 -0.15062416408E+02  0.11619302151E+02  0.65423300859E+02  0.68132905896E+02  0.00000000000E+00 0.  1.
         22    1    1    2    0    0 -0.83341495993E+01 -0.15454378818E+02 -0.56468017982E+02  0.59134870669E+02  0.00000000000E+00 0. -1.
</event>
<event>
 6    1  0.1383644E-005  0.5465776E+02  0.7818608E-02  0.1478888E+00
          2   -1    0    0  502    0  0.00000000000E+00  0.00000000000E+00  0.25303013861E+03  0.25303013861E+03  0.00000000000E+00 0.  1.
          1   -1    0    0  501    0 -0.00000000000E+00 -0.00000000000E+00 -0.84383807765E+02  0.84383807765E+02  0.00000000000E+00 0.  1.
          2    1    1    2  501    0 -0.37183274464E+01 -0.41636318620E+02  0.16417413422E+03  0.16941238247E+03  0.00000000000E+00 0.  1.
          1    1    1    2  502    0 -0.13780079196E+02  0.37620627742E+02  0.13009825305E+02  0.42124313274E+02  0.00000000000E+00 0.  1.
         22    1    1    2    0    0  0.12546152891E+02  0.19922098791E+02 -0.63880689847E+02  0.68081117118E+02  0.00000000000E+00 0.  1.
         22    1    1    2    0    0  0.49522537512E+01 -0.15906407913E+02  0.55343061170E+02  0.57796133518E+02  0.00000000000E+00 0.  1.
</event>
<event>
 6    1  0.1383644E-005  0.3290703E+02  0.7818608E-02  0.1601472E+00
          2   -1    0    0  502    0  0.00000000000E+00  0.00000000000E+00  0.37239109815E+03  0.37239109815E+03  0.00000000000E+00 0.  1.
          1   -1    0    0  501    0 -0.00000000000E+00 -0.00000000000E+00 -0.63825152924E+02  0.63825152924E+02  0.00000000000E+00 0.  1.
          2    1    1    2  501    0  0.53509672563E+02 -0.35310815412E+02  0.24634304019E+03  0.25454868334E+03  0.00000000000E+00 0.  1.
          1    1    1    2  502    0 -0.37493644243E+02  0.26925263775E+01  0.99359842922E+01  0.38881188778E+02  0.00000000000E+00 0.  1.
         22    1    1    2    0    0 -0.93524742411E+01  0.11818792745E+02 -0.42720336320E+02  0.45300990847E+02  0.00000000000E+00 0.  1.
         22    1    1    2    0    0 -0.66635540785E+01  0.20799496289E+02  0.95007257071E+02  0.97485388110E+02  0.00000000000E+00 0. -1.
</event>
<event>
 6    1  0.1383644E-005  0.5424365E+02  0.7818608E-02  0.1425040E+00
          2   -1    0    0  502    0  0.00000000000E+00  0.00000000000E+00  0.49482763779E+02  0.49482763779E+02  0.00000000000E+00 0. -1.
          1   -1    0    0  501    0 -0.00000000000E+00 -0.00000000000E+00 -0.69220786559E+03  0.69220786559E+03  0.00000000000E+00 0. -1.
          2    1    1    2  501    0 -0.10697803738E+02  0.39332728874E+02  0.20855168310E+02  0.45786948039E+02  0.00000000000E+00 0. -1.
          1    1    1    2  502    0  0.49603150049E+02  0.16219902022E+02 -0.32564014756E+03  0.32979548727E+03  0.00000000000E+00 0. -1.
         22    1    1    2    0    0 -0.88540958554E+01  0.86595295443E+01  0.68169892864E+01  0.14136966021E+02  0.00000000000E+00 0.  1.
         22    1    1    2    0    0 -0.30051250456E+02 -0.64212160440E+02 -0.34475711184E+03  0.35197122804E+03  0.00000000000E+00 0.  1.
</event>
<event>
 6    1  0.1383644E-005  0.8560488E+02  0.7818608E-02  0.1381758E+00
          2   -1    0    0  502    0  0.00000000000E+00  0.00000000000E+00  0.36132465993E+03  0.36132465993E+03  0.00000000000E+00 0. -1.
          1   -1    0    0  501    0 -0.00000000000E+00 -0.00000000000E+00 -0.11557378652E+03  0.11557378652E+03  0.00000000000E+00 0.  1.
          2    1    1    2  501    0 -0.35665209176E+02  0.46313494314E+02  0.20894052779E+03  0.21696334035E+03  0.00000000000E+00 0. -1.
          1    1    1    2  502    0  0.37464977406E+02 -0.66537729099E+02 -0.63171374579E+02  0.99103564476E+02  0.00000000000E+00 0.  1.
         22    1    1    2    0    0 -0.25902482285E+02  0.86203476417E+01  0.12272192765E+03  0.12572159921E+03  0.00000000000E+00 0. -1.
         22    1    1    2    0    0  0.24102714055E+02  0.11603887144E+02 -0.22740207451E+02  0.35109942418E+02  0.00000000000E+00 0. -1.
</event>
<event>
 6    1  0.1383644E-005  0.4713543E+02  0.7818608E-02  0.1530598E+00
          2   -1    0    0  502    0  0.00000000000E+00  0.00000000000E+00  0.21187423617E+03  0.21187423617E+03  0.00000000000E+00 0.  1.
          1   -1    0    0  501    0 -0.00000000000E+00 -0.00000000000E+00 -0.10704901197E+03  0.10704901197E+03  0.00000000000E+00 0. -1.
          2    1    1    2  501    0 -0.79917195927E+01 -0.21505436408E+02  0.10475780178E+03  0.10724060989E+03  0.00000000000E+00 0.  1.
          1    1    1    2  502    0  0.33092402413E+02  0.53901485344E+02 -0.38031732907E+02  0.73803048228E+02  0.00000000000E+00 0. -1.
         22    1    1    2    0    0 -0.15784495887E+02 -0.16858759955E+02  0.84746963777E+02  0.87837440576E+02  0.00000000000E+00 0.  1.
         22    1    1    2    0    0 -0.93161869337E+01 -0.15537288982E+02 -0.46647808452E+02  0.50042149447E+02  0.00000000000E+00 0. -1.
</event>
<event>
 6    1  0.1383644E-005  0.6834019E+02  0.7818608E-02  0.1455785E+00
          2   -1    0    0  502    0  0.00000000000E+00  0.00000000000E+00  0.30990725898E+03  0.30990725898E+03  0.00000000000E+00 0.  1.
          1   -1    0    0  501    0 -0.00000000000E+00 -0.00000000000E+00 -0.15066680821E+03  0.15066680821E+03  0.00000000000E+00 0.  1.
          2    1    1    2  501    0  0.13779418417E+02 -0.20536657919E+02  0.14619384208E+03  0.14827092147E+03  0.00000000000E+00 0.  1.
          1    1    1    2  502    0 -0.71291500360E+02  0.23413575315E+02 -0.10471173650E+03  0.12882244096E+03  0.00000000000E+00 0.  1.
         22    1    1    2    0    0  0.40891426244E+02 -0.52619464853E+01  0.14540363255E+03  0.15113574422E+03  0.00000000000E+00 0.  1.
         22    1    1    2    0    0  0.16620655699E+02  0.23850290891E+01 -0.27645287364E+02  0.32344960551E+02  0.00000000000E+00 0.  1.
</event>
<event>
 6    1  0.1383644E-005  0.1059944E+03  0.7818608E-02  0.1370684E+00
          2   -1    0    0  502    0  0.00000000000E+00  0.00000000000E+00  0.35318275098E+03  0.35318275098E+03  0.00000000000E+00 0.  1.
          1   -1    0    0  501    0 -0.00000000000E+00 -0.00000000000E+00 -0.14818283041E+03  0.14818283041E+03  0.00000000000E+00 0.  1.
          2    1    1    2  501    0 -0.58842955363E+02  0.23629483123E+02  0.14860533907E+03  0.16156853861E+03  0.00000000000E+00 0.  1.
          1    1    1    2  502    0  0.95688044954E+02 -0.62546649826E+01 -0.96974875981E+02  0.13637979818E+03  0.00000000000E+00 0.  1.
         22    1    1    2    0    0  0.12665675231E+01 -0.16851437299E+02 -0.19841263335E+02  0.26062441617E+02  0.00000000000E+00 0.  1.
         22    1    1    2    0    0 -0.38111657114E+02 -0.52338084106E+00  0.17321072082E+03  0.17735480299E+03  0.00000000000E+00 0. -1.
</event>
<event>
 6    1  0.1383644E-005  0.1535765E+03  0.7818608E-02  0.1280937E+00
          2   -1    0    0  502    0  0.00000000000E+00  0.00000000000E+00  0.12652753553E+03  0.12652753553E+03  0.00000000000E+00 0. -1.
          1   -1    0    0  501    0 -0.00000000000E+00 -0.00000000000E+00 -0.15701843328E+04  0.15701843328E+04  0.00000000000E+00 0.  1.
          2    1    1    2  501    0  0.86458793741E+02  0.80560266878E+02  0.62849941244E+02  0.13384765493E+03  0.00000000000E+00 0. -1.
          1    1    1    2  502    0 -0.12333958317E+03 -0.64063523760E+02 -0.13533972270E+04  0.13605149179E+04  0.00000000000E+00 0.  1.
         22    1    1    2    0    0  0.33576738116E+02  0.10575304711E+02  0.10300659885E+02  0.36678849577E+02  0.00000000000E+00 0. -1.
         22    1    1    2    0    0  0.33040513158E+01 -0.27072047830E+02 -0.16341017140E+03  0.16567044590E+03  0.00000000000E+00 0.  1.
</event>
<event>
 6    1  0.1383644E-005  0.1704635E+03  0.7818608E-02  0.1260178E+00
          2   -1    0    0  502    0  0.00000000000E+00  0.00000000000E+00  0.42584842659E+03  0.42584842659E+03  0.00000000000E+00 0. -1.
          1   -1    0    0  501    0 -0.00000000000E+00 -0.00000000000E+00 -0.69400235500E+02  0.69400235500E+02  0.00000000000E+00 0.  1.
          2    1    1    2  501    0 -0.18518574503E+02 -0.11421000199E+02 -0.58886693920E+01  0.22540037142E+02  0.00000000000E+00 0. -1.
          1    1    1    2  502    0 -0.16883457355E+02 -0.81717133535E+02  0.76558463085E+01  0.83793514237E+02  0.00000000000E+00 0.  1.
         22    1    1    2    0    0  0.53805551191E+02  0.69716774403E+02  0.34721211429E+03  0.35820625104E+03  0.00000000000E+00 0. -1.
         22    1    1    2    0    0 -0.18403519333E+02  0.23421359331E+02  0.74688998779E+01  0.30708859669E+02  0.00000000000E+00 0. -1.
</event>
<event>
 6    1  0.1383644E-005  0.7522511E+02  0.7818608E-02  0.1363118E+00
          2   -1    0    0  502    0  0.00000000000E+00  0.00000000000E+00  0.49464385687E+02  0.49464385687E+02  0.00000000000E+00 0. -1.
          1   -1    0    0  501    0 -0.00000000000E+00 -0.00000000000E+00 -0.63297220265E+03  0.63297220265E+03  0.00000000000E+00 0. -1.
          2    1    1    2  501    0 -0.43656453338E+02  0.79621612712E+02 -0.92627598419E+02  0.12971260200E+03  0.00000000000E+00 0. -1.
          1    1    1    2  502    0  0.20912460854E+02 -0.10187742726E+03 -0.32200509992E+03  0.33838384356E+03  0.00000000000E+00 0. -1.
         22    1    1    2    0    0 -0.37999808895E+02  0.11322729848E+02 -0.59226302021E+01  0.40090737531E+02  0.00000000000E+00 0. -1.
         22    1    1    2    0    0  0.60743801379E+02  0.10933084703E+02 -0.16295248843E+03  0.17424940526E+03  0.00000000000E+00 0.  1.
</event>
<event>
 6    1  0.1383644E-005  0.3968144E+02  0.7818608E-02  0.1563634E+00
          2   -1    0    0  502    0  0.00000000000E+00  0.00000000000E+00  0.35484753486E+03  0.35484753486E+03  0.00000000000E+00 0.  1.
          1   -1    0    0  501    0 -0.00000000000E+00 -0.00000000000E+00 -0.59745286574E+02  0.59745286574E+02  0.00000000000E+00 0.  1.
          2    1    1    2  501    0  0.15923975119E+02  0.52017586405E+02  0.66377115445E+02  0.85821464295E+02  0.00000000000E+00 0.  1.
          1    1    1    2  502    0  0.18867662580E+01 -0.43316515216E+02  0.19651874100E+03  0.20124486563E+03  0.00000000000E+00 0.  1.
         22    1    1    2    0    0 -0.32524614190E+02 -0.20628392454E+01 -0.41106205203E+02  0.52457849176E+02  0.00000000000E+00 0.  1.
         22    1    1    2    0    0  0.14713872814E+02 -0.66382319434E+01  0.73312597043E+02  0.75068642333E+02  0.00000000000E+00 0.  1.
</event>
<event>
 6    1  0.1383644E-005  0.2258306E+03  0.7818608E-02  0.1224325E+00
          2   -1    0    0  502    0  0.00000000000E+00  0.00000000000E+00  0.17543076845E+03  0.17543076845E+03  0.00000000000E+00 0. -1.
          1   -1    0    0  501    0 -0.00000000000E+00 -0.00000000000E+00 -0.36443261929E+03  0.36443261929E+03  0.00000000000E+00 0. -1.
          2    1    1    2  501    0  0.28765903346E+02  0.25289252369E+01 -0.29162690245E+02  0.41040652535E+02  0.00000000000E+00 0. -1.
          1    1    1    2  502    0 -0.17082812938E+02 -0.18616478037E+03 -0.20033835490E+03  0.27401570100E+03  0.00000000000E+00 0. -1.
         22    1    1    2    0    0  0.12957524427E+02  0.17397568121E+03  0.67441704909E+02  0.18703961787E+03  0.00000000000E+00 0. -1.
         22    1    1    2    0    0 -0.24640614835E+02  0.96601739221E+01 -0.26942510600E+02  0.37767416341E+02  0.00000000000E+00 0.  1.
</event>
<event>
 6    1  0.1383644E-005  0.1949025E+03  0.7818608E-02  0.1233843E+00
          2   -1    0    0  502    0  0.00000000000E+00  0.00000000000E+00  0.33028122376E+03  0.33028122376E+03  0.00000000000E+00 0. -1.
          1   -1    0    0  501    0 -0.00000000000E+00 -0.00000000000E+00 -0.28067449393E+03  0.28067449393E+03  0.00000000000E+00 0. -1.
          2    1    1    2  501    0 -0.41726675211E+02 -0.16048229673E+03  0.16434521585E+03  0.23346312977E+03  0.00000000000E+00 0. -1.
          1    1    1    2  502    0  0.68356242714E+02  0.20757023612E+03 -0.29407872202E+02  0.22050578629E+03  0.00000000000E+00 0. -1.
         22    1    1    2    0    0 -0.12345450542E+02 -0.16438287122E+02  0.30242611449E+02  0.36568333020E+02  0.00000000000E+00 0.  1.
         22    1    1    2    0    0 -0.14284116961E+02 -0.30649652264E+02 -0.11557322527E+03  0.12041846861E+03  0.00000000000E+00 0. -1.
</event>
<event>
 6    1  0.1383644E-005  0.4398099E+02  0.7818608E-02  0.1549359E+00
          2   -1    0    0  502    0  0.00000000000E+00  0.00000000000E+00  0.25265047898E+04  0.25265047898E+04  0.00000000000E+00 0.  1.
          1   -1    0    0  501    0 -0.00000000000E+00 -0.00000000000E+00 -0.16057756488E+02  0.16057756488E+02  0.00000000000E+00 0.  1.
          2    1    1    2  501    0  0.42447883675E+01  0.37455341016E+02  0.33348197610E+03  0.33560564534E+03  0.00000000000E+00 0.  1.
          1    1    1    2  502    0  0.20527668683E+02  0.18313555251E+02  0.18548157529E+04  0.18550197435E+04  0.00000000000E+00 0.  1.
         22    1    1    2    0    0 -0.41164864786E+02 -0.61803283141E+02  0.32574611833E+03  0.33410286666E+03  0.00000000000E+00 0.  1.
         22    1    1    2    0    0  0.16392407735E+02  0.60343868742E+01 -0.35968140549E+01  0.17834290781E+02  0.00000000000E+00 0.  1.
</event>
<event>
 6    1  0.1383644E-005  0.9289087E+02  0.7818608E-02  0.1302423E+00
          2   -1    0    0  502    0  0.00000000000E+00  0.00000000000E+00  0.55657835505E+02  0.55657835505E+02  0.00000000000E+00 0.  1.
          1   -1    0    0  501    0 -0.00000000000E+00 -0.00000000000E+00 -0.31829327990E+03  0.31829327990E+03  0.00000000000E+00 0. -1.
          2    1    1    2  501    0 -0.51529026539E+02 -0.58925043509E+02 -0.46124059699E+02  0.90856096173E+02  0.00000000000E+00 0.  1.
          1    1    1    2  502    0  0.11983263628E+02  0.21555614816E+02 -0.10376516545E+03  0.10665576730E+03  0.00000000000E+00 0. -1.
         22    1    1    2    0    0  0.78932346747E+02  0.24008102930E+02 -0.10597031741E+03  0.13429971162E+03  0.00000000000E+00 0. -1.
         22    1    1    2    0    0 -0.39386583835E+02  0.13361325763E+02 -0.67759018376E+01  0.42139540316E+02  0.00000000000E+00 0.  1.
</event>
<event>
 6    1  0.1383644E-005  0.8066080E+02  0.7818608E-02  0.1337737E+00
          2   -1    0    0  502    0  0.00000000000E+00  0.00000000000E+00  0.26552029285E+02  0.26552029285E+02  0.00000000000E+00 0. -1.
          1   -1    0    0  501    0 -0.00000000000E+00 -0.00000000000E+00 -0.69284990575E+03  0.69284990575E+03  0.00000000000E+00 0.  1.
          2    1    1    2  501    0 -0.31264557786E+02  0.75618991440E+02 -0.17737057159E+03  0.19533567034E+03  0.00000000000E+00 0. -1.
          1    1    1    2  502    0  0.30110319880E+02  0.37051258978E+01 -0.14482543745E+03  0.14796880297E+03  0.00000000000E+00 0.  1.
         22    1    1    2    0    0 -0.46087140190E+02 -0.48690880032E+02 -0.72608558018E+02  0.98827268436E+02  0.00000000000E+00 0. -1.
         22    1    1    2    0    0  0.47241378096E+02 -0.30633237306E+02 -0.27149330941E+03  0.27727019329E+03  0.00000000000E+00 0. -1.
</event>
<event>
 6    1  0.1383644E-005  0.4521897E+02  0.7818608E-02  0.1537037E+00
          2   -1    0    0  502    0  0.00000000000E+00  0.00000000000E+00  0.11984497242E+03  0.11984497242E+03  0.00000000000E+00 0. -1.
          1   -1    0    0  501    0 -0.00000000000E+00 -0.00000000000E+00 -0.10927298885E+03  0.10927298885E+03  0.00000000000E+00 0. -1.
          2    1    1    2  501    0 -0.24721527613E+02  0.95822107164E+01  0.34333954248E+02  0.43379639280E+02  0.00000000000E+00 0. -1.
          1    1    1    2  502    0  0.31619072912E+02 -0.32670321604E+02  0.25326250468E+02  0.52043584122E+02  0.00000000000E+00 0. -1.
         22    1    1    2    0    0  0.10048465285E+02  0.15954999088E+02 -0.88350771406E+02  0.90340425384E+02  0.00000000000E+00 0. -1.
         22    1    1    2    0    0 -0.16946010584E+02  0.71331117995E+01  0.39262550253E+02  0.43354312485E+02  0.00000000000E+00 0.  1.
</event>
<event>
 6    1  0.1383644E-005  0.3717705E+02  0.7818608E-02  0.1544014E+00
          2   -1    0    0  502    0  0.00000000000E+00  0.00000000000E+00  0.65627303514E+03  0.65627303514E+03  0.00000000000E+00 0. -1.
          1   -1    0    0  501    0 -0.00000000000E+00 -0.00000000000E+00 -0.94531070188E+02  0.94531070188E+02  0.00000000000E+00 0.  1.
          2    1    1    2  501    0 -0.23529087963E+02 -0.49730184093E+02  0.53204302022E+03  0.53487987862E+03  0.00000000000E+00 0. -1.
          1    1    1    2  502    0  0.56675905900E+02  0.32145266550E+02 -0.28874932072E+02  0.71268774181E+02  0.00000000000E+00 0.  1.
         22    1    1    2    0    0 -0.18188609610E+02  0.16648685421E+01  0.97943213760E+02  0.99631673822E+02  0.00000000000E+00 0.  1.
         22    1    1    2    0    0 -0.14958208327E+02  0.15920049001E+02 -0.39369336955E+02  0.45023778705E+02  0.00000000000E+00 0. -1.
</event>
<event>
 6    1  0.1383644E-005  0.1544287E+03  0.7818608E-02  0.1294689E+00
          2   -1    0    0  502    0  0.00000000000E+00  0.00000000000E+00  0.17144342889E+03  0.17144342889E+03  0.00000000000E+00 0.  1.
          1   -1    0    0  501    0 -0.00000000000E+00 -0.00000000000E+00 -0.21767762152E+03  0.21767762152E+03  0.00000000000E+00 0.  1.
          2    1    1    2  501    0  0.91154048528E+01  0.32526836662E+02 -0.50403059443E+02  0.60675811573E+02  0.00000000000E+00 0.  1.
          1    1    1    2  502    0  0.79629898483E+02 -0.91838583411E+02  0.82648991987E+02  0.14699014257E+03  0.00000000000E+00 0.  1.
         22    1    1    2    0    0 -0.77505661006E+02  0.76711591487E+02 -0.95351849531E+01  0.10946559052E+03  0.00000000000E+00 0.  1.
         22    1    1    2    0    0 -0.11239642331E+02 -0.17399844739E+02 -0.68944940217E+02  0.71989505750E+02  0.00000000000E+00 0.  1.
</event>
<event>
 6    1  0.1383644E-005  0.2019395E+03  0.7818608E-02  0.1270411E+00
          2   -1    0    0  502    0  0.00000000000E+00  0.00000000000E+00  0.67179850341E+03  0.67179850341E+03  0.00000000000E+00 0.  1.
          1   -1    0    0  501    0 -0.00000000000E+00 -0.00000000000E+00 -0.78036256151E+02  0.78036256151E+02  0.00000000000E+00 0.  1.
          2    1    1    2  501    0  0.88621859914E+02 -0.63452697519E+02  0.22168546008E+03  0.24703141923E+03  0.00000000000E+00 0.  1.
          1    1    1    2  502    0 -0.84890729500E+02  0.15984456924E+03  0.17757366248E+03  0.25355300802E+03  0.00000000000E+00 0.  1.
         22    1    1    2    0    0 -0.14504049397E+02 -0.22480531659E+01 -0.13963339589E+02  0.20258233991E+02  0.00000000000E+00 0. -1.
         22    1    1    2    0    0  0.10772918983E+02 -0.94143818560E+02  0.20846646429E+03  0.22899209831E+03  0.00000000000E+00 0.  1.
</event>
<event>
 6    1  0.1383644E-005  0.6542117E+02  0.7818608E-02  0.1470271E+00
          2   -1    0    0  502    0  0.00000000000E+00  0.00000000000E+00  0.24136634912E+03  0.24136634912E+03  0.00000000000E+00 0.  1.
          1   -1    0    0  501    0 -0.00000000000E+00 -0.00000000000E+00 -0.18361163346E+03  0.18361163346E+03  0.00000000000E+00 0.  1.
          2    1    1    2  501    0  0.32855115368E+02 -0.13331742311E+02  0.13626634425E+03  0.14080380156E+03  0.00000000000E+00 0.  1.
          1    1    1    2  502    0 -0.60653979438E+02  0.49907843069E+02 -0.12038845616E+03  0.14374657700E+03  0.00000000000E+00 0.  1.
         22    1    1    2    0    0  0.83147276919E+01  0.13106724330E+02  0.75680361914E+02  0.77255667098E+02  0.00000000000E+00 0. -1.
         22    1    1    2    0    0  0.19484136378E+02 -0.49682825087E+02 -0.33803534345E+02  0.63171936912E+02  0.00000000000E+00 0.  1.
</event>
<event>
 6    1  0.1383644E-005  0.4412937E+02  0.7818608E-02  0.1540584E+00
          2   -1    0    0  502    0  0.00000000000E+00  0.00000000000E+00  0.27964742058E+03  0.27964742058E+03  0.00000000000E+00 0.  1.
          1   -1    0    0  501    0 -0.00000000000E+00 -0.00000000000E+00 -0.15042242355E+03  0.15042242355E+03  0.00000000000E+00 0.  1.
          2    1    1    2  501    0 -0.79576313101E+01  0.45053542139E+02 -0.89703476202E+02  0.10069686787E+03  0.00000000000E+00 0.  1.
          1    1    1    2  502    0  0.16484337543E+02  0.17661851337E+02 -0.33894395261E+02  0.41623363716E+02  0.00000000000E+00 0.  1.
         22    1    1    2    0    0 -0.49111399662E+01 -0.18737295158E+02 -0.96167958378E+01  0.21626102001E+02  0.00000000000E+00 0.  1.
         22    1    1    2    0    0 -0.36155662665E+01 -0.43978098319E+02  0.26243966433E+03  0.26612351054E+03  0.00000000000E+00 0.  1.
</event>
<event>
 6    1  0.1383644E-005  0.2059985E+03  0.7818608E-02  0.1282788E+00
          2   -1    0    0  502    0  0.00000000000E+00  0.00000000000E+00  0.80854821503E+03  0.80854821503E+03  0.00000000000E+00 0.  1.
          1   -1    0    0  501    0 -0.00000000000E+00 -0.00000000000E+00 -0.56836121821E+02  0.56836121821E+02  0.00000000000E+00 0.  1.
          2    1    1    2  501    0 -0.48654392496E+02  0.60454973685E+02  0.26130660808E+03  0.27258612800E+03  0.00000000000E+00 0.  1.
          1    1    1    2  502    0  0.16131493695E+03 -0.27241474011E+02  0.24811760672E+03  0.29719850866E+03  0.00000000000E+00 0.  1.
         22    1    1    2    0    0  0.32417583506E+01  0.10418194331E+02 -0.98436869898E+01  0.14695099315E+02  0.00000000000E+00 0. -1.
         22    1    1    2    0    0 -0.11590230281E+03 -0.43631694005E+02  0.25213156540E+03  0.28090460087E+03  0.00000000000E+00 0.  1.
</event>
<event>
 6    1  0.1383644E-005  0.4803723E+03  0.7818608E-02  0.1124294E+00
          2   -1    0    0  502    0  0.00000000000E+00  0.00000000000E+00  0.18981993599E+04  0.18981993599E+04  0.00000000000E+00 0. -1.
          1   -1    0    0  501    0 -0.00000000000E+00 -0.00000000000E+00 -0.15204739842E+03  0.15204739842E+03  0.00000000000E+00 0.  1.
          2    1    1    2  501    0 -0.26234469397E+03  0.34570384694E+03  0.10555277763E+04  0.11412601696E+04  0.00000000000E+00 0. -1.
          1    1    1    2  502    0  0.26437215480E+03 -0.37326354051E+03  0.49261150315E+03  0.67222347471E+03  0.00000000000E+00 0.  1.
         22    1    1    2    0    0  0.22131014208E+02 -0.15035109639E+02 -0.56083284114E+01  0.27336599264E+02  0.00000000000E+00 0. -1.
         22    1    1    2    0    0 -0.24158475039E+02  0.42594803214E+02  0.20362101039E+03  0.20942651468E+03  0.00000000000E+00 0.  1.
</event>
<event>
 6    1  0.1383644E-005  0.1041438E+03  0.7818608E-02  0.1379603E+00
          2   -1    0    0  502    0  0.00000000000E+00  0.00000000000E+00  0.12478045423E+04  0.12478045423E+04  0.00000000000E+00 0. -1.
          1   -1    0    0  501    0 -0.00000000000E+00 -0.00000000000E+00 -0.41005971980E+02  0.41005971980E+02  0.00000000000E+00 0.  1.
          2    1    1    2  501    0 -0.70140192071E+02  0.10059696330E+03  0.46831073357E+03  0.48410157896E+03  0.00000000000E+00 0. -1.
          1    1    1    2  502    0  0.17816569148E+02 -0.16738476032E+03  0.34446329023E+03  0.38339280958E+03  0.00000000000E+00 0.  1.
         22    1    1    2    0    0  0.43191782190E+02  0.60401163753E+02  0.40123171435E+03  0.40804499657E+03  0.00000000000E+00 0.  1.
         22    1    1    2    0    0  0.91318407338E+01  0.63866332642E+01 -0.72071678663E+01  0.13271129126E+02  0.00000000000E+00 0. -1.
</event>
<event>
 6    1  0.1383644E-005  0.5804513E+02  0.7818608E-02  0.1508384E+00
          2   -1    0    0  502    0  0.00000000000E+00  0.00000000000E+00  0.30623532146E+03  0.30623532146E+03  0.00000000000E+00 0.  1.
          1   -1    0    0  501    0 -0.00000000000E+00 -0.00000000000E+00 -0.59676406478E+02  0.59676406478E+02  0.00000000000E+00 0.  1.
          2    1    1    2  501    0  0.12543375087E+01  0.30279708249E+02  0.10732744745E+03  0.11152405602E+03  0.00000000000E+00 0.  1.
          1    1    1    2  502    0 -0.25838116219E+02 -0.56644813983E+02  0.99339212016E+02  0.11723703444E+03  0.00000000000E+00 0.  1.
         22    1    1    2    0    0  0.12090914167E+02  0.22560024819E+02  0.85740100863E+02  0.89479102707E+02  0.00000000000E+00 0.  1.
         22    1    1    2    0    0  0.12492864544E+02  0.38050809145E+01 -0.45847845343E+02  0.47671534776E+02  0.00000000000E+00 0.  1.
</event>
<event>
 6    1  0.1383644E-005  0.6537478E+02  0.7818608E-02  0.1417480E+00
          2   -1    0    0  502    0  0.00000000000E+00  0.00000000000E+00  0.49552870645E+03  0.49552870645E+03  0.00000000000E+00 0.  1.
          1   -1    0    0  501    0 -0.00000000000E+00 -0.00000000000E+00 -0.15222232327E+03  0.15222232327E+03  0.00000000000E+00 0.  1.
          2    1    1    2  501    0 -0.47477691310E+02  0.71158021029E+02  0.26765099248E+03  0.28098869889E+03  0.00000000000E+00 0.  1.
          1    1    1    2  502    0  0.11024877279E+03 -0.49154133174E+02  0.16149913701E+03  0.20162562328E+03  0.00000000000E+00 0.  1.
         22    1    1    2    0    0 -0.22196296271E+02 -0.56838486491E+01  0.32047021464E+02  0.39395346024E+02  0.00000000000E+00 0.  1.
         22    1    1    2    0    0 -0.40574785212E+02 -0.16320039206E+02 -0.11789076776E+03  0.12574136153E+03  0.00000000000E+00 0.  1.
</event>
<event>
 6    1  0.1383644E-005  0.3846809E+02  0.7818608E-02  0.1528533E+00
          2   -1    0    0  502    0  0.00000000000E+00  0.00000000000E+00  0.66747004227E+02  0.66747004227E+02  0.00000000000E+00 0. -1.
          1   -1    0    0  501    0 -0.00000000000E+00 -0.00000000000E+00 -0.16292576484E+03  0.16292576484E+03  0.00000000000E+00 0. -1.
          2    1    1    2  501    0  0.17177155805E+01  0.27869466911E+02 -0.62494477151E+01  0.28613167065E+02  0.00000000000E+00 0. -1.
          1    1    1    2  502    0  0.58441509955E+00 -0.25260387210E+02  0.21365962416E+02  0.33089772634E+02  0.00000000000E+00 0. -1.
         22    1    1    2    0    0  0.37107018068E+00 -0.34247003824E+02 -0.12771304981E+03  0.13222563312E+03  0.00000000000E+00 0. -1.
         22    1    1    2    0    0 -0.26732008607E+01  0.31637924122E+02  0.16417774496E+02  0.35744196242E+02  0.00000000000E+00 0. -1.
</event>
<event>
 6    1  0.1383644E-005  0.1174041E+03  0.7818608E-02  0.1332745E+00
          2   -1    0    0  502    0  0.00000000000E+00  0.00000000000E+00  0.58909070932E+02  0.58909070932E+02  0.00000000000E+00 0. -1.
          1   -1    0    0  501    0 -0.00000000000E+00 -0.00000000000E+00 -0.30368991169E+03  0.30368991169E+03  0.00000000000E+00 0. -1.
          2    1    1    2  501    0 -0.19334841692E+02 -0.34841578946E+02 -0.59359428594E+02  0.71493450677E+02  0.00000000000E+00 0. -1.
          1    1    1    2  502    0  0.57667803662E+02  0.65109133730E+02 -0.79096583382E+02  0.11756293794E+03  0.00000000000E+00 0. -1.
         22    1    1    2    0    0 -0.59812407805E+02 -0.20202797570E+02  0.14893918685E+01  0.63149785790E+02  0.00000000000E+00 0. -1.
         22    1    1    2    0    0  0.21479445836E+02 -0.10064757214E+02 -0.10781422065E+03  0.11039280822E+03  0.00000000000E+00 0.  1.
</event>
<event>
 6    1  0.1383644E-005  0.5588319E+02  0.7818608E-02  0.1422923E+00
          2   -1    0    0  502    0  0.00000000000E+00  0.00000000000E+00  0.88003713712E+02  0.88003713712E+02  0.00000000000E+00 0. -1.
          1   -1    0    0  501    0 -0.00000000000E+00 -0.00000000000E+00 -0.16296704536E+03  0.16296704536E+03  0.00000000000E+00 0.  1.
          2    1    1    2  501    0 -0.34973334019E+02  0.21116624401E+02  0.21854103595E+02  0.46331930269E+02  0.00000000000E+00 0. -1.
          1    1    1    2  502    0  0.40757394261E+02  0.11488019936E+02 -0.48656802860E+01  0.42624108596E+02  0.00000000000E+00 0.  1.
         22    1    1    2    0    0  0.10682860887E+02 -0.57980509111E+02 -0.11140903548E+03  0.12604696006E+03  0.00000000000E+00 0.  1.
         22    1    1    2    0    0 -0.16466921129E+02  0.25375864774E+02  0.19457280525E+02  0.35967760146E+02  0.00000000000E+00 0. -1.
</event>
<event>
 6    1  0.1383644E-005  0.2531046E+03  0.7818608E-02  0.1167175E+00
          2   -1    0    0  502    0  0.00000000000E+00  0.00000000000E+00  0.18550127060E+04  0.18550127060E+04  0.00000000000E+00 0. -1.
          1   -1    0    0  501    0 -0.00000000000E+00 -0.00000000000E+00 -0.76902955029E+02  0.76902955029E+02  0.00000000000E+00 0.  1.
          2    1    1    2  501    0  0.16244645122E+03 -0.13784398447E+03  0.13037241476E+04  0.13210172091E+04  0.00000000000E+00 0. -1.
          1    1    1    2  502    0 -0.21783070298E+03  0.96407852764E+02  0.27896537641E+03  0.36683289175E+03  0.00000000000E+00 0.  1.
         22    1    1    2    0    0  0.19613771568E+02  0.62686338060E+02  0.27740236363E+02  0.71300755452E+02  0.00000000000E+00 0. -1.
         22    1    1    2    0    0  0.35770480189E+02 -0.21250206354E+02  0.16767999058E+03  0.17276480476E+03  0.00000000000E+00 0.  1.
</event>
<event>
 6    1  0.1383644E-005  0.3355381E+02  0.7818608E-02  0.1598726E+00
          2   -1    0    0  502    0  0.00000000000E+00  0.00000000000E+00  0.12333482570E+03  0.12333482570E+03  0.00000000000E+00 0.  1.
          1   -1    0    0  501    0 -0.00000000000E+00 -0.00000000000E+00 -0.11008385586E+03  0.11008385586E+03  0.00000000000E+00 0.  1.
          2    1    1    2  501    0  0.13230793446E+02  0.30418200828E+02  0.35121239508E+02  0.48309650189E+02  0.00000000000E+00 0.  1.
          1    1    1    2  502    0 -0.43837186074E+02  0.35631823346E+01  0.16233019076E+02  0.46881830804E+02  0.00000000000E+00 0.  1.
         22    1    1    2    0    0  0.89132560903E+01 -0.32758754521E+02 -0.82273166155E+02  0.89002561767E+02  0.00000000000E+00 0.  1.
         22    1    1    2    0    0  0.21693136538E+02 -0.12226286409E+01  0.44169877417E+02  0.49224638797E+02  0.00000000000E+00 0.  1.
</event>
<event>
 6    1  0.1383644E-005  0.6041072E+02  0.7818608E-02  0.1499963E+00
          2   -1    0    0  502    0  0.00000000000E+00  0.00000000000E+00  0.15505493081E+03  0.15505493081E+03  0.00000000000E+00 0.  1.
          1   -1    0    0  501    0 -0.00000000000E+00 -0.00000000000E+00 -0.83922661605E+02  0.83922661605E+02  0.00000000000E+00 0. -1.
          2    1    1    2  501    0 -0.13445971649E+02  0.24081262737E+02  0.42123533256E+02  0.50349711246E+02  0.00000000000E+00 0.  1.
          1    1    1    2  502    0  0.31331539115E+02 -0.38752625362E+02 -0.21744982186E+02  0.54371643033E+02  0.00000000000E+00 0. -1.
         22    1    1    2    0    0 -0.16887592726E+02  0.27630344263E+02  0.88551201113E+02  0.94286488590E+02  0.00000000000E+00 0.  1.
         22    1    1    2    0    0 -0.99797473969E+00 -0.12958981637E+02 -0.37797482982E+02  0.39969749542E+02  0.00000000000E+00 0. -1.
</event>
<event>
 6    1  0.1383644E-005  0.1943303E+03  0.7818608E-02  0.1284685E+00
          2   -1    0    0  502    0  0.00000000000E+00  0.00000000000E+00  0.28643283518E+03  0.28643283518E+03  0.00000000000E+00 0.  1.
          1   -1    0    0  501    0 -0.00000000000E+00 -0.00000000000E+00 -0.35668407862E+03  0.35668407862E+03  0.00000000000E+00 0.  1.
          2    1    1    2  501    0 -0.79914259580E+01 -0.17398830067E+03 -0.51292346426E+02  0.18156733313E+03  0.00000000000E+00 0.  1.
          1    1    1    2  502    0 -0.72077274363E+02 -0.27761713861E+02 -0.15878797718E+03  0.17657708779E+03  0.00000000000E+00 0.  1.
         22    1    1    2    0    0  0.71194110742E+02  0.19289254309E+03  0.16047157102E+03  0.26082035904E+03  0.00000000000E+00 0.  1.
         22    1    1    2    0    0  0.88745895793E+01  0.88574714433E+01 -0.20642490853E+02  0.24152133844E+02  0.00000000000E+00 0.  1.
</event>
<event>
 6    1  0.1383644E-005  0.5000395E+02  0.7818608E-02  0.1518410E+00
          2   -1    0    0  502    0  0.00000000000E+00  0.00000000000E+00  0.21108125833E+03  0.21108125833E+03  0.00000000000E+00 0. -1.
          1   -1    0    0  501    0 -0.00000000000E+00 -0.00000000000E+00 -0.85157249377E+03  0.85157249377E+03  0.00000000000E+00 0.  1.
          2    1    1    2  501    0  0.12083847465E+02 -0.31483165097E+02  0.16457182473E+03  0.16799135260E+03  0.00000000000E+00 0. -1.
          1    1    1    2  502    0 -0.40966693453E+01  0.33615080537E+02 -0.75724332486E+03  0.75800013812E+03  0.00000000000E+00 0.  1.
         22    1    1    2    0    0  0.54376016416E+01 -0.13884657113E+02  0.42269808059E+02  0.44822850067E+02  0.00000000000E+00 0.  1.
         22    1    1    2    0    0 -0.13424779761E+02  0.11752741673E+02 -0.90089543356E+02  0.91839411314E+02  0.00000000000E+00 0.  1.
</event>
<event>
 6    1  0.1684311E-005  0.1668701E+03  0.7818608E-02  0.1296264E+00
          2   -1    0    0  502    0  0.00000000000E+00  0.00000000000E+00  0.37894350873E+03  0.37894350873E+03  0.00000000000E+00 0. -1.
          1   -1    0    0  501    0 -0.00000000000E+00 -0.00000000000E+00 -0.16316084788E+03  0.16316084788E+03  0.00000000000E+00 0.  1.
          2    1    1    2  501    0 -0.45126721904E+02 -0.90311719826E+01  0.20954955259E+02  0.50567709530E+02  0.00000000000E+00 0. -1.
          1    1    1    2  502    0  0.10641476641E+03 -0.25695917494E+02 -0.11071288648E+03  0.15569754628E+03  0.00000000000E+00 0.  1.
         22    1    1    2    0    0 -0.63614514669E+02  0.50501095827E+02  0.30902266988E+03  0.31951866559E+03  0.00000000000E+00 0. -1.
         22    1    1    2    0    0  0.23264701675E+01 -0.15774006350E+02 -0.34820778173E+01  0.16320435218E+02  0.00000000000E+00 0. -1.
</event>
<event>
 6    1  0.1383644E-005  0.4786698E+02  0.7818608E-02  0.1468727E+00
          2   -1    0    0  502    0  0.00000000000E+00  0.00000000000E+00  0.37996688651E+02  0.37996688651E+02  0.00000000000E+00 0.  1.
          1   -1    0    0  501    0 -0.00000000000E+00 -0.00000000000E+00 -0.22526090894E+03  0.22526090894E+03  0.00000000000E+00 0.  1.
          2    1    1    2  501    0  0.45896916117E+01 -0.25099138665E+02 -0.43183775405E+01  0.25878184159E+02  0.00000000000E+00 0.  1.
          1    1    1    2  502    0 -0.28108534779E+01  0.29113244532E+02 -0.24874724087E+02  0.38395752407E+02  0.00000000000E+00 0.  1.
         22    1    1    2    0    0 -0.31167968150E+02  0.25882669589E+02 -0.15115971327E+03  0.15649477224E+03  0.00000000000E+00 0.  1.
         22    1    1    2    0    0  0.29389130016E+02 -0.29896775456E+02 -0.69114053962E+01  0.42488888787E+02  0.00000000000E+00 0.  1.
</event>
<event>
 6    1  0.1383644E-005  0.5614924E+03  0.7818608E-02  0.1132394E+00
          2   -1    0    0  502    0  0.00000000000E+00  0.00000000000E+00  0.19859697368E+04  0.19859697368E+04  0.00000000000E+00 0. -1.
          1   -1    0    0  501    0 -0.00000000000E+00 -0.00000000000E+00 -0.17638797170E+03  0.17638797170E+03  0.00000000000E+00 0. -1.
          2    1    1    2  501    0 -0.43371263633E+01 -0.46014080210E+03  0.82585209689E+03  0.94539941525E+03  0.00000000000E+00 0. -1.
          1    1    1    2  502    0  0.41318671846E+02  0.54422011084E+03  0.85165011107E+03  0.10115288792E+04  0.00000000000E+00 0. -1.
         22    1    1    2    0    0 -0.46034066313E+02 -0.94393330292E+02  0.14984369427E+03  0.18298188101E+03  0.00000000000E+00 0. -1.
         22    1    1    2    0    0  0.90525208310E+01  0.10314021554E+02 -0.17764137121E+02  0.22447533086E+02  0.00000000000E+00 0.  1.
</event>
<event>
 6    1  0.1383644E-005  0.3177450E+02  0.7818608E-02  0.1639263E+00
          2   -1    0    0  502    0  0.00000000000E+00  0.00000000000E+00  0.20161299298E+03  0.20161299298E+03  0.00000000000E+00 0. -1.
          1   -1    0    0  501    0 -0.00000000000E+00 -0.00000000000E+00 -0.82134915890E+02  0.82134915890E+02  0.00000000000E+00 0.  1.
          2    1    1    2  501    0 -0.85034924681E+01  0.31734683232E+02  0.57054823810E+02  0.65838077310E+02  0.00000000000E+00 0. -1.
          1    1    1    2  502    0  0.59480948833E+01 -0.46818783496E+02 -0.33848566855E+02  0.58078428000E+02  0.00000000000E+00 0.  1.
         22    1    1    2    0    0  0.12923224743E+02  0.17942378521E+02  0.12615173435E+03  0.12807497321E+03  0.00000000000E+00 0. -1.
         22    1    1    2    0    0 -0.10367827158E+02 -0.28582782563E+01 -0.29879914216E+02  0.31756430343E+02  0.00000000000E+00 0. -1.
</event>
<event>
 6    1  0.1383644E-005  0.3478070E+02  0.7818608E-02  0.1591145E+00
          2   -1    0    0  502    0  0.00000000000E+00  0.00000000000E+00  0.86561979397E+02  0.86561979397E+02  0.00000000000E+00 0.  1.
          1   -1    0    0  501    0 -0.00000000000E+00 -0.00000000000E+00 -0.20884083887E+03  0.20884083887E+03  0.00000000000E+00 0.  1.
          2    1    1    2  501    0 -0.19692992642E+02  0.57643887904E+02  0.25684792423E+02  0.66108549626E+02  0.00000000000E+00 0.  1.
          1    1    1    2  502    0  0.10376975072E+02 -0.30904189973E+02 -0.75896898752E+02  0.82601996402E+02  0.00000000000E+00 0.  1.
         22    1    1    2    0    0 -0.16017748165E+02 -0.89541642870E+01 -0.10199711976E+03  0.10363473237E+03  0.00000000000E+00 0.  1.
         22    1    1    2    0    0  0.25333765735E+02 -0.17785533644E+02  0.29930366618E+02  0.43057539865E+02  0.00000000000E+00 0.  1.
</event>
<event>
 6    1  0.1383644E-005  0.4901222E+02  0.7818608E-02  0.1566952E+00
          2   -1    0    0  502    0  0.00000000000E+00  0.00000000000E+00  0.17919641372E+03  0.17919641372E+03  0.00000000000E+00 0.  1.
          1   -1    0    0  501    0 -0.00000000000E+00 -0.00000000000E+00 -0.15247049760E+03  0.15247049760E+03  0.00000000000E+00 0.  1.
          2    1    1    2  501    0 -0.23053454603E+02 -0.10951345130E+02  0.10394144406E+03  0.10702904990E+03  0.00000000000E+00 0.  1.
          1    1    1    2  502    0 -0.23531903926E+02 -0.35405740630E+02 -0.66435079976E+02  0.78872915651E+02  0.00000000000E+00 0.  1.
         22    1    1    2    0    0 -0.68878351824E+01  0.73775207597E+01  0.52944126608E+02  0.53897593901E+02  0.00000000000E+00 0.  1.
         22    1    1    2    0    0  0.53473193711E+02  0.38979565001E+02 -0.63724574577E+02  0.91867351863E+02  0.00000000000E+00 0.  1.
</event>
<event>
 6    1  0.1383644E-005  0.1095382E+03  0.7818608E-02  0.1374330E+00
          2   -1    0    0  502    0  0.00000000000E+00  0.00000000000E+00  0.29895773190E+03  0.29895773190E+03  0.00000000000E+00 0.  1.
          1   -1    0    0  501    0 -0.00000000000E+00 -0.00000000000E+00 -0.16121448923E+03  0.16121448923E+03  0.00000000000E+00 0.  1.
          2    1    1    2  501    0  0.46180514959E+02  0.29425246487E+02  0.93415261794E+02  0.10828155997E+03  0.00000000000E+00 0.  1.
          1    1    1    2  502    0 -0.91034319197E+02 -0.43053616950E+02 -0.10770157124E+03  0.14744656541E+03  0.00000000000E+00 0.  1.
         22    1    1    2    0    0  0.38320251343E+01 -0.13899157190E+02 -0.20454285117E+02  0.25024962875E+02  0.00000000000E+00 0.  1.
         22    1    1    2    0    0  0.41021779103E+02  0.27527527653E+02  0.17248383723E+03  0.17941913288E+03  0.00000000000E+00 0.  1.
</event>
<event>
 6    1  0.1383644E-005  0.6609483E+02  0.7818608E-02  0.1464809E+00
          2   -1    0    0  502    0  0.00000000000E+00  0.00000000000E+00  0.24144376594E+03  0.24144376594E+03  0.00000000000E+00 0.  1.
          1   -1    0    0  501    0 -0.00000000000E+00 -0.00000000000E+00 -0.15310463654E+03  0.15310463654E+03  0.00000000000E+00 0. -1.
          2    1    1    2  501    0  0.35880428995E+02 -0.21398031443E+02  0.11577986117E+03  0.12308638100E+03  0.00000000000E+00 0.  1.
          1    1    1    2  502    0 -0.55193579876E+02  0.16782598950E+00 -0.10799451208E+03  0.12128138383E+03  0.00000000000E+00 0. -1.
         22    1    1    2    0    0  0.21430700493E+02  0.50871417837E+01  0.11233374715E+03  0.11447281199E+03  0.00000000000E+00 0.  1.
         22    1    1    2    0    0 -0.21175496118E+01  0.16143063669E+02 -0.31779966841E+02  0.35707825661E+02  0.00000000000E+00 0.  1.
</event>
<event>
 6    1  0.1383644E-005  0.3291445E+03  0.7818608E-02  0.1115155E+00
          2   -1    0    0  502    0  0.00000000000E+00  0.00000000000E+00  0.12821433028E+04  0.12821433028E+04  0.00000000000E+00 0.  1.
          1   -1    0    0  501    0 -0.00000000000E+00 -0.00000000000E+00 -0.18421806660E+03  0.18421806660E+03  0.00000000000E+00 0.  1.
          2    1    1    2  501    0 -0.20551282303E+03 -0.24915913451E+03  0.20875363770E+03  0.38456972839E+03  0.00000000000E+00 0.  1.
          1    1    1    2  502    0  0.25666291471E+03  0.18667213779E+03  0.87597951284E+03  0.93169868828E+03  0.00000000000E+00 0.  1.
         22    1    1    2    0    0 -0.22601080561E+02 -0.38082462839E+02  0.10516018616E+02  0.45515595854E+02  0.00000000000E+00 0.  1.
         22    1    1    2    0    0 -0.28549011120E+02  0.10056945955E+03  0.26760670013E+01  0.10457735685E+03  0.00000000000E+00 0.  1.
</event>
<event>
 6    1  0.1383644E-005  0.7344939E+02  0.7818608E-02  0.1383142E+00
          2   -1    0    0  502    0  0.00000000000E+00  0.00000000000E+00  0.25529462554E+03  0.25529462554E+03  0.00000000000E+00 0. -1.
          1   -1    0    0  501    0 -0.00000000000E+00 -0.00000000000E+00 -0.23538479306E+03  0.23538479306E+03  0.00000000000E+00 0. -1.
          2    1    1    2  501    0  0.13132621605E+03  0.10805646147E+03  0.10261497154E+03  0.19862680150E+03  0.00000000000E+00 0. -1.
          1    1    1    2  502    0 -0.11695459625E+03 -0.10721293457E+03 -0.48170965042E+02  0.16581143747E+03  0.00000000000E+00 0. -1.
         22    1    1    2    0    0 -0.30694175827E+02 -0.76562832334E+01 -0.75369831315E+02  0.81739602245E+02  0.00000000000E+00 0. -1.
         22    1    1    2    0    0  0.16322556024E+02  0.68127563328E+01  0.40835657291E+02  0.44501577392E+02  0.00000000000E+00 0.  1.
</event>
<event>
 6    1  0.1383644E-005  0.1538278E+03  0.7818608E-02  0.1251912E+00
          2   -1    0    0  502    0  0.00000000000E+00  0.00000000000E+00  0.50954812688E+02  0.50954812688E+02  0.00000000000E+00 0. -1.
          1   -1    0    0  501    0 -0.00000000000E+00 -0.00000000000E+00 -0.11373134920E+04  0.11373134920E+04  0.00000000000E+00 0. -1.
          2    1    1    2  501    0 -0.50760490279E+02  0.65606604685E+02 -0.94565488914E+02  0.12579143709E+03  0.00000000000E+00 0. -1.
          1    1    1    2  502    0  0.51110264562E+02 -0.13262741314E+03 -0.85074358624E+03  0.86253518153E+03  0.00000000000E+00 0. -1.
         22    1    1    2    0    0  0.41878317805E+02  0.22906581405E+02 -0.12919876231E+03  0.13773461858E+03  0.00000000000E+00 0.  1.
         22    1    1    2    0    0 -0.42228092088E+02  0.44114227046E+02 -0.11850841823E+02  0.62207067454E+02  0.00000000000E+00 0. -1.
</event>
<event>
 6    1  0.1383644E-005  0.2014415E+03  0.7818608E-02  0.1245702E+00
          2   -1    0    0  502    0  0.00000000000E+00  0.00000000000E+00  0.10596282412E+04  0.10596282412E+04  0.00000000000E+00 0.  1.
          1   -1    0    0  501    0 -0.00000000000E+00 -0.00000000000E+00 -0.43760643660E+02  0.43760643660E+02  0.00000000000E+00 0.  1.
          2    1    1    2  501    0  0.51270778328E+02  0.78872250042E+02  0.23299181228E+03  0.25126621167E+03  0.00000000000E+00 0.  1.
          1    1    1    2  502    0 -0.14670516051E+03 -0.10354541032E+03  0.41087980150E+03  0.44840413401E+03  0.00000000000E+00 0.  1.
         22    1    1    2    0    0  0.10227121506E+03  0.15947954054E+01  0.36439357382E+03  0.37847671189E+03  0.00000000000E+00 0.  1.
         22    1    1    2    0    0 -0.68368328772E+01  0.23078364869E+02  0.76024099643E+01  0.25241827313E+02  0.00000000000E+00 0. -1.
</event>
<event>
 6    1  0.1383644E-005  0.9204469E+02  0.7818608E-02  0.1423282E+00
          2   -1    0    0  502    0  0.00000000000E+00  0.00000000000E+00  0.72578583067E+03  0.72578583067E+03  0.00000000000E+00 0.  1.
          1   -1    0    0  501    0 -0.00000000000E+00 -0.00000000000E+00 -0.91532485007E+02  0.91532485007E+02  0.00000000000E+00 0. -1.
          2    1    1    2  501    0 -0.10911431265E+02 -0.59417711607E+02  0.53302365526E+03  0.53643614797E+03  0.00000000000E+00 0.  1.
          1    1    1    2  502    0  0.22554233682E+02  0.80543266702E+02 -0.38568353794E+02  0.92105532854E+02  0.00000000000E+00 0. -1.
         22    1    1    2    0    0 -0.41002379063E+01 -0.29371000792E+02  0.16158879201E+03  0.16428756904E+03  0.00000000000E+00 0. -1.
         22    1    1    2    0    0 -0.75425645106E+01  0.82454456975E+01 -0.21790747810E+02  0.24489065810E+02  0.00000000000E+00 0. -1.
</event>
<event>
 6    1  0.1383644E-005  0.4768226E+02  0.7818608E-02  0.1514888E+00
          2   -1    0    0  502    0  0.00000000000E+00  0.00000000000E+00  0.71871856824E+02  0.71871856824E+02  0.00000000000E+00 0. -1.
          1   -1    0    0  501    0 -0.00000000000E+00 -0.00000000000E+00 -0.13277654287E+03  0.13277654287E+03  0.00000000000E+00 0.  1.
          2    1    1    2  501    0 -0.19379436247E+01 -0.22429460225E+02  0.17892391792E+02  0.28757155553E+02  0.00000000000E+00 0. -1.
          1    1    1    2  502    0 -0.15269443822E+02  0.30695173283E+02 -0.23549234209E+02  0.41592259007E+02  0.00000000000E+00 0.  1.
         22    1    1    2    0    0  0.86598122225E+01  0.19760415808E+02 -0.87852618027E+02  0.90462969633E+02  0.00000000000E+00 0.  1.
         22    1    1    2    0    0  0.85475752246E+01 -0.28026128866E+02  0.32604774398E+02  0.43836015500E+02  0.00000000000E+00 0. -1.
</event>
<event>
 6    1  0.1383644E-005  0.2400082E+03  0.7818608E-02  0.1178821E+00
          2   -1    0    0  502    0  0.00000000000E+00  0.00000000000E+00  0.78868030056E+03  0.78868030056E+03  0.00000000000E+00 0. -1.
          1   -1    0    0  501    0 -0.00000000000E+00 -0.00000000000E+00 -0.19243162708E+03  0.19243162708E+03  0.00000000000E+00 0. -1.
          2    1    1    2  501    0  0.20233518550E+03 -0.80571011148E+02  0.11090499080E+03  0.24439953378E+03  0.00000000000E+00 0. -1.
          1    1    1    2  502    0 -0.16143935700E+03  0.65894861982E+02  0.56150087854E+03  0.58795240915E+03  0.00000000000E+00 0. -1.
         22    1    1    2    0    0 -0.23785061455E+02 -0.41893312191E+02  0.49238660948E+01  0.48425439720E+02  0.00000000000E+00 0. -1.
         22    1    1    2    0    0 -0.17110767042E+02  0.56569461358E+02 -0.81081061964E+02  0.10033454498E+03  0.00000000000E+00 0. -1.
</event>
<event>
 6    1  0.1383644E-005  0.5750551E+02  0.7818608E-02  0.1447405E+00
          2   -1    0    0  502    0  0.00000000000E+00  0.00000000000E+00  0.63400619200E+02  0.63400619200E+02  0.00000000000E+00 0. -1.
          1   -1    0    0  501    0 -0.00000000000E+00 -0.00000000000E+00 -0.64480498178E+03  0.64480498178E+03  0.00000000000E+00 0.  1.
          2    1    1    2  501    0 -0.20008647422E+02 -0.16268133556E+00  0.24950849111E+02  0.31983078467E+02  0.00000000000E+00 0. -1.
          1    1    1    2  502    0  0.51537749462E+02  0.37260765870E+02 -0.49908334193E+03  0.50311895858E+03  0.00000000000E+00 0.  1.
         22    1    1    2    0    0 -0.22855036172E+02 -0.42685126661E+02 -0.13505204122E+03  0.14346925300E+03  0.00000000000E+00 0.  1.
         22    1    1    2    0    0 -0.86740658676E+01  0.55870421265E+01  0.27780171460E+02  0.29634310938E+02  0.00000000000E+00 0. -1.
</event>
<event>
 6    1  0.1383644E-005  0.1921800E+03  0.7818608E-02  0.1190992E+00
          2   -1    0    0  502    0  0.00000000000E+00  0.00000000000E+00  0.12758276969E+03  0.12758276969E+03  0.00000000000E+00 0. -1.
          1   -1    0    0  501    0 -0.00000000000E+00 -0.00000000000E+00 -0.46893757323E+03  0.46893757323E+03  0.00000000000E+00 0. -1.
          2    1    1    2  501    0  0.13505013511E+02 -0.27304015134E+02 -0.48142272323E+02  0.56969930813E+02  0.00000000000E+00 0. -1.
          1    1    1    2  502    0 -0.18116678306E+03  0.12335908970E+03 -0.16837324335E+03  0.27638454619E+03  0.00000000000E+00 0. -1.
         22    1    1    2    0    0  0.15029609537E+03 -0.85380609158E+02 -0.15133160509E+03  0.22973902455E+03  0.00000000000E+00 0. -1.
         22    1    1    2    0    0  0.17365674182E+02 -0.10674465412E+02  0.26492317229E+02  0.33426841367E+02  0.00000000000E+00 0. -1.
</event>
<event>
 6    1  0.1383644E-005  0.5031594E+02  0.7818608E-02  0.1515696E+00
          2   -1    0    0  502    0  0.00000000000E+00  0.00000000000E+00  0.87635247107E+02  0.87635247107E+02  0.00000000000E+00 0.  1.
          1   -1    0    0  501    0 -0.00000000000E+00 -0.00000000000E+00 -0.23329763249E+03  0.23329763249E+03  0.00000000000E+00 0. -1.
          2    1    1    2  501    0  0.29529627790E+02 -0.28796567142E+00  0.33612069482E+02  0.44742072555E+02  0.00000000000E+00 0.  1.
          1    1    1    2  502    0 -0.38555671778E+02 -0.18322617120E+02 -0.13758902641E+03  0.14405900983E+03  0.00000000000E+00 0. -1.
         22    1    1    2    0    0  0.19215207680E+02  0.35753116652E+01  0.42091868789E+02  0.46408323368E+02  0.00000000000E+00 0.  1.
         22    1    1    2    0    0 -0.10189163692E+02  0.15035271126E+02 -0.83777297243E+02  0.85723473845E+02  0.00000000000E+00 0. -1.
</event>
<event>
 6    1  0.1383644E-005  0.1843503E+03  0.7818608E-02  0.1259808E+00
          2   -1    0    0  502    0  0.00000000000E+00  0.00000000000E+00  0.13417373534E+04  0.13417373534E+04  0.00000000000E+00 0. -1.
          1   -1    0    0  501    0 -0.00000000000E+00 -0.00000000000E+00 -0.12920537435E+03  0.12920537435E+03  0.00000000000E+00 0. -1.
          2    1    1    2  501    0  0.21983061543E+03 -0.15233881930E+03  0.20830888080E+03  0.33900620225E+03  0.00000000000E+00 0. -1.
          1    1    1    2  502    0 -0.23996507825E+03  0.25702525456E+03  0.73253372229E+03  0.81255822841E+03  0.00000000000E+00 0. -1.
         22    1    1    2    0    0  0.44924879942E+01  0.14619438622E+02 -0.62412623771E+01  0.16518589227E+02  0.00000000000E+00 0.  1.
         22    1    1    2    0    0  0.15641974831E+02 -0.11930587388E+03  0.27793063835E+03  0.30285970787E+03  0.00000000000E+00 0. -1.
</event>
<event>
 6    1  0.1383644E-005  0.7353811E+02  0.7818608E-02  0.1440315E+00
          2   -1    0    0  502    0  0.00000000000E+00  0.00000000000E+00  0.19781430660E+03  0.19781430660E+03  0.00000000000E+00 0.  1.
          1   -1    0    0  501    0 -0.00000000000E+00 -0.00000000000E+00 -0.72052580603E+02  0.72052580603E+02  0.00000000000E+00 0.  1.
          2    1    1    2  501    0  0.33781252279E+02  0.11457053228E+02  0.75568004565E+02  0.83564109450E+02  0.00000000000E+00 0.  1.
          1    1    1    2  502    0 -0.13145382406E+02 -0.32422263865E+02 -0.18971864196E+02  0.39798692237E+02  0.00000000000E+00 0.  1.
         22    1    1    2    0    0 -0.54935314777E+01 -0.16021426284E+02 -0.32838929519E+02  0.36949428686E+02  0.00000000000E+00 0.  1.
         22    1    1    2    0    0 -0.15142338396E+02  0.36986636920E+02  0.10200451515E+03  0.10955465683E+03  0.00000000000E+00 0.  1.
</event>
<event>
 6    1  0.1383644E-005  0.5239045E+02  0.7818608E-02  0.1496194E+00
          2   -1    0    0  502    0  0.00000000000E+00  0.00000000000E+00  0.21164169161E+03  0.21164169161E+03  0.00000000000E+00 0. -1.
          1   -1    0    0  501    0 -0.00000000000E+00 -0.00000000000E+00 -0.32690365298E+03  0.32690365298E+03  0.00000000000E+00 0. -1.
          2    1    1    2  501    0 -0.14559362807E+02 -0.22734621136E+02  0.82215007814E+02  0.86534071633E+02  0.00000000000E+00 0. -1.
          1    1    1    2  502    0  0.37109907399E+02  0.41944524840E+02 -0.29021270182E+03  0.29556708323E+03  0.00000000000E+00 0. -1.
         22    1    1    2    0    0 -0.20670612269E+01 -0.23788897273E+02  0.11982164184E+03  0.12217778124E+03  0.00000000000E+00 0.  1.
         22    1    1    2    0    0 -0.20483483365E+02  0.45789935684E+01 -0.27085909209E+02  0.34266408486E+02  0.00000000000E+00 0. -1.
</event>
<event>
 6    1  0.1383644E-005  0.1199860E+03  0.7818608E-02  0.1296152E+00
          2   -1    0    0  502    0  0.00000000000E+00  0.00000000000E+00  0.15607201907E+04  0.15607201907E+04  0.00000000000E+00 0. -1.
          1   -1    0    0  501    0 -0.00000000000E+00 -0.00000000000E+00 -0.30419308340E+02  0.30419308340E+02  0.00000000000E+00 0. -1.
          2    1    1    2  501    0  0.27949279951E+02  0.60994558361E+01  0.42145499824E+02  0.50937302311E+02  0.00000000000E+00 0. -1.
          1    1    1    2  502    0 -0.10011649380E+03 -0.49977313270E+02  0.12626414451E+04  0.12675900217E+04  0.00000000000E+00 0. -1.
         22    1    1    2    0    0  0.18575379458E+02 -0.38757970581E+02  0.12370365483E+03  0.13095731833E+03  0.00000000000E+00 0.  1.
         22    1    1    2    0    0  0.53591834394E+02  0.82635828015E+02  0.10181028256E+03  0.14165485668E+03  0.00000000000E+00 0. -1.
</event>
<event>
 6    1  0.1383644E-005  0.2927493E+02  0.7818608E-02  0.1642375E+00
          2   -1    0    0  502    0  0.00000000000E+00  0.00000000000E+00  0.38384104793E+03  0.38384104793E+03  0.00000000000E+00 0.  1.
          1   -1    0    0  501    0 -0.00000000000E+00 -0.00000000000E+00 -0.28073144808E+02  0.28073144808E+02  0.00000000000E+00 0.  1.
          2    1    1    2  501    0 -0.34210010550E+02  0.19485754597E+02  0.96652511313E+02  0.10436343899E+03  0.00000000000E+00 0.  1.
          1    1    1    2  502    0  0.17026442640E+02 -0.21639438029E+02  0.10471940719E+03  0.10827889577E+03  0.00000000000E+00 0.  1.
         22    1    1    2    0    0  0.21803728961E+02  0.18796264085E+02  0.17212772461E+03  0.17451835354E+03  0.00000000000E+00 0.  1.
         22    1    1    2    0    0 -0.46201610505E+01 -0.16642580654E+02 -0.17731739996E+02  0.24753504443E+02  0.00000000000E+00 0.  1.
</event>
<event>
 6    1  0.1383644E-005  0.3885248E+02  0.7818608E-02  0.1596840E+00
          2   -1    0    0  502    0  0.00000000000E+00  0.00000000000E+00  0.22858709306E+03  0.22858709306E+03  0.00000000000E+00 0.  1.
          1   -1    0    0  501    0 -0.00000000000E+00 -0.00000000000E+00 -0.74189048037E+02  0.74189048037E+02  0.00000000000E+00 0.  1.
          2    1    1    2  501    0 -0.14144899210E+02  0.18439141736E+02  0.14100651621E+03  0.14290877417E+03  0.00000000000E+00 0.  1.
          1    1    1    2  502    0  0.69876426449E+01 -0.35174494418E+02  0.29647944895E+01  0.35984193942E+02  0.00000000000E+00 0.  1.
         22    1    1    2    0    0 -0.65999776685E+01  0.14028966959E+02  0.65367804074E+02  0.67181258016E+02  0.00000000000E+00 0.  1.
         22    1    1    2    0    0  0.13757234233E+02  0.27063857231E+01 -0.54941069742E+02  0.56701914975E+02  0.00000000000E+00 0.  1.
</event>
<event>
 6    1  0.1383644E-005  0.3725561E+02  0.7818608E-02  0.1590311E+00
          2   -1    0    0  502    0  0.00000000000E+00  0.00000000000E+00  0.36461196244E+03  0.36461196244E+03  0.00000000000E+00 0.  1.
          1   -1    0    0  501    0 -0.00000000000E+00 -0.00000000000E+00 -0.12202670496E+03  0.12202670496E+03  0.00000000000E+00 0. -1.
          2    1    1    2  501    0  0.14991075522E+02  0.46287916699E+02  0.30985161567E+03  0.31364841353E+03  0.00000000000E+00 0.  1.
          1    1    1    2  502    0 -0.10050521886E+02 -0.27040104225E+02 -0.15178635040E+02  0.32597103988E+02  0.00000000000E+00 0. -1.
         22    1    1    2    0    0  0.12357327325E+02  0.14666290708E+01  0.41326176990E+02  0.43159094569E+02  0.00000000000E+00 0.  1.
         22    1    1    2    0    0 -0.17297880960E+02 -0.20714441545E+02 -0.93413900138E+02  0.97234055316E+02  0.00000000000E+00 0.  1.
</event>
<event>
 6    1  0.1383644E-005  0.1272511E+03  0.7818608E-02  0.1265964E+00
          2   -1    0    0  502    0  0.00000000000E+00  0.00000000000E+00  0.89465346909E+03  0.89465346909E+03  0.00000000000E+00 0.  1.
          1   -1    0    0  501    0 -0.00000000000E+00 -0.00000000000E+00 -0.95410604147E+02  0.95410604147E+02  0.00000000000E+00 0. -1.
          2    1    1    2  501    0 -0.13907787592E+03  0.14738248849E+03  0.35629281705E+03  0.40988879586E+03  0.00000000000E+00 0.  1.
          1    1    1    2  502    0  0.12759778761E+03 -0.19732360486E+03  0.25800424522E+03  0.34897563094E+03  0.00000000000E+00 0. -1.
         22    1    1    2    0    0 -0.35510474444E+02 -0.11366743441E+02  0.80081112009E+01  0.38135632900E+02  0.00000000000E+00 0.  1.
         22    1    1    2    0    0  0.46990562750E+02  0.61307859807E+02  0.17693769147E+03  0.19306401354E+03  0.00000000000E+00 0.  1.
</event>
<event>
 6    1  0.1383644E-005  0.3428149E+03  0.7818608E-02  0.1127210E+00
          2   -1    0    0  502    0  0.00000000000E+00  0.00000000000E+00  0.15970926099E+04  0.15970926099E+04  0.00000000000E+00 0. -1.
          1   -1    0    0  501    0 -0.00000000000E+00 -0.00000000000E+00 -0.10077595458E+04  0.10077595458E+04  0.00000000000E+00 0. -1.
          2    1    1    2  501    0 -0.79561525868E+03 -0.83130590606E+03  0.60567884883E+03  0.13003538046E+04  0.00000000000E+00 0. -1.
          1    1    1    2  502    0  0.85453302205E+03  0.72316834286E+03 -0.63876437643E+02  0.11212846816E+04  0.00000000000E+00 0. -1.
         22    1    1    2    0    0 -0.12661972109E+02  0.16309236362E+02  0.74176631294E+02  0.76996684075E+02  0.00000000000E+00 0. -1.
         22    1    1    2    0    0 -0.46255791262E+02  0.91828326837E+02 -0.26645978386E+02  0.10621698546E+03  0.00000000000E+00 0. -1.
</event>
<event>
 6    1  0.1383644E-005  0.1210485E+03  0.7818608E-02  0.1289398E+00
          2   -1    0    0  502    0  0.00000000000E+00  0.00000000000E+00  0.36145736767E+03  0.36145736767E+03  0.00000000000E+00 0. -1.
          1   -1    0    0  501    0 -0.00000000000E+00 -0.00000000000E+00 -0.85753092964E+02  0.85753092964E+02  0.00000000000E+00 0. -1.
          2    1    1    2  501    0 -0.45351025999E+02  0.46042229570E+02  0.10366885637E+03  0.12216314601E+03  0.00000000000E+00 0. -1.
          1    1    1    2  502    0  0.10504199662E+03 -0.74139427703E+02  0.12135567079E+03  0.17679840109E+03  0.00000000000E+00 0. -1.
         22    1    1    2    0    0 -0.42018665516E+02 -0.22099186666E+02 -0.26599094573E+02  0.54419244162E+02  0.00000000000E+00 0.  1.
         22    1    1    2    0    0 -0.17672305109E+02  0.50196384799E+02  0.77278842122E+02  0.93829669372E+02  0.00000000000E+00 0. -1.
</event>
<event>
 6    1  0.1383644E-005  0.9422822E+02  0.7818608E-02  0.1365589E+00
          2   -1    0    0  502    0  0.00000000000E+00  0.00000000000E+00  0.27895839997E+03  0.27895839997E+03  0.00000000000E+00 0.  1.
          1   -1    0    0  501    0 -0.00000000000E+00 -0.00000000000E+00 -0.38450109006E+02  0.38450109006E+02  0.00000000000E+00 0.  1.
          2    1    1    2  501    0 -0.15327492378E+02 -0.16600586868E+02  0.60658861822E+01  0.23394582324E+02  0.00000000000E+00 0.  1.
          1    1    1    2  502    0  0.50215585606E+02 -0.42717996280E+01  0.62184359112E+02  0.80042162814E+02  0.00000000000E+00 0.  1.
         22    1    1    2    0    0  0.25415514162E+02  0.62636616045E+01 -0.45714477605E+01  0.26572164975E+02  0.00000000000E+00 0.  1.
         22    1    1    2    0    0 -0.60303607390E+02  0.14608724891E+02  0.17682949343E+03  0.18739959886E+03  0.00000000000E+00 0.  1.
</event>
<event>
 6    1  0.1383644E-005  0.3914435E+03  0.7818608E-02  0.1188025E+00
          2   -1    0    0  502    0  0.00000000000E+00  0.00000000000E+00  0.99586614307E+03  0.99586614307E+03  0.00000000000E+00 0.  1.
          1   -1    0    0  501    0 -0.00000000000E+00 -0.00000000000E+00 -0.13982570817E+03  0.13982570817E+03  0.00000000000E+00 0.  1.
          2    1    1    2  501    0 -0.10837470796E+03 -0.92050000338E+01  0.37315244953E+02  0.11498798571E+03  0.00000000000E+00 0.  1.
          1    1    1    2  502    0  0.25760258896E+03 -0.19650053977E+03  0.46292027272E+03  0.56503693230E+03  0.00000000000E+00 0.  1.
         22    1    1    2    0    0 -0.60238665150E+01 -0.93113624947E+01 -0.47907358136E+01  0.12080545887E+02  0.00000000000E+00 0.  1.
         22    1    1    2    0    0 -0.14320401448E+03  0.21501690230E+03  0.36059565305E+03  0.44358638734E+03  0.00000000000E+00 0.  1.
</event>
<event>
 6    1  0.1383644E-005  0.9572933E+02  0.7818608E-02  0.1340747E+00
          2   -1    0    0  502    0  0.00000000000E+00  0.00000000000E+00  0.13026062519E+03  0.13026062519E+03  0.00000000000E+00 0.  1.
          1   -1    0    0  501    0 -0.00000000000E+00 -0.00000000000E+00 -0.22898089461E+03  0.22898089461E+03  0.00000000000E+00 0.  1.
          2    1    1    2  501    0  0.61944994972E+02 -0.42955070976E+02  0.44959694650E+02  0.87770693672E+02  0.00000000000E+00 0.  1.
          1    1    1    2  502    0 -0.67205383998E+02  0.35932991972E+02  0.49766136984E+01  0.76370872945E+02  0.00000000000E+00 0.  1.
         22    1    1    2    0    0 -0.19270520660E+02  0.32827320019E+02 -0.15441074933E+03  0.15903353550E+03  0.00000000000E+00 0.  1.
         22    1    1    2    0    0  0.24530909687E+02 -0.25805241015E+02  0.57541715591E+01  0.36066417679E+02  0.00000000000E+00 0.  1.
</event>
<event>
 6    1  0.1383644E-005  0.2045697E+03  0.7818608E-02  0.1209967E+00
          2   -1    0    0  502    0  0.00000000000E+00  0.00000000000E+00  0.69620606981E+03  0.69620606981E+03  0.00000000000E+00 0. -1.
          1   -1    0    0  501    0 -0.00000000000E+00 -0.00000000000E+00 -0.10562763885E+03  0.10562763885E+03  0.00000000000E+00 0. -1.
          2    1    1    2  501    0 -0.71342270321E+02 -0.11964147536E+02 -0.15419661687E+02  0.73963682489E+02  0.00000000000E+00 0. -1.
          1    1    1    2  502    0  0.59406407086E+01 -0.76819751569E+02  0.54655123024E+03  0.55195544451E+03  0.00000000000E+00 0. -1.
         22    1    1    2    0    0 -0.33049669204E+02  0.35089317081E+02 -0.16072865736E+01  0.48229909577E+02  0.00000000000E+00 0.  1.
         22    1    1    2    0    0  0.98451298817E+02  0.53694582025E+02  0.61054148984E+02  0.12768467209E+03  0.00000000000E+00 0. -1.
</event>
<event>
 6    1  0.1383644E-005  0.4995910E+02  0.7818608E-02  0.1496956E+00
          2   -1    0    0  502    0  0.00000000000E+00  0.00000000000E+00  0.13031757047E+03  0.13031757047E+03  0.00000000000E+00 0.  1.
          1   -1    0    0  501    0 -0.00000000000E+00 -0.00000000000E+00 -0.27763826967E+03  0.27763826967E+03  0.00000000000E+00 0. -1.
          2    1    1    2  501    0 -0.83874670904E+01 -0.69533339433E+02  0.75761217983E+02  0.10317459497E+03  0.00000000000E+00 0.  1.
          1    1    1    2  502    0 -0.11652038315E+02  0.48372322752E+02 -0.15424939336E+03  0.16207568280E+03  0.00000000000E+00 0. -1.
         22    1    1    2    0    0  0.39948431484E+02  0.17240977428E+02  0.22613268751E+02  0.49035583042E+02  0.00000000000E+00 0.  1.
         22    1    1    2    0    0 -0.19908926078E+02  0.39200392528E+01 -0.91445792584E+02  0.93669979324E+02  0.00000000000E+00 0. -1.
</event>
<event>
 6    1  0.1383644E-005  0.6769234E+02  0.7818608E-02  0.1441399E+00
          2   -1    0    0  502    0  0.00000000000E+00  0.00000000000E+00  0.17081207140E+03  0.17081207140E+03  0.00000000000E+00 0.  1.
          1   -1    0    0  501    0 -0.00000000000E+00 -0.00000000000E+00 -0.48502436962E+03  0.48502436962E+03  0.00000000000E+00 0. -1.
          2    1    1    2  501    0  0.49715785821E+02 -0.43926556196E+02  0.11345931192E+03  0.13143141618E+03  0.00000000000E+00 0.  1.
          1    1    1    2  502    0  0.17098608496E+02  0.88184619173E+02 -0.33887928583E+03  0.35058245797E+03  0.00000000000E+00 0. -1.
         22    1    1    2    0    0 -0.76071495573E+01 -0.19146581273E+02 -0.10540466405E+03  0.10739927142E+03  0.00000000000E+00 0. -1.
         22    1    1    2    0    0 -0.59207244760E+02 -0.25111481703E+02  0.16612339749E+02  0.66423295442E+02  0.00000000000E+00 0.  1.
</event>
<event>
 6    1  0.1383644E-005  0.2152321E+03  0.7818608E-02  0.1137940E+00
          2   -1    0    0  502    0  0.00000000000E+00  0.00000000000E+00  0.86502088039E+03  0.86502088039E+03  0.00000000000E+00 0. -1.
          1   -1    0    0  501    0 -0.00000000000E+00 -0.00000000000E+00 -0.37723302720E+03  0.37723302720E+03  0.00000000000E+00 0.  1.
          2    1    1    2  501    0  0.93433805261E+02 -0.12613927900E+03  0.57783158495E+03  0.59877402602E+03  0.00000000000E+00 0. -1.
          1    1    1    2  502    0 -0.87045254084E+02  0.18257318181E+03 -0.31942365015E+03  0.37807580093E+03  0.00000000000E+00 0.  1.
         22    1    1    2    0    0 -0.10325926984E+02  0.13699892631E+01 -0.12735582658E+02  0.16452863103E+02  0.00000000000E+00 0. -1.
         22    1    1    2    0    0  0.39373758069E+01 -0.57803892069E+02  0.24211550105E+03  0.24895121754E+03  0.00000000000E+00 0.  1.
</event>
<event>
 6    1  0.1383644E-005  0.2122721E+03  0.7818608E-02  0.1239548E+00
          2   -1    0    0  502    0  0.00000000000E+00  0.00000000000E+00  0.84465096432E+02  0.84465096432E+02  0.00000000000E+00 0. -1.
          1   -1    0    0  501    0 -0.00000000000E+00 -0.00000000000E+00 -0.54916283968E+03  0.54916283968E+03  0.00000000000E+00 0.  1.
          2    1    1    2  501    0  0.19576586585E+02 -0.28587124462E+02 -0.87209901761E+02  0.93840467776E+02  0.00000000000E+00 0. -1.
          1    1    1    2  502    0  0.40427384992E+02  0.15104740614E+03 -0.30200620212E+03  0.34008445786E+03  0.00000000000E+00 0.  1.
         22    1    1    2    0    0 -0.83131477344E+02 -0.12525767922E+03 -0.37164286621E+02  0.15485965559E+03  0.00000000000E+00 0. -1.
         22    1    1    2    0    0  0.23127505768E+02  0.27973975436E+01 -0.38317352754E+02  0.44843354894E+02  0.00000000000E+00 0.  1.
</event>
<event>
 6    1  0.1383644E-005  0.1474763E+03  0.7818608E-02  0.1260634E+00
          2   -1    0    0  502    0  0.00000000000E+00  0.00000000000E+00  0.37739509195E+03  0.37739509195E+03  0.00000000000E+00 0. -1.
          1   -1    0    0  501    0 -0.00000000000E+00 -0.00000000000E+00 -0.39341966537E+02  0.39341966537E+02  0.00000000000E+00 0. -1.
          2    1    1    2  501    0  0.30188398129E+02  0.22716607572E+02 -0.13249147495E+01  0.37803955352E+02  0.00000000000E+00 0. -1.
          1    1    1    2  502    0 -0.29156803044E+02  0.18769561894E+02  0.39320654768E+02  0.52426419951E+02  0.00000000000E+00 0. -1.
         22    1    1    2    0    0  0.44290040784E+02 -0.46416610030E+02  0.25291894689E+03  0.26092930670E+03  0.00000000000E+00 0.  1.
         22    1    1    2    0    0 -0.45321635868E+02  0.49304405643E+01  0.47138438509E+02  0.65577376487E+02  0.00000000000E+00 0. -1.
</event>
<event>
 6    1  0.1383644E-005  0.1630361E+03  0.7818608E-02  0.1318272E+00
          2   -1    0    0  502    0  0.00000000000E+00  0.00000000000E+00  0.36657620246E+03  0.36657620246E+03  0.00000000000E+00 0.  1.
          1   -1    0    0  501    0 -0.00000000000E+00 -0.00000000000E+00 -0.11723976021E+03  0.11723976021E+03  0.00000000000E+00 0.  1.
          2    1    1    2  501    0 -0.62906816030E+02 -0.62041350901E+02  0.94106138433E+02  0.12908277195E+03  0.00000000000E+00 0.  1.
          1    1    1    2  502    0  0.12057865894E+03  0.10783528071E+03  0.31913643098E+02  0.16488220454E+03  0.00000000000E+00 0.  1.
         22    1    1    2    0    0 -0.53987626069E+02 -0.34956309422E+02  0.14869604833E+03  0.16200963590E+03  0.00000000000E+00 0.  1.
         22    1    1    2    0    0 -0.36842168369E+01 -0.10837620391E+02 -0.25379387614E+02  0.27841350274E+02  0.00000000000E+00 0.  1.
</event>
<event>
 6    1  0.1383644E-005  0.1214015E+03  0.7818608E-02  0.1242935E+00
          2   -1    0    0  502    0  0.00000000000E+00  0.00000000000E+00  0.13405250779E+04  0.13405250779E+04  0.00000000000E+00 0. -1.
          1   -1    0    0  501    0 -0.00000000000E+00 -0.00000000000E+00 -0.18168861879E+03  0.18168861879E+03  0.00000000000E+00 0. -1.
          2    1    1    2  501    0  0.28498112881E+02  0.36658930268E+03  0.27911839606E+03  0.46163507048E+03  0.00000000000E+00 0. -1.
          1    1    1    2  502    0 -0.20772112545E+02 -0.39617801418E+03  0.83720595148E+03  0.92644606145E+03  0.00000000000E+00 0. -1.
         22    1    1    2    0    0  0.30506385909E+02  0.21408071274E+02  0.74705858731E+02  0.83485989397E+02  0.00000000000E+00 0.  1.
         22    1    1    2    0    0 -0.38232386246E+02  0.81806402205E+01 -0.32193747200E+02  0.50646575316E+02  0.00000000000E+00 0.  1.
</event>
<event>
 6    1  0.1383644E-005  0.7031133E+02  0.7818608E-02  0.1431227E+00
          2   -1    0    0  502    0  0.00000000000E+00  0.00000000000E+00  0.20674414573E+03  0.20674414573E+03  0.00000000000E+00 0. -1.
          1   -1    0    0  501    0 -0.00000000000E+00 -0.00000000000E+00 -0.46519188749E+02  0.46519188749E+02  0.00000000000E+00 0.  1.
          2    1    1    2  501    0  0.27865173777E+02 -0.69610163434E+01  0.26994913312E+02  0.39416354510E+02  0.00000000000E+00 0. -1.
          1    1    1    2  502    0 -0.28647803243E+02  0.22901257808E+02  0.44020212818E+02  0.57296975281E+02  0.00000000000E+00 0.  1.
         22    1    1    2    0    0 -0.99863960701E+01 -0.35370179556E+02  0.11603742428E+03  0.12171878056E+03  0.00000000000E+00 0.  1.
         22    1    1    2    0    0  0.10769025536E+02  0.19429938092E+02 -0.26827593425E+02  0.34831224128E+02  0.00000000000E+00 0.  1.
</event>
<event>
 6    1  0.1383644E-005  0.6381836E+02  0.7818608E-02  0.1467474E+00
          2   -1    0    0  502    0  0.00000000000E+00  0.00000000000E+00  0.19369556784E+03  0.19369556784E+03  0.00000000000E+00 0.  1.
          1   -1    0    0  501    0 -0.00000000000E+00 -0.00000000000E+00 -0.15153776955E+03  0.15153776955E+03  0.00000000000E+00 0.  1.
          2    1    1    2  501    0 -0.63945497230E+02 -0.59824516528E+02 -0.36538578613E+02  0.94884493574E+02  0.00000000000E+00 0.  1.
          1    1    1    2  502    0  0.95047749223E+02  0.37166524776E+02  0.67980411279E+02  0.12262447355E+03  0.00000000000E+00 0.  1.
         22    1    1    2    0    0 -0.44224118124E+02  0.21648155623E+02  0.59479872397E+02  0.77215739885E+02  0.00000000000E+00 0.  1.
         22    1    1    2    0    0  0.13121866131E+02  0.10098361292E+01 -0.48763906771E+02  0.50508630385E+02  0.00000000000E+00 0. -1.
</event>
<event>
 6    1  0.1383644E-005  0.2367602E+02  0.7818608E-02  0.1698615E+00
          2   -1    0    0  502    0  0.00000000000E+00  0.00000000000E+00  0.13825970553E+03  0.13825970553E+03  0.00000000000E+00 0. -1.
          1   -1    0    0  501    0 -0.00000000000E+00 -0.00000000000E+00 -0.22543233031E+03  0.22543233031E+03  0.00000000000E+00 0.  1.
          2    1    1    2  501    0  0.26169057864E+02 -0.30945703808E+02  0.93938634349E+02  0.10230798208E+03  0.00000000000E+00 0. -1.
          1    1    1    2  502    0 -0.39074881366E+01  0.23223146276E+02 -0.10986040642E+03  0.11235609412E+03  0.00000000000E+00 0.  1.
         22    1    1    2    0    0 -0.33095962149E+01  0.17098763309E+02  0.35851744009E+02  0.39858106858E+02  0.00000000000E+00 0.  1.
         22    1    1    2    0    0 -0.18951973512E+02 -0.93762057773E+01 -0.10710259671E+03  0.10916985279E+03  0.00000000000E+00 0. -1.
</event>
<event>
 6    1  0.1383644E-005  0.4210534E+02  0.7818608E-02  0.1596374E+00
          2   -1    0    0  502    0  0.00000000000E+00  0.00000000000E+00  0.53622839807E+03  0.53622839807E+03  0.00000000000E+00 0.  1.
          1   -1    0    0  501    0 -0.00000000000E+00 -0.00000000000E+00 -0.13951053010E+03  0.13951053010E+03  0.00000000000E+00 0. -1.
          2    1    1    2  501    0  0.16770678500E+02  0.24737718004E+02  0.47249426889E+03  0.47343853295E+03  0.00000000000E+00 0.  1.
          1    1    1    2  502    0 -0.98592843984E+01 -0.22443553965E+02 -0.73337434409E+02  0.77325919904E+02  0.00000000000E+00 0. -1.
         22    1    1    2    0    0  0.65654320483E+01  0.89230012328E+01  0.59540581276E+02  0.60562411343E+02  0.00000000000E+00 0.  1.
         22    1    1    2    0    0 -0.13476826150E+02 -0.11217165272E+02 -0.61979547788E+02  0.64412063962E+02  0.00000000000E+00 0. -1.
</event>
<event>
 6    1  0.1383644E-005  0.1828939E+03  0.7818608E-02  0.1165775E+00
          2   -1    0    0  502    0  0.00000000000E+00  0.00000000000E+00  0.38182433490E+03  0.38182433490E+03  0.00000000000E+00 0.  1.
          1   -1    0    0  501    0 -0.00000000000E+00 -0.00000000000E+00 -0.41380266494E+03  0.41380266494E+03  0.00000000000E+00 0. -1.
          2    1    1    2  501    0 -0.10882845315E+03 -0.87551813233E+02  0.23456396474E+03  0.27300037687E+03  0.00000000000E+00 0.  1.
          1    1    1    2  502    0  0.98722043487E+02  0.11036363961E+03 -0.34600131616E+03  0.37635499944E+03  0.00000000000E+00 0. -1.
         22    1    1    2    0    0  0.25043628870E+02  0.10986079736E+02 -0.24016636029E+02  0.36396100081E+02  0.00000000000E+00 0. -1.
         22    1    1    2    0    0 -0.14937219202E+02 -0.33797906115E+02  0.10347565742E+03  0.10987552345E+03  0.00000000000E+00 0. -1.
</event>
<event>
 6    1  0.1383644E-005  0.5601765E+02  0.7818608E-02  0.1509514E+00
          2   -1    0    0  502    0  0.00000000000E+00  0.00000000000E+00  0.38673480450E+03  0.38673480450E+03  0.00000000000E+00 0. -1.
          1   -1    0    0  501    0 -0.00000000000E+00 -0.00000000000E+00 -0.43775736333E+02  0.43775736333E+02  0.00000000000E+00 0. -1.
          2    1    1    2  501    0  0.24315722415E+02  0.23673313929E+02  0.19720780014E+03  0.20010646313E+03  0.00000000000E+00 0. -1.
          1    1    1    2  502    0 -0.35363968252E+02 -0.26516782113E+02  0.65446668372E+02  0.78974783223E+02  0.00000000000E+00 0. -1.
         22    1    1    2    0    0  0.23714114063E+02 -0.38123582786E+01  0.11311387715E+03  0.11563581835E+03  0.00000000000E+00 0. -1.
         22    1    1    2    0    0 -0.12665868226E+02  0.66558264619E+01 -0.32809277497E+02  0.35793476133E+02  0.00000000000E+00 0.  1.
</event>
<event>
 6    1  0.1383644E-005  0.8200344E+02  0.7818608E-02  0.1382569E+00
          2   -1    0    0  502    0  0.00000000000E+00  0.00000000000E+00  0.62347389352E+02  0.62347389352E+02  0.00000000000E+00 0.  1.
          1   -1    0    0  501    0 -0.00000000000E+00 -0.00000000000E+00 -0.46853691148E+03  0.46853691148E+03  0.00000000000E+00 0.  1.
          2    1    1    2  501    0  0.34909148193E+02 -0.44501401301E+02 -0.55846755485E+01  0.56834953561E+02  0.00000000000E+00 0.  1.
          1    1    1    2  502    0 -0.34291183026E+02  0.50378891030E+02 -0.32767053146E+03  0.33328950641E+03  0.00000000000E+00 0.  1.
         22    1    1    2    0    0 -0.30298308600E+01  0.24058915750E+02 -0.98424440478E+02  0.10136755786E+03  0.00000000000E+00 0. -1.
         22    1    1    2    0    0  0.24118656926E+01 -0.29936405479E+02  0.25490125363E+02  0.39392283003E+02  0.00000000000E+00 0. -1.
</event>
<event>
 6    1  0.1383644E-005  0.5629781E+02  0.7818608E-02  0.1429842E+00
          2   -1    0    0  502    0  0.00000000000E+00  0.00000000000E+00  0.60958221051E+02  0.60958221051E+02  0.00000000000E+00 0. -1.
          1   -1    0    0  501    0 -0.00000000000E+00 -0.00000000000E+00 -0.21123936924E+03  0.21123936924E+03  0.00000000000E+00 0. -1.
          2    1    1    2  501    0  0.76069272020E+01  0.33165405203E+02  0.11894036243E+02  0.36045492671E+02  0.00000000000E+00 0. -1.
          1    1    1    2  502    0 -0.38026791925E+02 -0.18296813437E+02 -0.21518925572E+02  0.47369551865E+02  0.00000000000E+00 0. -1.
         22    1    1    2    0    0  0.21830595240E+02  0.28481975078E+02  0.53066079960E+01  0.36276133770E+02  0.00000000000E+00 0. -1.
         22    1    1    2    0    0  0.85892694835E+01 -0.43350566844E+02 -0.14596286685E+03  0.15250641198E+03  0.00000000000E+00 0. -1.
</event>
<event>
 6    1  0.1383644E-005  0.7227861E+02  0.7818608E-02  0.1444187E+00
          2   -1    0    0  502    0  0.00000000000E+00  0.00000000000E+00  0.21057822060E+03  0.21057822060E+03  0.00000000000E+00 0. -1.
          1   -1    0    0  501    0 -0.00000000000E+00 -0.00000000000E+00 -0.10483055080E+03  0.10483055080E+03  0.00000000000E+00 0. -1.
          2    1    1    2  501    0 -0.51859198032E+02 -0.55761567330E+01  0.99131446291E+02  0.11201568456E+03  0.00000000000E+00 0. -1.
          1    1    1    2  502    0  0.77582040552E+02  0.13859673612E+02  0.79474730148E+01  0.79210011338E+02  0.00000000000E+00 0. -1.
         22    1    1    2    0    0 -0.10609177380E+02 -0.13075473470E+02 -0.60566017690E+02  0.62863066661E+02  0.00000000000E+00 0.  1.
         22    1    1    2    0    0 -0.15113665140E+02  0.47919565916E+01  0.59234768182E+02  0.61320008834E+02  0.00000000000E+00 0. -1.
</event>
<event>
 6    1  0.1383644E-005  0.8800127E+02  0.7818608E-02  0.1437938E+00
          2   -1    0    0  502    0  0.00000000000E+00  0.00000000000E+00  0.35379319899E+03  0.35379319899E+03  0.00000000000E+00 0. -1.
          1   -1    0    0  501    0 -0.00000000000E+00 -0.00000000000E+00 -0.66743719013E+02  0.66743719013E+02  0.00000000000E+00 0. -1.
          2    1    1    2  501    0 -0.65630509702E+02 -0.17963774167E+02  0.17583616116E+03  0.18854287724E+03  0.00000000000E+00 0. -1.
          1    1    1    2  502    0  0.73185265332E+02  0.21043196514E+02  0.44970946923E+02  0.88438030555E+02  0.00000000000E+00 0. -1.
         22    1    1    2    0    0  0.99821159336E+01 -0.22896454631E+01 -0.37225977827E+02  0.38609047386E+02  0.00000000000E+00 0. -1.
         22    1    1    2    0    0 -0.17536871563E+02 -0.78977688408E+00  0.10346834972E+03  0.10494696282E+03  0.00000000000E+00 0. -1.
</event>
<event>
 6    1  0.1383644E-005  0.4133076E+03  0.7818608E-02  0.1167097E+00
          2   -1    0    0  502    0  0.00000000000E+00  0.00000000000E+00  0.51546093771E+03  0.51546093771E+03  0.00000000000E+00 0.  1.
          1   -1    0    0  501    0 -0.00000000000E+00 -0.00000000000E+00 -0.43295005007E+03  0.43295005007E+03  0.00000000000E+00 0.  1.
          2    1    1    2  501    0 -0.13946294704E+03 -0.28596814352E+03  0.18583024118E+03  0.36845701410E+03  0.00000000000E+00 0.  1.
          1    1    1    2  502    0  0.20392372997E+03  0.36025985635E+03 -0.89088095457E+02  0.42344862793E+03  0.00000000000E+00 0.  1.
         22    1    1    2    0    0 -0.69048745616E+02 -0.59893117167E+02  0.40317496172E+02  0.99902028271E+02  0.00000000000E+00 0. -1.
         22    1    1    2    0    0  0.45879626922E+01 -0.14398595667E+02 -0.54548754257E+02  0.56603317480E+02  0.00000000000E+00 0. -1.
</event>
<event>
 6    1  0.1383644E-005  0.9392921E+02  0.7818608E-02  0.1356603E+00
          2   -1    0    0  502    0  0.00000000000E+00  0.00000000000E+00  0.43588062047E+02  0.43588062047E+02  0.00000000000E+00 0.  1.
          1   -1    0    0  501    0 -0.00000000000E+00 -0.00000000000E+00 -0.16499961773E+04  0.16499961773E+04  0.00000000000E+00 0.  1.
          2    1    1    2  501    0 -0.55616648297E+01  0.36089449426E+02 -0.16185353957E+02  0.39941784616E+02  0.00000000000E+00 0.  1.
          1    1    1    2  502    0  0.78346717876E+01 -0.70358444956E+02 -0.14858173706E+04  0.14875029250E+04  0.00000000000E+00 0.  1.
         22    1    1    2    0    0 -0.30243744789E+02  0.46989992020E+02  0.14644081330E+01  0.55900697134E+02  0.00000000000E+00 0.  1.
         22    1    1    2    0    0  0.27970737831E+02 -0.12720996490E+02 -0.10586979878E+03  0.11023883263E+03  0.00000000000E+00 0.  1.
</event>
<event>
 6    1  0.1383644E-005  0.1390171E+03  0.7818608E-02  0.1305853E+00
          2   -1    0    0  502    0  0.00000000000E+00  0.00000000000E+00  0.64254521986E+03  0.64254521986E+03  0.00000000000E+00 0.  1.
          1   -1    0    0  501    0 -0.00000000000E+00 -0.00000000000E+00 -0.11037792518E+03  0.11037792518E+03  0.00000000000E+00 0.  1.
          2    1    1    2  501    0  0.61944613705E+02 -0.14705452253E+02  0.25321747243E+03  0.26109859026E+03  0.00000000000E+00 0.  1.
          1    1    1    2  502    0 -0.11950036776E+03  0.13182882765E+01 -0.53890650187E+02  0.13109644525E+03  0.00000000000E+00 0.  1.
         22    1    1    2    0    0 -0.10852850117E+02 -0.20409235934E+02  0.43864485347E+01  0.23527902538E+02  0.00000000000E+00 0.  1.
         22    1    1    2    0    0  0.68408604176E+02  0.33796399910E+02  0.32845402390E+03  0.33720020698E+03  0.00000000000E+00 0.  1.
</event>
<event>
 6    1  0.1383644E-005  0.1362395E+03  0.7818608E-02  0.1253153E+00
          2   -1    0    0  502    0  0.00000000000E+00  0.00000000000E+00  0.99077707970E+02  0.99077707970E+02  0.00000000000E+00 0. -1.
          1   -1    0    0  501    0 -0.00000000000E+00 -0.00000000000E+00 -0.15780670057E+04  0.15780670057E+04  0.00000000000E+00 0. -1.
          2    1    1    2  501    0 -0.21294003373E+02  0.36955675528E+02 -0.10404602693E+04  0.10413341100E+04  0.00000000000E+00 0. -1.
          1    1    1    2  502    0  0.77057374793E+01 -0.25722471958E+02  0.89029041900E+02  0.92990291188E+02  0.00000000000E+00 0. -1.
         22    1    1    2    0    0 -0.52676612368E+02 -0.11048532506E+01 -0.14161356475E+03  0.15109747818E+03  0.00000000000E+00 0.  1.
         22    1    1    2    0    0  0.66264878262E+02 -0.10128350320E+02 -0.38594450554E+03  0.39172283432E+03  0.00000000000E+00 0. -1.
</event>
<event>
 6    1  0.1383644E-005  0.9808889E+02  0.7818608E-02  0.1362524E+00
          2   -1    0    0  502    0  0.00000000000E+00  0.00000000000E+00  0.16759449961E+03  0.16759449961E+03  0.00000000000E+00 0.  1.
          1   -1    0    0  501    0 -0.00000000000E+00 -0.00000000000E+00 -0.13326905592E+03  0.13326905592E+03  0.00000000000E+00 0.  1.
          2    1    1    2  501    0 -0.23448648042E+02 -0.10764910125E+01  0.27264790535E+02  0.35977308555E+02  0.00000000000E+00 0.  1.
          1    1    1    2  502    0  0.61584537809E+02 -0.84382047756E+02 -0.15666667743E+02  0.10563346893E+03  0.00000000000E+00 0.  1.
         22    1    1    2    0    0 -0.34577843378E+02  0.61294511415E+02  0.74208210963E+02  0.10227171142E+03  0.00000000000E+00 0.  1.
         22    1    1    2    0    0 -0.35580463897E+01  0.24164027353E+02 -0.51480890062E+02  0.56981066624E+02  0.00000000000E+00 0.  1.
</event>
<event>
 6    1  0.1383644E-005  0.3639385E+02  0.7818608E-02  0.1536723E+00
          2   -1    0    0  502    0  0.00000000000E+00  0.00000000000E+00  0.14678973932E+03  0.14678973932E+03  0.00000000000E+00 0.  1.
          1   -1    0    0  501    0 -0.00000000000E+00 -0.00000000000E+00 -0.17720713059E+03  0.17720713059E+03  0.00000000000E+00 0. -1.
          2    1    1    2  501    0  0.15218800216E+02  0.33672518690E+02  0.32697499839E+00  0.36953447844E+02  0.00000000000E+00 0.  1.
          1    1    1    2  502    0  0.10504017775E+02 -0.43061387285E+02 -0.12192912668E+03  0.12973561345E+03  0.00000000000E+00 0. -1.
         22    1    1    2    0    0 -0.20929471126E+02 -0.17676416785E+02 -0.25501691718E+02  0.37427727055E+02  0.00000000000E+00 0. -1.
         22    1    1    2    0    0 -0.47933468640E+01  0.27065285379E+02  0.11668645212E+03  0.11988008156E+03  0.00000000000E+00 0.  1.
</event>
<event>
 6    1  0.1383644E-005  0.1278867E+03  0.7818608E-02  0.1365545E+00
          2   -1    0    0  502    0  0.00000000000E+00  0.00000000000E+00  0.61454366553E+03  0.61454366553E+03  0.00000000000E+00 0.  1.
          1   -1    0    0  501    0 -0.00000000000E+00 -0.00000000000E+00 -0.58941972827E+02  0.58941972827E+02  0.00000000000E+00 0. -1.
          2    1    1    2  501    0  0.15957667815E+02 -0.48309433651E+02  0.12682267812E+03  0.13664713765E+03  0.00000000000E+00 0.  1.
          1    1    1    2  502    0 -0.17407169275E+02  0.11268153600E+03  0.35500943384E+02  0.11941714733E+03  0.00000000000E+00 0. -1.
         22    1    1    2    0    0  0.11753162822E+02 -0.66277636893E+02  0.39956935680E+03  0.40519937423E+03  0.00000000000E+00 0. -1.
         22    1    1    2    0    0 -0.10303661362E+02  0.19055345490E+01 -0.62912856052E+01  0.12221979134E+02  0.00000000000E+00 0. -1.
</event>
<event>
 6    1  0.1383644E-005  0.7955877E+02  0.7818608E-02  0.1392441E+00
          2   -1    0    0  502    0  0.00000000000E+00  0.00000000000E+00  0.62223203453E+03  0.62223203453E+03  0.00000000000E+00 0. -1.
          1   -1    0    0  501    0 -0.00000000000E+00 -0.00000000000E+00 -0.69355892345E+02  0.69355892345E+02  0.00000000000E+00 0.  1.
          2    1    1    2  501    0  0.46901481715E+01 -0.23808870448E+02  0.33013555604E+03  0.33102620012E+03  0.00000000000E+00 0. -1.
          1    1    1    2  502    0 -0.30082099442E+02  0.73544729103E+02 -0.18677586180E+02  0.81624825336E+02  0.00000000000E+00 0.  1.
         22    1    1    2    0    0  0.27956382459E+02 -0.22463373744E+01 -0.45499486161E+01  0.28413155126E+02  0.00000000000E+00 0.  1.
         22    1    1    2    0    0 -0.25644311893E+01 -0.47489521281E+02  0.24596812094E+03  0.25052374630E+03  0.00000000000E+00 0. -1.
</event>
<event>
 6    1  0.1383644E-005  0.3963094E+03  0.7818608E-02  0.1078533E+00
          2   -1    0    0  502    0  0.00000000000E+00  0.00000000000E+00  0.41561445228E+03  0.41561445228E+03  0.00000000000E+00 0. -1.
          1   -1    0    0  501    0 -0.00000000000E+00 -0.00000000000E+00 -0.55362099220E+03  0.55362099220E+03  0.00000000000E+00 0.  1.
          2    1    1    2  501    0 -0.31466251981E+03  0.13215613147E+03  0.27002394913E+02  0.34235489450E+03  0.00000000000E+00 0. -1.
          1    1    1    2  502    0  0.41685517173E+03 -0.47369985046E+02 -0.14327308352E+03  0.44332756078E+03  0.00000000000E+00 0.  1.
         22    1    1    2    0    0  0.17519583077E+02  0.14927710568E+02 -0.15263484038E+02  0.27617861592E+02  0.00000000000E+00 0.  1.
         22    1    1    2    0    0 -0.11971223500E+03 -0.99713856990E+02 -0.64723672636E+01  0.15593512761E+03  0.00000000000E+00 0. -1.
</event>
<event>
 6    1  0.1383644E-005  0.2446819E+03  0.7818608E-02  0.1143988E+00
          2   -1    0    0  502    0  0.00000000000E+00  0.00000000000E+00  0.15522479900E+04  0.15522479900E+04  0.00000000000E+00 0. -1.
          1   -1    0    0  501    0 -0.00000000000E+00 -0.00000000000E+00 -0.99925106793E+02  0.99925106793E+02  0.00000000000E+00 0.  1.
          2    1    1    2  501    0 -0.65377889835E+02  0.24269547193E+03  0.11251490444E+04  0.11528814912E+04  0.00000000000E+00 0. -1.
          1    1    1    2  502    0 -0.36554838331E+02 -0.19879820462E+03  0.22525584379E+03  0.30265025611E+03  0.00000000000E+00 0.  1.
         22    1    1    2    0    0 -0.10899803570E+02  0.10510034459E+02  0.63994686297E+02  0.65761587697E+02  0.00000000000E+00 0.  1.
         22    1    1    2    0    0  0.11283253174E+03 -0.54407301767E+02  0.37923308702E+02  0.13087976179E+03  0.00000000000E+00 0.  1.
</event>
<event>
 6    1  0.1383644E-005  0.7968220E+02  0.7818608E-02  0.1344376E+00
          2   -1    0    0  502    0  0.00000000000E+00  0.00000000000E+00  0.29290390543E+03  0.29290390543E+03  0.00000000000E+00 0.  1.
          1   -1    0    0  501    0 -0.00000000000E+00 -0.00000000000E+00 -0.14327287080E+03  0.14327287080E+03  0.00000000000E+00 0. -1.
          2    1    1    2  501    0  0.41296843893E+02 -0.28685229973E+02  0.16652846503E+03  0.17395402093E+03  0.00000000000E+00 0.  1.
          1    1    1    2  502    0 -0.11367391425E+03  0.88908111499E+01 -0.10706009866E+02  0.11452259145E+03  0.00000000000E+00 0. -1.
         22    1    1    2    0    0  0.65542488685E+02  0.28566010713E+02 -0.59640553955E+02  0.93106554373E+02  0.00000000000E+00 0. -1.
         22    1    1    2    0    0  0.68345816757E+01 -0.87715918896E+01  0.53449133428E+02  0.54593609472E+02  0.00000000000E+00 0. -1.
</event>
<event>
 6    1  0.1383644E-005  0.8001138E+02  0.7818608E-02  0.1349707E+00
          2   -1    0    0  502    0  0.00000000000E+00  0.00000000000E+00  0.62217050813E+02  0.62217050813E+02  0.00000000000E+00 0.  1.
          1   -1    0    0  501    0 -0.00000000000E+00 -0.00000000000E+00 -0.29058787835E+03  0.29058787835E+03  0.00000000000E+00 0.  1.
          2    1    1    2  501    0 -0.12412359812E+02  0.18512826691E+02 -0.17275230220E+02  0.28199734172E+02  0.00000000000E+00 0.  1.
          1    1    1    2  502    0  0.35063702971E+02 -0.87463309245E+02 -0.41007049381E+02  0.10276610253E+03  0.00000000000E+00 0.  1.
         22    1    1    2    0    0  0.22690390826E+02  0.51076732804E+02 -0.16333910016E+03  0.17263646229E+03  0.00000000000E+00 0.  1.
         22    1    1    2    0    0 -0.45341733984E+02  0.17873749749E+02 -0.67494477751E+01  0.49202630174E+02  0.00000000000E+00 0.  1.
</event>
<event>
 6    1  0.1383644E-005  0.2690173E+03  0.7818608E-02  0.1204114E+00
          2   -1    0    0  502    0  0.00000000000E+00  0.00000000000E+00  0.12426997860E+04  0.12426997860E+04  0.00000000000E+00 0. -1.
          1   -1    0    0  501    0 -0.00000000000E+00 -0.00000000000E+00 -0.39176608633E+03  0.39176608633E+03  0.00000000000E+00 0. -1.
          2    1    1    2  501    0  0.51924971449E+03 -0.12070378815E+03  0.19638342279E+03  0.56811629022E+03  0.00000000000E+00 0. -1.
          1    1    1    2  502    0 -0.54540576659E+03  0.24858186851E+03  0.30163372834E+03  0.67100171509E+03  0.00000000000E+00 0. -1.
         22    1    1    2    0    0 -0.10964850680E+02 -0.37187283803E+01 -0.65032714049E+01  0.13279662276E+02  0.00000000000E+00 0.  1.
         22    1    1    2    0    0  0.37120902784E+02 -0.12415935197E+03  0.35941981992E+03  0.38206820472E+03  0.00000000000E+00 0. -1.
</event>
<event>
 6    1  0.1383644E-005  0.8923809E+02  0.7818608E-02  0.1352162E+00
          2   -1    0    0  502    0  0.00000000000E+00  0.00000000000E+00  0.15039034232E+03  0.15039034232E+03  0.00000000000E+00 0.  1.
          1   -1    0    0  501    0 -0.00000000000E+00 -0.00000000000E+00 -0.16151259519E+03  0.16151259519E+03  0.00000000000E+00 0.  1.
          2    1    1    2  501    0 -0.27862101718E+02 -0.79619962271E+02  0.60486263911E+02  0.10379895580E+03  0.00000000000E+00 0.  1.
          1    1    1    2  502    0  0.29468526566E+02  0.54929571140E+02 -0.14369605985E+01  0.62351557313E+02  0.00000000000E+00 0.  1.
         22    1    1    2    0    0 -0.32200869866E+01 -0.13910029713E+02  0.32799425097E+02  0.35772338105E+02  0.00000000000E+00 0. -1.
         22    1    1    2    0    0  0.16136621388E+01  0.38600420844E+02 -0.10297098128E+03  0.10998008629E+03  0.00000000000E+00 0.  1.
</event>
<event>
 6    1  0.1383644E-005  0.8519226E+02  0.7818608E-02  0.1318238E+00
          2   -1    0    0  502    0  0.00000000000E+00  0.00000000000E+00  0.16770681892E+03  0.16770681892E+03  0.00000000000E+00 0.  1.
          1   -1    0    0  501    0 -0.00000000000E+00 -0.00000000000E+00 -0.10424721632E+03  0.10424721632E+03  0.00000000000E+00 0.  1.
          2    1    1    2  501    0 -0.14442866394E+02 -0.45481075785E+02  0.53169426746E+02  0.71443072336E+02  0.00000000000E+00 0.  1.
          1    1    1    2  502    0  0.29262118682E+02  0.46656633368E+02 -0.40254624585E+02  0.68216917458E+02  0.00000000000E+00 0.  1.
         22    1    1    2    0    0 -0.22629388046E+02 -0.22852777071E+02  0.84979418937E+02  0.90861654542E+02  0.00000000000E+00 0.  1.
         22    1    1    2    0    0  0.78101357579E+01  0.21677219488E+02 -0.34434618501E+02  0.41432390911E+02  0.00000000000E+00 0.  1.
</event>
<event>
 6    1  0.1383644E-005  0.5123835E+02  0.7818608E-02  0.1513878E+00
          2   -1    0    0  502    0  0.00000000000E+00  0.00000000000E+00  0.39433080514E+03  0.39433080514E+03  0.00000000000E+00 0.  1.
          1   -1    0    0  501    0 -0.00000000000E+00 -0.00000000000E+00 -0.71848021145E+02  0.71848021145E+02  0.00000000000E+00 0.  1.
          2    1    1    2  501    0  0.23629312768E+02  0.23712456439E+02  0.20810578004E+03  0.21078102547E+03  0.00000000000E+00 0.  1.
          1    1    1    2  502    0 -0.45876227961E+02 -0.41478635886E+02  0.11250932220E+03  0.12838790094E+03  0.00000000000E+00 0.  1.
         22    1    1    2    0    0  0.17033344769E+02  0.45306607950E+01 -0.60513074076E+02  0.63027722911E+02  0.00000000000E+00 0.  1.
         22    1    1    2    0    0  0.52135704235E+01  0.13235518652E+02  0.62380755837E+02  0.63982176966E+02  0.00000000000E+00 0.  1.
</event>
<event>
 6    1  0.1383644E-005  0.8258562E+02  0.7818608E-02  0.1426814E+00
          2   -1    0    0  502    0  0.00000000000E+00  0.00000000000E+00  0.49573588907E+03  0.49573588907E+03  0.00000000000E+00 0.  1.
          1   -1    0    0  501    0 -0.00000000000E+00 -0.00000000000E+00 -0.18501484513E+03  0.18501484513E+03  0.00000000000E+00 0.  1.
          2    1    1    2  501    0 -0.55307062856E+02  0.32080499107E+02  0.36769987067E+03  0.37321739578E+03  0.00000000000E+00 0.  1.
          1    1    1    2  502    0  0.83801418076E+02 -0.16527976389E+02 -0.13256554164E+03  0.15770058499E+03  0.00000000000E+00 0.  1.
         22    1    1    2    0    0 -0.17545803196E+02 -0.58048874666E+01  0.11046439229E+03  0.11199970488E+03  0.00000000000E+00 0. -1.
         22    1    1    2    0    0 -0.10948552023E+02 -0.97476352513E+01 -0.34877677369E+02  0.37833048557E+02  0.00000000000E+00 0. -1.
</event>
<event>
 6    1  0.1383644E-005  0.1500426E+03  0.7818608E-02  0.1294651E+00
          2   -1    0    0  502    0  0.00000000000E+00  0.00000000000E+00  0.74269390695E+03  0.74269390695E+03  0.00000000000E+00 0.  1.
          1   -1    0    0  501    0 -0.00000000000E+00 -0.00000000000E+00 -0.69703053813E+02  0.69703053813E+02  0.00000000000E+00 0.  1.
          2    1    1    2  501    0 -0.15846504280E+03  0.36538621000E+02  0.32000528306E+03  0.35895629511E+03  0.00000000000E+00 0.  1.
          1    1    1    2  502    0  0.23097482339E+02  0.57522233333E+02  0.29439105962E+02  0.68621876816E+02  0.00000000000E+00 0.  1.
         22    1    1    2    0    0  0.22566853103E+02  0.12329822389E+01 -0.62707094082E+01  0.23454315182E+02  0.00000000000E+00 0. -1.
         22    1    1    2    0    0  0.11280070735E+03 -0.95293836572E+02  0.32981717352E+03  0.36136447365E+03  0.00000000000E+00 0.  1.
</event>
<event>
 6    1  0.1383644E-005  0.1323205E+03  0.7818608E-02  0.1359910E+00
          2   -1    0    0  502    0  0.00000000000E+00  0.00000000000E+00  0.71198758989E+03  0.71198758989E+03  0.00000000000E+00 0. -1.
          1   -1    0    0  501    0 -0.00000000000E+00 -0.00000000000E+00 -0.74508608332E+02  0.74508608332E+02  0.00000000000E+00 0. -1.
          2    1    1    2  501    0  0.10535627884E+03  0.27079283415E+02  0.47120842326E+03  0.48360170722E+03  0.00000000000E+00 0. -1.
          1    1    1    2  502    0 -0.11892066639E+03 -0.27760616208E+02  0.45921857627E+02  0.13046682994E+03  0.00000000000E+00 0. -1.
         22    1    1    2    0    0  0.23939792103E+02  0.34733961798E-01  0.14432379340E+03  0.14629583792E+03  0.00000000000E+00 0. -1.
         22    1    1    2    0    0 -0.10375404557E+02  0.64659883091E+00 -0.23975092721E+02  0.26131823143E+02  0.00000000000E+00 0. -1.
</event>
<event>
 6    1  0.1383644E-005  0.6143819E+02  0.7818608E-02  0.1408798E+00
          2   -1    0    0  502    0  0.00000000000E+00  0.00000000000E+00  0.65849469104E+02  0.65849469104E+02  0.00000000000E+00 0. -1.
          1   -1    0    0  501    0 -0.00000000000E+00 -0.00000000000E+00 -0.15940474691E+03  0.15940474691E+03  0.00000000000E+00 0.  1.
          2    1    1    2  501    0 -0.27760184910E+02 -0.19626589288E+02 -0.20149327294E+02  0.39519947669E+02  0.00000000000E+00 0. -1.
          1    1    1    2  502    0  0.29121622850E+02  0.26341428837E+02 -0.50065380798E+00  0.39270732675E+02  0.00000000000E+00 0.  1.
         22    1    1    2    0    0  0.31497365004E+02  0.34904157237E+02 -0.80172656262E+02  0.92941051246E+02  0.00000000000E+00 0.  1.
         22    1    1    2    0    0 -0.32858802944E+02 -0.41618996786E+02  0.72673595556E+01  0.53522484427E+02  0.00000000000E+00 0. -1.
</event>
<event>
 6    1  0.1383644E-005  0.5770752E+02  0.7818608E-02  0.1407989E+00
          2   -1    0    0  502    0  0.00000000000E+00  0.00000000000E+00  0.34655699345E+03  0.34655699345E+03  0.00000000000E+00 0. -1.
          1   -1    0    0  501    0 -0.00000000000E+00 -0.00000000000E+00 -0.16112075877E+03  0.16112075877E+03  0.00000000000E+00 0.  1.
          2    1    1    2  501    0 -0.29958854928E+02 -0.28195127470E+02  0.26771235672E+03  0.27085495038E+03  0.00000000000E+00 0. -1.
          1    1    1    2  502    0  0.22719147629E+02  0.33240018341E+02 -0.10628948985E+03  0.11365964165E+03  0.00000000000E+00 0.  1.
         22    1    1    2    0    0  0.14705221524E+02  0.88975504803E+01 -0.47191020663E+02  0.50223524128E+02  0.00000000000E+00 0. -1.
         22    1    1    2    0    0 -0.74655142255E+01 -0.13942441351E+02  0.71204388464E+02  0.72939636070E+02  0.00000000000E+00 0.  1.
</event>
<event>
 6    1  0.1383644E-005  0.3055627E+02  0.7818608E-02  0.1616279E+00
          2   -1    0    0  502    0  0.00000000000E+00  0.00000000000E+00  0.15013904324E+03  0.15013904324E+03  0.00000000000E+00 0. -1.
          1   -1    0    0  501    0 -0.00000000000E+00 -0.00000000000E+00 -0.17162504492E+03  0.17162504492E+03  0.00000000000E+00 0. -1.
          2    1    1    2  501    0 -0.27042411665E+02 -0.15055384412E+02  0.84630381525E+02  0.90112474750E+02  0.00000000000E+00 0. -1.
          1    1    1    2  502    0  0.49142574950E+02 -0.13078873639E+02 -0.90793273164E+02  0.10406473015E+03  0.00000000000E+00 0. -1.
         22    1    1    2    0    0 -0.50231919298E+01  0.15353657769E+02 -0.68453987041E+02  0.70334313146E+02  0.00000000000E+00 0. -1.
         22    1    1    2    0    0 -0.17076971355E+02  0.12780600282E+02  0.53130876997E+02  0.57252570114E+02  0.00000000000E+00 0. -1.
</event>
<event>
 6    1  0.1383644E-005  0.1468070E+03  0.7818608E-02  0.1206863E+00
          2   -1    0    0  502    0  0.00000000000E+00  0.00000000000E+00  0.17111079861E+03  0.17111079861E+03  0.00000000000E+00 0.  1.
          1   -1    0    0  501    0 -0.00000000000E+00 -0.00000000000E+00 -0.36163562036E+03  0.36163562036E+03  0.00000000000E+00 0.  1.
          2    1    1    2  501    0 -0.12307098677E+02 -0.10876078292E+03  0.10705162619E+03  0.15310265592E+03  0.00000000000E+00 0.  1.
          1    1    1    2  502    0  0.96750161141E+01  0.10180890639E+03 -0.17199759589E+03  0.20010455354E+03  0.00000000000E+00 0.  1.
         22    1    1    2    0    0  0.16395124023E+02  0.32180405235E+02 -0.14194479077E+03  0.14646741003E+03  0.00000000000E+00 0. -1.
         22    1    1    2    0    0 -0.13763041460E+02 -0.25228528699E+02  0.16365938715E+02  0.33071799476E+02  0.00000000000E+00 0.  1.
</event>
<event>
 6    1  0.1383644E-005  0.4854497E+02  0.7818608E-02  0.1531295E+00
          2   -1    0    0  502    0  0.00000000000E+00  0.00000000000E+00  0.42588723137E+03  0.42588723137E+03  0.00000000000E+00 0.  1.
          1   -1    0    0  501    0 -0.00000000000E+00 -0.00000000000E+00 -0.68951036906E+02  0.68951036906E+02  0.00000000000E+00 0. -1.
          2    1    1    2  501    0 -0.66739216520E+02  0.43046732102E+01  0.27981933144E+03  0.28770038492E+03  0.00000000000E+00 0.  1.
          1    1    1    2  502    0  0.43628637642E+02 -0.26165847125E+02 -0.11306110524E+02  0.52114659295E+02  0.00000000000E+00 0. -1.
         22    1    1    2    0    0 -0.74749491046E+01 -0.13220825043E+02 -0.26772647433E+02  0.30780508922E+02  0.00000000000E+00 0. -1.
         22    1    1    2    0    0  0.30585527982E+02  0.35081998957E+02  0.11519562097E+03  0.12424271514E+03  0.00000000000E+00 0.  1.
</event>
<event>
 6    1  0.1383644E-005  0.5670557E+02  0.7818608E-02  0.1459456E+00
          2   -1    0    0  502    0  0.00000000000E+00  0.00000000000E+00  0.57044398667E+03  0.57044398667E+03  0.00000000000E+00 0.  1.
          1   -1    0    0  501    0 -0.00000000000E+00 -0.00000000000E+00 -0.10141394476E+03  0.10141394476E+03  0.00000000000E+00 0.  1.
          2    1    1    2  501    0  0.20009739227E+02  0.64406796007E+02  0.47685545147E+03  0.48160123197E+03  0.00000000000E+00 0.  1.
          1    1    1    2  502    0 -0.79239742629E+01  0.26590911620E+02 -0.17954670415E+02  0.33048996030E+02  0.00000000000E+00 0.  1.
         22    1    1    2    0    0 -0.13877843728E+02 -0.10261436003E+03 -0.35981859923E+02  0.10962205834E+03  0.00000000000E+00 0.  1.
         22    1    1    2    0    0  0.17920787642E+01  0.11616652406E+02  0.46111120780E+02  0.47585645094E+02  0.00000000000E+00 0.  1.
</event>
<event>
 6    1  0.1383644E-005  0.3171144E+02  0.7818608E-02  0.1594591E+00
          2   -1    0    0  502    0  0.00000000000E+00  0.00000000000E+00  0.21942040094E+03  0.21942040094E+03  0.00000000000E+00 0. -1.
          1   -1    0    0  501    0 -0.00000000000E+00 -0.00000000000E+00 -0.40259674361E+03  0.40259674361E+03  0.00000000000E+00 0.  1.
          2    1    1    2  501    0 -0.22326904232E+02  0.21991878292E+02  0.17521089285E+03  0.17799154569E+03  0.00000000000E+00 0. -1.
          1    1    1    2  502    0 -0.43376475748E+01 -0.53523455489E+02 -0.29668236241E+03  0.30150290155E+03  0.00000000000E+00 0.  1.
         22    1    1    2    0    0  0.11047422601E+02  0.20121466117E+02  0.36123974121E+02  0.42800238914E+02  0.00000000000E+00 0. -1.
         22    1    1    2    0    0  0.15617129206E+02  0.11410111081E+02 -0.97828847230E+02  0.99722458403E+02  0.00000000000E+00 0.  1.
</event>
<event>
 6    1  0.1383644E-005  0.1285001E+03  0.7818608E-02  0.1360596E+00
          2   -1    0    0  502    0  0.00000000000E+00  0.00000000000E+00  0.74346186893E+02  0.74346186893E+02  0.00000000000E+00 0.  1.
          1   -1    0    0  501    0 -0.00000000000E+00 -0.00000000000E+00 -0.31415976981E+03  0.31415976981E+03  0.00000000000E+00 0. -1.
          2    1    1    2  501    0  0.30823807948E+02  0.12834220789E+01 -0.49561227085E+02  0.58378673664E+02  0.00000000000E+00 0.  1.
          1    1    1    2  502    0 -0.58807561281E+02  0.15069686479E+02 -0.19489133936E+03  0.20412755540E+03  0.00000000000E+00 0. -1.
         22    1    1    2    0    0 -0.22405838049E+01  0.10994542622E+02 -0.53684596195E+02  0.54844653813E+02  0.00000000000E+00 0.  1.
         22    1    1    2    0    0  0.30224337138E+02 -0.27347651180E+02  0.58323579721E+02  0.71155073831E+02  0.00000000000E+00 0.  1.
</event>
<event>
 6    1  0.1383644E-005  0.8428559E+02  0.7818608E-02  0.1403458E+00
          2   -1    0    0  502    0  0.00000000000E+00  0.00000000000E+00  0.28095091203E+03  0.28095091203E+03  0.00000000000E+00 0. -1.
          1   -1    0    0  501    0 -0.00000000000E+00 -0.00000000000E+00 -0.77737040534E+02  0.77737040534E+02  0.00000000000E+00 0.  1.
          2    1    1    2  501    0  0.54590773446E+02  0.18054744990E+02  0.14756125924E+03  0.15836808892E+03  0.00000000000E+00 0. -1.
          1    1    1    2  502    0 -0.48922419679E+02 -0.33566878232E+02 -0.10733177971E+02  0.60293777215E+02  0.00000000000E+00 0.  1.
         22    1    1    2    0    0 -0.15767909485E+02 -0.11977388655E+02 -0.31857958729E+02  0.37510189854E+02  0.00000000000E+00 0.  1.
         22    1    1    2    0    0  0.10099555719E+02  0.27489521898E+02  0.98243748961E+02  0.10251589657E+03  0.00000000000E+00 0. -1.
</event>
<event>
 6    1  0.1383644E-005  0.4880985E+02  0.7818608E-02  0.1520349E+00
          2   -1    0    0  502    0  0.00000000000E+00  0.00000000000E+00  0.13353212646E+03  0.13353212646E+03  0.00000000000E+00 0. -1.
          1   -1    0    0  501    0 -0.00000000000E+00 -0.00000000000E+00 -0.11028593206E+03  0.11028593206E+03  0.00000000000E+00 0. -1.
          2    1    1    2  501    0  0.25661705815E+02 -0.89910989298E+01  0.54204544274E+02  0.60642358342E+02  0.00000000000E+00 0. -1.
          1    1    1    2  502    0 -0.42446005063E+02  0.37222675757E+01 -0.40335271230E+02  0.58672418792E+02  0.00000000000E+00 0. -1.
         22    1    1    2    0    0 -0.13775340368E+00  0.18692376071E+02 -0.54212924650E+02  0.57345140145E+02  0.00000000000E+00 0. -1.
         22    1    1    2    0    0  0.16922052651E+02 -0.13423544717E+02  0.63589846012E+02  0.67158141238E+02  0.00000000000E+00 0. -1.
</event>
<event>
 6    1  0.1383644E-005  0.5707351E+02  0.7818608E-02  0.1506573E+00
          2   -1    0    0  502    0  0.00000000000E+00  0.00000000000E+00  0.14678374497E+03  0.14678374497E+03  0.00000000000E+00 0.  1.
          1   -1    0    0  501    0 -0.00000000000E+00 -0.00000000000E+00 -0.55996104600E+02  0.55996104600E+02  0.00000000000E+00 0.  1.
          2    1    1    2  501    0  0.13874304539E+02 -0.19426090991E+02  0.38527537762E+02  0.45323730028E+02  0.00000000000E+00 0.  1.
          1    1    1    2  502    0 -0.18164294155E+02 -0.10395565251E+02  0.22951794446E+01  0.21054149418E+02  0.00000000000E+00 0.  1.
         22    1    1    2    0    0  0.18370344556E+02  0.29773392479E+02  0.88612909833E+02  0.95268946924E+02  0.00000000000E+00 0. -1.
         22    1    1    2    0    0 -0.14080354941E+02  0.48263763208E-01 -0.38647986665E+02  0.41133023204E+02  0.00000000000E+00 0.  1.
</event>
<event>
 6    1  0.1383644E-005  0.1988147E+02  0.7818608E-02  0.1783495E+00
          2   -1    0    0  502    0  0.00000000000E+00  0.00000000000E+00  0.24169143542E+03  0.24169143542E+03  0.00000000000E+00 0.  1.
          1   -1    0    0  501    0 -0.00000000000E+00 -0.00000000000E+00 -0.52600666017E+02  0.52600666017E+02  0.00000000000E+00 0. -1.
          2    1    1    2  501    0 -0.24706605742E+01 -0.22355546746E+02  0.11220194203E+03  0.11443404401E+03  0.00000000000E+00 0.  1.
          1    1    1    2  502    0  0.24052618559E+02  0.14492982322E+02 -0.37019705898E+01  0.28324540285E+02  0.00000000000E+00 0. -1.
         22    1    1    2    0    0 -0.10831244342E+02  0.16811534592E+02  0.11377627581E+03  0.11552049379E+03  0.00000000000E+00 0. -1.
         22    1    1    2    0    0 -0.10750713642E+02 -0.89489701675E+01 -0.33185477843E+02  0.36013023347E+02  0.00000000000E+00 0. -1.
</event>
<event>
 6    1  0.1383644E-005  0.3159552E+02  0.7818608E-02  0.1605355E+00
          2   -1    0    0  502    0  0.00000000000E+00  0.00000000000E+00  0.23948549225E+03  0.23948549225E+03  0.00000000000E+00 0. -1.
          1   -1    0    0  501    0 -0.00000000000E+00 -0.00000000000E+00 -0.60041257604E+03  0.60041257604E+03  0.00000000000E+00 0.  1.
          2    1    1    2  501    0 -0.29177109276E+02  0.42129709671E+02  0.15023643554E+03  0.15873626778E+03  0.00000000000E+00 0. -1.
          1    1    1    2  502    0  0.13669277330E+02 -0.65351795113E+02 -0.54631900783E+03  0.55038365217E+03  0.00000000000E+00 0.  1.
         22    1    1    2    0    0 -0.92703407024E+00  0.14011782192E+02 -0.45673063458E+02  0.47783032114E+02  0.00000000000E+00 0.  1.
         22    1    1    2    0    0  0.16434866017E+02  0.92103032510E+01  0.80828551951E+02  0.82995116227E+02  0.00000000000E+00 0.  1.
</event>
<event>
 6    1  0.1383644E-005  0.7159343E+02  0.7818608E-02  0.1399282E+00
          2   -1    0    0  502    0  0.00000000000E+00  0.00000000000E+00  0.94836923448E+03  0.94836923448E+03  0.00000000000E+00 0. -1.
          1   -1    0    0  501    0 -0.00000000000E+00 -0.00000000000E+00 -0.29849039093E+02  0.29849039093E+02  0.00000000000E+00 0. -1.
          2    1    1    2  501    0 -0.25715924415E+02  0.60631692923E+02  0.24342786707E+03  0.25217977203E+03  0.00000000000E+00 0. -1.
          1    1    1    2  502    0 -0.59051381662E+02 -0.97573422350E+02  0.31109258642E+03  0.33134006059E+03  0.00000000000E+00 0. -1.
         22    1    1    2    0    0  0.28397814960E+02  0.13956926467E+02  0.68208449867E+01  0.32369053388E+02  0.00000000000E+00 0. -1.
         22    1    1    2    0    0  0.56369491117E+02  0.22984802960E+02  0.35717889691E+03  0.36232938756E+03  0.00000000000E+00 0.  1.
</event>
<event>
 6    1  0.1383644E-005  0.5533532E+02  0.7818608E-02  0.1478967E+00
          2   -1    0    0  502    0  0.00000000000E+00  0.00000000000E+00  0.10475715505E+03  0.10475715505E+03  0.00000000000E+00 0. -1.
          1   -1    0    0  501    0 -0.00000000000E+00 -0.00000000000E+00 -0.12697439528E+03  0.12697439528E+03  0.00000000000E+00 0. -1.
          2    1    1    2  501    0 -0.25256949919E+02  0.21750987517E+02  0.26548601019E+02  0.42612758573E+02  0.00000000000E+00 0. -1.
          1    1    1    2  502    0  0.28848996165E+02 -0.26666866305E+02 -0.55875508078E+02  0.68304163425E+02  0.00000000000E+00 0. -1.
         22    1    1    2    0    0 -0.14335625727E+02  0.17553979796E+02  0.60659199397E+02  0.64754851889E+02  0.00000000000E+00 0.  1.
         22    1    1    2    0    0  0.10743579481E+02 -0.12638101007E+02 -0.53549532566E+02  0.56059776446E+02  0.00000000000E+00 0. -1.
</event>
<event>
 6    1  0.1383644E-005  0.1362357E+03  0.7818608E-02  0.1296395E+00
          2   -1    0    0  502    0  0.00000000000E+00  0.00000000000E+00  0.79843381035E+02  0.79843381035E+02  0.00000000000E+00 0.  1.
          1   -1    0    0  501    0 -0.00000000000E+00 -0.00000000000E+00 -0.17601930892E+03  0.17601930892E+03  0.00000000000E+00 0.  1.
          2    1    1    2  501    0 -0.10235633192E+02 -0.19235296753E+02 -0.58507448651E+02  0.62433055152E+02  0.00000000000E+00 0.  1.
          1    1    1    2  502    0  0.12009773106E+02  0.17806556221E+02 -0.65778061521E+02  0.69195819758E+02  0.00000000000E+00 0.  1.
         22    1    1    2    0    0 -0.22931376902E+02 -0.18125148268E+02 -0.40427794456E+02  0.49887629839E+02  0.00000000000E+00 0.  1.
         22    1    1    2    0    0  0.21157236988E+02  0.19553888799E+02  0.68537376742E+02  0.74346185207E+02  0.00000000000E+00 0.  1.
</event>
<event>
 6    1  0.1383644E-005  0.1390242E+03  0.7818608E-02  0.1301951E+00
          2   -1    0    0  502    0  0.00000000000E+00  0.00000000000E+00  0.36517969086E+03  0.36517969086E+03  0.00000000000E+00 0. -1.
          1   -1    0    0  501    0 -0.00000000000E+00 -0.00000000000E+00 -0.20641887955E+03  0.20641887955E+03  0.00000000000E+00 0. -1.
          2    1    1    2  501    0 -0.22765878451E+02 -0.12692209779E+03  0.26428242238E+03  0.29406241329E+03  0.00000000000E+00 0. -1.
          1    1    1    2  502    0  0.58629081826E+01  0.11707006583E+03 -0.45240848975E+01  0.11730405513E+03  0.00000000000E+00 0. -1.
         22    1    1    2    0    0  0.95430829830E+01  0.22917124188E+02 -0.12743905306E+03  0.12983442248E+03  0.00000000000E+00 0. -1.
         22    1    1    2    0    0  0.73598872854E+01 -0.13065092230E+02  0.26441526895E+02  0.30397679523E+02  0.00000000000E+00 0. -1.
</event>
<event>
 6    1  0.1383644E-005  0.7742448E+02  0.7818608E-02  0.1337700E+00
          2   -1    0    0  502    0  0.00000000000E+00  0.00000000000E+00  0.18471619830E+03  0.18471619830E+03  0.00000000000E+00 0. -1.
          1   -1    0    0  501    0 -0.00000000000E+00 -0.00000000000E+00 -0.21443477356E+03  0.21443477356E+03  0.00000000000E+00 0. -1.
          2    1    1    2  501    0 -0.65543019330E+01  0.93823395601E+02  0.44168099755E+02  0.10390673449E+03  0.00000000000E+00 0. -1.
          1    1    1    2  502    0 -0.48397075422E+02 -0.45925150608E+02 -0.12567580541E+03  0.14228775222E+03  0.00000000000E+00 0. -1.
         22    1    1    2    0    0 -0.99299835280E+01 -0.23083189154E+01 -0.34376241155E+02  0.35856085467E+02  0.00000000000E+00 0.  1.
         22    1    1    2    0    0  0.64881360883E+02 -0.45589926077E+02  0.86165371548E+02  0.11710039967E+03  0.00000000000E+00 0. -1.
</event>
<event>
 6    1  0.1383644E-005  0.1038288E+03  0.7818608E-02  0.1288985E+00
          2   -1    0    0  502    0  0.00000000000E+00  0.00000000000E+00  0.17165906944E+03  0.17165906944E+03  0.00000000000E+00 0.  1.
          1   -1    0    0  501    0 -0.00000000000E+00 -0.00000000000E+00 -0.32492462652E+03  0.32492462652E+03  0.00000000000E+00 0.  1.
          2    1    1    2  501    0 -0.22947471025E+02 -0.87333733484E+02  0.12131511753E+03  0.15123202430E+03  0.00000000000E+00 0.  1.
          1    1    1    2  502    0  0.43597092799E+02  0.34339669998E+02 -0.15258433347E+03  0.16236347575E+03  0.00000000000E+00 0.  1.
         22    1    1    2    0    0  0.10022745819E+01 -0.19663885430E+02  0.16110041079E+02  0.25440250945E+02  0.00000000000E+00 0. -1.
         22    1    1    2    0    0 -0.21651896357E+02  0.72657948917E+02 -0.13810638221E+03  0.15754794497E+03  0.00000000000E+00 0.  1.
</event>
<event>
 6    1  0.1383644E-005  0.6208948E+02  0.7818608E-02  0.1452475E+00
          2   -1    0    0  502    0  0.00000000000E+00  0.00000000000E+00  0.42648894896E+03  0.42648894896E+03  0.00000000000E+00 0. -1.
          1   -1    0    0  501    0 -0.00000000000E+00 -0.00000000000E+00 -0.63062435955E+02  0.63062435955E+02  0.00000000000E+00 0.  1.
          2    1    1    2  501    0  0.45042892287E+02 -0.11729128513E+02  0.29198449714E+03  0.29567106922E+03  0.00000000000E+00 0. -1.
          1    1    1    2  502    0 -0.51441633649E+02 -0.86529040831E+00  0.36043226542E+02  0.62818027504E+02  0.00000000000E+00 0.  1.
         22    1    1    2    0    0  0.14619327933E+02 -0.94231489815E+01  0.79343577089E+02  0.81227604367E+02  0.00000000000E+00 0. -1.
         22    1    1    2    0    0 -0.82205865712E+01  0.22017567902E+02 -0.43944787769E+02  0.49834683825E+02  0.00000000000E+00 0.  1.
</event>
<event>
 6    1  0.1383644E-005  0.1118181E+03  0.7818608E-02  0.1366327E+00
          2   -1    0    0  502    0  0.00000000000E+00  0.00000000000E+00  0.67022611739E+03  0.67022611739E+03  0.00000000000E+00 0.  1.
          1   -1    0    0  501    0 -0.00000000000E+00 -0.00000000000E+00 -0.64220865246E+02  0.64220865246E+02  0.00000000000E+00 0. -1.
          2    1    1    2  501    0  0.65873431842E+01 -0.78918933052E+02  0.40712007626E+03  0.41475094645E+03  0.00000000000E+00 0.  1.
          1    1    1    2  502    0  0.17273439995E+01  0.95675546001E+02  0.18500001326E+02  0.97463038476E+02  0.00000000000E+00 0. -1.
         22    1    1    2    0    0 -0.18762150081E+02 -0.28169903713E+02  0.19679172705E+03  0.19968110974E+03  0.00000000000E+00 0.  1.
         22    1    1    2    0    0  0.10447462898E+02  0.11413290764E+02 -0.16406552486E+02  0.22551887981E+02  0.00000000000E+00 0. -1.
</event>
<event>
 6    1  0.1383644E-005  0.6927739E+02  0.7818608E-02  0.1481427E+00
          2   -1    0    0  502    0  0.00000000000E+00  0.00000000000E+00  0.28364581196E+03  0.28364581196E+03  0.00000000000E+00 0.  1.
          1   -1    0    0  501    0 -0.00000000000E+00 -0.00000000000E+00 -0.29918470718E+03  0.29918470718E+03  0.00000000000E+00 0. -1.
          2    1    1    2  501    0 -0.36977122280E+02 -0.25989151482E+02  0.21140502932E+03  0.21618239981E+03  0.00000000000E+00 0.  1.
          1    1    1    2  502    0  0.43442621482E+02  0.49774544637E+02 -0.23064833830E+03  0.23992378501E+03  0.00000000000E+00 0. -1.
         22    1    1    2    0    0 -0.14960232545E+02 -0.16555106506E+02  0.62768249103E+02  0.66616313353E+02  0.00000000000E+00 0. -1.
         22    1    1    2    0    0  0.84947333437E+01 -0.72302866491E+01 -0.59063835340E+02  0.60108020968E+02  0.00000000000E+00 0. -1.
</event>
<event>
 6    1  0.1383644E-005  0.7781642E+02  0.7818608E-02  0.1335435E+00
          2   -1    0    0  502    0  0.00000000000E+00  0.00000000000E+00  0.43555057145E+02  0.43555057145E+02  0.00000000000E+00 0. -1.
          1   -1    0    0  501    0 -0.00000000000E+00 -0.00000000000E+00 -0.36306517146E+03  0.36306517146E+03  0.00000000000E+00 0. -1.
          2    1    1    2  501    0  0.89675232761E+01 -0.20398863128E+02 -0.13155168544E+01  0.22321753408E+02  0.00000000000E+00 0. -1.
          1    1    1    2  502    0  0.82603828564E+01  0.54633128342E+02 -0.20502306092E+03  0.21233809867E+03  0.00000000000E+00 0. -1.
         22    1    1    2    0    0 -0.74867753151E+01  0.20284964074E+02 -0.11453781194E+03  0.11656089368E+03  0.00000000000E+00 0. -1.
         22    1    1    2    0    0 -0.97411308175E+01 -0.54519229288E+02  0.13662753933E+01  0.55399482852E+02  0.00000000000E+00 0. -1.
</event>
<event>
 6    1  0.1383644E-005  0.5588976E+02  0.7818608E-02  0.1460309E+00
          2   -1    0    0  502    0  0.00000000000E+00  0.00000000000E+00  0.19912162088E+03  0.19912162088E+03  0.00000000000E+00 0.  1.
          1   -1    0    0  501    0 -0.00000000000E+00 -0.00000000000E+00 -0.55306683068E+02  0.55306683068E+02  0.00000000000E+00 0.  1.
          2    1    1    2  501    0 -0.91197432880E+00 -0.25040841483E+02  0.48630369249E+02  0.54706382193E+02  0.00000000000E+00 0.  1.
          1    1    1    2  502    0 -0.31844665143E+02  0.25255979416E+02 -0.35570724595E+01  0.40799509296E+02  0.00000000000E+00 0.  1.
         22    1    1    2    0    0  0.14660967065E+02  0.24719366977E+02 -0.20798269916E+02  0.35476176379E+02  0.00000000000E+00 0.  1.
         22    1    1    2    0    0  0.18095672408E+02 -0.24934504910E+02  0.11953991094E+03  0.12344623608E+03  0.00000000000E+00 0.  1.
</event>
<event>
 6    1  0.1383644E-005  0.3320023E+02  0.7818608E-02  0.1577822E+00
          2   -1    0    0  502    0  0.00000000000E+00  0.00000000000E+00  0.11830026316E+03  0.11830026316E+03  0.00000000000E+00 0. -1.
          1   -1    0    0  501    0 -0.00000000000E+00 -0.00000000000E+00 -0.22913235926E+03  0.22913235926E+03  0.00000000000E+00 0. -1.
          2    1    1    2  501    0 -0.28525935288E+02 -0.85679472217E+01  0.18822634316E+02  0.35233936287E+02  0.00000000000E+00 0. -1.
          1    1    1    2  502    0  0.24973199007E+02 -0.12151687053E+02  0.70380306980E+02  0.75661825100E+02  0.00000000000E+00 0. -1.
         22    1    1    2    0    0 -0.11235566868E+02 -0.12020112972E+02  0.12703102171E+02  0.20786771839E+02  0.00000000000E+00 0. -1.
         22    1    1    2    0    0  0.14788303149E+02  0.32739747248E+02 -0.21273813957E+03  0.21575008919E+03  0.00000000000E+00 0. -1.
</event>
<event>
 6    1  0.1383644E-005  0.2035657E+03  0.7818608E-02  0.1176529E+00
          2   -1    0    0  502    0  0.00000000000E+00  0.00000000000E+00  0.23761046365E+03  0.23761046365E+03  0.00000000000E+00 0. -1.
          1   -1    0    0  501    0 -0.00000000000E+00 -0.00000000000E+00 -0.29431531972E+03  0.29431531972E+03  0.00000000000E+00 0. -1.
          2    1    1    2  501    0  0.16196768088E+03  0.64830298702E+02  0.82102903866E+02  0.19281437732E+03  0.00000000000E+00 0. -1.
          1    1    1    2  502    0 -0.10820502982E+03 -0.17757622374E+00  0.30248621690E+02  0.11235363423E+03  0.00000000000E+00 0. -1.
         22    1    1    2    0    0 -0.26614618264E+02  0.33673710326E+02 -0.23255438103E+02  0.48816719204E+02  0.00000000000E+00 0. -1.
         22    1    1    2    0    0 -0.27148032801E+02 -0.98326432805E+02 -0.14580094352E+03  0.17794105261E+03  0.00000000000E+00 0. -1.
</event>
<event>
 6    1  0.1383644E-005  0.9655519E+02  0.7818608E-02  0.1336803E+00
          2   -1    0    0  502    0  0.00000000000E+00  0.00000000000E+00  0.17791787263E+03  0.17791787263E+03  0.00000000000E+00 0. -1.
          1   -1    0    0  501    0 -0.00000000000E+00 -0.00000000000E+00 -0.11050244967E+04  0.11050244967E+04  0.00000000000E+00 0. -1.
          2    1    1    2  501    0  0.84193141012E+01  0.64924601079E+02  0.12571228815E+03  0.14173802618E+03  0.00000000000E+00 0. -1.
          1    1    1    2  502    0 -0.50538041378E+02 -0.11811969228E+03 -0.95848404246E+03  0.96705636598E+03  0.00000000000E+00 0. -1.
         22    1    1    2    0    0  0.14712568108E+02  0.24436917454E+02  0.31320418291E+02  0.42362615558E+02  0.00000000000E+00 0.  1.
         22    1    1    2    0    0  0.27406159169E+02  0.28758173746E+02 -0.12565528809E+03  0.13178536164E+03  0.00000000000E+00 0.  1.
</event>
<event>
 6    1  0.1383644E-005  0.3168341E+02  0.7818608E-02  0.1637587E+00
          2   -1    0    0  502    0  0.00000000000E+00  0.00000000000E+00  0.20687941309E+03  0.20687941309E+03  0.00000000000E+00 0.  1.
          1   -1    0    0  501    0 -0.00000000000E+00 -0.00000000000E+00 -0.98605802365E+02  0.98605802365E+02  0.00000000000E+00 0.  1.
          2    1    1    2  501    0 -0.20666710769E+02  0.50096353403E+02  0.12593715611E+03  0.13710187762E+03  0.00000000000E+00 0.  1.
          1    1    1    2  502    0  0.17909888027E+01 -0.35737546029E+02 -0.18897114297E+02  0.40465797482E+02  0.00000000000E+00 0.  1.
         22    1    1    2    0    0  0.22144369719E+02 -0.35255817155E+01 -0.60829793282E+02  0.64831061903E+02  0.00000000000E+00 0. -1.
         22    1    1    2    0    0 -0.32686477525E+01 -0.10833225658E+02  0.62063362197E+02  0.63086478452E+02  0.00000000000E+00 0.  1.
</event>
<event>
 6    1  0.1383644E-005  0.4576323E+02  0.7818608E-02  0.1567547E+00
          2   -1    0    0  502    0  0.00000000000E+00  0.00000000000E+00  0.16623682393E+03  0.16623682393E+03  0.00000000000E+00 0.  1.
          1   -1    0    0  501    0 -0.00000000000E+00 -0.00000000000E+00 -0.63151344057E+02  0.63151344057E+02  0.00000000000E+00 0.  1.
          2    1    1    2  501    0  0.96136998569E+00  0.21121509460E+02  0.45821509938E+02  0.50464375227E+02  0.00000000000E+00 0.  1.
          1    1    1    2  502    0 -0.43120006102E+00 -0.32349862537E+02 -0.13518727498E+02  0.35063592697E+02  0.00000000000E+00 0.  1.
         22    1    1    2    0    0 -0.37198954971E+01  0.23114594175E+02  0.10495752284E+03  0.10753698753E+03  0.00000000000E+00 0.  1.
         22    1    1    2    0    0  0.31897255724E+01 -0.11886241099E+02 -0.34174825409E+02  0.36323212529E+02  0.00000000000E+00 0.  1.
</event>
<event>
 6    1  0.1383644E-005  0.5033561E+02  0.7818608E-02  0.1484448E+00
          2   -1    0    0  502    0  0.00000000000E+00  0.00000000000E+00  0.15559222126E+03  0.15559222126E+03  0.00000000000E+00 0.  1.
          1   -1    0    0  501    0 -0.00000000000E+00 -0.00000000000E+00 -0.28498673833E+03  0.28498673833E+03  0.00000000000E+00 0.  1.
          2    1    1    2  501    0 -0.10247758573E+02  0.18092663768E+02  0.40833943617E+02  0.45823269081E+02  0.00000000000E+00 0.  1.
          1    1    1    2  502    0  0.49359902380E+02 -0.14750645734E+01 -0.24243895848E+03  0.24741710605E+03  0.00000000000E+00 0.  1.
         22    1    1    2    0    0 -0.12888493130E+02 -0.24712865364E+02 -0.30328382757E+02  0.41190408718E+02  0.00000000000E+00 0.  1.
         22    1    1    2    0    0 -0.26223650677E+02  0.80952661701E+01  0.10253888054E+03  0.10614817574E+03  0.00000000000E+00 0.  1.
</event>
<event>
 6    1  0.1383644E-005  0.5233488E+02  0.7818608E-02  0.1454199E+00
          2   -1    0    0  502    0  0.00000000000E+00  0.00000000000E+00  0.33159238149E+03  0.33159238149E+03  0.00000000000E+00 0. -1.
          1   -1    0    0  501    0 -0.00000000000E+00 -0.00000000000E+00 -0.73345454052E+02  0.73345454052E+02  0.00000000000E+00 0.  1.
          2    1    1    2  501    0 -0.21288987647E+02 -0.29452158194E+02  0.14252602202E+03  0.14708608898E+03  0.00000000000E+00 0. -1.
          1    1    1    2  502    0  0.81488119799E+01 -0.38991787266E+02 -0.34443161147E+02  0.52660174332E+02  0.00000000000E+00 0.  1.
         22    1    1    2    0    0  0.52007478451E+01 -0.24293151326E+02  0.92322340655E+02  0.95606587449E+02  0.00000000000E+00 0.  1.
         22    1    1    2    0    0  0.79394278220E+01  0.92737096786E+02  0.57841725909E+02  0.10958498479E+03  0.00000000000E+00 0.  1.
</event>
<event>
 6    1  0.1383644E-005  0.6163439E+02  0.7818608E-02  0.1416451E+00
          2   -1    0    0  502    0  0.00000000000E+00  0.00000000000E+00  0.15829813022E+03  0.15829813022E+03  0.00000000000E+00 0.  1.
          1   -1    0    0  501    0 -0.00000000000E+00 -0.00000000000E+00 -0.18555119108E+03  0.18555119108E+03  0.00000000000E+00 0.  1.
          2    1    1    2  501    0 -0.33631612497E+02  0.73956864378E+01  0.59124751798E+02  0.68421618018E+02  0.00000000000E+00 0.  1.
          1    1    1    2  502    0  0.98396989001E+02 -0.14158072385E+02 -0.95653492024E+02  0.13795654749E+03  0.00000000000E+00 0.  1.
         22    1    1    2    0    0 -0.41048744384E+02  0.49294310176E+01 -0.55074122763E+02  0.68865504455E+02  0.00000000000E+00 0.  1.
         22    1    1    2    0    0 -0.23716632120E+02  0.18329549293E+01  0.64349802123E+02  0.68605651342E+02  0.00000000000E+00 0.  1.
</event>
<event>
 6    1  0.1383644E-005  0.7266513E+02  0.7818608E-02  0.1381542E+00
          2   -1    0    0  502    0  0.00000000000E+00  0.00000000000E+00  0.10059222593E+03  0.10059222593E+03  0.00000000000E+00 0.  1.
          1   -1    0    0  501    0 -0.00000000000E+00 -0.00000000000E+00 -0.39662868680E+03  0.39662868680E+03  0.00000000000E+00 0.  1.
          2    1    1    2  501    0  0.30729378709E+02  0.42499703188E+02  0.55237471473E+02  0.76168876463E+02  0.00000000000E+00 0.  1.
          1    1    1    2  502    0 -0.66769613992E+01 -0.61570255815E+02 -0.24814309781E+03  0.25575471688E+03  0.00000000000E+00 0.  1.
         22    1    1    2    0    0  0.18906271995E+02  0.10072210524E+02  0.23189088748E+02  0.31569453315E+02  0.00000000000E+00 0.  1.
         22    1    1    2    0    0 -0.42958689305E+02  0.89983421026E+01 -0.12631992328E+03  0.13372786608E+03  0.00000000000E+00 0.  1.
</event>
<event>
 6    1  0.1383644E-005  0.8370111E+02  0.7818608E-02  0.1377291E+00
          2   -1    0    0  502    0  0.00000000000E+00  0.00000000000E+00  0.17314283075E+03  0.17314283075E+03  0.00000000000E+00 0. -1.
          1   -1    0    0  501    0 -0.00000000000E+00 -0.00000000000E+00 -0.18456489055E+03  0.18456489055E+03  0.00000000000E+00 0. -1.
          2    1    1    2  501    0  0.25283310011E+02 -0.26082227561E+02  0.39213096282E+02  0.53452738748E+02  0.00000000000E+00 0. -1.
          1    1    1    2  502    0 -0.14581025468E+02  0.90455851798E+02  0.74061661750E+02  0.11781339979E+03  0.00000000000E+00 0. -1.
         22    1    1    2    0    0 -0.30406282029E+01 -0.30631544774E+02 -0.14370390108E+03  0.14696376472E+03  0.00000000000E+00 0. -1.
         22    1    1    2    0    0 -0.76616563406E+01 -0.33742079464E+02  0.19007083247E+02  0.39477818050E+02  0.00000000000E+00 0.  1.
</event>
<event>
 6    1  0.1383644E-005  0.7764403E+03  0.7818608E-02  0.1103294E+00
          2   -1    0    0  502    0  0.00000000000E+00  0.00000000000E+00  0.26819106377E+04  0.26819106377E+04  0.00000000000E+00 0. -1.
          1   -1    0    0  501    0 -0.00000000000E+00 -0.00000000000E+00 -0.13116852002E+03  0.13116852002E+03  0.00000000000E+00 0. -1.
          2    1    1    2  501    0 -0.73925530093E+02 -0.19749533194E+03  0.14588417225E+04  0.14740042610E+04  0.00000000000E+00 0. -1.
          1    1    1    2  502    0 -0.32748451156E+03  0.84131005481E+02  0.42731782421E+03  0.54490793194E+03  0.00000000000E+00 0. -1.
         22    1    1    2    0    0  0.40830684473E+03  0.10508215105E+03  0.65815909715E+03  0.78162019875E+03  0.00000000000E+00 0. -1.
         22    1    1    2    0    0 -0.68968030720E+01  0.82821754051E+01  0.64234738130E+01  0.12546766033E+02  0.00000000000E+00 0. -1.
</event>
<event>
 6    1  0.1383644E-005  0.5677656E+02  0.7818608E-02  0.1429389E+00
          2   -1    0    0  502    0  0.00000000000E+00  0.00000000000E+00  0.30752346831E+03  0.30752346831E+03  0.00000000000E+00 0.  1.
          1   -1    0    0  501    0 -0.00000000000E+00 -0.00000000000E+00 -0.10075648920E+03  0.10075648920E+03  0.00000000000E+00 0.  1.
          2    1    1    2  501    0 -0.11172514400E+03 -0.10114250967E+02  0.14832803430E+03  0.18597314761E+03  0.00000000000E+00 0.  1.
          1    1    1    2  502    0  0.58820657785E+02 -0.15583174192E+02 -0.21978885003E+02  0.64697577127E+02  0.00000000000E+00 0.  1.
         22    1    1    2    0    0  0.96097008705E+01  0.32340347009E+02 -0.25958075927E+02  0.42568369728E+02  0.00000000000E+00 0.  1.
         22    1    1    2    0    0  0.43294785341E+02 -0.66429218494E+01  0.10637590574E+03  0.11504086305E+03  0.00000000000E+00 0.  1.
</event>
<event>
 6    1  0.1383644E-005  0.1000459E+03  0.7818608E-02  0.1287088E+00
          2   -1    0    0  502    0  0.00000000000E+00  0.00000000000E+00  0.92452281825E+03  0.92452281825E+03  0.00000000000E+00 0.  1.
          1   -1    0    0  501    0 -0.00000000000E+00 -0.00000000000E+00 -0.77257294723E+02  0.77257294723E+02  0.00000000000E+00 0.  1.
          2    1    1    2  501    0  0.12846641215E+03  0.51845134492E+02  0.73922374003E+03  0.75209259726E+03  0.00000000000E+00 0.  1.
          1    1    1    2  502    0 -0.43422177194E+02  0.29661093339E+01  0.76178119679E+02  0.87734766168E+02  0.00000000000E+00 0.  1.
         22    1    1    2    0    0  0.91588565138E+01 -0.45286155321E+01  0.52251495151E+02  0.53241072085E+02  0.00000000000E+00 0.  1.
         22    1    1    2    0    0 -0.94203091470E+02 -0.50282628294E+02 -0.20387831333E+02  0.10871167746E+03  0.00000000000E+00 0.  1.
</event>
<event>
 6    1  0.1383644E-005  0.1099585E+03  0.7818608E-02  0.1328291E+00
          2   -1    0    0  502    0  0.00000000000E+00  0.00000000000E+00  0.51531524440E+03  0.51531524440E+03  0.00000000000E+00 0. -1.
          1   -1    0    0  501    0 -0.00000000000E+00 -0.00000000000E+00 -0.62810621864E+02  0.62810621864E+02  0.00000000000E+00 0.  1.
          2    1    1    2  501    0 -0.85671989732E+02  0.14151471554E+02  0.30917575882E+03  0.32113798252E+03  0.00000000000E+00 0. -1.
          1    1    1    2  502    0  0.90914940331E+02 -0.61244431550E+01  0.61812802267E+02  0.11010839070E+03  0.00000000000E+00 0.  1.
         22    1    1    2    0    0  0.17087565954E+02 -0.26134004464E+02 -0.22807434887E+02  0.38667171938E+02  0.00000000000E+00 0.  1.
         22    1    1    2    0    0 -0.22330516553E+02  0.18106976065E+02  0.10432349633E+03  0.10821232110E+03  0.00000000000E+00 0. -1.
</event>
<event>
 6    1  0.1383644E-005  0.1848593E+03  0.7818608E-02  0.1165149E+00
          2   -1    0    0  502    0  0.00000000000E+00  0.00000000000E+00  0.15009742406E+03  0.15009742406E+03  0.00000000000E+00 0.  1.
          1   -1    0    0  501    0 -0.00000000000E+00 -0.00000000000E+00 -0.63396505481E+03  0.63396505481E+03  0.00000000000E+00 0.  1.
          2    1    1    2  501    0  0.10649279684E+03 -0.76205594324E+02  0.37327584665E+02  0.13616665143E+03  0.00000000000E+00 0.  1.
          1    1    1    2  502    0 -0.10205101563E+03  0.12513235096E+03 -0.48481257618E+03  0.51099486208E+03  0.00000000000E+00 0.  1.
         22    1    1    2    0    0 -0.12742861322E+02  0.16089823860E+01 -0.72886659256E+02  0.74009691504E+02  0.00000000000E+00 0.  1.
         22    1    1    2    0    0  0.83010801103E+01 -0.50535739018E+02  0.36504020029E+02  0.62891273857E+02  0.00000000000E+00 0.  1.
</event>
<event>
 6    1  0.1383644E-005  0.8012377E+02  0.7818608E-02  0.1373525E+00
          2   -1    0    0  502    0  0.00000000000E+00  0.00000000000E+00  0.15075946148E+03  0.15075946148E+03  0.00000000000E+00 0. -1.
          1   -1    0    0  501    0 -0.00000000000E+00 -0.00000000000E+00 -0.26849221496E+03  0.26849221496E+03  0.00000000000E+00 0. -1.
          2    1    1    2  501    0  0.60281873397E+02 -0.17161800651E+01 -0.12236897434E+02  0.61535284131E+02  0.00000000000E+00 0. -1.
          1    1    1    2  502    0 -0.72340746578E+02 -0.26111337347E+02  0.93362787675E+02  0.12096113291E+03  0.00000000000E+00 0. -1.
         22    1    1    2    0    0  0.28229783928E+02 -0.58190337668E+01  0.52184623863E+01  0.29291879493E+02  0.00000000000E+00 0. -1.
         22    1    1    2    0    0 -0.16170910747E+02  0.33646551179E+02 -0.20407710611E+03  0.20746337990E+03  0.00000000000E+00 0. -1.
</event>
<event>
 6    1  0.1383644E-005  0.1013229E+03  0.7818608E-02  0.1364192E+00
          2   -1    0    0  502    0  0.00000000000E+00  0.00000000000E+00  0.63488714932E+02  0.63488714932E+02  0.00000000000E+00 0.  1.
          1   -1    0    0  501    0 -0.00000000000E+00 -0.00000000000E+00 -0.22337099937E+03  0.22337099937E+03  0.00000000000E+00 0.  1.
          2    1    1    2  501    0  0.19376334461E+02 -0.13022579387E+02 -0.37563341288E+02  0.44227079033E+02  0.00000000000E+00 0.  1.
          1    1    1    2  502    0 -0.23216587302E+02  0.28132838792E+02 -0.10767167789E+03  0.11368226231E+03  0.00000000000E+00 0.  1.
         22    1    1    2    0    0 -0.17689399854E+02 -0.16046890398E+02  0.52903849194E+02  0.58045110200E+02  0.00000000000E+00 0.  1.
         22    1    1    2    0    0  0.21529652695E+02  0.93663099381E+00 -0.67551114457E+02  0.70905262761E+02  0.00000000000E+00 0.  1.
</event>
<event>
 6    1  0.1383644E-005  0.7723491E+02  0.7818608E-02  0.1382914E+00
          2   -1    0    0  502    0  0.00000000000E+00  0.00000000000E+00  0.58371020884E+03  0.58371020884E+03  0.00000000000E+00 0.  1.
          1   -1    0    0  501    0 -0.00000000000E+00 -0.00000000000E+00 -0.15096002322E+03  0.15096002322E+03  0.00000000000E+00 0. -1.
          2    1    1    2  501    0  0.46074414514E+02 -0.39700429066E+02  0.47037028385E+03  0.47428596824E+03  0.00000000000E+00 0.  1.
          1    1    1    2  502    0 -0.60926298348E+02  0.75470605165E+00 -0.97734199293E+02  0.11517185908E+03  0.00000000000E+00 0. -1.
         22    1    1    2    0    0  0.15989461247E+02  0.32182287340E+01  0.94330396869E+02  0.95730056098E+02  0.00000000000E+00 0.  1.
         22    1    1    2    0    0 -0.11375774126E+01  0.35727494280E+02 -0.34216295793E+02  0.49482348648E+02  0.00000000000E+00 0. -1.
</event>
<event>
 6    1  0.1383644E-005  0.1557116E+03  0.7818608E-02  0.1250820E+00
          2   -1    0    0  502    0  0.00000000000E+00  0.00000000000E+00  0.36880852727E+03  0.36880852727E+03  0.00000000000E+00 0.  1.
          1   -1    0    0  501    0 -0.00000000000E+00 -0.00000000000E+00 -0.30317688101E+03  0.30317688101E+03  0.00000000000E+00 0. -1.
          2    1    1    2  501    0  0.10033523709E+03 -0.10715394792E+03  0.29349551223E+03  0.32815963197E+03  0.00000000000E+00 0.  1.
          1    1    1    2  502    0 -0.90076755835E+02  0.74952896146E+02 -0.61501054535E+02  0.13234099248E+03  0.00000000000E+00 0. -1.
         22    1    1    2    0    0  0.11684602675E+02 -0.94014752581E+01  0.16717803954E+02  0.22458910163E+02  0.00000000000E+00 0. -1.
         22    1    1    2    0    0 -0.21943083926E+02  0.41602527032E+02 -0.18308061539E+03  0.18902587367E+03  0.00000000000E+00 0. -1.
</event>
<event>
 6    1  0.1383644E-005  0.3454850E+02  0.7818608E-02  0.1624171E+00
          2   -1    0    0  502    0  0.00000000000E+00  0.00000000000E+00  0.24928090757E+03  0.24928090757E+03  0.00000000000E+00 0. -1.
          1   -1    0    0  501    0 -0.00000000000E+00 -0.00000000000E+00 -0.52472308063E+02  0.52472308063E+02  0.00000000000E+00 0. -1.
          2    1    1    2  501    0 -0.17953367049E+02 -0.13451567376E+02  0.51325380370E+02  0.56013951149E+02  0.00000000000E+00 0. -1.
          1    1    1    2  502    0  0.26961854691E+02  0.34485699468E+01  0.11152895372E+03  0.11479347439E+03  0.00000000000E+00 0. -1.
         22    1    1    2    0    0  0.45485881592E+01  0.13678720017E+02 -0.46804756445E+02  0.48974302052E+02  0.00000000000E+00 0. -1.
         22    1    1    2    0    0 -0.13557075802E+02 -0.36757225875E+01  0.80759021858E+02  0.81971488045E+02  0.00000000000E+00 0. -1.
</event>
<event>
 6    1  0.1383644E-005  0.7838053E+02  0.7818608E-02  0.1436170E+00
          2   -1    0    0  502    0  0.00000000000E+00  0.00000000000E+00  0.25027545061E+03  0.25027545061E+03  0.00000000000E+00 0. -1.
          1   -1    0    0  501    0 -0.00000000000E+00 -0.00000000000E+00 -0.11511547501E+03  0.11511547501E+03  0.00000000000E+00 0. -1.
          2    1    1    2  501    0 -0.29616100461E+02 -0.34147772208E+01  0.10845226063E+03  0.11247518369E+03  0.00000000000E+00 0. -1.
          1    1    1    2  502    0  0.47015742799E+02 -0.25809665864E+02 -0.72532038410E+02  0.90208178781E+02  0.00000000000E+00 0. -1.
         22    1    1    2    0    0  0.27481118028E+01 -0.14628150524E+02 -0.25183431200E+02  0.29253035966E+02  0.00000000000E+00 0. -1.
         22    1    1    2    0    0 -0.20147754141E+02  0.43852593609E+02  0.12442318459E+03  0.13345452718E+03  0.00000000000E+00 0. -1.
</event>
<event>
 6    1  0.1383644E-005  0.1558854E+03  0.7818608E-02  0.1331118E+00
          2   -1    0    0  502    0  0.00000000000E+00  0.00000000000E+00  0.38166266879E+03  0.38166266879E+03  0.00000000000E+00 0. -1.
          1   -1    0    0  501    0 -0.00000000000E+00 -0.00000000000E+00 -0.12363361405E+03  0.12363361405E+03  0.00000000000E+00 0. -1.
          2    1    1    2  501    0 -0.84646898157E+02 -0.94378254554E+02  0.18940872533E+03  0.22792107742E+03  0.00000000000E+00 0. -1.
          1    1    1    2  502    0  0.89828334459E+02  0.11366801370E+03  0.47551058955E+02  0.15248163895E+03  0.00000000000E+00 0. -1.
         22    1    1    2    0    0 -0.91216552066E+01 -0.28943439402E+02  0.69244736341E+02  0.75602650675E+02  0.00000000000E+00 0.  1.
         22    1    1    2    0    0  0.39402189048E+01  0.96536802584E+01 -0.48175465879E+02  0.49290915798E+02  0.00000000000E+00 0.  1.
</event>
<event>
 6    1  0.1383644E-005  0.1953511E+03  0.7818608E-02  0.1285668E+00
          2   -1    0    0  502    0  0.00000000000E+00  0.00000000000E+00  0.32143657122E+03  0.32143657122E+03  0.00000000000E+00 0. -1.
          1   -1    0    0  501    0 -0.00000000000E+00 -0.00000000000E+00 -0.10664317675E+04  0.10664317675E+04  0.00000000000E+00 0. -1.
          2    1    1    2  501    0  0.13474567055E+03 -0.46216857816E+02  0.16199703568E+03  0.21572072976E+03  0.00000000000E+00 0. -1.
          1    1    1    2  502    0 -0.16257522992E+03  0.88430263638E+02 -0.99562548797E+03  0.10126799737E+04  0.00000000000E+00 0. -1.
         22    1    1    2    0    0  0.30124092015E+02 -0.30316591744E+02  0.11917702409E+03  0.12660852943E+03  0.00000000000E+00 0.  1.
         22    1    1    2    0    0 -0.22945326438E+01 -0.11896814078E+02 -0.30543768105E+02  0.32859105821E+02  0.00000000000E+00 0. -1.
</event>
<event>
 6    1  0.1383644E-005  0.6965430E+02  0.7818608E-02  0.1475735E+00
          2   -1    0    0  502    0  0.00000000000E+00  0.00000000000E+00  0.36453326624E+03  0.36453326624E+03  0.00000000000E+00 0.  1.
          1   -1    0    0  501    0 -0.00000000000E+00 -0.00000000000E+00 -0.43619360468E+02  0.43619360468E+02  0.00000000000E+00 0.  1.
          2    1    1    2  501    0  0.14079675195E+02  0.20270202900E+02  0.19500995087E+03  0.19656550897E+03  0.00000000000E+00 0.  1.
          1    1    1    2  502    0 -0.31215063868E+02  0.45519403230E+01 -0.21494419168E+01  0.31618356592E+02  0.00000000000E+00 0.  1.
         22    1    1    2    0    0  0.18473861325E+02 -0.36642548979E+02  0.14972509652E+03  0.15524678572E+03  0.00000000000E+00 0.  1.
         22    1    1    2    0    0 -0.13384726522E+01  0.11820405755E+02 -0.21671699699E+02  0.24721975429E+02  0.00000000000E+00 0.  1.
</event>
<event>
 6    1  0.1383644E-005  0.2089621E+03  0.7818608E-02  0.1241826E+00
          2   -1    0    0  502    0  0.00000000000E+00  0.00000000000E+00  0.10650896418E+04  0.10650896418E+04  0.00000000000E+00 0. -1.
          1   -1    0    0  501    0 -0.00000000000E+00 -0.00000000000E+00 -0.81506574074E+02  0.81506574074E+02  0.00000000000E+00 0. -1.
          2    1    1    2  501    0  0.10313507300E+03 -0.34879947984E+02  0.19675968679E+02  0.11063723513E+03  0.00000000000E+00 0. -1.
          1    1    1    2  502    0 -0.14076721086E+03 -0.16107283613E+02  0.82594883388E+03  0.83801332235E+03  0.00000000000E+00 0. -1.
         22    1    1    2    0    0  0.60940111955E+02  0.51670898520E+02  0.15128582985E+03  0.17108764219E+03  0.00000000000E+00 0. -1.
         22    1    1    2    0    0 -0.23307974090E+02 -0.68366692302E+00 -0.13327564651E+02  0.26858016236E+02  0.00000000000E+00 0.  1.
</event>
<event>
 6    1  0.1383644E-005  0.7387374E+02  0.7818608E-02  0.1401400E+00
          2   -1    0    0  502    0  0.00000000000E+00  0.00000000000E+00  0.22041351402E+03  0.22041351402E+03  0.00000000000E+00 0. -1.
          1   -1    0    0  501    0 -0.00000000000E+00 -0.00000000000E+00 -0.54289456306E+02  0.54289456306E+02  0.00000000000E+00 0. -1.
          2    1    1    2  501    0  0.62260228071E+00 -0.30307933447E+02  0.66104763372E+02  0.72724123947E+02  0.00000000000E+00 0. -1.
          1    1    1    2  502    0  0.20720931051E+02  0.45298231728E+02  0.26057622281E+02  0.56216425182E+02  0.00000000000E+00 0. -1.
         22    1    1    2    0    0 -0.35138816443E+02 -0.42057122007E+02  0.94394501636E+02  0.10915062928E+03  0.00000000000E+00 0. -1.
         22    1    1    2    0    0  0.13795283112E+02  0.27066823726E+02 -0.20432829578E+02  0.36611791916E+02  0.00000000000E+00 0. -1.
</event>
<event>
 6    1  0.1383644E-005  0.1193914E+03  0.7818608E-02  0.1246895E+00
          2   -1    0    0  502    0  0.00000000000E+00  0.00000000000E+00  0.45439138819E+02  0.45439138819E+02  0.00000000000E+00 0.  1.
          1   -1    0    0  501    0 -0.00000000000E+00 -0.00000000000E+00 -0.56859302251E+03  0.56859302251E+03  0.00000000000E+00 0. -1.
          2    1    1    2  501    0  0.39079891061E+02 -0.22162186897E+02 -0.46596389091E+02  0.64727304051E+02  0.00000000000E+00 0.  1.
          1    1    1    2  502    0 -0.68121061264E+02  0.55743178173E+02 -0.36326190140E+03  0.37377398239E+03  0.00000000000E+00 0. -1.
         22    1    1    2    0    0 -0.24419517571E+02  0.45153101059E+01 -0.10670318022E+03  0.10955486997E+03  0.00000000000E+00 0. -1.
         22    1    1    2    0    0  0.53460687774E+02 -0.38096301382E+02 -0.65924129720E+01  0.65976004919E+02  0.00000000000E+00 0.  1.
</event>
<event>
 6    1  0.1383644E-005  0.5214350E+02  0.7818608E-02  0.1527874E+00
          2   -1    0    0  502    0  0.00000000000E+00  0.00000000000E+00  0.12358209257E+03  0.12358209257E+03  0.00000000000E+00 0. -1.
          1   -1    0    0  501    0 -0.00000000000E+00 -0.00000000000E+00 -0.29602681642E+03  0.29602681642E+03  0.00000000000E+00 0.  1.
          2    1    1    2  501    0  0.39281976256E+02 -0.11754529848E+02  0.71139310694E+02  0.82109951629E+02  0.00000000000E+00 0. -1.
          1    1    1    2  502    0 -0.37210473034E+02 -0.48113570913E+01 -0.20577416288E+03  0.20916685820E+03  0.00000000000E+00 0.  1.
         22    1    1    2    0    0  0.10687174848E+02  0.88437297690E+01  0.43503910223E+02  0.45661991493E+02  0.00000000000E+00 0.  1.
         22    1    1    2    0    0 -0.12758678070E+02  0.77221571701E+01 -0.81313781883E+02  0.82670107667E+02  0.00000000000E+00 0. -1.
</event>
<event>
 6    1  0.1383644E-005  0.2169151E+03  0.7818608E-02  0.1235512E+00
          2   -1    0    0  502    0  0.00000000000E+00  0.00000000000E+00  0.18027392131E+04  0.18027392131E+04  0.00000000000E+00 0.  1.
          1   -1    0    0  501    0 -0.00000000000E+00 -0.00000000000E+00 -0.60641475485E+02  0.60641475485E+02  0.00000000000E+00 0. -1.
          2    1    1    2  501    0 -0.14302253033E+03 -0.93180527056E+02  0.12680430726E+04  0.12794808669E+04  0.00000000000E+00 0.  1.
          1    1    1    2  502    0  0.15803920271E+03  0.11315397888E+03  0.19178079868E+03  0.27305693045E+03  0.00000000000E+00 0. -1.
         22    1    1    2    0    0  0.11077387638E+02  0.20957425145E+02 -0.72031594676E+00  0.23715839447E+02  0.00000000000E+00 0. -1.
         22    1    1    2    0    0 -0.26094060017E+02 -0.40930876966E+02  0.28299418225E+03  0.28712705175E+03  0.00000000000E+00 0. -1.
</event>
<event>
 6    1  0.1383644E-005  0.5536025E+02  0.7818608E-02  0.1487158E+00
          2   -1    0    0  502    0  0.00000000000E+00  0.00000000000E+00  0.33993409993E+03  0.33993409993E+03  0.00000000000E+00 0. -1.
          1   -1    0    0  501    0 -0.00000000000E+00 -0.00000000000E+00 -0.61705363800E+02  0.61705363800E+02  0.00000000000E+00 0.  1.
          2    1    1    2  501    0  0.36837340283E+02 -0.30383106653E+01  0.10256480228E+02  0.38359045315E+02  0.00000000000E+00 0. -1.
          1    1    1    2  502    0  0.20726353933E+02  0.35066706489E+02 -0.16312508982E+02  0.43878851405E+02  0.00000000000E+00 0.  1.
         22    1    1    2    0    0  0.82030485629E+00 -0.20153100544E+02 -0.75579812823E+01  0.21539346385E+02  0.00000000000E+00 0. -1.
         22    1    1    2    0    0 -0.58383999073E+02 -0.11875295279E+02  0.29184274616E+03  0.29786222062E+03  0.00000000000E+00 0. -1.
</event>
<event>
 6    1  0.1383644E-005  0.1509579E+03  0.7818608E-02  0.1254326E+00
          2   -1    0    0  502    0  0.00000000000E+00  0.00000000000E+00  0.25473320255E+03  0.25473320255E+03  0.00000000000E+00 0.  1.
          1   -1    0    0  501    0 -0.00000000000E+00 -0.00000000000E+00 -0.98270458439E+02  0.98270458439E+02  0.00000000000E+00 0.  1.
          2    1    1    2  501    0 -0.12462343221E+02  0.36962687574E+02  0.90518062951E+01  0.40043544654E+02  0.00000000000E+00 0.  1.
          1    1    1    2  502    0 -0.55739172019E+02  0.58040608580E+02 -0.11790630821E+02  0.81330108305E+02  0.00000000000E+00 0.  1.
         22    1    1    2    0    0  0.47958553678E+02 -0.42025041955E+01  0.10595806251E+01  0.48153988656E+02  0.00000000000E+00 0.  1.
         22    1    1    2    0    0  0.20242961562E+02 -0.90800791958E+02  0.15814198801E+03  0.18347601937E+03  0.00000000000E+00 0.  1.
</event>
<event>
 6    1  0.1383644E-005  0.3540133E+02  0.7818608E-02  0.1600726E+00
          2   -1    0    0  502    0  0.00000000000E+00  0.00000000000E+00  0.11087479345E+03  0.11087479345E+03  0.00000000000E+00 0.  1.
          1   -1    0    0  501    0 -0.00000000000E+00 -0.00000000000E+00 -0.21598195852E+03  0.21598195852E+03  0.00000000000E+00 0.  1.
          2    1    1    2  501    0  0.15064499099E+02  0.19708518298E+02  0.64443632269E+02  0.69053215469E+02  0.00000000000E+00 0.  1.
          1    1    1    2  502    0 -0.29646651680E+02 -0.50042346178E+01 -0.12005756948E+03  0.12376504478E+03  0.00000000000E+00 0.  1.
         22    1    1    2    0    0  0.47260324251E+01 -0.17043035034E+02 -0.90288475202E+02  0.92004397613E+02  0.00000000000E+00 0.  1.
         22    1    1    2    0    0  0.98561201559E+01  0.23387513541E+01  0.40795247344E+02  0.42034094117E+02  0.00000000000E+00 0.  1.
</event>
<event>
 6    1  0.1383644E-005  0.9496934E+02  0.7818608E-02  0.1299767E+00
          2   -1    0    0  502    0  0.00000000000E+00  0.00000000000E+00  0.79634338794E+03  0.79634338794E+03  0.00000000000E+00 0.  1.
          1   -1    0    0  501    0 -0.00000000000E+00 -0.00000000000E+00 -0.11503324197E+03  0.11503324197E+03  0.00000000000E+00 0.  1.
          2    1    1    2  501    0 -0.46944005024E+02 -0.61815281738E+02  0.62300782158E+03  0.62782450925E+03  0.00000000000E+00 0.  1.
          1    1    1    2  502    0  0.56163266837E+02 -0.39957858404E+00 -0.71024772959E+02  0.90548277613E+02  0.00000000000E+00 0.  1.
         22    1    1    2    0    0 -0.31292104091E+01 -0.18627801372E+02  0.10735966987E+03  0.10900864945E+03  0.00000000000E+00 0.  1.
         22    1    1    2    0    0 -0.60900514040E+01  0.80842661693E+02  0.21967427486E+02  0.83995193589E+02  0.00000000000E+00 0.  1.
</event>
<event>
 6    1  0.1383644E-005  0.7826440E+02  0.7818608E-02  0.1354309E+00
          2   -1    0    0  502    0  0.00000000000E+00  0.00000000000E+00  0.41670703507E+03  0.41670703507E+03  0.00000000000E+00 0. -1.
          1   -1    0    0  501    0 -0.00000000000E+00 -0.00000000000E+00 -0.37705204310E+02  0.37705204310E+02  0.00000000000E+00 0. -1.
          2    1    1    2  501    0  0.45171901074E+02  0.36310262167E+02  0.12039693531E+03  0.13362019989E+03  0.00000000000E+00 0. -1.
          1    1    1    2  502    0 -0.15466875598E+02 -0.50593654789E+02  0.10084632215E+03  0.11388117859E+03  0.00000000000E+00 0. -1.
         22    1    1    2    0    0  0.15726958227E+02  0.45670535602E+02  0.14124337328E+03  0.14927432979E+03  0.00000000000E+00 0. -1.
         22    1    1    2    0    0 -0.45431983703E+02 -0.31387142981E+02  0.16515200017E+02  0.57636531118E+02  0.00000000000E+00 0. -1.
</event>
<event>
 6    1  0.1383644E-005  0.1297708E+03  0.7818608E-02  0.1305594E+00
          2   -1    0    0  502    0  0.00000000000E+00  0.00000000000E+00  0.37187972429E+03  0.37187972429E+03  0.00000000000E+00 0. -1.
          1   -1    0    0  501    0 -0.00000000000E+00 -0.00000000000E+00 -0.15947898967E+03  0.15947898967E+03  0.00000000000E+00 0. -1.
          2    1    1    2  501    0 -0.81352300596E+02 -0.10580780057E+03  0.20670585564E+03  0.24605039774E+03  0.00000000000E+00 0. -1.
          1    1    1    2  502    0  0.52040836515E+02  0.84650037298E+02 -0.78185368772E+02  0.12643903420E+03  0.00000000000E+00 0. -1.
         22    1    1    2    0    0  0.27296610187E+02 -0.83717862154E+01  0.11347602126E+03  0.11701281610E+03  0.00000000000E+00 0. -1.
         22    1    1    2    0    0  0.20148538944E+01  0.29529549485E+02 -0.29595773508E+02  0.41856465911E+02  0.00000000000E+00 0.  1.
</event>
<event>
 6    1  0.1383644E-005  0.1455295E+03  0.7818608E-02  0.1258480E+00
          2   -1    0    0  502    0  0.00000000000E+00  0.00000000000E+00  0.71619175881E+03  0.71619175881E+03  0.00000000000E+00 0. -1.
          1   -1    0    0  501    0 -0.00000000000E+00 -0.00000000000E+00 -0.51400707148E+02  0.51400707148E+02  0.00000000000E+00 0. -1.
          2    1    1    2  501    0  0.23220601699E+02 -0.18291611733E+02  0.83864032848E+02  0.88921062795E+02  0.00000000000E+00 0. -1.
          1    1    1    2  502    0 -0.14806348828E+03 -0.36507829184E+01  0.40085561676E+03  0.42734219341E+03  0.00000000000E+00 0. -1.
         22    1    1    2    0    0 -0.16828221328E+02 -0.10676806322E+02  0.58555390321E+02  0.61853997138E+02  0.00000000000E+00 0. -1.
         22    1    1    2    0    0  0.14167110791E+03  0.32619200974E+02  0.12151601174E+03  0.18947521262E+03  0.00000000000E+00 0. -1.
</event>
<event>
 6    1  0.1383644E-005  0.5459348E+02  0.7818608E-02  0.1458365E+00
          2   -1    0    0  502    0  0.00000000000E+00  0.00000000000E+00  0.33490465413E+03  0.33490465413E+03  0.00000000000E+00 0.  1.
          1   -1    0    0  501    0 -0.00000000000E+00 -0.00000000000E+00 -0.30233425800E+03  0.30233425800E+03  0.00000000000E+00 0. -1.
          2    1    1    2  501    0  0.84664599540E+02  0.10373003431E+02  0.24741540700E+03  0.26170608941E+03  0.00000000000E+00 0.  1.
          1    1    1    2  502    0 -0.80483743579E+02  0.32155443926E+02 -0.22670857440E+03  0.24271049269E+03  0.00000000000E+00 0. -1.
         22    1    1    2    0    0 -0.13306133629E+02 -0.12536826431E+02 -0.55547378598E+02  0.58478512962E+02  0.00000000000E+00 0.  1.
         22    1    1    2    0    0  0.91252776673E+01 -0.29991620925E+02  0.67410942125E+02  0.74343817069E+02  0.00000000000E+00 0.  1.
</event>
<event>
 6    1  0.1383644E-005  0.8858587E+02  0.7818608E-02  0.1307416E+00
          2   -1    0    0  502    0  0.00000000000E+00  0.00000000000E+00  0.10028957314E+04  0.10028957314E+04  0.00000000000E+00 0. -1.
          1   -1    0    0  501    0 -0.00000000000E+00 -0.00000000000E+00 -0.34315264597E+02  0.34315264597E+02  0.00000000000E+00 0.  1.
          2    1    1    2  501    0  0.23967325844E+02  0.53413672515E+02  0.76241802474E+03  0.76466247297E+03  0.00000000000E+00 0. -1.
          1    1    1    2  502    0 -0.37186917348E+02  0.55333369320E+01  0.28464661640E+02  0.47156352719E+02  0.00000000000E+00 0.  1.
         22    1    1    2    0    0  0.32085139863E+02 -0.80675771305E+02  0.63343580859E+02  0.10747299899E+03  0.00000000000E+00 0.  1.
         22    1    1    2    0    0 -0.18865548358E+02  0.21728761858E+02  0.11435419959E+03  0.11791917135E+03  0.00000000000E+00 0.  1.
</event>
<event>
 6    1  0.1383644E-005  0.5921956E+02  0.7818608E-02  0.1508557E+00
          2   -1    0    0  502    0  0.00000000000E+00  0.00000000000E+00  0.33177486302E+03  0.33177486302E+03  0.00000000000E+00 0.  1.
          1   -1    0    0  501    0 -0.00000000000E+00 -0.00000000000E+00 -0.12270112465E+03  0.12270112465E+03  0.00000000000E+00 0. -1.
          2    1    1    2  501    0 -0.20688296538E+02  0.13003164179E+02  0.14660466124E+03  0.14862709911E+03  0.00000000000E+00 0.  1.
          1    1    1    2  502    0  0.47777767028E+02  0.12844147876E+02 -0.90520340466E+02  0.10315822408E+03  0.00000000000E+00 0. -1.
         22    1    1    2    0    0  0.44421846295E+01 -0.11436487838E+02 -0.21519555245E+02  0.24771304291E+02  0.00000000000E+00 0. -1.
         22    1    1    2    0    0 -0.31531655120E+02 -0.14410824218E+02  0.17450897284E+03  0.17791936020E+03  0.00000000000E+00 0. -1.
</event>
<event>
 6    1  0.1383644E-005  0.3042942E+02  0.7818608E-02  0.1596899E+00
          2   -1    0    0  502    0  0.00000000000E+00  0.00000000000E+00  0.42161243935E+03  0.42161243935E+03  0.00000000000E+00 0. -1.
          1   -1    0    0  501    0 -0.00000000000E+00 -0.00000000000E+00 -0.75053107015E+02  0.75053107015E+02  0.00000000000E+00 0. -1.
          2    1    1    2  501    0  0.41498623054E+02  0.96605921697E+01  0.32737048376E+03  0.33013163495E+03  0.00000000000E+00 0. -1.
          1    1    1    2  502    0 -0.29487477099E+02 -0.24545688911E+02 -0.11880619590E+01  0.38385070548E+02  0.00000000000E+00 0. -1.
         22    1    1    2    0    0 -0.17179012801E+02 -0.29537278924E+01 -0.51260470355E+02  0.54143132624E+02  0.00000000000E+00 0. -1.
         22    1    1    2    0    0  0.51678668467E+01  0.17838824634E+02  0.71637380886E+02  0.74005708241E+02  0.00000000000E+00 0. -1.
</event>
<event>
 6    1  0.1383644E-005  0.1207772E+03  0.7818608E-02  0.1352766E+00
          2   -1    0    0  502    0  0.00000000000E+00  0.00000000000E+00  0.34588214706E+03  0.34588214706E+03  0.00000000000E+00 0.  1.
          1   -1    0    0  501    0 -0.00000000000E+00 -0.00000000000E+00 -0.78273087797E+02  0.78273087797E+02  0.00000000000E+00 0. -1.
          2    1    1    2  501    0 -0.13822766237E+02 -0.21833465302E+02  0.22008690131E+02  0.33943357447E+02  0.00000000000E+00 0.  1.
          1    1    1    2  502    0 -0.24311691281E+02 -0.29533114051E+02 -0.49058522968E+02  0.62209338803E+02  0.00000000000E+00 0. -1.
         22    1    1    2    0    0  0.47156452004E+02  0.63877048022E+02  0.30102224476E+03  0.31131720170E+03  0.00000000000E+00 0.  1.
         22    1    1    2    0    0 -0.90219944858E+01 -0.12510468670E+02 -0.63633526601E+01  0.16685336913E+02  0.00000000000E+00 0.  1.
</event>
<event>
 6    1  0.1383644E-005  0.7888434E+02  0.7818608E-02  0.1345938E+00
          2   -1    0    0  502    0  0.00000000000E+00  0.00000000000E+00  0.82056104922E+02  0.82056104922E+02  0.00000000000E+00 0. -1.
          1   -1    0    0  501    0 -0.00000000000E+00 -0.00000000000E+00 -0.41747717052E+03  0.41747717052E+03  0.00000000000E+00 0. -1.
          2    1    1    2  501    0 -0.24862821168E+02 -0.32012029851E+02 -0.20863358285E+03  0.21253447209E+03  0.00000000000E+00 0. -1.
          1    1    1    2  502    0  0.99690827820E+01  0.47982452269E+02  0.51080183155E+02  0.70787593888E+02  0.00000000000E+00 0. -1.
         22    1    1    2    0    0  0.54461031944E+02  0.30060825637E+02 -0.88170135066E+02  0.10790565303E+03  0.00000000000E+00 0. -1.
         22    1    1    2    0    0 -0.39567293557E+02 -0.46031248054E+02 -0.89697530829E+02  0.10830555643E+03  0.00000000000E+00 0. -1.
</event>
<event>
 6    1  0.1383644E-005  0.2283335E+03  0.7818608E-02  0.1265180E+00
          2   -1    0    0  502    0  0.00000000000E+00  0.00000000000E+00  0.10609633588E+04  0.10609633588E+04  0.00000000000E+00 0.  1.
          1   -1    0    0  501    0 -0.00000000000E+00 -0.00000000000E+00 -0.10062564702E+03  0.10062564702E+03  0.00000000000E+00 0. -1.
          2    1    1    2  501    0 -0.14590031693E+02 -0.18056096719E+03  0.70968225194E+03  0.73243704891E+03  0.00000000000E+00 0.  1.
          1    1    1    2  502    0 -0.59322273500E+01  0.21678136081E+03  0.12942625215E+03  0.25254802407E+03  0.00000000000E+00 0. -1.
         22    1    1    2    0    0  0.14321391820E+02 -0.45592824484E+02  0.14372253897E+03  0.15145948672E+03  0.00000000000E+00 0. -1.
         22    1    1    2    0    0  0.62008672232E+01  0.93724308571E+01 -0.22493331329E+02  0.25144446082E+02  0.00000000000E+00 0. -1.
</event>
<event>
 6    1  0.1383644E-005  0.4091950E+03  0.7818608E-02  0.1115743E+00
          2   -1    0    0  502    0  0.00000000000E+00  0.00000000000E+00  0.18819558968E+04  0.18819558968E+04  0.00000000000E+00 0. -1.
          1   -1    0    0  501    0 -0.00000000000E+00 -0.00000000000E+00 -0.24672750546E+03  0.24672750546E+03  0.00000000000E+00 0.  1.
          2    1    1    2  501    0  0.58788780468E+02  0.39203579936E+03  0.15479169895E+04  0.15978720835E+04  0.00000000000E+00 0. -1.
          1    1    1    2  502    0 -0.16332462166E+02 -0.39035218126E+03  0.39847566577E+02  0.39272051550E+03  0.00000000000E+00 0.  1.
         22    1    1    2    0    0 -0.51914364703E+02 -0.13364307396E+02 -0.28460224803E+02  0.60693412908E+02  0.00000000000E+00 0.  1.
         22    1    1    2    0    0  0.94580464010E+01  0.11680689288E+02  0.75924060050E+02  0.77397390385E+02  0.00000000000E+00 0. -1.
</event>
<event>
 6    1  0.1383644E-005  0.6247859E+02  0.7818608E-02  0.1488663E+00
          2   -1    0    0  502    0  0.00000000000E+00  0.00000000000E+00  0.44655335938E+03  0.44655335938E+03  0.00000000000E+00 0. -1.
          1   -1    0    0  501    0 -0.00000000000E+00 -0.00000000000E+00 -0.64094693459E+02  0.64094693459E+02  0.00000000000E+00 0. -1.
          2    1    1    2  501    0 -0.28953009571E+02  0.59690415422E+02  0.21496547221E+03  0.22496972396E+03  0.00000000000E+00 0. -1.
          1    1    1    2  502    0  0.79168929740E+02 -0.48824466770E+02  0.10184611289E+03  0.13792816501E+03  0.00000000000E+00 0. -1.
         22    1    1    2    0    0 -0.47061548123E+02 -0.85685106460E+00  0.10070129032E+03  0.11115877553E+03  0.00000000000E+00 0. -1.
         22    1    1    2    0    0 -0.31543720458E+01 -0.10009097587E+02 -0.35054209495E+02  0.36591388343E+02  0.00000000000E+00 0. -1.
</event>
<event>
 6    1  0.1383644E-005  0.4897934E+03  0.7818608E-02  0.1080365E+00
          2   -1    0    0  502    0  0.00000000000E+00  0.00000000000E+00  0.81974540948E+03  0.81974540948E+03  0.00000000000E+00 0. -1.
          1   -1    0    0  501    0 -0.00000000000E+00 -0.00000000000E+00 -0.29319943472E+03  0.29319943472E+03  0.00000000000E+00 0. -1.
          2    1    1    2  501    0 -0.40130008628E+03  0.39177477084E+02  0.21632576271E+03  0.45757345812E+03  0.00000000000E+00 0. -1.
          1    1    1    2  502    0  0.40156490550E+03  0.22795532007E+02  0.32778259440E+03  0.51885974868E+03  0.00000000000E+00 0. -1.
         22    1    1    2    0    0  0.21961400870E+02  0.13373367310E+02 -0.46220498002E+02  0.52891251799E+02  0.00000000000E+00 0. -1.
         22    1    1    2    0    0 -0.22226220083E+02 -0.75346376401E+02  0.28658115656E+02  0.83620385606E+02  0.00000000000E+00 0.  1.
</event>
<event>
 6    1  0.1383644E-005  0.1060889E+03  0.7818608E-02  0.1349283E+00
          2   -1    0    0  502    0  0.00000000000E+00  0.00000000000E+00  0.90969489576E+03  0.90969489576E+03  0.00000000000E+00 0. -1.
          1   -1    0    0  501    0 -0.00000000000E+00 -0.00000000000E+00 -0.20362299185E+02  0.20362299185E+02  0.00000000000E+00 0. -1.
          2    1    1    2  501    0 -0.18125426465E+02 -0.19608842381E+02  0.12862637623E+03  0.13136887929E+03  0.00000000000E+00 0. -1.
          1    1    1    2  502    0  0.85720236203E+02  0.38180432716E+02  0.35199208560E+03  0.36428578433E+03  0.00000000000E+00 0. -1.
         22    1    1    2    0    0 -0.81966977429E+02 -0.37979853521E+02  0.39774969976E+03  0.40787973512E+03  0.00000000000E+00 0. -1.
         22    1    1    2    0    0  0.14372167691E+02  0.19408263186E+02  0.10964434982E+02  0.26522796205E+02  0.00000000000E+00 0.  1.
</event>
<event>
 6    1  0.1383644E-005  0.7239677E+02  0.7818608E-02  0.1435214E+00
          2   -1    0    0  502    0  0.00000000000E+00  0.00000000000E+00  0.33548341724E+03  0.33548341724E+03  0.00000000000E+00 0. -1.
          1   -1    0    0  501    0 -0.00000000000E+00 -0.00000000000E+00 -0.11385394461E+03  0.11385394461E+03  0.00000000000E+00 0. -1.
          2    1    1    2  501    0  0.75072534527E+02  0.73900247966E+02  0.58353659873E+02  0.12042541970E+03  0.00000000000E+00 0. -1.
          1    1    1    2  502    0 -0.11111101681E+03 -0.84712623383E+02  0.13349203397E+03  0.19324080767E+03  0.00000000000E+00 0. -1.
         22    1    1    2    0    0 -0.95686197873E+01  0.70553309546E+01 -0.45797756880E+02  0.47315649786E+02  0.00000000000E+00 0.  1.
         22    1    1    2    0    0  0.45607102067E+02  0.37570444626E+01  0.75581535666E+02  0.88355484695E+02  0.00000000000E+00 0. -1.
</event>
<event>
 6    1  0.1383644E-005  0.1893890E+03  0.7818608E-02  0.1190300E+00
          2   -1    0    0  502    0  0.00000000000E+00  0.00000000000E+00  0.15124848430E+03  0.15124848430E+03  0.00000000000E+00 0.  1.
          1   -1    0    0  501    0 -0.00000000000E+00 -0.00000000000E+00 -0.73430791959E+03  0.73430791959E+03  0.00000000000E+00 0.  1.
          2    1    1    2  501    0  0.13170998186E+03  0.52300426601E+02  0.13647092052E+02  0.14236957914E+03  0.00000000000E+00 0.  1.
          1    1    1    2  502    0 -0.24892306700E+03 -0.78807691028E+01 -0.43731237246E+03  0.50325630738E+03  0.00000000000E+00 0.  1.
         22    1    1    2    0    0  0.80011861580E+02 -0.47629389100E+02 -0.17596190025E+03  0.19908050392E+03  0.00000000000E+00 0.  1.
         22    1    1    2    0    0  0.37201223565E+02  0.32097316015E+01  0.16567745369E+02  0.40850013443E+02  0.00000000000E+00 0. -1.
</event>
<event>
 6    1  0.1383644E-005  0.2600553E+03  0.7818608E-02  0.1207993E+00
          2   -1    0    0  502    0  0.00000000000E+00  0.00000000000E+00  0.10098778997E+04  0.10098778997E+04  0.00000000000E+00 0. -1.
          1   -1    0    0  501    0 -0.00000000000E+00 -0.00000000000E+00 -0.15596115104E+03  0.15596115104E+03  0.00000000000E+00 0.  1.
          2    1    1    2  501    0  0.53063372084E+02 -0.23047214043E+03  0.72096778150E+03  0.75876720470E+03  0.00000000000E+00 0. -1.
          1    1    1    2  502    0 -0.30303604624E+02  0.25073891720E+03  0.53753735676E+02  0.25822040421E+03  0.00000000000E+00 0.  1.
         22    1    1    2    0    0 -0.24347110274E+02  0.25120806868E+01 -0.29186039689E+02  0.38090907587E+02  0.00000000000E+00 0. -1.
         22    1    1    2    0    0  0.15873428141E+01 -0.22778857455E+02  0.10838127115E+03  0.11076053422E+03  0.00000000000E+00 0. -1.
</event>
<event>
 6    1  0.1383644E-005  0.8475445E+02  0.7818608E-02  0.1346802E+00
          2   -1    0    0  502    0  0.00000000000E+00  0.00000000000E+00  0.16120631432E+03  0.16120631432E+03  0.00000000000E+00 0. -1.
          1   -1    0    0  501    0 -0.00000000000E+00 -0.00000000000E+00 -0.15149394871E+03  0.15149394871E+03  0.00000000000E+00 0. -1.
          2    1    1    2  501    0  0.31030529056E+02 -0.22338912353E+02  0.67404253820E+02  0.77493575035E+02  0.00000000000E+00 0. -1.
          1    1    1    2  502    0 -0.63057920285E+01 -0.59764846041E+02  0.24470328397E+02  0.64887570514E+02  0.00000000000E+00 0. -1.
         22    1    1    2    0    0  0.41121188740E+01 -0.10224486977E+02  0.24176252032E+02  0.26569546814E+02  0.00000000000E+00 0.  1.
         22    1    1    2    0    0 -0.28836855902E+02  0.92328245372E+02 -0.10633846864E+03  0.14374957066E+03  0.00000000000E+00 0. -1.
</event>
<event>
 6    1  0.1383644E-005  0.1994634E+03  0.7818608E-02  0.1224900E+00
          2   -1    0    0  502    0  0.00000000000E+00  0.00000000000E+00  0.12921477216E+03  0.12921477216E+03  0.00000000000E+00 0.  1.
          1   -1    0    0  501    0 -0.00000000000E+00 -0.00000000000E+00 -0.15434607817E+04  0.15434607817E+04  0.00000000000E+00 0. -1.
          2    1    1    2  501    0  0.24948261759E+02 -0.14858845404E+03  0.40273842561E+02  0.15595809320E+03  0.00000000000E+00 0.  1.
          1    1    1    2  502    0 -0.76820987290E+02  0.13739392798E+03 -0.13081533791E+04  0.13175901558E+04  0.00000000000E+00 0. -1.
         22    1    1    2    0    0  0.10030368410E+02  0.36603579604E+02 -0.14528694591E+03  0.15016233543E+03  0.00000000000E+00 0. -1.
         22    1    1    2    0    0  0.41842357121E+02 -0.25409053549E+02 -0.10795271183E+01  0.48964969422E+02  0.00000000000E+00 0. -1.
</event>
<event>
 6    1  0.1383644E-005  0.5224112E+02  0.7818608E-02  0.1487364E+00
          2   -1    0    0  502    0  0.00000000000E+00  0.00000000000E+00  0.13985351403E+03  0.13985351403E+03  0.00000000000E+00 0.  1.
          1   -1    0    0  501    0 -0.00000000000E+00 -0.00000000000E+00 -0.17112630543E+03  0.17112630543E+03  0.00000000000E+00 0. -1.
          2    1    1    2  501    0  0.61462153849E+01  0.40030918560E+02  0.83990766317E+02  0.93245371096E+02  0.00000000000E+00 0.  1.
          1    1    1    2  502    0 -0.29677553281E+02 -0.45400520065E+02 -0.43660638804E+02  0.69629130195E+02  0.00000000000E+00 0. -1.
         22    1    1    2    0    0  0.23211808030E+02 -0.58337330818E+01 -0.10769015758E+03  0.11031767997E+03  0.00000000000E+00 0. -1.
         22    1    1    2    0    0  0.31952986585E+00  0.11203334586E+02  0.36087238678E+02  0.37787638198E+02  0.00000000000E+00 0.  1.
</event>
<event>
 6    1  0.1809708E-005  0.7073840E+02  0.7818608E-02  0.1477901E+00
          2   -1    0    0  502    0  0.00000000000E+00  0.00000000000E+00  0.23780832558E+03  0.23780832558E+03  0.00000000000E+00 0. -1.
          1   -1    0    0  501    0 -0.00000000000E+00 -0.00000000000E+00 -0.44256652163E+03  0.44256652163E+03  0.00000000000E+00 0.  1.
          2    1    1    2  501    0 -0.73551526064E+02  0.52246211348E+01  0.94193045403E+01  0.74336040723E+02  0.00000000000E+00 0. -1.
          1    1    1    2  502    0  0.57081502566E+02  0.50234541666E+02 -0.38326992271E+03  0.39073986329E+03  0.00000000000E+00 0.  1.
         22    1    1    2    0    0  0.22881416278E+02 -0.63816153281E+02  0.18454187815E+03  0.19660052243E+03  0.00000000000E+00 0. -1.
         22    1    1    2    0    0 -0.64113927795E+01  0.83569904796E+01 -0.15449456031E+02  0.18698420760E+02  0.00000000000E+00 0.  1.
</event>
<event>
 6    1  0.1383644E-005  0.2142422E+03  0.7818608E-02  0.1254165E+00
          2   -1    0    0  502    0  0.00000000000E+00  0.00000000000E+00  0.60423948113E+03  0.60423948113E+03  0.00000000000E+00 0. -1.
          1   -1    0    0  501    0 -0.00000000000E+00 -0.00000000000E+00 -0.15437178379E+03  0.15437178379E+03  0.00000000000E+00 0. -1.
          2    1    1    2  501    0 -0.16711069083E+03  0.11318765296E+03  0.27085041632E+03  0.33778303065E+03  0.00000000000E+00 0. -1.
          1    1    1    2  502    0  0.16844586001E+03 -0.11277214911E+03  0.21320745453E+03  0.29419208697E+03  0.00000000000E+00 0. -1.
         22    1    1    2    0    0  0.14871481348E+02 -0.80175376785E+01 -0.77737930600E+02  0.79552672626E+02  0.00000000000E+00 0.  1.
         22    1    1    2    0    0 -0.16206650528E+02  0.76020338331E+01  0.43547757086E+02  0.47083474670E+02  0.00000000000E+00 0. -1.
</event>
<event>
 6    1  0.1383644E-005  0.1780981E+03  0.7818608E-02  0.1310566E+00
          2   -1    0    0  502    0  0.00000000000E+00  0.00000000000E+00  0.76740677882E+03  0.76740677882E+03  0.00000000000E+00 0.  1.
          1   -1    0    0  501    0 -0.00000000000E+00 -0.00000000000E+00 -0.54537523899E+02  0.54537523899E+02  0.00000000000E+00 0. -1.
          2    1    1    2  501    0 -0.25549518675E+02 -0.31811919733E+02  0.59171259268E+02  0.71874989148E+02  0.00000000000E+00 0.  1.
          1    1    1    2  502    0  0.94313165268E+02  0.15302614916E+03  0.34983653023E+03  0.39331612394E+03  0.00000000000E+00 0. -1.
         22    1    1    2    0    0 -0.25627379172E+01 -0.97587019807E+01 -0.11790702200E+02  0.15518393872E+02  0.00000000000E+00 0.  1.
         22    1    1    2    0    0 -0.66200908676E+02 -0.11145552745E+03  0.31565216762E+03  0.34123479575E+03  0.00000000000E+00 0.  1.
</event>
<event>
 6    1  0.1383644E-005  0.1085974E+03  0.7818608E-02  0.1326780E+00
          2   -1    0    0  502    0  0.00000000000E+00  0.00000000000E+00  0.68590629492E+03  0.68590629492E+03  0.00000000000E+00 0.  1.
          1   -1    0    0  501    0 -0.00000000000E+00 -0.00000000000E+00 -0.72772973395E+02  0.72772973395E+02  0.00000000000E+00 0.  1.
          2    1    1    2  501    0 -0.26218188528E+02  0.96384581889E+02  0.11083625563E+03  0.14920474724E+03  0.00000000000E+00 0.  1.
          1    1    1    2  502    0 -0.27612172874E+02 -0.14517655066E+03  0.92548680490E+02  0.17436720223E+03  0.00000000000E+00 0.  1.
         22    1    1    2    0    0  0.82417361571E+02  0.57953206196E+02  0.37888675086E+03  0.39205403400E+03  0.00000000000E+00 0.  1.
         22    1    1    2    0    0 -0.28587000170E+02 -0.91612374267E+01  0.30861634546E+02  0.43053284854E+02  0.00000000000E+00 0. -1.
</event>
<event>
 6    1  0.1383644E-005  0.4651216E+02  0.7818608E-02  0.1548615E+00
          2   -1    0    0  502    0  0.00000000000E+00  0.00000000000E+00  0.38983947450E+03  0.38983947450E+03  0.00000000000E+00 0.  1.
          1   -1    0    0  501    0 -0.00000000000E+00 -0.00000000000E+00 -0.44598352420E+02  0.44598352420E+02  0.00000000000E+00 0. -1.
          2    1    1    2  501    0 -0.26528409363E+02  0.38485627660E+02  0.15496739774E+03  0.16186350547E+03  0.00000000000E+00 0.  1.
          1    1    1    2  502    0  0.49457217610E+02 -0.35245640379E+01  0.10283445859E+02  0.50637813777E+02  0.00000000000E+00 0. -1.
         22    1    1    2    0    0 -0.32440478938E+02 -0.25755532621E+02  0.19647572041E+03  0.20079452395E+03  0.00000000000E+00 0.  1.
         22    1    1    2    0    0  0.95116706908E+01 -0.92055310019E+01 -0.16485441933E+02  0.21141983731E+02  0.00000000000E+00 0. -1.
</event>
<event>
 6    1  0.1383644E-005  0.2435182E+02  0.7818608E-02  0.1685329E+00
          2   -1    0    0  502    0  0.00000000000E+00  0.00000000000E+00  0.74051142389E+02  0.74051142389E+02  0.00000000000E+00 0.  1.
          1   -1    0    0  501    0 -0.00000000000E+00 -0.00000000000E+00 -0.40610339610E+03  0.40610339610E+03  0.00000000000E+00 0.  1.
          2    1    1    2  501    0  0.23371558718E+02 -0.30401429763E+02  0.10794399805E+02  0.39837115304E+02  0.00000000000E+00 0.  1.
          1    1    1    2  502    0 -0.37558257334E+02  0.91739414604E+01 -0.30356322519E+03  0.30601538456E+03  0.00000000000E+00 0.  1.
         22    1    1    2    0    0  0.39689364055E+01  0.13964197137E+02 -0.85341968269E+02  0.86567908638E+02  0.00000000000E+00 0.  1.
         22    1    1    2    0    0  0.10217762210E+02  0.72632911657E+01  0.46058539951E+02  0.47734129986E+02  0.00000000000E+00 0.  1.
</event>
<event>
 6    1  0.1383644E-005  0.1641222E+03  0.7818608E-02  0.1216581E+00
          2   -1    0    0  502    0  0.00000000000E+00  0.00000000000E+00  0.13373430853E+04  0.13373430853E+04  0.00000000000E+00 0.  1.
          1   -1    0    0  501    0 -0.00000000000E+00 -0.00000000000E+00 -0.24858933066E+02  0.24858933066E+02  0.00000000000E+00 0.  1.
          2    1    1    2  501    0  0.54801029691E+02  0.18902759983E+01  0.30037323612E+03  0.30533720208E+03  0.00000000000E+00 0.  1.
          1    1    1    2  502    0 -0.46130457728E+02  0.11165837065E+03  0.61013853292E+03  0.62198443728E+03  0.00000000000E+00 0.  1.
         22    1    1    2    0    0  0.94255934197E+01 -0.80565054846E+02  0.38527257427E+03  0.39371884176E+03  0.00000000000E+00 0.  1.
         22    1    1    2    0    0 -0.18096165383E+02 -0.32983591798E+02  0.16699808914E+02  0.41161537232E+02  0.00000000000E+00 0.  1.
</event>
<event>
 6    1  0.1383644E-005  0.3832932E+02  0.7818608E-02  0.1627869E+00
          2   -1    0    0  502    0  0.00000000000E+00  0.00000000000E+00  0.12918608186E+03  0.12918608186E+03  0.00000000000E+00 0. -1.
          1   -1    0    0  501    0 -0.00000000000E+00 -0.00000000000E+00 -0.11709024741E+03  0.11709024741E+03  0.00000000000E+00 0.  1.
          2    1    1    2  501    0  0.96760742079E+01  0.19860309526E+02  0.51558677790E+02  0.56092384171E+02  0.00000000000E+00 0. -1.
          1    1    1    2  502    0 -0.24144182185E+02 -0.20430937066E+02 -0.56799736986E+02  0.65012113059E+02  0.00000000000E+00 0.  1.
         22    1    1    2    0    0  0.10332158379E+02  0.97977760194E+01  0.70057704535E+02  0.71490082364E+02  0.00000000000E+00 0. -1.
         22    1    1    2    0    0  0.41359495973E+01 -0.92271484797E+01 -0.52720810884E+02  0.53681749677E+02  0.00000000000E+00 0.  1.
</event>
<event>
 6    1  0.1383644E-005  0.1520803E+03  0.7818608E-02  0.1257510E+00
          2   -1    0    0  502    0  0.00000000000E+00  0.00000000000E+00  0.75285380498E+02  0.75285380498E+02  0.00000000000E+00 0. -1.
          1   -1    0    0  501    0 -0.00000000000E+00 -0.00000000000E+00 -0.38241095971E+03  0.38241095971E+03  0.00000000000E+00 0. -1.
          2    1    1    2  501    0 -0.26932416447E+02 -0.12128808847E+02 -0.86760376105E+02  0.91650564219E+02  0.00000000000E+00 0. -1.
          1    1    1    2  502    0  0.92349158216E+02  0.87387355072E+02 -0.12775236792E+03  0.18023757755E+03  0.00000000000E+00 0. -1.
         22    1    1    2    0    0 -0.58392994378E+02 -0.31610530765E+02  0.16208248042E+02  0.68349650710E+02  0.00000000000E+00 0. -1.
         22    1    1    2    0    0 -0.70237473911E+01 -0.43648015461E+02 -0.10882108323E+03  0.11745854773E+03  0.00000000000E+00 0. -1.
</event>
<event>
 6    1  0.1383644E-005  0.5048599E+02  0.7818608E-02  0.1518902E+00
          2   -1    0    0  502    0  0.00000000000E+00  0.00000000000E+00  0.22556223997E+03  0.22556223997E+03  0.00000000000E+00 0.  1.
          1   -1    0    0  501    0 -0.00000000000E+00 -0.00000000000E+00 -0.24821615435E+03  0.24821615435E+03  0.00000000000E+00 0.  1.
          2    1    1    2  501    0 -0.35174293379E+02 -0.12168131375E+02  0.19222070505E+03  0.19579094408E+03  0.00000000000E+00 0.  1.
          1    1    1    2  502    0  0.23246975946E+02  0.98290206186E+01 -0.10551959705E+03  0.10849616076E+03  0.00000000000E+00 0.  1.
         22    1    1    2    0    0 -0.43216668434E+01 -0.16671397176E+02  0.26362095698E+02  0.31489242254E+02  0.00000000000E+00 0.  1.
         22    1    1    2    0    0  0.16248984277E+02  0.19010507933E+02 -0.13571711807E+03  0.13800204723E+03  0.00000000000E+00 0. -1.
</event>
<event>
 6    1  0.1383644E-005  0.3084975E+02  0.7818608E-02  0.1593847E+00
          2   -1    0    0  502    0  0.00000000000E+00  0.00000000000E+00  0.11413262587E+03  0.11413262587E+03  0.00000000000E+00 0. -1.
          1   -1    0    0  501    0 -0.00000000000E+00 -0.00000000000E+00 -0.15363345383E+03  0.15363345383E+03  0.00000000000E+00 0.  1.
          2    1    1    2  501    0  0.29399210590E+02  0.37970747267E+02  0.39606312738E+02  0.62247499870E+02  0.00000000000E+00 0. -1.
          1    1    1    2  502    0 -0.11328515092E+02 -0.57372743142E+02 -0.11492497798E+02  0.59599030324E+02  0.00000000000E+00 0.  1.
         22    1    1    2    0    0 -0.10692557092E+01  0.16274017686E+02  0.36711368055E+02  0.40171028166E+02  0.00000000000E+00 0. -1.
         22    1    1    2    0    0 -0.17001439789E+02  0.31279781886E+01 -0.10432601096E+03  0.10574852134E+03  0.00000000000E+00 0.  1.
</event>
<event>
 6    1  0.1383644E-005  0.3472086E+02  0.7818608E-02  0.1555136E+00
          2   -1    0    0  502    0  0.00000000000E+00  0.00000000000E+00  0.33002426332E+03  0.33002426332E+03  0.00000000000E+00 0. -1.
          1   -1    0    0  501    0 -0.00000000000E+00 -0.00000000000E+00 -0.12918031033E+03  0.12918031033E+03  0.00000000000E+00 0. -1.
          2    1    1    2  501    0 -0.30997684747E+02 -0.32673059407E+02  0.27030211055E+03  0.27402849530E+03  0.00000000000E+00 0. -1.
          1    1    1    2  502    0  0.35092097708E+02  0.28064748691E+02 -0.40297034716E+02  0.60356743182E+02  0.00000000000E+00 0. -1.
         22    1    1    2    0    0 -0.19677509701E+02 -0.59178347834E+01  0.44383107917E+02  0.48908950357E+02  0.00000000000E+00 0.  1.
         22    1    1    2    0    0  0.15583096741E+02  0.10526145499E+02 -0.73544230758E+02  0.75910384802E+02  0.00000000000E+00 0. -1.
</event>
<event>
 6    1  0.1383644E-005  0.1364567E+03  0.7818608E-02  0.1356690E+00
          2   -1    0    0  502    0  0.00000000000E+00  0.00000000000E+00  0.59972245296E+03  0.59972245296E+03  0.00000000000E+00 0. -1.
          1   -1    0    0  501    0 -0.00000000000E+00 -0.00000000000E+00 -0.12763959529E+03  0.12763959529E+03  0.00000000000E+00 0. -1.
          2    1    1    2  501    0  0.28582012383E+01  0.61472507045E+02  0.41542792894E+03  0.41996119175E+03  0.00000000000E+00 0. -1.
          1    1    1    2  502    0  0.59921595742E+02 -0.51916736180E+02 -0.77901106488E+02  0.11115092228E+03  0.00000000000E+00 0. -1.
         22    1    1    2    0    0 -0.61581038403E+02  0.37924739798E+00  0.15863795236E+03  0.17017158414E+03  0.00000000000E+00 0.  1.
         22    1    1    2    0    0 -0.11987585772E+01 -0.99350182631E+01 -0.24081917138E+02  0.26078350083E+02  0.00000000000E+00 0. -1.
</event>
<event>
 6    1  0.1383644E-005  0.5971843E+02  0.7818608E-02  0.1466307E+00
          2   -1    0    0  502    0  0.00000000000E+00  0.00000000000E+00  0.19171557579E+03  0.19171557579E+03  0.00000000000E+00 0.  1.
          1   -1    0    0  501    0 -0.00000000000E+00 -0.00000000000E+00 -0.60010268164E+02  0.60010268164E+02  0.00000000000E+00 0.  1.
          2    1    1    2  501    0 -0.14155998383E+01  0.27286917398E+02  0.56509424154E+02  0.62768581330E+02  0.00000000000E+00 0.  1.
          1    1    1    2  502    0 -0.20216193568E+02 -0.30989202184E+02 -0.47322383880E+01  0.37301732058E+02  0.00000000000E+00 0.  1.
         22    1    1    2    0    0 -0.33728246452E+01 -0.21336779841E+02 -0.29548173391E+02  0.36602304174E+02  0.00000000000E+00 0.  1.
         22    1    1    2    0    0  0.25004618052E+02  0.25039064627E+02  0.10947629525E+03  0.11505322639E+03  0.00000000000E+00 0.  1.
</event>
<event>
 6    1  0.1383644E-005  0.4426024E+02  0.7818608E-02  0.1544368E+00
          2   -1    0    0  502    0  0.00000000000E+00  0.00000000000E+00  0.24851031939E+03  0.24851031939E+03  0.00000000000E+00 0.  1.
          1   -1    0    0  501    0 -0.00000000000E+00 -0.00000000000E+00 -0.64505486290E+02  0.64505486290E+02  0.00000000000E+00 0. -1.
          2    1    1    2  501    0 -0.24357702494E+02 -0.11574971398E+02  0.13608460831E+03  0.13873102844E+03  0.00000000000E+00 0.  1.
          1    1    1    2  502    0  0.31364562706E+02  0.19588950903E+02 -0.10377945270E+02  0.38407870798E+02  0.00000000000E+00 0. -1.
         22    1    1    2    0    0  0.89379624449E+01 -0.15944857723E+02 -0.35752931648E+02  0.40154673226E+02  0.00000000000E+00 0. -1.
         22    1    1    2    0    0 -0.15944822657E+02  0.79308782173E+01  0.94051101710E+02  0.95722233215E+02  0.00000000000E+00 0.  1.
</event>
<event>
 6    1  0.1383644E-005  0.7989627E+02  0.7818608E-02  0.1394871E+00
          2   -1    0    0  502    0  0.00000000000E+00  0.00000000000E+00  0.55001580533E+03  0.55001580533E+03  0.00000000000E+00 0.  1.
          1   -1    0    0  501    0 -0.00000000000E+00 -0.00000000000E+00 -0.96660893171E+02  0.96660893171E+02  0.00000000000E+00 0.  1.
          2    1    1    2  501    0  0.57543921139E+02  0.57957187094E+02  0.27352001857E+03  0.28545321675E+03  0.00000000000E+00 0.  1.
          1    1    1    2  502    0 -0.56030995357E+02 -0.39033585682E+02  0.21643996855E+03  0.22695672107E+03  0.00000000000E+00 0.  1.
         22    1    1    2    0    0  0.10942877011E+02  0.46224555619E+01  0.45981186524E+02  0.47490874564E+02  0.00000000000E+00 0.  1.
         22    1    1    2    0    0 -0.12455802793E+02 -0.23546056974E+02 -0.82586261494E+02  0.86775886108E+02  0.00000000000E+00 0.  1.
</event>
<event>
 6    1  0.1383644E-005  0.1148946E+03  0.7818608E-02  0.1364470E+00
          2   -1    0    0  502    0  0.00000000000E+00  0.00000000000E+00  0.65406567421E+03  0.65406567421E+03  0.00000000000E+00 0. -1.
          1   -1    0    0  501    0 -0.00000000000E+00 -0.00000000000E+00 -0.33768807647E+02  0.33768807647E+02  0.00000000000E+00 0. -1.
          2    1    1    2  501    0 -0.14661662711E+02  0.28917080251E+02  0.17605771609E+03  0.17901810321E+03  0.00000000000E+00 0. -1.
          1    1    1    2  502    0 -0.75217430107E+02 -0.53077258046E+02  0.13933138164E+03  0.16699727849E+03  0.00000000000E+00 0. -1.
         22    1    1    2    0    0  0.75178756295E+02  0.23586453827E+02  0.31452435435E+03  0.32424332789E+03  0.00000000000E+00 0. -1.
         22    1    1    2    0    0  0.14700336523E+02  0.57372396747E+00 -0.96165855261E+01  0.17575772252E+02  0.00000000000E+00 0. -1.
</event>
<event>
 6    1  0.1383644E-005  0.6820048E+02  0.7818608E-02  0.1367124E+00
          2   -1    0    0  502    0  0.00000000000E+00  0.00000000000E+00  0.35863649153E+03  0.35863649153E+03  0.00000000000E+00 0.  1.
          1   -1    0    0  501    0 -0.00000000000E+00 -0.00000000000E+00 -0.11668721010E+03  0.11668721010E+03  0.00000000000E+00 0. -1.
          2    1    1    2  501    0 -0.50770428955E+02 -0.44159791809E+01  0.26432383555E+03  0.26919180405E+03  0.00000000000E+00 0.  1.
          1    1    1    2  502    0  0.40384176728E+02  0.73889900316E+01 -0.59773252529E+02  0.72514278743E+02  0.00000000000E+00 0. -1.
         22    1    1    2    0    0  0.25561460846E+02 -0.89814899912E+01 -0.43413285600E+02  0.51173907508E+02  0.00000000000E+00 0. -1.
         22    1    1    2    0    0 -0.15175208620E+02  0.60084791405E+01  0.80811984010E+02  0.82443711330E+02  0.00000000000E+00 0.  1.
</event>
<event>
 6    1  0.1383644E-005  0.3708443E+02  0.7818608E-02  0.1586502E+00
          2   -1    0    0  502    0  0.00000000000E+00  0.00000000000E+00  0.18864606246E+03  0.18864606246E+03  0.00000000000E+00 0. -1.
          1   -1    0    0  501    0 -0.00000000000E+00 -0.00000000000E+00 -0.68525135013E+02  0.68525135013E+02  0.00000000000E+00 0. -1.
          2    1    1    2  501    0  0.96280117270E+01 -0.34529940704E+02  0.22370588300E+02  0.42254687736E+02  0.00000000000E+00 0. -1.
          1    1    1    2  502    0 -0.89215724275E+01  0.65603822831E+02  0.31936832296E+02  0.73507940263E+02  0.00000000000E+00 0. -1.
         22    1    1    2    0    0 -0.13197842411E+02 -0.51422148627E+01 -0.34368928870E+02  0.37173225441E+02  0.00000000000E+00 0. -1.
         22    1    1    2    0    0  0.12491403111E+02 -0.25931667264E+02  0.10018243572E+03  0.10423534403E+03  0.00000000000E+00 0. -1.
</event>
<event>
 6    1  0.1383644E-005  0.3998682E+02  0.7818608E-02  0.1557085E+00
          2   -1    0    0  502    0  0.00000000000E+00  0.00000000000E+00  0.32229239019E+03  0.32229239019E+03  0.00000000000E+00 0. -1.
          1   -1    0    0  501    0 -0.00000000000E+00 -0.00000000000E+00 -0.11924877071E+03  0.11924877071E+03  0.00000000000E+00 0. -1.
          2    1    1    2  501    0  0.28784138954E+02  0.59186219362E+02  0.23337974807E+03  0.24248225095E+03  0.00000000000E+00 0. -1.
          1    1    1    2  502    0 -0.93083409455E+01 -0.64400463205E+02 -0.34883519810E+02  0.73830378751E+02  0.00000000000E+00 0. -1.
         22    1    1    2    0    0 -0.15095205750E+02  0.15758924756E+02  0.62480057345E+02  0.66181315429E+02  0.00000000000E+00 0.  1.
         22    1    1    2    0    0 -0.43805922581E+01 -0.10544680913E+02 -0.57932666132E+02  0.59047215762E+02  0.00000000000E+00 0. -1.
</event>
<event>
 6    1  0.1383644E-005  0.9652333E+02  0.7818608E-02  0.1321354E+00
          2   -1    0    0  502    0  0.00000000000E+00  0.00000000000E+00  0.22792440305E+02  0.22792440305E+02  0.00000000000E+00 0.  1.
          1   -1    0    0  501    0 -0.00000000000E+00 -0.00000000000E+00 -0.72185753540E+03  0.72185753540E+03  0.00000000000E+00 0.  1.
          2    1    1    2  501    0 -0.23900019980E+02  0.18086115714E+02 -0.26909301656E+03  0.27075703149E+03  0.00000000000E+00 0.  1.
          1    1    1    2  502    0  0.35451766816E+02 -0.38489862784E+02 -0.47847149578E+02  0.70905902648E+02  0.00000000000E+00 0.  1.
         22    1    1    2    0    0 -0.58699090247E+02 -0.20126360723E+01 -0.99179150993E+02  0.11526551042E+03  0.00000000000E+00 0.  1.
         22    1    1    2    0    0  0.47147343411E+02  0.22416383142E+02 -0.28294577795E+03  0.28772153115E+03  0.00000000000E+00 0. -1.
</event>
<event>
 6    1  0.1383644E-005  0.7642754E+02  0.7818608E-02  0.1355251E+00
          2   -1    0    0  502    0  0.00000000000E+00  0.00000000000E+00  0.32141582580E+02  0.32141582580E+02  0.00000000000E+00 0. -1.
          1   -1    0    0  501    0 -0.00000000000E+00 -0.00000000000E+00 -0.47834886926E+03  0.47834886926E+03  0.00000000000E+00 0.  1.
          2    1    1    2  501    0  0.40273365039E+02 -0.38972362256E+02 -0.49304054532E+02  0.74643678532E+02  0.00000000000E+00 0. -1.
          1    1    1    2  502    0  0.47000705669E+01  0.47216727331E+02 -0.11271109166E+03  0.12229186476E+03  0.00000000000E+00 0.  1.
         22    1    1    2    0    0  0.73381980866E+01  0.17626069529E+02  0.40051782306E+01  0.19508176000E+02  0.00000000000E+00 0. -1.
         22    1    1    2    0    0 -0.52311633692E+02 -0.25870434603E+02 -0.28819731872E+03  0.29404673255E+03  0.00000000000E+00 0.  1.
</event>
<event>
 6    1  0.1383644E-005  0.7094646E+02  0.7818608E-02  0.1395862E+00
          2   -1    0    0  502    0  0.00000000000E+00  0.00000000000E+00  0.50958996877E+03  0.50958996877E+03  0.00000000000E+00 0.  1.
          1   -1    0    0  501    0 -0.00000000000E+00 -0.00000000000E+00 -0.98701256213E+02  0.98701256213E+02  0.00000000000E+00 0. -1.
          2    1    1    2  501    0 -0.23938633092E+02 -0.13990112414E+03  0.18617938214E+03  0.23411139448E+03  0.00000000000E+00 0.  1.
          1    1    1    2  502    0  0.31818041391E+02  0.12120178197E+03  0.81300022444E+01  0.12557211732E+03  0.00000000000E+00 0. -1.
         22    1    1    2    0    0  0.14389640867E+02 -0.15977113954E+02 -0.59376654453E+01  0.22306631425E+02  0.00000000000E+00 0. -1.
         22    1    1    2    0    0 -0.22269049166E+02  0.34676456121E+02  0.22251699361E+03  0.22630108176E+03  0.00000000000E+00 0.  1.
</event>
<event>
 6    1  0.1383644E-005  0.1266607E+03  0.7818608E-02  0.1316435E+00
          2   -1    0    0  502    0  0.00000000000E+00  0.00000000000E+00  0.71062753585E+03  0.71062753585E+03  0.00000000000E+00 0. -1.
          1   -1    0    0  501    0 -0.00000000000E+00 -0.00000000000E+00 -0.64231352859E+02  0.64231352859E+02  0.00000000000E+00 0. -1.
          2    1    1    2  501    0  0.63574991694E+02  0.57947229721E+02  0.40375506624E+03  0.41281692615E+03  0.00000000000E+00 0. -1.
          1    1    1    2  502    0 -0.53375845245E+02 -0.10707193959E+03  0.50497475090E+02  0.12985906243E+03  0.00000000000E+00 0. -1.
         22    1    1    2    0    0  0.13084172409E+02  0.39406262977E+02  0.20115201698E+03  0.20539275319E+03  0.00000000000E+00 0. -1.
         22    1    1    2    0    0 -0.23283318858E+02  0.97184468959E+01 -0.90083753186E+01  0.26790146938E+02  0.00000000000E+00 0. -1.
</event>
<event>
 6    1  0.1383644E-005  0.6468599E+02  0.7818608E-02  0.1426412E+00
          2   -1    0    0  502    0  0.00000000000E+00  0.00000000000E+00  0.35974592842E+03  0.35974592842E+03  0.00000000000E+00 0.  1.
          1   -1    0    0  501    0 -0.00000000000E+00 -0.00000000000E+00 -0.74182681232E+02  0.74182681232E+02  0.00000000000E+00 0.  1.
          2    1    1    2  501    0  0.50395562289E+02  0.16606276377E+02  0.25065605812E+03  0.25621073472E+03  0.00000000000E+00 0.  1.
          1    1    1    2  502    0 -0.29564437281E+02 -0.30331999082E+02  0.21312220564E+02  0.47416208889E+02  0.00000000000E+00 0.  1.
         22    1    1    2    0    0  0.98579449643E+01  0.14242577588E+02  0.66728484190E+02  0.68939978949E+02  0.00000000000E+00 0.  1.
         22    1    1    2    0    0 -0.30689069972E+02 -0.51685488296E+00 -0.53133515682E+02  0.61361687097E+02  0.00000000000E+00 0.  1.
</event>
<event>
 6    1  0.1383644E-005  0.8615158E+02  0.7818608E-02  0.1314958E+00
          2   -1    0    0  502    0  0.00000000000E+00  0.00000000000E+00  0.43746923833E+03  0.43746923833E+03  0.00000000000E+00 0. -1.
          1   -1    0    0  501    0 -0.00000000000E+00 -0.00000000000E+00 -0.10565264072E+03  0.10565264072E+03  0.00000000000E+00 0. -1.
          2    1    1    2  501    0 -0.46638475084E+02  0.60462230653E+02  0.22814658032E+03  0.24058614010E+03  0.00000000000E+00 0. -1.
          1    1    1    2  502    0  0.96694678258E+02  0.67411902047E+01  0.11920054246E+03  0.15363617338E+03  0.00000000000E+00 0. -1.
         22    1    1    2    0    0 -0.14277776580E+02  0.69535880748E+01  0.44338956947E+02  0.47097244021E+02  0.00000000000E+00 0. -1.
         22    1    1    2    0    0 -0.35778426594E+02 -0.74157008933E+02 -0.59869482119E+02  0.10180232155E+03  0.00000000000E+00 0. -1.
</event>
<event>
 6    1  0.1383644E-005  0.4598044E+02  0.7818608E-02  0.1536023E+00
          2   -1    0    0  502    0  0.00000000000E+00  0.00000000000E+00  0.25124134575E+03  0.25124134575E+03  0.00000000000E+00 0.  1.
          1   -1    0    0  501    0 -0.00000000000E+00 -0.00000000000E+00 -0.48760554236E+02  0.48760554236E+02  0.00000000000E+00 0. -1.
          2    1    1    2  501    0 -0.15425594734E+02  0.19916568349E+02  0.97132629146E+02  0.10034623218E+03  0.00000000000E+00 0.  1.
          1    1    1    2  502    0  0.36058596518E+02 -0.10857656903E+02  0.55841294123E+02  0.67352514620E+02  0.00000000000E+00 0. -1.
         22    1    1    2    0    0  0.27970958960E+01 -0.17957304796E+02 -0.37546556756E+02  0.41713696374E+02  0.00000000000E+00 0. -1.
         22    1    1    2    0    0 -0.23430097680E+02  0.88983933494E+01  0.87053425004E+02  0.90589456817E+02  0.00000000000E+00 0.  1.
</event>
<event>
 6    1  0.1383644E-005  0.1904597E+03  0.7818608E-02  0.1289053E+00
          2   -1    0    0  502    0  0.00000000000E+00  0.00000000000E+00  0.43502419725E+03  0.43502419725E+03  0.00000000000E+00 0.  1.
          1   -1    0    0  501    0 -0.00000000000E+00 -0.00000000000E+00 -0.18295076099E+03  0.18295076099E+03  0.00000000000E+00 0. -1.
          2    1    1    2  501    0 -0.71656343722E+02 -0.64917612862E+02  0.23829987451E+03  0.25716873497E+03  0.00000000000E+00 0.  1.
          1    1    1    2  502    0  0.15473355333E+03  0.46567996706E+02 -0.80883986794E+02  0.18070215871E+03  0.00000000000E+00 0. -1.
         22    1    1    2    0    0 -0.88513294822E+02  0.73525494971E+01  0.12155188556E+03  0.15054409397E+03  0.00000000000E+00 0.  1.
         22    1    1    2    0    0  0.54360852124E+01  0.10997066658E+02 -0.26894337023E+02  0.29559970593E+02  0.00000000000E+00 0.  1.
</event>
<event>
 6    1  0.1383644E-005  0.6257712E+02  0.7818608E-02  0.1392302E+00
          2   -1    0    0  502    0  0.00000000000E+00  0.00000000000E+00  0.21145155521E+03  0.21145155521E+03  0.00000000000E+00 0. -1.
          1   -1    0    0  501    0 -0.00000000000E+00 -0.00000000000E+00 -0.70185115811E+02  0.70185115811E+02  0.00000000000E+00 0. -1.
          2    1    1    2  501    0  0.24258408874E+02 -0.15212210415E+02  0.64780875687E+02  0.70826856499E+02  0.00000000000E+00 0. -1.
          1    1    1    2  502    0 -0.58226191801E+02 -0.17418628026E+02  0.24284185879E+02  0.65447839520E+02  0.00000000000E+00 0. -1.
         22    1    1    2    0    0  0.23671403716E+02 -0.31681850844E+02  0.67705959568E+02  0.78410279861E+02  0.00000000000E+00 0. -1.
         22    1    1    2    0    0  0.10296379212E+02  0.64312689285E+02 -0.15504581733E+02  0.66951695144E+02  0.00000000000E+00 0. -1.
</event>
<event>
 6    1  0.1383644E-005  0.3345328E+02  0.7818608E-02  0.1604005E+00
          2   -1    0    0  502    0  0.00000000000E+00  0.00000000000E+00  0.45412681112E+02  0.45412681112E+02  0.00000000000E+00 0. -1.
          1   -1    0    0  501    0 -0.00000000000E+00 -0.00000000000E+00 -0.49498089356E+03  0.49498089356E+03  0.00000000000E+00 0. -1.
          2    1    1    2  501    0 -0.20104507318E+02 -0.10693034772E+02 -0.52438526824E+01  0.23367289061E+02  0.00000000000E+00 0. -1.
          1    1    1    2  502    0  0.43824213713E+02  0.47871449124E+02 -0.33751143972E+03  0.34369493638E+03  0.00000000000E+00 0. -1.
         22    1    1    2    0    0 -0.90015995084E+01 -0.26828602540E+02 -0.13607156268E+03  0.13898299492E+03  0.00000000000E+00 0.  1.
         22    1    1    2    0    0 -0.14718106887E+02 -0.10349811813E+02  0.29258642635E+02  0.34348354309E+02  0.00000000000E+00 0. -1.
</event>
<event>
 6    1  0.1383644E-005  0.1334306E+03  0.7818608E-02  0.1348069E+00
          2   -1    0    0  502    0  0.00000000000E+00  0.00000000000E+00  0.38006949303E+03  0.38006949303E+03  0.00000000000E+00 0. -1.
          1   -1    0    0  501    0 -0.00000000000E+00 -0.00000000000E+00 -0.26997589753E+03  0.26997589753E+03  0.00000000000E+00 0.  1.
          2    1    1    2  501    0  0.22211240901E+02 -0.60060124164E+02  0.22122019576E+03  0.23030182967E+03  0.00000000000E+00 0. -1.
          1    1    1    2  502    0 -0.70594522240E+02  0.36689949119E+02 -0.22943168117E+03  0.24283458415E+03  0.00000000000E+00 0.  1.
         22    1    1    2    0    0  0.59913549631E+02  0.27913380477E+02  0.13835810885E+03  0.15333543792E+03  0.00000000000E+00 0.  1.
         22    1    1    2    0    0 -0.11530268292E+02 -0.45432054308E+01 -0.20053027937E+02  0.23573538808E+02  0.00000000000E+00 0.  1.
</event>
<event>
 6    1  0.1383644E-005  0.6121705E+02  0.7818608E-02  0.1457589E+00
          2   -1    0    0  502    0  0.00000000000E+00  0.00000000000E+00  0.15064356499E+03  0.15064356499E+03  0.00000000000E+00 0. -1.
          1   -1    0    0  501    0 -0.00000000000E+00 -0.00000000000E+00 -0.90399394439E+02  0.90399394439E+02  0.00000000000E+00 0. -1.
          2    1    1    2  501    0 -0.95544862545E+01  0.28120079630E+02  0.51599718978E+02  0.59536191385E+02  0.00000000000E+00 0. -1.
          1    1    1    2  502    0  0.12634554367E+02 -0.49258009393E+02  0.15560014158E+02  0.53179859853E+02  0.00000000000E+00 0. -1.
         22    1    1    2    0    0  0.22160677002E+02 -0.51606100876E+01 -0.59865130443E+02  0.64043433267E+02  0.00000000000E+00 0. -1.
         22    1    1    2    0    0 -0.25240745114E+02  0.26298539850E+02  0.52949567857E+02  0.64283474925E+02  0.00000000000E+00 0. -1.
</event>
<event>
 6    1  0.1383644E-005  0.5082666E+02  0.7818608E-02  0.1491831E+00
          2   -1    0    0  502    0  0.00000000000E+00  0.00000000000E+00  0.87488764963E+02  0.87488764963E+02  0.00000000000E+00 0.  1.
          1   -1    0    0  501    0 -0.00000000000E+00 -0.00000000000E+00 -0.14557577977E+04  0.14557577977E+04  0.00000000000E+00 0.  1.
          2    1    1    2  501    0 -0.80663039711E+02  0.63075827618E+02 -0.27638129146E+01  0.10243400152E+03  0.00000000000E+00 0.  1.
          1    1    1    2  502    0  0.36128493411E+02 -0.24790279720E+02 -0.12801303831E+04  0.12808800193E+04  0.00000000000E+00 0.  1.
         22    1    1    2    0    0  0.36037056215E+02 -0.20258155033E+02  0.24640174722E+02  0.48126920495E+02  0.00000000000E+00 0.  1.
         22    1    1    2    0    0  0.84974900847E+01 -0.18027392865E+02 -0.11001501144E+03  0.11180562138E+03  0.00000000000E+00 0. -1.
</event>
<event>
 6    1  0.4369400E-005  0.4559477E+02  0.7818608E-02  0.1484803E+00
          2   -1    0    0  502    0  0.00000000000E+00  0.00000000000E+00  0.80380730648E+02  0.80380730648E+02  0.00000000000E+00 0.  1.
          1   -1    0    0  501    0 -0.00000000000E+00 -0.00000000000E+00 -0.12235434712E+04  0.12235434712E+04  0.00000000000E+00 0.  1.
          2    1    1    2  501    0  0.17581780395E+02 -0.11000642449E+02 -0.10434381829E+03  0.10638498744E+03  0.00000000000E+00 0.  1.
          1    1    1    2  502    0  0.21778859397E+02  0.40009345104E+02 -0.10621686618E+04  0.10631450196E+04  0.00000000000E+00 0.  1.
         22    1    1    2    0    0  0.15090993593E+02  0.74814157285E+00 -0.41785157762E+02  0.44433064408E+02  0.00000000000E+00 0. -1.
         22    1    1    2    0    0 -0.54451633385E+02 -0.29756844228E+02  0.65134897287E+02  0.89961130503E+02  0.00000000000E+00 0.  1.
</event>
<event>
 6    1  0.1383644E-005  0.9660942E+02  0.7818608E-02  0.1415781E+00
          2   -1    0    0  502    0  0.00000000000E+00  0.00000000000E+00  0.26732490165E+03  0.26732490165E+03  0.00000000000E+00 0. -1.
          1   -1    0    0  501    0 -0.00000000000E+00 -0.00000000000E+00 -0.19304265234E+03  0.19304265234E+03  0.00000000000E+00 0. -1.
          2    1    1    2  501    0  0.58956994560E+02  0.24514529386E+02  0.13408096662E+03  0.14850789530E+03  0.00000000000E+00 0. -1.
          1    1    1    2  502    0 -0.93992887160E+02 -0.40817562400E+02 -0.13086805108E+03  0.16621426843E+03  0.00000000000E+00 0. -1.
         22    1    1    2    0    0  0.10800014358E+02 -0.10115675870E+01 -0.34390182849E+02  0.36060341866E+02  0.00000000000E+00 0.  1.
         22    1    1    2    0    0  0.24235878242E+02  0.17314600601E+02  0.10545951661E+03  0.10958504840E+03  0.00000000000E+00 0. -1.
</event>
<event>
 6    1  0.1383644E-005  0.4184201E+02  0.7818608E-02  0.1548093E+00
          2   -1    0    0  502    0  0.00000000000E+00  0.00000000000E+00  0.12310638709E+03  0.12310638709E+03  0.00000000000E+00 0. -1.
          1   -1    0    0  501    0 -0.00000000000E+00 -0.00000000000E+00 -0.79585843794E+02  0.79585843794E+02  0.00000000000E+00 0.  1.
          2    1    1    2  501    0 -0.13581042653E+02 -0.16575985200E+02  0.35588943992E+02  0.41542519656E+02  0.00000000000E+00 0. -1.
          1    1    1    2  502    0  0.32856777685E+02  0.10347127682E+02  0.10245257083E+02  0.35938783838E+02  0.00000000000E+00 0.  1.
         22    1    1    2    0    0 -0.83427744144E+00  0.20602297508E+02 -0.59744759971E+02  0.63202745395E+02  0.00000000000E+00 0.  1.
         22    1    1    2    0    0 -0.18441457590E+02 -0.14373439990E+02  0.57431102188E+02  0.62008181991E+02  0.00000000000E+00 0. -1.
</event>
<event>
 6    1  0.1383644E-005  0.5902759E+02  0.7818608E-02  0.1442907E+00
          2   -1    0    0  502    0  0.00000000000E+00  0.00000000000E+00  0.14129391648E+03  0.14129391648E+03  0.00000000000E+00 0.  1.
          1   -1    0    0  501    0 -0.00000000000E+00 -0.00000000000E+00 -0.93288687103E+02  0.93288687103E+02  0.00000000000E+00 0.  1.
          2    1    1    2  501    0  0.33939858691E+02 -0.13310203195E+02  0.11561503369E+02  0.38245834769E+02  0.00000000000E+00 0.  1.
          1    1    1    2  502    0 -0.32925394656E+02  0.31405392430E+02 -0.26756833763E+02  0.52785494598E+02  0.00000000000E+00 0.  1.
         22    1    1    2    0    0 -0.16810625156E+02  0.91676210216E+01 -0.35286418017E+02  0.40146901373E+02  0.00000000000E+00 0.  1.
         22    1    1    2    0    0  0.15796161122E+02 -0.27262810257E+02  0.98486977788E+02  0.10340437284E+03  0.00000000000E+00 0.  1.
</event>
<event>
 6    1  0.1383644E-005  0.4432448E+03  0.7818608E-02  0.1145594E+00
          2   -1    0    0  502    0  0.00000000000E+00  0.00000000000E+00  0.32342394012E+03  0.32342394012E+03  0.00000000000E+00 0. -1.
          1   -1    0    0  501    0 -0.00000000000E+00 -0.00000000000E+00 -0.93299475710E+03  0.93299475710E+03  0.00000000000E+00 0. -1.
          2    1    1    2  501    0  0.14521063320E+03  0.61513953484E+02 -0.46130923009E+03  0.48752056391E+03  0.00000000000E+00 0. -1.
          1    1    1    2  502    0 -0.36681802592E+03 -0.13936779864E+03  0.10119896077E+03  0.40524076436E+03  0.00000000000E+00 0. -1.
         22    1    1    2    0    0  0.21952217429E+03  0.98024155371E+02 -0.20967424901E+03  0.31900158423E+03  0.00000000000E+00 0. -1.
         22    1    1    2    0    0  0.20852184359E+01 -0.20170310214E+02 -0.39786298643E+02  0.44655784729E+02  0.00000000000E+00 0.  1.
</event>
<event>
 6    1  0.1383644E-005  0.1078257E+03  0.7818608E-02  0.1381191E+00
          2   -1    0    0  502    0  0.00000000000E+00  0.00000000000E+00  0.22295134634E+04  0.22295134634E+04  0.00000000000E+00 0.  1.
          1   -1    0    0  501    0 -0.00000000000E+00 -0.00000000000E+00 -0.35410817764E+02  0.35410817764E+02  0.00000000000E+00 0.  1.
          2    1    1    2  501    0 -0.12856057643E+03 -0.29021937382E+02  0.20220442046E+03  0.24136429378E+03  0.00000000000E+00 0.  1.
          1    1    1    2  502    0  0.15573690172E+03 -0.51768203902E+02  0.15250218517E+04  0.15338271017E+04  0.00000000000E+00 0.  1.
         22    1    1    2    0    0  0.10844874174E+02 -0.36813236178E+01 -0.21444927684E+01  0.11651707542E+02  0.00000000000E+00 0.  1.
         22    1    1    2    0    0 -0.38021199467E+02  0.84471464901E+02  0.46902086620E+03  0.47808117817E+03  0.00000000000E+00 0.  1.
</event>
<event>
 6    1  0.1383644E-005  0.2249746E+03  0.7818608E-02  0.1130774E+00
          2   -1    0    0  502    0  0.00000000000E+00  0.00000000000E+00  0.18890264182E+04  0.18890264182E+04  0.00000000000E+00 0. -1.
          1   -1    0    0  501    0 -0.00000000000E+00 -0.00000000000E+00 -0.26860808258E+02  0.26860808258E+02  0.00000000000E+00 0. -1.
          2    1    1    2  501    0  0.19591356179E+02 -0.11520453985E+03  0.69099630845E+03  0.70080796623E+03  0.00000000000E+00 0. -1.
          1    1    1    2  502    0 -0.54838229809E+02  0.17011052833E+03  0.75538904885E+03  0.77624573327E+03  0.00000000000E+00 0. -1.
         22    1    1    2    0    0 -0.48868125583E+01  0.35285771422E+02  0.61655280389E+02  0.71206321360E+02  0.00000000000E+00 0.  1.
         22    1    1    2    0    0  0.40133686188E+02 -0.90191759905E+02  0.35412497222E+03  0.36762720556E+03  0.00000000000E+00 0. -1.
</event>
<event>
 6    1  0.1383644E-005  0.1981380E+03  0.7818608E-02  0.1264504E+00
          2   -1    0    0  502    0  0.00000000000E+00  0.00000000000E+00  0.11499724436E+04  0.11499724436E+04  0.00000000000E+00 0.  1.
          1   -1    0    0  501    0 -0.00000000000E+00 -0.00000000000E+00 -0.90447747824E+02  0.90447747824E+02  0.00000000000E+00 0. -1.
          2    1    1    2  501    0  0.78553866951E+02  0.14596755880E+03  0.78791616173E+03  0.80516403058E+03  0.00000000000E+00 0.  1.
          1    1    1    2  502    0 -0.11353500677E+03 -0.17453439502E+03  0.18362007825E+03  0.27761265451E+03  0.00000000000E+00 0. -1.
         22    1    1    2    0    0  0.25437388823E+02  0.13985177494E+02  0.11877277170E+03  0.12226862737E+03  0.00000000000E+00 0.  1.
         22    1    1    2    0    0  0.95437509958E+01  0.14581658728E+02 -0.30784315919E+02  0.35374878953E+02  0.00000000000E+00 0. -1.
</event>
<event>
 6    1  0.1383644E-005  0.5980467E+02  0.7818608E-02  0.1488922E+00
          2   -1    0    0  502    0  0.00000000000E+00  0.00000000000E+00  0.11928339651E+03  0.11928339651E+03  0.00000000000E+00 0. -1.
          1   -1    0    0  501    0 -0.00000000000E+00 -0.00000000000E+00 -0.13836776040E+03  0.13836776040E+03  0.00000000000E+00 0.  1.
          2    1    1    2  501    0 -0.11939474025E+02 -0.16643590473E+02  0.10522229049E+02  0.23027753864E+02  0.00000000000E+00 0. -1.
          1    1    1    2  502    0  0.25349966737E+02  0.10695448247E+02 -0.89871950529E+02  0.93989259592E+02  0.00000000000E+00 0.  1.
         22    1    1    2    0    0  0.12272545701E+02  0.96457171291E+01 -0.36898952069E+02  0.40064796277E+02  0.00000000000E+00 0.  1.
         22    1    1    2    0    0 -0.25683038413E+02 -0.36975749027E+01  0.97164309658E+02  0.10056934719E+03  0.00000000000E+00 0. -1.
</event>
<event>
 6    1  0.1383644E-005  0.5166628E+02  0.7818608E-02  0.1512306E+00
          2   -1    0    0  502    0  0.00000000000E+00  0.00000000000E+00  0.15307467516E+03  0.15307467516E+03  0.00000000000E+00 0.  1.
          1   -1    0    0  501    0 -0.00000000000E+00 -0.00000000000E+00 -0.10717991859E+03  0.10717991859E+03  0.00000000000E+00 0.  1.
          2    1    1    2  501    0  0.70706437758E+01  0.59524908260E+02  0.62538454156E+01  0.60268725632E+02  0.00000000000E+00 0.  1.
          1    1    1    2  502    0  0.50027051105E+02 -0.18598140237E+02  0.13050029864E+02  0.54944516942E+02  0.00000000000E+00 0.  1.
         22    1    1    2    0    0 -0.41184579332E+02 -0.33502518920E+02  0.75941906697E+02  0.92659384530E+02  0.00000000000E+00 0.  1.
         22    1    1    2    0    0 -0.15913115549E+02 -0.74242491031E+01 -0.49351025408E+02  0.52381966649E+02  0.00000000000E+00 0.  1.
</event>
<event>
 6    1  0.1383644E-005  0.2109157E+03  0.7818608E-02  0.1205412E+00
          2   -1    0    0  502    0  0.00000000000E+00  0.00000000000E+00  0.87242431266E+03  0.87242431266E+03  0.00000000000E+00 0. -1.
          1   -1    0    0  501    0 -0.00000000000E+00 -0.00000000000E+00 -0.25082926830E+03  0.25082926830E+03  0.00000000000E+00 0. -1.
          2    1    1    2  501    0  0.17487396321E+03  0.81282665685E+02  0.72652486501E+03  0.75168221625E+03  0.00000000000E+00 0. -1.
          1    1    1    2  502    0 -0.14917568571E+03 -0.11110801053E+03 -0.13928245614E+03  0.23237464965E+03  0.00000000000E+00 0. -1.
         22    1    1    2    0    0 -0.99999408712E+01 -0.16057139289E+02 -0.43523260740E+02  0.47456345888E+02  0.00000000000E+00 0. -1.
         22    1    1    2    0    0 -0.15698336627E+02  0.45882484132E+02  0.77875896233E+02  0.91740369179E+02  0.00000000000E+00 0. -1.
</event>
<event>
 6    1  0.1383644E-005  0.5238481E+02  0.7818608E-02  0.1549626E+00
          2   -1    0    0  502    0  0.00000000000E+00  0.00000000000E+00  0.36049117921E+03  0.36049117921E+03  0.00000000000E+00 0.  1.
          1   -1    0    0  501    0 -0.00000000000E+00 -0.00000000000E+00 -0.81593322277E+02  0.81593322277E+02  0.00000000000E+00 0.  1.
          2    1    1    2  501    0 -0.23994505751E+02 -0.49241188741E+01  0.22785606853E+03  0.22916887052E+03  0.00000000000E+00 0.  1.
          1    1    1    2  502    0  0.26416747804E+02 -0.10679446482E+02 -0.44667300789E+02  0.52981722334E+02  0.00000000000E+00 0.  1.
         22    1    1    2    0    0 -0.28649468348E+01 -0.98958120649E+01 -0.29971071860E+02  0.31692272958E+02  0.00000000000E+00 0.  1.
         22    1    1    2    0    0  0.44270478159E+00  0.25499377421E+02  0.12568016105E+03  0.12824163567E+03  0.00000000000E+00 0.  1.
</event>
<event>
 6    1  0.1383644E-005  0.1886590E+03  0.7818608E-02  0.1212592E+00
          2   -1    0    0  502    0  0.00000000000E+00  0.00000000000E+00  0.51585951658E+03  0.51585951658E+03  0.00000000000E+00 0. -1.
          1   -1    0    0  501    0 -0.00000000000E+00 -0.00000000000E+00 -0.64630637249E+02  0.64630637249E+02  0.00000000000E+00 0. -1.
          2    1    1    2  501    0 -0.78029554436E+02 -0.29627251224E+02 -0.44050092041E+01  0.83581035449E+02  0.00000000000E+00 0. -1.
          1    1    1    2  502    0  0.62369919810E+02  0.32542394409E+01  0.20714897868E+03  0.21635918363E+03  0.00000000000E+00 0. -1.
         22    1    1    2    0    0 -0.34013641184E+02 -0.37891316514E+01  0.20533675570E+03  0.20816932662E+03  0.00000000000E+00 0. -1.
         22    1    1    2    0    0  0.49673275810E+02  0.30162143435E+02  0.43148154156E+02  0.72380608131E+02  0.00000000000E+00 0.  1.
</event>
<event>
 6    1  0.1383644E-005  0.1024006E+03  0.7818608E-02  0.1320465E+00
          2   -1    0    0  502    0  0.00000000000E+00  0.00000000000E+00  0.15235975610E+03  0.15235975610E+03  0.00000000000E+00 0.  1.
          1   -1    0    0  501    0 -0.00000000000E+00 -0.00000000000E+00 -0.84249387538E+02  0.84249387538E+02  0.00000000000E+00 0. -1.
          2    1    1    2  501    0 -0.55742306217E+02 -0.20977200670E+02  0.32042552193E+01  0.59644906755E+02  0.00000000000E+00 0.  1.
          1    1    1    2  502    0  0.34572815245E+02 -0.97212465594E+01  0.93977577724E+01  0.37122769829E+02  0.00000000000E+00 0. -1.
         22    1    1    2    0    0 -0.19426861430E+02  0.12665381249E+02  0.83950511163E+02  0.87094794056E+02  0.00000000000E+00 0.  1.
         22    1    1    2    0    0  0.40596352402E+02  0.18033065980E+02 -0.28442155596E+02  0.52746672994E+02  0.00000000000E+00 0. -1.
</event>
<event>
 6    1  0.1383644E-005  0.8484736E+02  0.7818608E-02  0.1385466E+00
          2   -1    0    0  502    0  0.00000000000E+00  0.00000000000E+00  0.40111098991E+03  0.40111098991E+03  0.00000000000E+00 0.  1.
          1   -1    0    0  501    0 -0.00000000000E+00 -0.00000000000E+00 -0.80292443980E+02  0.80292443980E+02  0.00000000000E+00 0. -1.
          2    1    1    2  501    0  0.13337264827E+02  0.69329597878E+02  0.26976692488E+03  0.27885241532E+03  0.00000000000E+00 0.  1.
          1    1    1    2  502    0 -0.21365108936E+02 -0.63359764521E+02  0.11838728017E+02  0.67904956528E+02  0.00000000000E+00 0. -1.
         22    1    1    2    0    0 -0.44884829720E+01  0.16670038756E+02  0.82462443492E+02  0.84250170672E+02  0.00000000000E+00 0. -1.
         22    1    1    2    0    0  0.12516327081E+02 -0.22639872112E+02 -0.43249550451E+02  0.50395891371E+02  0.00000000000E+00 0. -1.
</event>
<event>
 6    1  0.1383644E-005  0.9507112E+02  0.7818608E-02  0.1399933E+00
          2   -1    0    0  502    0  0.00000000000E+00  0.00000000000E+00  0.20037618065E+03  0.20037618065E+03  0.00000000000E+00 0.  1.
          1   -1    0    0  501    0 -0.00000000000E+00 -0.00000000000E+00 -0.26491598094E+03  0.26491598094E+03  0.00000000000E+00 0.  1.
          2    1    1    2  501    0 -0.25060297935E+02  0.55720307048E+02  0.14062195182E+03  0.15332091992E+03  0.00000000000E+00 0.  1.
          1    1    1    2  502    0  0.29895426590E+02 -0.73845185935E+02 -0.16088261024E+03  0.17952733021E+03  0.00000000000E+00 0.  1.
         22    1    1    2    0    0 -0.16499478539E+02  0.26885026069E+02  0.37711907430E+02  0.49165286339E+02  0.00000000000E+00 0. -1.
         22    1    1    2    0    0  0.11664349884E+02 -0.87601471824E+01 -0.81991049308E+02  0.83278625130E+02  0.00000000000E+00 0.  1.
</event>
<event>
 6    1  0.1383644E-005  0.1152054E+03  0.7818608E-02  0.1299546E+00
          2   -1    0    0  502    0  0.00000000000E+00  0.00000000000E+00  0.12918342087E+03  0.12918342087E+03  0.00000000000E+00 0. -1.
          1   -1    0    0  501    0 -0.00000000000E+00 -0.00000000000E+00 -0.27660149259E+03  0.27660149259E+03  0.00000000000E+00 0. -1.
          2    1    1    2  501    0 -0.20459315674E+02 -0.11635298078E+01  0.15927743187E+01  0.20554180341E+02  0.00000000000E+00 0. -1.
          1    1    1    2  502    0  0.46792243182E+02  0.12037857426E+03  0.33548003533E+02  0.13343906364E+03  0.00000000000E+00 0. -1.
         22    1    1    2    0    0 -0.26328784067E+01 -0.11377943852E+03 -0.19399979838E+03  0.22491912869E+03  0.00000000000E+00 0. -1.
         22    1    1    2    0    0 -0.23700049102E+02 -0.54356059338E+01  0.11440948805E+02  0.26872540796E+02  0.00000000000E+00 0. -1.
</event>
<event>
 6    1  0.1383644E-005  0.6101696E+02  0.7818608E-02  0.1492330E+00
          2   -1    0    0  502    0  0.00000000000E+00  0.00000000000E+00  0.14903559102E+03  0.14903559102E+03  0.00000000000E+00 0.  1.
          1   -1    0    0  501    0 -0.00000000000E+00 -0.00000000000E+00 -0.17191683647E+03  0.17191683647E+03  0.00000000000E+00 0. -1.
          2    1    1    2  501    0  0.21864658372E+02 -0.40653622763E+02  0.88175037787E+02  0.99526969301E+02  0.00000000000E+00 0.  1.
          1    1    1    2  502    0 -0.19325264232E+02  0.44892656890E+02 -0.75802550457E+02  0.90193365255E+02  0.00000000000E+00 0. -1.
         22    1    1    2    0    0  0.10050865264E+02 -0.10399381563E+02  0.46287814205E+02  0.48494626231E+02  0.00000000000E+00 0. -1.
         22    1    1    2    0    0 -0.12590259404E+02  0.61603474365E+01 -0.81541546984E+02  0.82737466706E+02  0.00000000000E+00 0.  1.
</event>
<event>
 6    1  0.1383644E-005  0.3268982E+03  0.7818608E-02  0.1119373E+00
          2   -1    0    0  502    0  0.00000000000E+00  0.00000000000E+00  0.55434655594E+03  0.55434655594E+03  0.00000000000E+00 0. -1.
          1   -1    0    0  501    0 -0.00000000000E+00 -0.00000000000E+00 -0.56284967768E+03  0.56284967768E+03  0.00000000000E+00 0.  1.
          2    1    1    2  501    0 -0.34515507631E+03 -0.35252943814E+02  0.32059871018E+03  0.47239636929E+03  0.00000000000E+00 0. -1.
          1    1    1    2  502    0  0.26461913915E+03  0.59762792213E+02  0.12006245810E+02  0.27154931426E+03  0.00000000000E+00 0.  1.
         22    1    1    2    0    0  0.93321484755E+02 -0.22422462430E+02 -0.34625501963E+03  0.35931073593E+03  0.00000000000E+00 0.  1.
         22    1    1    2    0    0 -0.12785547594E+02 -0.20873859691E+01  0.51469418947E+01  0.13939814143E+02  0.00000000000E+00 0.  1.
</event>
<event>
 6    1  0.1383644E-005  0.1826026E+03  0.7818608E-02  0.1221437E+00
          2   -1    0    0  502    0  0.00000000000E+00  0.00000000000E+00  0.15755049850E+03  0.15755049850E+03  0.00000000000E+00 0. -1.
          1   -1    0    0  501    0 -0.00000000000E+00 -0.00000000000E+00 -0.39417560786E+03  0.39417560786E+03  0.00000000000E+00 0. -1.
          2    1    1    2  501    0 -0.14343460489E+03 -0.58221974089E+02 -0.87590294561E+01  0.15504839484E+03  0.00000000000E+00 0. -1.
          1    1    1    2  502    0  0.17391114218E+03  0.50587170132E+01 -0.71487848813E+02  0.18809887964E+03  0.00000000000E+00 0. -1.
         22    1    1    2    0    0 -0.32581556994E+02  0.27283620115E-01  0.98611562967E+01  0.34041166315E+02  0.00000000000E+00 0.  1.
         22    1    1    2    0    0  0.21050197021E+01  0.53135973456E+02 -0.16623938739E+03  0.17453766557E+03  0.00000000000E+00 0.  1.
</event>
<event>
 6    1  0.1383644E-005  0.6932041E+02  0.7818608E-02  0.1400187E+00
          2   -1    0    0  502    0  0.00000000000E+00  0.00000000000E+00  0.40106785294E+03  0.40106785294E+03  0.00000000000E+00 0. -1.
          1   -1    0    0  501    0 -0.00000000000E+00 -0.00000000000E+00 -0.81213976534E+02  0.81213976534E+02  0.00000000000E+00 0. -1.
          2    1    1    2  501    0  0.42886477364E+02  0.31542135954E+02  0.16608256673E+03  0.17440635095E+03  0.00000000000E+00 0. -1.
          1    1    1    2  502    0 -0.38314341951E+02 -0.74159351091E+02  0.15764909272E+03  0.17838395272E+03  0.00000000000E+00 0. -1.
         22    1    1    2    0    0  0.71634496842E+01  0.70217613574E+01  0.57068230828E+02  0.57943102383E+02  0.00000000000E+00 0. -1.
         22    1    1    2    0    0 -0.11735585098E+02  0.35595453780E+02 -0.60946013868E+02  0.71548423420E+02  0.00000000000E+00 0. -1.
</event>
<event>
 6    1  0.1383644E-005  0.1222282E+03  0.7818608E-02  0.1287619E+00
          2   -1    0    0  502    0  0.00000000000E+00  0.00000000000E+00  0.49929860984E+03  0.49929860984E+03  0.00000000000E+00 0. -1.
          1   -1    0    0  501    0 -0.00000000000E+00 -0.00000000000E+00 -0.11690869057E+03  0.11690869057E+03  0.00000000000E+00 0.  1.
          2    1    1    2  501    0  0.53088472062E+02 -0.78086209204E+02  0.27405399994E+03  0.28986451458E+03  0.00000000000E+00 0. -1.
          1    1    1    2  502    0 -0.97652509060E+02  0.12853381794E+03  0.42993965091E+02  0.16704920207E+03  0.00000000000E+00 0.  1.
         22    1    1    2    0    0  0.12187080773E+02 -0.15445111450E+02  0.98996156317E+02  0.10093223158E+03  0.00000000000E+00 0. -1.
         22    1    1    2    0    0  0.32376956224E+02 -0.35002497281E+02 -0.33654202083E+02  0.58361352178E+02  0.00000000000E+00 0.  1.
</event>
<event>
 6    1  0.1383644E-005  0.5176252E+02  0.7818608E-02  0.1487478E+00
          2   -1    0    0  502    0  0.00000000000E+00  0.00000000000E+00  0.73139407432E+02  0.73139407432E+02  0.00000000000E+00 0.  1.
          1   -1    0    0  501    0 -0.00000000000E+00 -0.00000000000E+00 -0.29004110138E+03  0.29004110138E+03  0.00000000000E+00 0.  1.
          2    1    1    2  501    0 -0.36742166799E+02  0.41098293328E+02 -0.35329401657E+02  0.65476890251E+02  0.00000000000E+00 0.  1.
          1    1    1    2  502    0  0.75933204066E+01 -0.37040275953E+02 -0.16136029867E+03  0.16573106693E+03  0.00000000000E+00 0.  1.
         22    1    1    2    0    0  0.48273643717E+02 -0.19473972990E+02  0.40840973524E+02  0.66163172688E+02  0.00000000000E+00 0.  1.
         22    1    1    2    0    0 -0.19124797325E+02  0.15415955615E+02 -0.61052967141E+02  0.65809378943E+02  0.00000000000E+00 0.  1.
</event>
<event>
 6    1  0.1383644E-005  0.1163171E+03  0.7818608E-02  0.1259052E+00
          2   -1    0    0  502    0  0.00000000000E+00  0.00000000000E+00  0.79377349391E+03  0.79377349391E+03  0.00000000000E+00 0. -1.
          1   -1    0    0  501    0 -0.00000000000E+00 -0.00000000000E+00 -0.36433617965E+02  0.36433617965E+02  0.00000000000E+00 0.  1.
          2    1    1    2  501    0  0.10471820833E+03  0.65446164677E+01  0.20140966876E+03  0.22710039593E+03  0.00000000000E+00 0. -1.
          1    1    1    2  502    0 -0.49108301618E+02 -0.65691479240E+02  0.27533230248E+03  0.28728883118E+03  0.00000000000E+00 0.  1.
         22    1    1    2    0    0 -0.31394368718E+02 -0.33596105867E+02  0.62555134568E+02  0.77636650993E+02  0.00000000000E+00 0.  1.
         22    1    1    2    0    0 -0.24215537993E+02  0.92742968639E+02  0.21804277014E+03  0.23818123377E+03  0.00000000000E+00 0.  1.
</event>
<event>
 6    1  0.1383644E-005  0.2836017E+02  0.7818608E-02  0.1655350E+00
          2   -1    0    0  502    0  0.00000000000E+00  0.00000000000E+00  0.56618139749E+03  0.56618139749E+03  0.00000000000E+00 0.  1.
          1   -1    0    0  501    0 -0.00000000000E+00 -0.00000000000E+00 -0.99718641940E+02  0.99718641940E+02  0.00000000000E+00 0. -1.
          2    1    1    2  501    0  0.16837572537E+02 -0.27013110037E+02  0.46259663699E+03  0.46369047922E+03  0.00000000000E+00 0.  1.
          1    1    1    2  502    0 -0.30983137492E+02  0.28509142464E+02 -0.51304923976E+02  0.66369580661E+02  0.00000000000E+00 0. -1.
         22    1    1    2    0    0  0.11809727916E+02 -0.12042726590E+02  0.94018035610E+02  0.95519044997E+02  0.00000000000E+00 0.  1.
         22    1    1    2    0    0  0.23358370388E+01  0.10546694163E+02 -0.38846993074E+02  0.40320934554E+02  0.00000000000E+00 0. -1.
</event>
<event>
 6    1  0.1383644E-005  0.7612414E+02  0.7818608E-02  0.1345192E+00
          2   -1    0    0  502    0  0.00000000000E+00  0.00000000000E+00  0.12478169692E+03  0.12478169692E+03  0.00000000000E+00 0. -1.
          1   -1    0    0  501    0 -0.00000000000E+00 -0.00000000000E+00 -0.10038250791E+03  0.10038250791E+03  0.00000000000E+00 0. -1.
          2    1    1    2  501    0  0.16287639137E+02  0.30008800461E+02  0.46429023184E+02  0.57632191418E+02  0.00000000000E+00 0. -1.
          1    1    1    2  502    0 -0.17404217706E+02 -0.30970285736E+02 -0.16184729816E+02  0.39038581835E+02  0.00000000000E+00 0. -1.
         22    1    1    2    0    0 -0.27503263335E+02 -0.20815000582E+02 -0.56604518755E+02  0.66285483228E+02  0.00000000000E+00 0. -1.
         22    1    1    2    0    0  0.28619841905E+02  0.21776485857E+02  0.50759414406E+02  0.62207948348E+02  0.00000000000E+00 0.  1.
</event>
<event>
 6    1  0.1383644E-005  0.5129966E+02  0.7818608E-02  0.1494484E+00
          2   -1    0    0  502    0  0.00000000000E+00  0.00000000000E+00  0.16965905628E+03  0.16965905628E+03  0.00000000000E+00 0. -1.
          1   -1    0    0  501    0 -0.00000000000E+00 -0.00000000000E+00 -0.12070944921E+03  0.12070944921E+03  0.00000000000E+00 0. -1.
          2    1    1    2  501    0  0.39165035473E+02 -0.20042013054E+02  0.77825743284E+02  0.89400383716E+02  0.00000000000E+00 0. -1.
          1    1    1    2  502    0 -0.17647606332E+02  0.32384488020E+02 -0.61658040715E+02  0.71846412982E+02  0.00000000000E+00 0. -1.
         22    1    1    2    0    0 -0.11438499981E+02 -0.19829024799E+02  0.78469496766E+02  0.81740390438E+02  0.00000000000E+00 0. -1.
         22    1    1    2    0    0 -0.10078929161E+02  0.74865498326E+01 -0.45687592264E+02  0.47381318347E+02  0.00000000000E+00 0. -1.
</event>
<event>
 6    1  0.1383644E-005  0.9119895E+02  0.7818608E-02  0.1371339E+00
          2   -1    0    0  502    0  0.00000000000E+00  0.00000000000E+00  0.16749545886E+03  0.16749545886E+03  0.00000000000E+00 0. -1.
          1   -1    0    0  501    0 -0.00000000000E+00 -0.00000000000E+00 -0.24467008061E+03  0.24467008061E+03  0.00000000000E+00 0. -1.
          2    1    1    2  501    0 -0.12525723294E+02 -0.26716781876E+02  0.62733561910E+02  0.69326618032E+02  0.00000000000E+00 0. -1.
          1    1    1    2  502    0 -0.22865153845E+02  0.92032824647E+02 -0.16903720928E+03  0.19382062376E+03  0.00000000000E+00 0. -1.
         22    1    1    2    0    0 -0.26243658566E+02 -0.21375917447E+00  0.50449789007E+02  0.56867886533E+02  0.00000000000E+00 0. -1.
         22    1    1    2    0    0  0.61634535705E+02 -0.65102283596E+02 -0.21320763380E+02  0.92150411134E+02  0.00000000000E+00 0. -1.
</event>
<event>
 6    1  0.1383644E-005  0.1486187E+03  0.7818608E-02  0.1276011E+00
          2   -1    0    0  502    0  0.00000000000E+00  0.00000000000E+00  0.19576677585E+04  0.19576677585E+04  0.00000000000E+00 0. -1.
          1   -1    0    0  501    0 -0.00000000000E+00 -0.00000000000E+00 -0.17222829524E+02  0.17222829524E+02  0.00000000000E+00 0. -1.
          2    1    1    2  501    0  0.50855797449E+02  0.16131982887E+02  0.18047829362E+03  0.18819927597E+03  0.00000000000E+00 0. -1.
          1    1    1    2  502    0 -0.13689115883E+03 -0.18018863971E+02  0.11223204108E+04  0.11307815763E+04  0.00000000000E+00 0. -1.
         22    1    1    2    0    0 -0.13201783674E+02 -0.30309336442E+02  0.56404307100E+02  0.65378810231E+02  0.00000000000E+00 0. -1.
         22    1    1    2    0    0  0.99237145060E+02  0.32196217527E+02  0.58124191739E+03  0.59053092545E+03  0.00000000000E+00 0.  1.
</event>
<event>
 6    1  0.1383644E-005  0.1132450E+03  0.7818608E-02  0.1359177E+00
          2   -1    0    0  502    0  0.00000000000E+00  0.00000000000E+00  0.76658282862E+03  0.76658282862E+03  0.00000000000E+00 0. -1.
          1   -1    0    0  501    0 -0.00000000000E+00 -0.00000000000E+00 -0.88549313220E+02  0.88549313220E+02  0.00000000000E+00 0. -1.
          2    1    1    2  501    0  0.60917809961E+02 -0.10580335555E+03  0.15117820966E+03  0.19431978977E+03  0.00000000000E+00 0. -1.
          1    1    1    2  502    0  0.34758880137E+02  0.59246245845E+02  0.48967522096E+03  0.49446953335E+03  0.00000000000E+00 0. -1.
         22    1    1    2    0    0  0.14973627030E+02  0.75937851611E+01 -0.27622175592E+02  0.32324289071E+02  0.00000000000E+00 0.  1.
         22    1    1    2    0    0 -0.11065031713E+03  0.38963324548E+02  0.64802260370E+02  0.13401852965E+03  0.00000000000E+00 0. -1.
</event>
<event>
 6    1  0.1383644E-005  0.8057363E+02  0.7818608E-02  0.1375905E+00
          2   -1    0    0  502    0  0.00000000000E+00  0.00000000000E+00  0.98023764856E+03  0.98023764856E+03  0.00000000000E+00 0. -1.
          1   -1    0    0  501    0 -0.00000000000E+00 -0.00000000000E+00 -0.13436536463E+03  0.13436536463E+03  0.00000000000E+00 0. -1.
          2    1    1    2  501    0 -0.15913154919E+03 -0.19928425492E+03  0.61109270160E+03  0.66217169537E+03  0.00000000000E+00 0. -1.
          1    1    1    2  502    0  0.14017030936E+03  0.21187509369E+03  0.18083390588E+03  0.31183276362E+03  0.00000000000E+00 0. -1.
         22    1    1    2    0    0  0.61727790352E+01  0.90986222921E+01 -0.40959798481E+02  0.42409824572E+02  0.00000000000E+00 0.  1.
         22    1    1    2    0    0  0.12788460799E+02 -0.21689461065E+02  0.94905474934E+02  0.98188729615E+02  0.00000000000E+00 0.  1.
</event>
<event>
 6    1  0.1383644E-005  0.4827285E+02  0.7818608E-02  0.1456005E+00
          2   -1    0    0  502    0  0.00000000000E+00  0.00000000000E+00  0.42266038510E+03  0.42266038510E+03  0.00000000000E+00 0. -1.
          1   -1    0    0  501    0 -0.00000000000E+00 -0.00000000000E+00 -0.28138703251E+03  0.28138703251E+03  0.00000000000E+00 0. -1.
          2    1    1    2  501    0 -0.12253776133E+02  0.31297776748E+02  0.34245811437E+03  0.34410356864E+03  0.00000000000E+00 0. -1.
          1    1    1    2  502    0  0.15651819091E+02 -0.31869295127E+02 -0.22996623187E+03  0.23269099512E+03  0.00000000000E+00 0. -1.
         22    1    1    2    0    0 -0.67891471450E+01  0.11308815574E+02  0.76803734951E+02  0.77928143383E+02  0.00000000000E+00 0.  1.
         22    1    1    2    0    0  0.33911041867E+01 -0.10737297195E+02 -0.48022264862E+02  0.49324710452E+02  0.00000000000E+00 0. -1.
</event>
<event>
 6    1  0.1383644E-005  0.7846809E+02  0.7818608E-02  0.1345315E+00
          2   -1    0    0  502    0  0.00000000000E+00  0.00000000000E+00  0.74646304429E+03  0.74646304429E+03  0.00000000000E+00 0.  1.
          1   -1    0    0  501    0 -0.00000000000E+00 -0.00000000000E+00 -0.13171109566E+03  0.13171109566E+03  0.00000000000E+00 0. -1.
          2    1    1    2  501    0 -0.25997309744E+01 -0.14109480558E+03  0.59060239130E+03  0.60722787104E+03  0.00000000000E+00 0.  1.
          1    1    1    2  502    0  0.14147287049E+02  0.14808176486E+03  0.88185776622E+01  0.14901718736E+03  0.00000000000E+00 0. -1.
         22    1    1    2    0    0  0.26991528978E+02 -0.17668908170E+02  0.56166666277E+02  0.64772118641E+02  0.00000000000E+00 0.  1.
         22    1    1    2    0    0 -0.38539085053E+02  0.10681948885E+02 -0.40835686604E+02  0.57156962910E+02  0.00000000000E+00 0. -1.
</event>
<event>
 6    1  0.1383644E-005  0.5781070E+02  0.7818608E-02  0.1428774E+00
          2   -1    0    0  502    0  0.00000000000E+00  0.00000000000E+00  0.17153042904E+03  0.17153042904E+03  0.00000000000E+00 0. -1.
          1   -1    0    0  501    0 -0.00000000000E+00 -0.00000000000E+00 -0.12101235202E+03  0.12101235202E+03  0.00000000000E+00 0. -1.
          2    1    1    2  501    0  0.19737005764E+02 -0.39186947783E+02  0.14493609972E+02  0.46208559846E+02  0.00000000000E+00 0. -1.
          1    1    1    2  502    0 -0.45061524246E+02  0.17445947047E+01  0.89970773285E+02  0.10063957782E+03  0.00000000000E+00 0. -1.
         22    1    1    2    0    0  0.38817414875E+01 -0.27349320859E+02  0.27809299727E+02  0.39197071571E+02  0.00000000000E+00 0.  1.
         22    1    1    2    0    0  0.21442776995E+02  0.64791673937E+02 -0.81755605962E+02  0.10649757182E+03  0.00000000000E+00 0. -1.
</event>
<event>
 6    1  0.1383644E-005  0.4132764E+02  0.7818608E-02  0.1521273E+00
          2   -1    0    0  502    0  0.00000000000E+00  0.00000000000E+00  0.66851178052E+02  0.66851178052E+02  0.00000000000E+00 0. -1.
          1   -1    0    0  501    0 -0.00000000000E+00 -0.00000000000E+00 -0.15839440183E+03  0.15839440183E+03  0.00000000000E+00 0. -1.
          2    1    1    2  501    0 -0.90920691981E+01  0.19593756799E+02  0.20960336185E+02  0.30098450472E+02  0.00000000000E+00 0. -1.
          1    1    1    2  502    0  0.28401798960E+02  0.23177038113E+01 -0.17647468198E+02  0.33518160285E+02  0.00000000000E+00 0. -1.
         22    1    1    2    0    0 -0.23556297779E+02  0.82074930437E+01  0.26573722467E+02  0.36447562784E+02  0.00000000000E+00 0. -1.
         22    1    1    2    0    0  0.42465680175E+01 -0.30118953654E+02 -0.12142981423E+03  0.12518140634E+03  0.00000000000E+00 0. -1.
</event>
<event>
 6    1  0.1383644E-005  0.1102383E+03  0.7818608E-02  0.1260168E+00
          2   -1    0    0  502    0  0.00000000000E+00  0.00000000000E+00  0.51186282846E+02  0.51186282846E+02  0.00000000000E+00 0. -1.
          1   -1    0    0  501    0 -0.00000000000E+00 -0.00000000000E+00 -0.34952791469E+03  0.34952791469E+03  0.00000000000E+00 0. -1.
          2    1    1    2  501    0 -0.16092457038E+01 -0.20762838747E+02 -0.60190168224E+01  0.21677493123E+02  0.00000000000E+00 0. -1.
          1    1    1    2  502    0  0.49111653936E+02  0.58403253543E+02 -0.19207559254E+03  0.20667831969E+03  0.00000000000E+00 0. -1.
         22    1    1    2    0    0 -0.55277689181E+02 -0.70261126006E+02 -0.29627065051E+02  0.94180739711E+02  0.00000000000E+00 0. -1.
         22    1    1    2    0    0  0.77752809486E+01  0.32620711210E+02 -0.70619957422E+02  0.78177645014E+02  0.00000000000E+00 0. -1.
</event>
<event>
 6    1  0.1383644E-005  0.1507538E+03  0.7818608E-02  0.1265220E+00
          2   -1    0    0  502    0  0.00000000000E+00  0.00000000000E+00  0.60556381721E+03  0.60556381721E+03  0.00000000000E+00 0. -1.
          1   -1    0    0  501    0 -0.00000000000E+00 -0.00000000000E+00 -0.16966015356E+03  0.16966015356E+03  0.00000000000E+00 0. -1.
          2    1    1    2  501    0 -0.94103992417E+02  0.19302897405E+03  0.66883223100E+02  0.22492023418E+03  0.00000000000E+00 0. -1.
          1    1    1    2  502    0  0.19319793128E+03 -0.11996066363E+03  0.16341776612E+03  0.28003815411E+03  0.00000000000E+00 0. -1.
         22    1    1    2    0    0 -0.27268394057E+02  0.31415764881E+01 -0.11082200849E+02  0.29601520112E+02  0.00000000000E+00 0.  1.
         22    1    1    2    0    0 -0.71825544805E+02 -0.76209886905E+02  0.21668487527E+03  0.24066406238E+03  0.00000000000E+00 0. -1.
</event>
<event>
 6    1  0.1383644E-005  0.4724931E+02  0.7818608E-02  0.1485708E+00
          2   -1    0    0  502    0  0.00000000000E+00  0.00000000000E+00  0.37591712805E+03  0.37591712805E+03  0.00000000000E+00 0. -1.
          1   -1    0    0  501    0 -0.00000000000E+00 -0.00000000000E+00 -0.11275194342E+03  0.11275194342E+03  0.00000000000E+00 0. -1.
          2    1    1    2  501    0 -0.25182149793E+02 -0.25967609018E+02  0.29678329697E+03  0.29897956911E+03  0.00000000000E+00 0. -1.
          1    1    1    2  502    0  0.95581533905E+01  0.55937119317E+02 -0.29885562167E+02  0.64136311398E+02  0.00000000000E+00 0. -1.
         22    1    1    2    0    0 -0.79329395841E+01 -0.67061050706E+01  0.56163466385E+02  0.57116007669E+02  0.00000000000E+00 0. -1.
         22    1    1    2    0    0  0.23556935987E+02 -0.23263405228E+02 -0.59896016559E+02  0.68437183282E+02  0.00000000000E+00 0. -1.
</event>
<event>
 6    1  0.1383644E-005  0.5049419E+02  0.7818608E-02  0.1458906E+00
          2   -1    0    0  502    0  0.00000000000E+00  0.00000000000E+00  0.19145572603E+03  0.19145572603E+03  0.00000000000E+00 0.  1.
          1   -1    0    0  501    0 -0.00000000000E+00 -0.00000000000E+00 -0.73109407015E+02  0.73109407015E+02  0.00000000000E+00 0. -1.
          2    1    1    2  501    0  0.17089743988E+02  0.42077713045E+02  0.94969775443E+02  0.10527037348E+03  0.00000000000E+00 0.  1.
          1    1    1    2  502    0 -0.22404779655E+02 -0.15528228723E+02  0.98615926124E+01  0.28988809005E+02  0.00000000000E+00 0. -1.
         22    1    1    2    0    0 -0.61472346922E+01 -0.39297586823E+02 -0.50358333690E+02  0.64172039055E+02  0.00000000000E+00 0. -1.
         22    1    1    2    0    0  0.11462270359E+02  0.12748102501E+02  0.63873284644E+02  0.66133911501E+02  0.00000000000E+00 0.  1.
</event>
<event>
 6    1  0.1383644E-005  0.8051515E+02  0.7818608E-02  0.1371613E+00
          2   -1    0    0  502    0  0.00000000000E+00  0.00000000000E+00  0.23257555193E+03  0.23257555193E+03  0.00000000000E+00 0. -1.
          1   -1    0    0  501    0 -0.00000000000E+00 -0.00000000000E+00 -0.41830537274E+03  0.41830537274E+03  0.00000000000E+00 0.  1.
          2    1    1    2  501    0  0.37753766734E+02 -0.11970208602E+03  0.17494935691E+03  0.21531654322E+03  0.00000000000E+00 0. -1.
          1    1    1    2  502    0 -0.34074107747E+02  0.77733883437E+02 -0.54605012747E+02  0.10092229124E+03  0.00000000000E+00 0.  1.
         22    1    1    2    0    0  0.20626162649E+02  0.52337867819E+02 -0.30283858850E+03  0.30801932030E+03  0.00000000000E+00 0.  1.
         22    1    1    2    0    0 -0.24305821637E+02 -0.10369665237E+02 -0.32355764700E+01  0.26622769910E+02  0.00000000000E+00 0. -1.
</event>
<event>
 6    1  0.1383644E-005  0.6938376E+02  0.7818608E-02  0.1388873E+00
          2   -1    0    0  502    0  0.00000000000E+00  0.00000000000E+00  0.61739635682E+02  0.61739635682E+02  0.00000000000E+00 0.  1.
          1   -1    0    0  501    0 -0.00000000000E+00 -0.00000000000E+00 -0.16967597458E+04  0.16967597458E+04  0.00000000000E+00 0.  1.
          2    1    1    2  501    0 -0.16241826476E+02  0.49870165058E+02  0.22363330255E+02  0.57017092440E+02  0.00000000000E+00 0.  1.
          1    1    1    2  502    0  0.54727539068E+02 -0.30223074669E+02 -0.14635270377E+04  0.14648617436E+04  0.00000000000E+00 0.  1.
         22    1    1    2    0    0 -0.30077841608E+02 -0.33169923422E+02 -0.20953974892E+03  0.21427045236E+03  0.00000000000E+00 0.  1.
         22    1    1    2    0    0 -0.84078709843E+01  0.13522833033E+02  0.15683346298E+02  0.22350093039E+02  0.00000000000E+00 0. -1.
</event>
<event>
 6    1  0.1383644E-005  0.7207747E+02  0.7818608E-02  0.1353285E+00
          2   -1    0    0  502    0  0.00000000000E+00  0.00000000000E+00  0.24875856364E+03  0.24875856364E+03  0.00000000000E+00 0. -1.
          1   -1    0    0  501    0 -0.00000000000E+00 -0.00000000000E+00 -0.52342101481E+03  0.52342101481E+03  0.00000000000E+00 0.  1.
          2    1    1    2  501    0 -0.31613775081E+02  0.34000886483E+02  0.18747814691E+03  0.19314126080E+03  0.00000000000E+00 0. -1.
          1    1    1    2  502    0  0.44265232359E+02 -0.36011083239E+02 -0.44642642879E+03  0.45005862422E+03  0.00000000000E+00 0.  1.
         22    1    1    2    0    0 -0.18245669672E+02  0.14619863836E+02  0.53509730283E+02  0.58394658278E+02  0.00000000000E+00 0. -1.
         22    1    1    2    0    0  0.55942123939E+01 -0.12609667080E+02 -0.69223899573E+02  0.70585035158E+02  0.00000000000E+00 0.  1.
</event>
<event>
 6    1  0.1383644E-005  0.1215202E+03  0.7818608E-02  0.1267208E+00
          2   -1    0    0  502    0  0.00000000000E+00  0.00000000000E+00  0.18076257164E+03  0.18076257164E+03  0.00000000000E+00 0. -1.
          1   -1    0    0  501    0 -0.00000000000E+00 -0.00000000000E+00 -0.25420960644E+03  0.25420960644E+03  0.00000000000E+00 0. -1.
          2    1    1    2  501    0 -0.40081924121E+02 -0.10856273635E+03  0.96275047175E+02  0.15053674991E+03  0.00000000000E+00 0. -1.
          1    1    1    2  502    0 -0.13213246105E+02  0.80100459967E+02 -0.97957874862E+02  0.12722585746E+03  0.00000000000E+00 0. -1.
         22    1    1    2    0    0 -0.74002760958E+01 -0.96460938575E+01  0.30213300735E+02  0.32567694949E+02  0.00000000000E+00 0. -1.
         22    1    1    2    0    0  0.60695446322E+02  0.38108370241E+02 -0.10197750785E+03  0.12464187576E+03  0.00000000000E+00 0. -1.
</event>
<event>
 6    1  0.1383644E-005  0.4653738E+02  0.7818608E-02  0.1481043E+00
          2   -1    0    0  502    0  0.00000000000E+00  0.00000000000E+00  0.30765354960E+03  0.30765354960E+03  0.00000000000E+00 0.  1.
          1   -1    0    0  501    0 -0.00000000000E+00 -0.00000000000E+00 -0.14779366666E+03  0.14779366666E+03  0.00000000000E+00 0.  1.
          2    1    1    2  501    0 -0.39076388622E+02  0.17970147830E+02  0.87304606880E+02  0.97324122103E+02  0.00000000000E+00 0.  1.
          1    1    1    2  502    0 -0.10731601196E+01 -0.46122727136E+02 -0.11773041490E+03  0.12644725471E+03  0.00000000000E+00 0.  1.
         22    1    1    2    0    0  0.10695331029E+02  0.37293591754E+02  0.19643418922E+03  0.20022885103E+03  0.00000000000E+00 0.  1.
         22    1    1    2    0    0  0.29454217712E+02 -0.91410124479E+01 -0.61484982621E+01  0.31446988417E+02  0.00000000000E+00 0.  1.
</event>
<event>
 6    1  0.1383644E-005  0.1971278E+03  0.7818608E-02  0.1245503E+00
          2   -1    0    0  502    0  0.00000000000E+00  0.00000000000E+00  0.12296085502E+04  0.12296085502E+04  0.00000000000E+00 0.  1.
          1   -1    0    0  501    0 -0.00000000000E+00 -0.00000000000E+00 -0.40304517909E+02  0.40304517909E+02  0.00000000000E+00 0.  1.
          2    1    1    2  501    0 -0.20924666831E+02 -0.69387436910E+02  0.29773001872E+03  0.30642392552E+03  0.00000000000E+00 0.  1.
          1    1    1    2  502    0 -0.86064297219E+02  0.14874250675E+02  0.70290366008E+03  0.70830915704E+03  0.00000000000E+00 0.  1.
         22    1    1    2    0    0 -0.39374115583E+01  0.25485086515E+02 -0.84501084574E+01  0.27136639021E+02  0.00000000000E+00 0. -1.
         22    1    1    2    0    0  0.11092637561E+03  0.29028099720E+02  0.19712046195E+03  0.22804334654E+03  0.00000000000E+00 0.  1.
</event>
<event>
 6    1  0.1383644E-005  0.7010103E+02  0.7818608E-02  0.1436696E+00
          2   -1    0    0  502    0  0.00000000000E+00  0.00000000000E+00  0.49730530776E+03  0.49730530776E+03  0.00000000000E+00 0. -1.
          1   -1    0    0  501    0 -0.00000000000E+00 -0.00000000000E+00 -0.51837502451E+02  0.51837502451E+02  0.00000000000E+00 0. -1.
          2    1    1    2  501    0  0.41296270420E+02 -0.21446629131E+02  0.26413695364E+03  0.26820453041E+03  0.00000000000E+00 0. -1.
          1    1    1    2  502    0 -0.67101437540E+02  0.53724303632E+02  0.88511918081E+02  0.12338258938E+03  0.00000000000E+00 0. -1.
         22    1    1    2    0    0  0.13710029660E+02 -0.15430728288E+02 -0.28102510671E+02  0.34868659205E+02  0.00000000000E+00 0. -1.
         22    1    1    2    0    0  0.12095137459E+02 -0.16846946213E+02  0.12092144426E+03  0.12268703121E+03  0.00000000000E+00 0.  1.
</event>
<event>
 6    1  0.1383644E-005  0.1208881E+03  0.7818608E-02  0.1306695E+00
          2   -1    0    0  502    0  0.00000000000E+00  0.00000000000E+00  0.25756814601E+03  0.25756814601E+03  0.00000000000E+00 0.  1.
          1   -1    0    0  501    0 -0.00000000000E+00 -0.00000000000E+00 -0.92962330244E+02  0.92962330244E+02  0.00000000000E+00 0.  1.
          2    1    1    2  501    0 -0.20995828313E+02  0.10333266182E+02  0.28830056292E+01  0.23577805623E+02  0.00000000000E+00 0.  1.
          1    1    1    2  502    0  0.70386108843E+02 -0.48524748778E+02 -0.30035221232E+02  0.90614403250E+02  0.00000000000E+00 0.  1.
         22    1    1    2    0    0 -0.38796735293E+02  0.71146758818E+02  0.18372373900E+03  0.20080204240E+03  0.00000000000E+00 0.  1.
         22    1    1    2    0    0 -0.10593545237E+02 -0.32955276222E+02  0.80342923601E+01  0.35536224972E+02  0.00000000000E+00 0.  1.
</event>
<event>
 6    1  0.1383644E-005  0.4011021E+02  0.7818608E-02  0.1540528E+00
          2   -1    0    0  502    0  0.00000000000E+00  0.00000000000E+00  0.15526404157E+03  0.15526404157E+03  0.00000000000E+00 0. -1.
          1   -1    0    0  501    0 -0.00000000000E+00 -0.00000000000E+00 -0.27780602213E+03  0.27780602213E+03  0.00000000000E+00 0.  1.
          2    1    1    2  501    0  0.45219077320E+02 -0.15128574696E+02  0.11003533390E+03  0.11992253096E+03  0.00000000000E+00 0. -1.
          1    1    1    2  502    0 -0.64299346522E+02 -0.33770702122E+02 -0.69825239450E+02  0.10074934416E+03  0.00000000000E+00 0.  1.
         22    1    1    2    0    0  0.11512069566E+01  0.21289943465E+02  0.18471026279E+02  0.28209320835E+02  0.00000000000E+00 0.  1.
         22    1    1    2    0    0  0.17929062245E+02  0.27609333353E+02 -0.18122310128E+03  0.18418886774E+03  0.00000000000E+00 0.  1.
</event>
<event>
 6    1  0.1383644E-005  0.5088982E+02  0.7818608E-02  0.1556804E+00
          2   -1    0    0  502    0  0.00000000000E+00  0.00000000000E+00  0.22345488355E+03  0.22345488355E+03  0.00000000000E+00 0. -1.
          1   -1    0    0  501    0 -0.00000000000E+00 -0.00000000000E+00 -0.10052917559E+03  0.10052917559E+03  0.00000000000E+00 0.  1.
          2    1    1    2  501    0  0.22688059516E+02 -0.76163678115E+00  0.94899575474E+02  0.97576931497E+02  0.00000000000E+00 0. -1.
          1    1    1    2  502    0 -0.23662925199E+02  0.28024766843E+02 -0.60361830419E+02  0.70631948558E+02  0.00000000000E+00 0.  1.
         22    1    1    2    0    0 -0.10193424574E+02 -0.10875014925E+01 -0.31203484742E+02  0.32844269273E+02  0.00000000000E+00 0. -1.
         22    1    1    2    0    0  0.11168290257E+02 -0.26175628570E+02  0.11959144765E+03  0.12293090982E+03  0.00000000000E+00 0. -1.
</event>
<event>
 6    1  0.1383644E-005  0.1580334E+03  0.7818608E-02  0.1325155E+00
          2   -1    0    0  502    0  0.00000000000E+00  0.00000000000E+00  0.34576631122E+03  0.34576631122E+03  0.00000000000E+00 0.  1.
          1   -1    0    0  501    0 -0.00000000000E+00 -0.00000000000E+00 -0.13350505320E+03  0.13350505320E+03  0.00000000000E+00 0.  1.
          2    1    1    2  501    0  0.34556185972E+02  0.54350650416E+00 -0.12504373439E+02  0.36753023595E+02  0.00000000000E+00 0.  1.
          1    1    1    2  502    0  0.56411373259E+02 -0.82246527783E+02  0.24561287926E+03  0.26508945815E+03  0.00000000000E+00 0.  1.
         22    1    1    2    0    0 -0.79912521340E+02  0.82883404731E+02  0.35117977316E+02  0.12037002192E+03  0.00000000000E+00 0.  1.
         22    1    1    2    0    0 -0.11055037892E+02 -0.11803834524E+01 -0.55965225114E+02  0.57058860749E+02  0.00000000000E+00 0.  1.
</event>
<event>
 6    1  0.1383644E-005  0.1074807E+03  0.7818608E-02  0.1383173E+00
          2   -1    0    0  502    0  0.00000000000E+00  0.00000000000E+00  0.74742497612E+03  0.74742497612E+03  0.00000000000E+00 0. -1.
          1   -1    0    0  501    0 -0.00000000000E+00 -0.00000000000E+00 -0.14741637596E+03  0.14741637596E+03  0.00000000000E+00 0. -1.
          2    1    1    2  501    0  0.81771255041E+01  0.39250654965E+02  0.41283288271E+03  0.41477520217E+03  0.00000000000E+00 0. -1.
          1    1    1    2  502    0 -0.47957505473E+02 -0.99816247359E+02 -0.10487945854E+03  0.15252182267E+03  0.00000000000E+00 0. -1.
         22    1    1    2    0    0  0.18217807424E+01  0.13082065134E+02 -0.11773375698E+02  0.17693831936E+02  0.00000000000E+00 0.  1.
         22    1    1    2    0    0  0.37958599226E+02  0.47483527260E+02  0.30382855169E+03  0.30985049530E+03  0.00000000000E+00 0. -1.
</event>
<event>
 6    1  0.1383644E-005  0.1528244E+03  0.7818608E-02  0.1292336E+00
          2   -1    0    0  502    0  0.00000000000E+00  0.00000000000E+00  0.48264813918E+02  0.48264813918E+02  0.00000000000E+00 0.  1.
          1   -1    0    0  501    0 -0.00000000000E+00 -0.00000000000E+00 -0.75007213444E+03  0.75007213444E+03  0.00000000000E+00 0.  1.
          2    1    1    2  501    0  0.42175998291E+02  0.21629882607E+02 -0.59218030702E+02  0.75851445693E+02  0.00000000000E+00 0.  1.
          1    1    1    2  502    0 -0.12345436847E+03 -0.64726891566E+02 -0.47099344771E+03  0.49118772315E+03  0.00000000000E+00 0.  1.
         22    1    1    2    0    0 -0.19816660303E+01 -0.22242745541E+02 -0.10249589722E+03  0.10490031304E+03  0.00000000000E+00 0.  1.
         22    1    1    2    0    0  0.83260036205E+02  0.65339754501E+02 -0.69099944885E+02  0.12639746647E+03  0.00000000000E+00 0.  1.
</event>
<event>
 6    1  0.2264115E-005  0.7462480E+02  0.7818608E-02  0.1434101E+00
          2   -1    0    0  502    0  0.00000000000E+00  0.00000000000E+00  0.38853910724E+03  0.38853910724E+03  0.00000000000E+00 0. -1.
          1   -1    0    0  501    0 -0.00000000000E+00 -0.00000000000E+00 -0.62997512963E+03  0.62997512963E+03  0.00000000000E+00 0.  1.
          2    1    1    2  501    0 -0.46053450402E+02 -0.10715254263E+03  0.28290154647E+03  0.30599979196E+03  0.00000000000E+00 0. -1.
          1    1    1    2  502    0 -0.44677633264E+01  0.93665310129E+02 -0.56647795862E+03  0.57418675432E+03  0.00000000000E+00 0.  1.
         22    1    1    2    0    0 -0.18763725982E+01  0.12336736901E+02  0.75287804582E+02  0.76314935434E+02  0.00000000000E+00 0.  1.
         22    1    1    2    0    0  0.52397586327E+02  0.11504956026E+01 -0.33147414814E+02  0.62012755155E+02  0.00000000000E+00 0.  1.
</event>
<event>
 6    1  0.1383644E-005  0.7421163E+02  0.7818608E-02  0.1388783E+00
          2   -1    0    0  502    0  0.00000000000E+00  0.00000000000E+00  0.26352332682E+03  0.26352332682E+03  0.00000000000E+00 0.  1.
          1   -1    0    0  501    0 -0.00000000000E+00 -0.00000000000E+00 -0.45846926043E+03  0.45846926043E+03  0.00000000000E+00 0. -1.
          2    1    1    2  501    0 -0.16727099960E+02  0.17623881950E+03  0.11246362837E+03  0.20973312823E+03  0.00000000000E+00 0.  1.
          1    1    1    2  502    0  0.12136752250E+02 -0.21429914195E+03 -0.31179458623E+03  0.37853307253E+03  0.00000000000E+00 0. -1.
         22    1    1    2    0    0 -0.33126732413E+01  0.27097453595E+02  0.65591475967E+02  0.71045672035E+02  0.00000000000E+00 0. -1.
         22    1    1    2    0    0  0.79030209505E+01  0.10962868855E+02 -0.61206451715E+02  0.62680714460E+02  0.00000000000E+00 0.  1.
</event>
<event>
 6    1  0.1383644E-005  0.5999924E+02  0.7818608E-02  0.1518144E+00
          2   -1    0    0  502    0  0.00000000000E+00  0.00000000000E+00  0.26869768035E+03  0.26869768035E+03  0.00000000000E+00 0.  1.
          1   -1    0    0  501    0 -0.00000000000E+00 -0.00000000000E+00 -0.10779533660E+03  0.10779533660E+03  0.00000000000E+00 0. -1.
          2    1    1    2  501    0 -0.43872373230E+02  0.12638026626E+02  0.17130126848E+03  0.17728121568E+03  0.00000000000E+00 0.  1.
          1    1    1    2  502    0  0.48988108014E+02 -0.11784816124E+02 -0.45023906628E+02  0.67571212701E+02  0.00000000000E+00 0. -1.
         22    1    1    2    0    0 -0.11856638385E+02  0.70207352238E+01  0.81997564514E+02  0.83147286084E+02  0.00000000000E+00 0. -1.
         22    1    1    2    0    0  0.67409036004E+01 -0.78739457263E+01 -0.47372582612E+02  0.48493302485E+02  0.00000000000E+00 0. -1.
</event>
<event>
 6    1  0.1383644E-005  0.1319148E+03  0.7818608E-02  0.1327949E+00
          2   -1    0    0  502    0  0.00000000000E+00  0.00000000000E+00  0.13613894345E+03  0.13613894345E+03  0.00000000000E+00 0.  1.
          1   -1    0    0  501    0 -0.00000000000E+00 -0.00000000000E+00 -0.53679025639E+03  0.53679025639E+03  0.00000000000E+00 0.  1.
          2    1    1    2  501    0 -0.56862892314E+02 -0.68001161078E+02  0.36481116403E+02  0.95856237586E+02  0.00000000000E+00 0.  1.
          1    1    1    2  502    0  0.65930001548E+02  0.10288291481E+03 -0.42918508358E+03  0.44624152119E+03  0.00000000000E+00 0.  1.
         22    1    1    2    0    0 -0.23838121610E+02 -0.24259555033E+02  0.55353632176E+02  0.64967735434E+02  0.00000000000E+00 0.  1.
         22    1    1    2    0    0  0.14771012376E+02 -0.10622198698E+02 -0.63300977934E+02  0.65863705629E+02  0.00000000000E+00 0. -1.
</event>
<event>
 6    1  0.1383644E-005  0.3590360E+02  0.7818608E-02  0.1571600E+00
          2   -1    0    0  502    0  0.00000000000E+00  0.00000000000E+00  0.75304467748E+02  0.75304467748E+02  0.00000000000E+00 0. -1.
          1   -1    0    0  501    0 -0.00000000000E+00 -0.00000000000E+00 -0.18516737689E+03  0.18516737689E+03  0.00000000000E+00 0. -1.
          2    1    1    2  501    0  0.30546178304E+02 -0.19466315390E+02  0.17269640165E+02  0.40127882018E+02  0.00000000000E+00 0. -1.
          1    1    1    2  502    0 -0.42718743737E+02 -0.15686931395E+02 -0.55464399289E+02  0.71744480425E+02  0.00000000000E+00 0. -1.
         22    1    1    2    0    0  0.22400601206E+02  0.18338525295E+02  0.31958079077E+02  0.43120844874E+02  0.00000000000E+00 0. -1.
         22    1    1    2    0    0 -0.10228035773E+02  0.16814721491E+02 -0.10362622910E+03  0.10547863732E+03  0.00000000000E+00 0. -1.
</event>
<event>
 6    1  0.1383644E-005  0.1504042E+03  0.7818608E-02  0.1299450E+00
          2   -1    0    0  502    0  0.00000000000E+00  0.00000000000E+00  0.51958174528E+03  0.51958174528E+03  0.00000000000E+00 0. -1.
          1   -1    0    0  501    0 -0.00000000000E+00 -0.00000000000E+00 -0.69270300866E+02  0.69270300866E+02  0.00000000000E+00 0. -1.
          2    1    1    2  501    0  0.44019121299E+02 -0.77670637372E+02  0.17135150563E+03  0.19321425784E+03  0.00000000000E+00 0. -1.
          1    1    1    2  502    0 -0.67366286761E+02  0.12238555660E+03  0.92816635861E+02  0.16772408577E+03  0.00000000000E+00 0. -1.
         22    1    1    2    0    0 -0.19726286690E+02 -0.56856434022E+01 -0.10358976048E+02  0.22994810550E+02  0.00000000000E+00 0.  1.
         22    1    1    2    0    0  0.43073452152E+02 -0.39029275824E+02  0.19650227897E+03  0.20491889199E+03  0.00000000000E+00 0.  1.
</event>
<event>
 6    1  0.1383644E-005  0.1669562E+03  0.7818608E-02  0.1291428E+00
          2   -1    0    0  502    0  0.00000000000E+00  0.00000000000E+00  0.56614200731E+03  0.56614200731E+03  0.00000000000E+00 0.  1.
          1   -1    0    0  501    0 -0.00000000000E+00 -0.00000000000E+00 -0.11006992668E+03  0.11006992668E+03  0.00000000000E+00 0.  1.
          2    1    1    2  501    0 -0.64674995792E+01 -0.13343442401E+03  0.30835062297E+03  0.33604565277E+03  0.00000000000E+00 0.  1.
          1    1    1    2  502    0 -0.18432316526E+02  0.16985731357E+03  0.92885881696E+02  0.19447119140E+03  0.00000000000E+00 0.  1.
         22    1    1    2    0    0  0.15765444662E+02 -0.74091900351E+01 -0.41320682667E+02  0.44842437026E+02  0.00000000000E+00 0.  1.
         22    1    1    2    0    0  0.91343714430E+01 -0.29013699523E+02  0.96156258635E+02  0.10085265280E+03  0.00000000000E+00 0. -1.
</event>
<event>
 6    1  0.1383644E-005  0.7302744E+02  0.7818608E-02  0.1384807E+00
          2   -1    0    0  502    0  0.00000000000E+00  0.00000000000E+00  0.24353510833E+03  0.24353510833E+03  0.00000000000E+00 0. -1.
          1   -1    0    0  501    0 -0.00000000000E+00 -0.00000000000E+00 -0.13639069233E+03  0.13639069233E+03  0.00000000000E+00 0.  1.
          2    1    1    2  501    0  0.42136369323E+02 -0.11944957907E+03  0.22250582180E+02  0.12860312580E+03  0.00000000000E+00 0. -1.
          1    1    1    2  502    0 -0.57617075010E+02  0.72612555539E+02  0.65134241524E+02  0.11329068794E+03  0.00000000000E+00 0.  1.
         22    1    1    2    0    0 -0.14947795371E+02  0.55989749849E+02 -0.39954993824E+02  0.70389560349E+02  0.00000000000E+00 0.  1.
         22    1    1    2    0    0  0.30428501058E+02 -0.91527263211E+01  0.59714586124E+02  0.67642426565E+02  0.00000000000E+00 0. -1.
</event>
<event>
 6    1  0.1383644E-005  0.4677467E+02  0.7818608E-02  0.1556982E+00
          2   -1    0    0  502    0  0.00000000000E+00  0.00000000000E+00  0.40836700365E+03  0.40836700365E+03  0.00000000000E+00 0. -1.
          1   -1    0    0  501    0 -0.00000000000E+00 -0.00000000000E+00 -0.45926305997E+02  0.45926305997E+02  0.00000000000E+00 0. -1.
          2    1    1    2  501    0 -0.21243025574E+02  0.22703555713E+01  0.24381618443E+03  0.24475038803E+03  0.00000000000E+00 0. -1.
          1    1    1    2  502    0  0.32397790269E+02 -0.28001459058E+02  0.89528634234E+01  0.43747597501E+02  0.00000000000E+00 0. -1.
         22    1    1    2    0    0  0.68259916864E+01  0.11265416034E+02 -0.25482263515E+02  0.28685353663E+02  0.00000000000E+00 0.  1.
         22    1    1    2    0    0 -0.17980756381E+02  0.14465687452E+02  0.13515391332E+03  0.13710997046E+03  0.00000000000E+00 0. -1.
</event>
<event>
 6    1  0.1383644E-005  0.1752061E+03  0.7818608E-02  0.1232030E+00
          2   -1    0    0  502    0  0.00000000000E+00  0.00000000000E+00  0.11196003230E+04  0.11196003230E+04  0.00000000000E+00 0. -1.
          1   -1    0    0  501    0 -0.00000000000E+00 -0.00000000000E+00 -0.37944354998E+02  0.37944354998E+02  0.00000000000E+00 0. -1.
          2    1    1    2  501    0  0.96595011289E+01 -0.41841616837E+02  0.40351489707E+02  0.58925966969E+02  0.00000000000E+00 0. -1.
          1    1    1    2  502    0 -0.73695708154E+02  0.14102265834E+03  0.66776255744E+03  0.68645850617E+03  0.00000000000E+00 0. -1.
         22    1    1    2    0    0 -0.38957756061E+02 -0.28577128142E+02  0.85303646957E+02  0.98036070883E+02  0.00000000000E+00 0. -1.
         22    1    1    2    0    0  0.10299396309E+03 -0.70603913356E+02  0.28823827394E+03  0.31412413403E+03  0.00000000000E+00 0. -1.
</event>
<event>
 6    1  0.1383644E-005  0.7201284E+02  0.7818608E-02  0.1458105E+00
          2   -1    0    0  502    0  0.00000000000E+00  0.00000000000E+00  0.11432322648E+04  0.11432322648E+04  0.00000000000E+00 0. -1.
          1   -1    0    0  501    0 -0.00000000000E+00 -0.00000000000E+00 -0.19225690683E+02  0.19225690683E+02  0.00000000000E+00 0. -1.
          2    1    1    2  501    0 -0.21821613031E+02 -0.55210137370E+02  0.47148242171E+03  0.47520523571E+03  0.00000000000E+00 0. -1.
          1    1    1    2  502    0 -0.41783430531E+02 -0.28886284707E+02  0.11213044101E+03  0.12309958697E+03  0.00000000000E+00 0. -1.
         22    1    1    2    0    0  0.71993285048E+02  0.95146294033E+02  0.53669205811E+03  0.54979470314E+03  0.00000000000E+00 0. -1.
         22    1    1    2    0    0 -0.83882414861E+01 -0.11049871956E+02  0.37016532892E+01  0.14358429669E+02  0.00000000000E+00 0.  1.
</event>
<event>
 6    1  0.1383644E-005  0.2027459E+02  0.7818608E-02  0.1748680E+00
          2   -1    0    0  502    0  0.00000000000E+00  0.00000000000E+00  0.72919057837E+02  0.72919057837E+02  0.00000000000E+00 0.  1.
          1   -1    0    0  501    0 -0.00000000000E+00 -0.00000000000E+00 -0.10475603482E+03  0.10475603482E+03  0.00000000000E+00 0.  1.
          2    1    1    2  501    0  0.80348151250E+01 -0.19664457361E+02  0.11553862079E+02  0.24181415722E+02  0.00000000000E+00 0.  1.
          1    1    1    2  502    0 -0.81572567318E+01  0.20061165874E+02 -0.16859315301E+01  0.21721730565E+02  0.00000000000E+00 0.  1.
         22    1    1    2    0    0  0.62431787494E+01  0.17605130766E+02 -0.83654389927E+02  0.85714496232E+02  0.00000000000E+00 0.  1.
         22    1    1    2    0    0 -0.61207371425E+01 -0.18001839280E+02  0.41949482392E+02  0.46057450142E+02  0.00000000000E+00 0.  1.
</event>
<event>
 6    1  0.1383644E-005  0.5814707E+02  0.7818608E-02  0.1406705E+00
          2   -1    0    0  502    0  0.00000000000E+00  0.00000000000E+00  0.30715502343E+03  0.30715502343E+03  0.00000000000E+00 0. -1.
          1   -1    0    0  501    0 -0.00000000000E+00 -0.00000000000E+00 -0.63904962056E+02  0.63904962056E+02  0.00000000000E+00 0.  1.
          2    1    1    2  501    0 -0.43119490571E+01  0.27700844943E+02  0.14385950239E+03  0.14656563766E+03  0.00000000000E+00 0. -1.
          1    1    1    2  502    0 -0.10686041492E+02 -0.39387951594E+02 -0.26918678128E+02  0.48889850129E+02  0.00000000000E+00 0.  1.
         22    1    1    2    0    0  0.44817540984E+01 -0.15625606912E+02 -0.20354526425E+02  0.26049039467E+02  0.00000000000E+00 0. -1.
         22    1    1    2    0    0  0.10516236450E+02  0.27312713563E+02  0.14666376354E+03  0.14955545823E+03  0.00000000000E+00 0. -1.
</event>
<event>
 6    1  0.1383644E-005  0.1233431E+03  0.7818608E-02  0.1325932E+00
          2   -1    0    0  502    0  0.00000000000E+00  0.00000000000E+00  0.10185247463E+03  0.10185247463E+03  0.00000000000E+00 0.  1.
          1   -1    0    0  501    0 -0.00000000000E+00 -0.00000000000E+00 -0.64826518097E+03  0.64826518097E+03  0.00000000000E+00 0.  1.
          2    1    1    2  501    0  0.96251241221E+02 -0.94665012522E+02 -0.20576373791E+03  0.24609852066E+03  0.00000000000E+00 0.  1.
          1    1    1    2  502    0 -0.18260514628E+03  0.11562321299E+03 -0.22282926249E+03  0.31042913371E+03  0.00000000000E+00 0.  1.
         22    1    1    2    0    0 -0.88910494263E+01 -0.15281239168E+02 -0.93457300729E+02  0.95114846843E+02  0.00000000000E+00 0.  1.
         22    1    1    2    0    0  0.95244954489E+02 -0.56769612958E+01 -0.24362405198E+02  0.98475154390E+02  0.00000000000E+00 0.  1.
</event>
<event>
 6    1  0.1383644E-005  0.9753701E+02  0.7818608E-02  0.1374969E+00
          2   -1    0    0  502    0  0.00000000000E+00  0.00000000000E+00  0.11362437947E+03  0.11362437947E+03  0.00000000000E+00 0.  1.
          1   -1    0    0  501    0 -0.00000000000E+00 -0.00000000000E+00 -0.16994162367E+03  0.16994162367E+03  0.00000000000E+00 0.  1.
          2    1    1    2  501    0  0.37115244186E+02  0.73096817410E+02 -0.46813923788E+00  0.81981127223E+02  0.00000000000E+00 0.  1.
          1    1    1    2  502    0 -0.34319422674E+02 -0.49939348142E+02 -0.46649138299E+02  0.76471585374E+02  0.00000000000E+00 0.  1.
         22    1    1    2    0    0  0.14742770444E+02  0.13820685995E+02  0.49550644749E+02  0.53512867955E+02  0.00000000000E+00 0. -1.
         22    1    1    2    0    0 -0.17538591956E+02 -0.36978155264E+02 -0.58750611406E+02  0.71600422590E+02  0.00000000000E+00 0.  1.
</event>
<event>
 6    1  0.1383644E-005  0.6415066E+02  0.7818608E-02  0.1486090E+00
          2   -1    0    0  502    0  0.00000000000E+00  0.00000000000E+00  0.14185712755E+03  0.14185712755E+03  0.00000000000E+00 0. -1.
          1   -1    0    0  501    0 -0.00000000000E+00 -0.00000000000E+00 -0.56944871748E+03  0.56944871748E+03  0.00000000000E+00 0. -1.
          2    1    1    2  501    0 -0.12460739678E+02  0.35183711507E+02  0.70810976880E+02  0.80045974511E+02  0.00000000000E+00 0. -1.
          1    1    1    2  502    0  0.17106022667E+02 -0.52021246831E+02 -0.50668507462E+03  0.50963574342E+03  0.00000000000E+00 0. -1.
         22    1    1    2    0    0 -0.91106792738E+01 -0.94934665872E+01 -0.53088005922E+02  0.54694302788E+02  0.00000000000E+00 0.  1.
         22    1    1    2    0    0  0.44653962847E+01  0.26331001911E+02  0.61370513731E+02  0.66929824303E+02  0.00000000000E+00 0. -1.
</event>
<event>
 6    1  0.1383644E-005  0.1046741E+03  0.7818608E-02  0.1394437E+00
          2   -1    0    0  502    0  0.00000000000E+00  0.00000000000E+00  0.69139314444E+03  0.69139314444E+03  0.00000000000E+00 0. -1.
          1   -1    0    0  501    0 -0.00000000000E+00 -0.00000000000E+00 -0.49215470323E+02  0.49215470323E+02  0.00000000000E+00 0. -1.
          2    1    1    2  501    0  0.29115945133E+02  0.23210907596E+02  0.32757919351E+03  0.32968865997E+03  0.00000000000E+00 0. -1.
          1    1    1    2  502    0  0.19775404884E+02 -0.59003488039E+02 -0.65120184048E+01  0.62569038851E+02  0.00000000000E+00 0. -1.
         22    1    1    2    0    0 -0.44509657843E+02  0.46886686935E+02  0.32817880612E+03  0.33448587391E+03  0.00000000000E+00 0. -1.
         22    1    1    2    0    0 -0.43816921743E+01 -0.11094106493E+02 -0.70683071137E+01  0.13865042035E+02  0.00000000000E+00 0. -1.
</event>
<event>
 6    1  0.1383644E-005  0.1150358E+03  0.7818608E-02  0.1346054E+00
          2   -1    0    0  502    0  0.00000000000E+00  0.00000000000E+00  0.21321922997E+03  0.21321922997E+03  0.00000000000E+00 0. -1.
          1   -1    0    0  501    0 -0.00000000000E+00 -0.00000000000E+00 -0.21209462740E+03  0.21209462740E+03  0.00000000000E+00 0.  1.
          2    1    1    2  501    0  0.54120254156E+02 -0.85686058950E+02  0.13311232877E+03  0.16730210602E+03  0.00000000000E+00 0. -1.
          1    1    1    2  502    0 -0.38663916342E+02  0.91022756694E+02 -0.49731797780E+02  0.11069459053E+03  0.00000000000E+00 0.  1.
         22    1    1    2    0    0  0.11228712587E+01 -0.16557148571E+02  0.29464911916E+02  0.33816875120E+02  0.00000000000E+00 0. -1.
         22    1    1    2    0    0 -0.16579209073E+02  0.11220450827E+02 -0.11172084033E+03  0.11350028570E+03  0.00000000000E+00 0.  1.
</event>
<event>
 6    1  0.1383644E-005  0.3391042E+03  0.7818608E-02  0.1205920E+00
          2   -1    0    0  502    0  0.00000000000E+00  0.00000000000E+00  0.20289172879E+03  0.20289172879E+03  0.00000000000E+00 0. -1.
          1   -1    0    0  501    0 -0.00000000000E+00 -0.00000000000E+00 -0.82187804815E+03  0.82187804815E+03  0.00000000000E+00 0. -1.
          2    1    1    2  501    0  0.81087098576E+01  0.90643569902E+02  0.23741238356E+02  0.94051338846E+02  0.00000000000E+00 0. -1.
          1    1    1    2  502    0  0.21977131908E+03 -0.15706515109E+02 -0.62167386688E+03  0.65956388930E+03  0.00000000000E+00 0. -1.
         22    1    1    2    0    0  0.28547915799E+01  0.11183023644E+02 -0.22029459925E+02  0.24869800107E+02  0.00000000000E+00 0. -1.
         22    1    1    2    0    0 -0.23073482052E+03 -0.86120078437E+02  0.97576909294E+00  0.24628474868E+03  0.00000000000E+00 0. -1.
</event>
<event>
 6    1  0.1383644E-005  0.2169095E+02  0.7818608E-02  0.1763892E+00
          2   -1    0    0  502    0  0.00000000000E+00  0.00000000000E+00  0.50719215790E+03  0.50719215790E+03  0.00000000000E+00 0.  1.
          1   -1    0    0  501    0 -0.00000000000E+00 -0.00000000000E+00 -0.11362739445E+03  0.11362739445E+03  0.00000000000E+00 0. -1.
          2    1    1    2  501    0 -0.23844209768E+02 -0.18694881415E+02  0.45194026233E+03  0.45295479426E+03  0.00000000000E+00 0.  1.
          1    1    1    2  502    0  0.31344150269E+02  0.12839644333E+02 -0.23208696857E+01  0.33951416153E+02  0.00000000000E+00 0. -1.
         22    1    1    2    0    0 -0.20032205078E+02  0.59096842151E+01 -0.92783529535E+02  0.95105188927E+02  0.00000000000E+00 0. -1.
         22    1    1    2    0    0  0.12532264578E+02 -0.54447133345E-01  0.36728900345E+02  0.38808153016E+02  0.00000000000E+00 0. -1.
</event>
<event>
 6    1  0.1383644E-005  0.7706155E+02  0.7818608E-02  0.1401048E+00
          2   -1    0    0  502    0  0.00000000000E+00  0.00000000000E+00  0.21126289715E+03  0.21126289715E+03  0.00000000000E+00 0. -1.
          1   -1    0    0  501    0 -0.00000000000E+00 -0.00000000000E+00 -0.87615346184E+03  0.87615346184E+03  0.00000000000E+00 0. -1.
          2    1    1    2  501    0  0.43278324373E+02  0.44013361202E+02  0.14976662328E+03  0.16198836617E+03  0.00000000000E+00 0. -1.
          1    1    1    2  502    0 -0.41977376200E+02 -0.31877822765E+02 -0.79102334696E+03  0.79277754202E+03  0.00000000000E+00 0. -1.
         22    1    1    2    0    0  0.51049856491E+01  0.14003565045E+02  0.51094254363E+02  0.53223900096E+02  0.00000000000E+00 0. -1.
         22    1    1    2    0    0 -0.64059338219E+01 -0.26139103482E+02 -0.74728095376E+02  0.79426550709E+02  0.00000000000E+00 0.  1.
</event>
<event>
 6    1  0.1383644E-005  0.6543673E+02  0.7818608E-02  0.1431588E+00
          2   -1    0    0  502    0  0.00000000000E+00  0.00000000000E+00  0.21770169129E+03  0.21770169129E+03  0.00000000000E+00 0.  1.
          1   -1    0    0  501    0 -0.00000000000E+00 -0.00000000000E+00 -0.17867090268E+03  0.17867090268E+03  0.00000000000E+00 0.  1.
          2    1    1    2  501    0 -0.51750241192E+02 -0.29535267760E+02  0.10808086181E+03  0.12341755221E+03  0.00000000000E+00 0.  1.
          1    1    1    2  502    0  0.90948361063E+02  0.13091178573E+02  0.43054782654E+02  0.10147264482E+03  0.00000000000E+00 0.  1.
         22    1    1    2    0    0 -0.47657220809E+02  0.41009795937E+02 -0.12687294577E+03  0.14159716955E+03  0.00000000000E+00 0.  1.
         22    1    1    2    0    0  0.84591009382E+01 -0.24565706750E+02  0.14768089911E+02  0.29885227395E+02  0.00000000000E+00 0.  1.
</event>
<event>
 6    1  0.1383644E-005  0.6080482E+02  0.7818608E-02  0.1404190E+00
          2   -1    0    0  502    0  0.00000000000E+00  0.00000000000E+00  0.52167974340E+02  0.52167974340E+02  0.00000000000E+00 0. -1.
          1   -1    0    0  501    0 -0.00000000000E+00 -0.00000000000E+00 -0.56965550656E+03  0.56965550656E+03  0.00000000000E+00 0. -1.
          2    1    1    2  501    0 -0.67844893543E+02  0.37077438153E+02 -0.82420001621E+01  0.77753434436E+02  0.00000000000E+00 0. -1.
          1    1    1    2  502    0  0.56852077065E+02 -0.41424184903E+02 -0.19590336886E+03  0.20814958970E+03  0.00000000000E+00 0. -1.
         22    1    1    2    0    0  0.28301719623E+02  0.42329355419E+02 -0.27355985996E+03  0.27825843858E+03  0.00000000000E+00 0. -1.
         22    1    1    2    0    0 -0.17308903145E+02 -0.37982608669E+02 -0.39782303241E+02  0.57662018180E+02  0.00000000000E+00 0.  1.
</event>
<event>
 6    1  0.1383644E-005  0.6274803E+02  0.7818608E-02  0.1446504E+00
          2   -1    0    0  502    0  0.00000000000E+00  0.00000000000E+00  0.37373361617E+03  0.37373361617E+03  0.00000000000E+00 0. -1.
          1   -1    0    0  501    0 -0.00000000000E+00 -0.00000000000E+00 -0.58943233068E+02  0.58943233068E+02  0.00000000000E+00 0.  1.
          2    1    1    2  501    0 -0.37780306945E+02 -0.87925972219E+01  0.24507145079E+03  0.24812230322E+03  0.00000000000E+00 0. -1.
          1    1    1    2  502    0  0.39514608500E+02  0.10922950242E+02  0.21349199887E+02  0.46222326453E+02  0.00000000000E+00 0.  1.
         22    1    1    2    0    0  0.21021297346E+02 -0.13281904541E+02 -0.39614164240E+02  0.46771636050E+02  0.00000000000E+00 0.  1.
         22    1    1    2    0    0 -0.22755598900E+02  0.11151551521E+02  0.87983896662E+02  0.91560583520E+02  0.00000000000E+00 0.  1.
</event>
<event>
 6    1  0.1383644E-005  0.8362233E+02  0.7818608E-02  0.1372187E+00
          2   -1    0    0  502    0  0.00000000000E+00  0.00000000000E+00  0.17870968174E+03  0.17870968174E+03  0.00000000000E+00 0.  1.
          1   -1    0    0  501    0 -0.00000000000E+00 -0.00000000000E+00 -0.69119739983E+03  0.69119739983E+03  0.00000000000E+00 0.  1.
          2    1    1    2  501    0  0.26426017989E+02 -0.38333149444E+02  0.48860070381E+02  0.67491267959E+02  0.00000000000E+00 0.  1.
          1    1    1    2  502    0  0.26955697796E+02  0.48448155659E+02 -0.64322980867E+03  0.64561476145E+03  0.00000000000E+00 0.  1.
         22    1    1    2    0    0 -0.20716457147E+02 -0.23702745292E+01  0.11064550851E+03  0.11259315411E+03  0.00000000000E+00 0.  1.
         22    1    1    2    0    0 -0.32665258638E+02 -0.77447316857E+01 -0.28763488304E+02  0.44207898052E+02  0.00000000000E+00 0.  1.
</event>
<event>
 6    1  0.1383644E-005  0.7729617E+02  0.7818608E-02  0.1459359E+00
          2   -1    0    0  502    0  0.00000000000E+00  0.00000000000E+00  0.26731825085E+03  0.26731825085E+03  0.00000000000E+00 0.  1.
          1   -1    0    0  501    0 -0.00000000000E+00 -0.00000000000E+00 -0.10471752717E+03  0.10471752717E+03  0.00000000000E+00 0.  1.
          2    1    1    2  501    0  0.41449168486E+01  0.42516833271E+02  0.11914390364E+03  0.12657065703E+03  0.00000000000E+00 0.  1.
          1    1    1    2  502    0 -0.12063728038E+01 -0.66621651815E+02 -0.53058353715E+02  0.85176808609E+02  0.00000000000E+00 0.  1.
         22    1    1    2    0    0  0.50775192624E+01 -0.97753814874E+01 -0.28479458820E+02  0.30535534378E+02  0.00000000000E+00 0. -1.
         22    1    1    2    0    0 -0.80160633071E+01  0.33880200032E+02  0.12499463257E+03  0.12975277799E+03  0.00000000000E+00 0.  1.
</event>
<event>
 6    1  0.1383644E-005  0.5560315E+02  0.7818608E-02  0.1474221E+00
          2   -1    0    0  502    0  0.00000000000E+00  0.00000000000E+00  0.19981254771E+03  0.19981254771E+03  0.00000000000E+00 0. -1.
          1   -1    0    0  501    0 -0.00000000000E+00 -0.00000000000E+00 -0.13119450587E+03  0.13119450587E+03  0.00000000000E+00 0. -1.
          2    1    1    2  501    0 -0.37882715213E+02 -0.41543817547E+02  0.90384002696E+02  0.10644367915E+03  0.00000000000E+00 0. -1.
          1    1    1    2  502    0 -0.45861124506E+02  0.33578273032E+02 -0.49255874554E+02  0.75212261892E+02  0.00000000000E+00 0. -1.
         22    1    1    2    0    0  0.22885618909E+02  0.68699716622E+01  0.70750037091E+02  0.74676072553E+02  0.00000000000E+00 0. -1.
         22    1    1    2    0    0  0.60858220811E+02  0.10955728525E+01 -0.43260123398E+02  0.74675039983E+02  0.00000000000E+00 0.  1.
</event>
<event>
 6    1  0.1383644E-005  0.6575814E+02  0.7818608E-02  0.1445672E+00
          2   -1    0    0  502    0  0.00000000000E+00  0.00000000000E+00  0.59317986301E+03  0.59317986301E+03  0.00000000000E+00 0.  1.
          1   -1    0    0  501    0 -0.00000000000E+00 -0.00000000000E+00 -0.32728268643E+03  0.32728268643E+03  0.00000000000E+00 0. -1.
          2    1    1    2  501    0 -0.23318605656E+02 -0.23645126722E+02  0.42414918957E+03  0.42544727569E+03  0.00000000000E+00 0.  1.
          1    1    1    2  502    0  0.63553509004E+02  0.48458235616E+02 -0.29230880440E+03  0.30303743372E+03  0.00000000000E+00 0. -1.
         22    1    1    2    0    0 -0.18875545544E+02 -0.20101912162E+02  0.15751148611E+03  0.15990697717E+03  0.00000000000E+00 0.  1.
         22    1    1    2    0    0 -0.21359357804E+02 -0.47111967319E+01 -0.23454694703E+02  0.32070862852E+02  0.00000000000E+00 0. -1.
</event>
<event>
 6    1  0.1383644E-005  0.5760834E+02  0.7818608E-02  0.1416178E+00
          2   -1    0    0  502    0  0.00000000000E+00  0.00000000000E+00  0.31833772924E+03  0.31833772924E+03  0.00000000000E+00 0.  1.
          1   -1    0    0  501    0 -0.00000000000E+00 -0.00000000000E+00 -0.20569898909E+03  0.20569898909E+03  0.00000000000E+00 0. -1.
          2    1    1    2  501    0  0.85903065362E+01 -0.15822256971E+03  0.16147740321E+03  0.22623688179E+03  0.00000000000E+00 0.  1.
          1    1    1    2  502    0 -0.14814535734E+02  0.14579204320E+03  0.26757466565E+02  0.14896560793E+03  0.00000000000E+00 0. -1.
         22    1    1    2    0    0 -0.11762490365E+02  0.17770083466E+02 -0.10870741597E+03  0.11077650623E+03  0.00000000000E+00 0. -1.
         22    1    1    2    0    0  0.17986719562E+02 -0.53395569522E+01  0.33111286342E+02  0.38057722373E+02  0.00000000000E+00 0.  1.
</event>
<event>
 6    1  0.1383644E-005  0.1152849E+03  0.7818608E-02  0.1303501E+00
          2   -1    0    0  502    0  0.00000000000E+00  0.00000000000E+00  0.71413689062E+02  0.71413689062E+02  0.00000000000E+00 0. -1.
          1   -1    0    0  501    0 -0.00000000000E+00 -0.00000000000E+00 -0.18803294759E+03  0.18803294759E+03  0.00000000000E+00 0. -1.
          2    1    1    2  501    0  0.34658921977E+02  0.21578233147E+02 -0.63707878965E+02  0.75667396286E+02  0.00000000000E+00 0. -1.
          1    1    1    2  502    0 -0.40632763158E+02  0.12993715358E+02 -0.15001415950E+02  0.45220576746E+02  0.00000000000E+00 0. -1.
         22    1    1    2    0    0 -0.41537826624E+02 -0.80644258775E+01 -0.65172889672E+02  0.77704128292E+02  0.00000000000E+00 0. -1.
         22    1    1    2    0    0  0.47511667805E+02 -0.26507522628E+02  0.27262926056E+02  0.60854535333E+02  0.00000000000E+00 0. -1.
</event>
<event>
 6    1  0.1383644E-005  0.3829459E+02  0.7818608E-02  0.1521811E+00
          2   -1    0    0  502    0  0.00000000000E+00  0.00000000000E+00  0.20011251735E+03  0.20011251735E+03  0.00000000000E+00 0. -1.
          1   -1    0    0  501    0 -0.00000000000E+00 -0.00000000000E+00 -0.72315092747E+02  0.72315092747E+02  0.00000000000E+00 0. -1.
          2    1    1    2  501    0  0.23425182874E+02  0.12328463663E+02  0.86845377054E+02  0.90790141120E+02  0.00000000000E+00 0. -1.
          1    1    1    2  502    0 -0.40969333735E+02  0.21901747340E+02  0.26706558430E+02  0.53585568080E+02  0.00000000000E+00 0. -1.
         22    1    1    2    0    0  0.98244954806E+01  0.41640324102E+01  0.63915371612E+02  0.64799958377E+02  0.00000000000E+00 0.  1.
         22    1    1    2    0    0  0.77196553808E+01 -0.38394243414E+02 -0.49669882489E+02  0.63251942523E+02  0.00000000000E+00 0. -1.
</event>
<event>
 6    1  0.1383644E-005  0.7063759E+02  0.7818608E-02  0.1398387E+00
          2   -1    0    0  502    0  0.00000000000E+00  0.00000000000E+00  0.63027519361E+02  0.63027519361E+02  0.00000000000E+00 0.  1.
          1   -1    0    0  501    0 -0.00000000000E+00 -0.00000000000E+00 -0.29639977405E+03  0.29639977405E+03  0.00000000000E+00 0.  1.
          2    1    1    2  501    0  0.21860601143E+02  0.42214749321E+02  0.64015835424E+01  0.47968231304E+02  0.00000000000E+00 0.  1.
          1    1    1    2  502    0  0.29892385381E+01 -0.55645777595E+02 -0.25445825276E+02  0.61260738937E+02  0.00000000000E+00 0.  1.
         22    1    1    2    0    0  0.38237134457E+01  0.35930594298E+02 -0.35670385071E+01  0.36309119445E+02  0.00000000000E+00 0. -1.
         22    1    1    2    0    0 -0.28673553127E+02 -0.22499566024E+02 -0.21076097445E+03  0.21388920372E+03  0.00000000000E+00 0.  1.
</event>
<event>
 6    1  0.1383644E-005  0.4900152E+02  0.7818608E-02  0.1472760E+00
          2   -1    0    0  502    0  0.00000000000E+00  0.00000000000E+00  0.34706568145E+03  0.34706568145E+03  0.00000000000E+00 0.  1.
          1   -1    0    0  501    0 -0.00000000000E+00 -0.00000000000E+00 -0.16016620350E+03  0.16016620350E+03  0.00000000000E+00 0.  1.
          2    1    1    2  501    0  0.39581494398E+02 -0.53716069011E+02  0.26177653067E+03  0.27014637288E+03  0.00000000000E+00 0.  1.
          1    1    1    2  502    0 -0.58230069158E+02  0.62421714144E+02 -0.65249953989E+02  0.10744658136E+03  0.00000000000E+00 0.  1.
         22    1    1    2    0    0  0.28825717428E+02  0.11187712850E+02 -0.63876945064E+02  0.70967253116E+02  0.00000000000E+00 0.  1.
         22    1    1    2    0    0 -0.10177142668E+02 -0.19893357983E+02  0.54249846333E+02  0.58671677596E+02  0.00000000000E+00 0.  1.
</event>
<event>
 6    1  0.1383644E-005  0.7366110E+02  0.7818608E-02  0.1418160E+00
          2   -1    0    0  502    0  0.00000000000E+00  0.00000000000E+00  0.50577565092E+03  0.50577565092E+03  0.00000000000E+00 0.  1.
          1   -1    0    0  501    0 -0.00000000000E+00 -0.00000000000E+00 -0.53557463319E+02  0.53557463319E+02  0.00000000000E+00 0.  1.
          2    1    1    2  501    0 -0.40542387545E+02 -0.86054997151E+01  0.34978858250E+03  0.35223542165E+03  0.00000000000E+00 0.  1.
          1    1    1    2  502    0  0.45983699366E+02  0.12534148223E+02  0.92195229020E+01  0.48544876987E+02  0.00000000000E+00 0.  1.
         22    1    1    2    0    0 -0.26574163903E+02 -0.14408536780E+02  0.11948105046E+03  0.12324574451E+03  0.00000000000E+00 0.  1.
         22    1    1    2    0    0  0.21132852082E+02  0.10479888273E+02 -0.26270968272E+02  0.35307071095E+02  0.00000000000E+00 0. -1.
</event>
<event>
 6    1  0.1383644E-005  0.1335472E+03  0.7818608E-02  0.1283496E+00
          2   -1    0    0  502    0  0.00000000000E+00  0.00000000000E+00  0.33120022322E+03  0.33120022322E+03  0.00000000000E+00 0. -1.
          1   -1    0    0  501    0 -0.00000000000E+00 -0.00000000000E+00 -0.46967379383E+02  0.46967379383E+02  0.00000000000E+00 0. -1.
          2    1    1    2  501    0 -0.54535517190E+01 -0.44435960435E+02  0.14857477237E+02  0.47170334279E+02  0.00000000000E+00 0. -1.
          1    1    1    2  502    0 -0.29201307935E+02  0.54720217553E+02  0.85923759815E+02  0.10597127486E+03  0.00000000000E+00 0. -1.
         22    1    1    2    0    0  0.67912870239E+02  0.11048723362E+02  0.16981863429E+03  0.18322827507E+03  0.00000000000E+00 0. -1.
         22    1    1    2    0    0 -0.33258010585E+02 -0.21332980480E+02  0.13632972494E+02  0.41797718398E+02  0.00000000000E+00 0. -1.
</event>
<event>
 6    1  0.1383644E-005  0.5174135E+02  0.7818608E-02  0.1470645E+00
          2   -1    0    0  502    0  0.00000000000E+00  0.00000000000E+00  0.36593547488E+03  0.36593547488E+03  0.00000000000E+00 0. -1.
          1   -1    0    0  501    0 -0.00000000000E+00 -0.00000000000E+00 -0.12491377462E+03  0.12491377462E+03  0.00000000000E+00 0.  1.
          2    1    1    2  501    0 -0.31460525009E+02  0.13939499451E+02  0.27550311212E+03  0.27764372686E+03  0.00000000000E+00 0. -1.
          1    1    1    2  502    0  0.73171092180E+02 -0.92965245265E+01 -0.40139981186E+02  0.83974116182E+02  0.00000000000E+00 0.  1.
         22    1    1    2    0    0 -0.28879699008E+02 -0.11825580493E+02 -0.56938866575E+02  0.64930084673E+02  0.00000000000E+00 0.  1.
         22    1    1    2    0    0 -0.12830868162E+02  0.71826055692E+01  0.62597435910E+02  0.64301321783E+02  0.00000000000E+00 0.  1.
</event>
<event>
 6    1  0.1383644E-005  0.5067109E+02  0.7818608E-02  0.1488239E+00
          2   -1    0    0  502    0  0.00000000000E+00  0.00000000000E+00  0.30649514966E+03  0.30649514966E+03  0.00000000000E+00 0. -1.
          1   -1    0    0  501    0 -0.00000000000E+00 -0.00000000000E+00 -0.13572949461E+03  0.13572949461E+03  0.00000000000E+00 0.  1.
          2    1    1    2  501    0  0.46105714777E+02 -0.43092349246E+02  0.24457785595E+03  0.25258862825E+03  0.00000000000E+00 0. -1.
          1    1    1    2  502    0 -0.39740777947E+02  0.24443725696E+02 -0.10635881969E+02  0.47853392178E+02  0.00000000000E+00 0.  1.
         22    1    1    2    0    0 -0.23528991487E+01 -0.19177242694E+02  0.33065433972E+02  0.38296549395E+02  0.00000000000E+00 0. -1.
         22    1    1    2    0    0 -0.40120376814E+01  0.37825866245E+02 -0.96241752906E+02  0.10348607445E+03  0.00000000000E+00 0.  1.
</event>
<event>
 6    1  0.1383644E-005  0.4562738E+02  0.7818608E-02  0.1481323E+00
          2   -1    0    0  502    0  0.00000000000E+00  0.00000000000E+00  0.56930935874E+03  0.56930935874E+03  0.00000000000E+00 0. -1.
          1   -1    0    0  501    0 -0.00000000000E+00 -0.00000000000E+00 -0.11376334361E+03  0.11376334361E+03  0.00000000000E+00 0. -1.
          2    1    1    2  501    0  0.77401711104E+02 -0.27983958294E+02  0.48207380126E+03  0.48904936015E+03  0.00000000000E+00 0. -1.
          1    1    1    2  502    0 -0.67421941167E+02  0.15714501893E+02 -0.19939144473E+02  0.72043273126E+02  0.00000000000E+00 0. -1.
         22    1    1    2    0    0 -0.23434382836E+02 -0.27507403066E+01 -0.60222913286E+02  0.64680260944E+02  0.00000000000E+00 0.  1.
         22    1    1    2    0    0  0.13454612900E+02  0.15020196708E+02  0.53634271633E+02  0.57299808123E+02  0.00000000000E+00 0.  1.
</event>
<event>
 6    1  0.1383644E-005  0.5490867E+02  0.7818608E-02  0.1425094E+00
          2   -1    0    0  502    0  0.00000000000E+00  0.00000000000E+00  0.23204434054E+03  0.23204434054E+03  0.00000000000E+00 0.  1.
          1   -1    0    0  501    0 -0.00000000000E+00 -0.00000000000E+00 -0.18457786606E+03  0.18457786606E+03  0.00000000000E+00 0.  1.
          2    1    1    2  501    0  0.25258953403E+02 -0.10784891292E+02  0.16514506279E+03  0.16741332197E+03  0.00000000000E+00 0.  1.
          1    1    1    2  502    0 -0.33443409409E+02  0.18119369364E+02 -0.11768004815E+03  0.12367443920E+03  0.00000000000E+00 0.  1.
         22    1    1    2    0    0  0.18089896198E+02 -0.14529511964E+02  0.59984075186E+02  0.64315164140E+02  0.00000000000E+00 0. -1.
         22    1    1    2    0    0 -0.99054401917E+01  0.71950338916E+01 -0.59982615348E+02  0.61219281293E+02  0.00000000000E+00 0. -1.
</event>
<event>
 6    1  0.1383644E-005  0.7004706E+02  0.7818608E-02  0.1442592E+00
          2   -1    0    0  502    0  0.00000000000E+00  0.00000000000E+00  0.47861466874E+03  0.47861466874E+03  0.00000000000E+00 0.  1.
          1   -1    0    0  501    0 -0.00000000000E+00 -0.00000000000E+00 -0.78221379257E+02  0.78221379257E+02  0.00000000000E+00 0.  1.
          2    1    1    2  501    0  0.11534103384E+03 -0.80037245410E+01  0.16521618772E+03  0.20165317349E+03  0.00000000000E+00 0.  1.
          1    1    1    2  502    0 -0.76299432501E+02  0.25070739515E+02  0.20519188324E+03  0.22034939149E+03  0.00000000000E+00 0.  1.
         22    1    1    2    0    0  0.14730173890E+02  0.49838586411E+01  0.65099927775E+02  0.66931438548E+02  0.00000000000E+00 0. -1.
         22    1    1    2    0    0 -0.53771775225E+02 -0.22050873615E+02 -0.35114709255E+02  0.67902044476E+02  0.00000000000E+00 0.  1.
</event>
<event>
 6    1  0.1383644E-005  0.3040374E+02  0.7818608E-02  0.1650375E+00
          2   -1    0    0  502    0  0.00000000000E+00  0.00000000000E+00  0.74114606804E+02  0.74114606804E+02  0.00000000000E+00 0.  1.
          1   -1    0    0  501    0 -0.00000000000E+00 -0.00000000000E+00 -0.19250228842E+03  0.19250228842E+03  0.00000000000E+00 0.  1.
          2    1    1    2  501    0 -0.46392298362E+01 -0.35872423992E+02  0.93912750313E+01  0.37370433543E+02  0.00000000000E+00 0.  1.
          1    1    1    2  502    0 -0.19530764469E+02  0.31543754528E+02  0.10828116230E+02  0.38648509823E+02  0.00000000000E+00 0.  1.
         22    1    1    2    0    0  0.25887036623E+01 -0.14381810044E+02  0.22582052585E+02  0.26897712649E+02  0.00000000000E+00 0.  1.
         22    1    1    2    0    0  0.21581290643E+02  0.18710479508E+02 -0.16118912546E+03  0.16370023920E+03  0.00000000000E+00 0.  1.
</event>
<event>
 6    1  0.1383644E-005  0.3311069E+02  0.7818608E-02  0.1651186E+00
          2   -1    0    0  502    0  0.00000000000E+00  0.00000000000E+00  0.16485789763E+03  0.16485789763E+03  0.00000000000E+00 0.  1.
          1   -1    0    0  501    0 -0.00000000000E+00 -0.00000000000E+00 -0.20030010489E+03  0.20030010489E+03  0.00000000000E+00 0. -1.
          2    1    1    2  501    0 -0.83891438221E+01  0.35120779404E+02  0.38675177395E+02  0.52911399779E+02  0.00000000000E+00 0.  1.
          1    1    1    2  502    0 -0.20523593450E+02 -0.29999676671E+02 -0.15554627218E+03  0.15973678749E+03  0.00000000000E+00 0. -1.
         22    1    1    2    0    0 -0.20987249634E+01  0.11827740097E+02 -0.31747395999E+02  0.33944030918E+02  0.00000000000E+00 0. -1.
         22    1    1    2    0    0  0.31011462236E+02 -0.16948842831E+02  0.11317628352E+03  0.11856578433E+03  0.00000000000E+00 0.  1.
</event>
<event>
 6    1  0.1383644E-005  0.1184754E+03  0.7818608E-02  0.1320796E+00
          2   -1    0    0  502    0  0.00000000000E+00  0.00000000000E+00  0.11215068448E+03  0.11215068448E+03  0.00000000000E+00 0. -1.
          1   -1    0    0  501    0 -0.00000000000E+00 -0.00000000000E+00 -0.31901599515E+03  0.31901599515E+03  0.00000000000E+00 0.  1.
          2    1    1    2  501    0  0.89407561136E+01  0.41476398777E+02  0.48224406537E+02  0.64232563091E+02  0.00000000000E+00 0. -1.
          1    1    1    2  502    0 -0.53382374924E+02 -0.40128535608E+02 -0.22142654351E+03  0.23127838527E+03  0.00000000000E+00 0.  1.
         22    1    1    2    0    0  0.71980193639E+02  0.60432782342E+01  0.19944942424E+02  0.74936441178E+02  0.00000000000E+00 0. -1.
         22    1    1    2    0    0 -0.27538574829E+02 -0.73911414036E+01 -0.53608116122E+02  0.60719290089E+02  0.00000000000E+00 0.  1.
</event>
<event>
 6    1  0.1383644E-005  0.4494545E+02  0.7818608E-02  0.1535545E+00
          2   -1    0    0  502    0  0.00000000000E+00  0.00000000000E+00  0.25930301842E+03  0.25930301842E+03  0.00000000000E+00 0.  1.
          1   -1    0    0  501    0 -0.00000000000E+00 -0.00000000000E+00 -0.10482431251E+03  0.10482431251E+03  0.00000000000E+00 0.  1.
          2    1    1    2  501    0 -0.25289081220E+02 -0.16430621235E+02  0.12047863227E+03  0.12419582834E+03  0.00000000000E+00 0.  1.
          1    1    1    2  502    0  0.34967114544E+02  0.33916302579E+02  0.87695298377E+02  0.10031689807E+03  0.00000000000E+00 0.  1.
         22    1    1    2    0    0  0.31853357861E+01 -0.19319597093E+02 -0.94646877618E+02  0.96651045720E+02  0.00000000000E+00 0.  1.
         22    1    1    2    0    0 -0.12863369110E+02  0.18339157484E+01  0.40951652884E+02  0.42963558811E+02  0.00000000000E+00 0.  1.
</event>
<event>
 6    1  0.1383644E-005  0.2805686E+02  0.7818608E-02  0.1693918E+00
          2   -1    0    0  502    0  0.00000000000E+00  0.00000000000E+00  0.22897408748E+03  0.22897408748E+03  0.00000000000E+00 0. -1.
          1   -1    0    0  501    0 -0.00000000000E+00 -0.00000000000E+00 -0.51960566534E+03  0.51960566534E+03  0.00000000000E+00 0. -1.
          2    1    1    2  501    0  0.20883750142E+02  0.18874384915E+02  0.19888101162E+03  0.20086321269E+03  0.00000000000E+00 0. -1.
          1    1    1    2  502    0 -0.31323005340E+02 -0.37258450980E+02 -0.37141711336E+03  0.37459310582E+03  0.00000000000E+00 0. -1.
         22    1    1    2    0    0  0.89404973842E+01 -0.57552461355E+01  0.25435781903E+02  0.27568720546E+02  0.00000000000E+00 0.  1.
         22    1    1    2    0    0  0.14987578135E+01  0.24139312201E+02 -0.14353125803E+03  0.14555471377E+03  0.00000000000E+00 0.  1.
</event>
<event>
 6    1  0.1383644E-005  0.1359234E+03  0.7818608E-02  0.1348933E+00
          2   -1    0    0  502    0  0.00000000000E+00  0.00000000000E+00  0.28042448520E+03  0.28042448520E+03  0.00000000000E+00 0.  1.
          1   -1    0    0  501    0 -0.00000000000E+00 -0.00000000000E+00 -0.62255831983E+02  0.62255831983E+02  0.00000000000E+00 0.  1.
          2    1    1    2  501    0 -0.15457037519E+02  0.39795142700E+02  0.10295105955E+03  0.11145175662E+03  0.00000000000E+00 0.  1.
          1    1    1    2  502    0 -0.41883738155E+01  0.38856071036E+02 -0.55526522865E+01  0.39473645373E+02  0.00000000000E+00 0.  1.
         22    1    1    2    0    0  0.23577363213E+02 -0.89513234026E+02  0.14087640728E+03  0.16856652470E+03  0.00000000000E+00 0.  1.
         22    1    1    2    0    0 -0.39319518786E+01  0.10862020290E+02 -0.20106161324E+02  0.23188390490E+02  0.00000000000E+00 0.  1.
</event>
<event>
 6    1  0.1383644E-005  0.5011074E+02  0.7818608E-02  0.1444887E+00
          2   -1    0    0  502    0  0.00000000000E+00  0.00000000000E+00  0.21783053895E+03  0.21783053895E+03  0.00000000000E+00 0.  1.
          1   -1    0    0  501    0 -0.00000000000E+00 -0.00000000000E+00 -0.76442776483E+02  0.76442776483E+02  0.00000000000E+00 0. -1.
          2    1    1    2  501    0  0.10265561780E+02  0.25581762860E+02  0.10639542637E+03  0.10990812118E+03  0.00000000000E+00 0.  1.
          1    1    1    2  502    0 -0.27095179835E+00 -0.29578587847E+02 -0.27876817798E+02  0.40645826901E+02  0.00000000000E+00 0. -1.
         22    1    1    2    0    0 -0.49374313354E+01 -0.17735175300E+02 -0.37032653219E+02  0.41356161277E+02  0.00000000000E+00 0. -1.
         22    1    1    2    0    0 -0.50571786463E+01  0.21732000288E+02  0.99901807117E+02  0.10236320607E+03  0.00000000000E+00 0. -1.
</event>
<event>
 6    1  0.1383644E-005  0.1169971E+03  0.7818608E-02  0.1309627E+00
          2   -1    0    0  502    0  0.00000000000E+00  0.00000000000E+00  0.33188546375E+03  0.33188546375E+03  0.00000000000E+00 0. -1.
          1   -1    0    0  501    0 -0.00000000000E+00 -0.00000000000E+00 -0.14768394647E+03  0.14768394647E+03  0.00000000000E+00 0.  1.
          2    1    1    2  501    0 -0.59587738969E+02  0.38870201672E+02  0.18404936240E+03  0.19732146111E+03  0.00000000000E+00 0. -1.
          1    1    1    2  502    0  0.60828118398E+02 -0.11110754044E+03 -0.37398480364E+02  0.13207419076E+03  0.00000000000E+00 0.  1.
         22    1    1    2    0    0  0.15915120265E+02  0.32515937760E+02 -0.44528956589E+02  0.57388197710E+02  0.00000000000E+00 0. -1.
         22    1    1    2    0    0 -0.17155499694E+02  0.39721401011E+02  0.82079591831E+02  0.92785560640E+02  0.00000000000E+00 0. -1.
</event>
<event>
 6    1  0.1383644E-005  0.7448507E+02  0.7818608E-02  0.1416034E+00
          2   -1    0    0  502    0  0.00000000000E+00  0.00000000000E+00  0.19313544766E+03  0.19313544766E+03  0.00000000000E+00 0.  1.
          1   -1    0    0  501    0 -0.00000000000E+00 -0.00000000000E+00 -0.68166832633E+02  0.68166832633E+02  0.00000000000E+00 0.  1.
          2    1    1    2  501    0  0.24920598795E+02 -0.42538765496E+00  0.21257371835E+02  0.32758099095E+02  0.00000000000E+00 0.  1.
          1    1    1    2  502    0 -0.52905041818E+02  0.29641205954E+02  0.65534046000E+02  0.89287489187E+02  0.00000000000E+00 0.  1.
         22    1    1    2    0    0 -0.22568593467E+02  0.68186984336E+01 -0.35685004556E+02  0.42769797867E+02  0.00000000000E+00 0.  1.
         22    1    1    2    0    0  0.50553036490E+02 -0.36034516733E+02  0.73862201748E+02  0.96486894144E+02  0.00000000000E+00 0. -1.
</event>
<event>
 6    1  0.1383644E-005  0.7911608E+02  0.7818608E-02  0.1403311E+00
          2   -1    0    0  502    0  0.00000000000E+00  0.00000000000E+00  0.58978475045E+03  0.58978475045E+03  0.00000000000E+00 0. -1.
          1   -1    0    0  501    0 -0.00000000000E+00 -0.00000000000E+00 -0.22059028526E+03  0.22059028526E+03  0.00000000000E+00 0. -1.
          2    1    1    2  501    0  0.13733814039E+03 -0.64226677826E+01  0.46704451255E+03  0.48686095774E+03  0.00000000000E+00 0. -1.
          1    1    1    2  502    0 -0.14872440785E+03  0.37353877180E+02 -0.11726099248E+03  0.19303989740E+03  0.00000000000E+00 0. -1.
         22    1    1    2    0    0  0.23142504163E+02 -0.31404962630E+02  0.69132346312E+02  0.79379647791E+02  0.00000000000E+00 0.  1.
         22    1    1    2    0    0 -0.11756236700E+02  0.47375323213E+00 -0.49721401188E+02  0.51094532776E+02  0.00000000000E+00 0. -1.
</event>
<event>
 6    1  0.1383644E-005  0.3950820E+02  0.7818608E-02  0.1589938E+00
          2   -1    0    0  502    0  0.00000000000E+00  0.00000000000E+00  0.23675948680E+03  0.23675948680E+03  0.00000000000E+00 0. -1.
          1   -1    0    0  501    0 -0.00000000000E+00 -0.00000000000E+00 -0.69303659770E+02  0.69303659770E+02  0.00000000000E+00 0.  1.
          2    1    1    2  501    0 -0.11965192495E+02  0.18806857937E+02  0.12817622532E+03  0.13009999413E+03  0.00000000000E+00 0. -1.
          1    1    1    2  502    0  0.28113238328E+02 -0.10990975520E+02 -0.20245962529E+02  0.36346316332E+02  0.00000000000E+00 0.  1.
         22    1    1    2    0    0 -0.16451372327E+02  0.66802031760E+01  0.97429567090E+02  0.99034303700E+02  0.00000000000E+00 0.  1.
         22    1    1    2    0    0  0.30332649376E+00 -0.14496085593E+02 -0.37904002848E+02  0.40582532405E+02  0.00000000000E+00 0.  1.
</event>
<event>
 6    1  0.1383644E-005  0.3572418E+02  0.7818608E-02  0.1586527E+00
          2   -1    0    0  502    0  0.00000000000E+00  0.00000000000E+00  0.74209994699E+02  0.74209994699E+02  0.00000000000E+00 0. -1.
          1   -1    0    0  501    0 -0.00000000000E+00 -0.00000000000E+00 -0.17158235149E+03  0.17158235149E+03  0.00000000000E+00 0.  1.
          2    1    1    2  501    0  0.58068674389E+01 -0.19881887862E+02  0.31843482239E+02  0.37987057474E+02  0.00000000000E+00 0. -1.
          1    1    1    2  502    0  0.14086603227E+02  0.19446133519E+02 -0.54161355873E+02  0.59245564976E+02  0.00000000000E+00 0.  1.
         22    1    1    2    0    0 -0.13968354463E+02  0.14931343020E+02 -0.10914544937E+03  0.11104408606E+03  0.00000000000E+00 0.  1.
         22    1    1    2    0    0 -0.59251162025E+01 -0.14495588677E+02  0.34090966213E+02  0.37515637679E+02  0.00000000000E+00 0. -1.
</event>
<event>
 6    1  0.1383644E-005  0.6891643E+02  0.7818608E-02  0.1396117E+00
          2   -1    0    0  502    0  0.00000000000E+00  0.00000000000E+00  0.35968052761E+03  0.35968052761E+03  0.00000000000E+00 0.  1.
          1   -1    0    0  501    0 -0.00000000000E+00 -0.00000000000E+00 -0.77538528826E+02  0.77538528826E+02  0.00000000000E+00 0. -1.
          2    1    1    2  501    0  0.72537529461E+02  0.18954305820E+02  0.10709229768E+03  0.13072765244E+03  0.00000000000E+00 0.  1.
          1    1    1    2  502    0 -0.87360458650E+02 -0.53044140514E+02  0.18435605092E+02  0.10385279059E+03  0.00000000000E+00 0. -1.
         22    1    1    2    0    0  0.18220859511E+02 -0.27737534454E+02  0.13182842106E+03  0.13594154309E+03  0.00000000000E+00 0. -1.
         22    1    1    2    0    0 -0.33979303225E+01  0.61827369148E+02  0.24785674956E+02  0.66697070320E+02  0.00000000000E+00 0. -1.
</event>
<event>
 6    1  0.1383644E-005  0.6325094E+02  0.7818608E-02  0.1397856E+00
          2   -1    0    0  502    0  0.00000000000E+00  0.00000000000E+00  0.74567565274E+03  0.74567565274E+03  0.00000000000E+00 0. -1.
          1   -1    0    0  501    0 -0.00000000000E+00 -0.00000000000E+00 -0.11650257456E+03  0.11650257456E+03  0.00000000000E+00 0. -1.
          2    1    1    2  501    0  0.85325636791E+02 -0.98130447125E+02  0.59354852486E+03  0.60762644800E+03  0.00000000000E+00 0. -1.
          1    1    1    2  502    0 -0.52622994161E+02  0.91625809837E+02  0.61597415212E+02  0.12230580568E+03  0.00000000000E+00 0. -1.
         22    1    1    2    0    0 -0.15743432125E+02 -0.19857989370E+02  0.46682278630E+02  0.53117139747E+02  0.00000000000E+00 0.  1.
         22    1    1    2    0    0 -0.16959210506E+02  0.26362626658E+02 -0.72655140524E+02  0.79128833871E+02  0.00000000000E+00 0. -1.
</event>
<event>
 6    1  0.1383644E-005  0.1381286E+03  0.7818608E-02  0.1277976E+00
          2   -1    0    0  502    0  0.00000000000E+00  0.00000000000E+00  0.12970012659E+04  0.12970012659E+04  0.00000000000E+00 0. -1.
          1   -1    0    0  501    0 -0.00000000000E+00 -0.00000000000E+00 -0.58813237210E+02  0.58813237210E+02  0.00000000000E+00 0. -1.
          2    1    1    2  501    0  0.22553029218E+02  0.31062726508E+02  0.47061939074E+01  0.38674027022E+02  0.00000000000E+00 0. -1.
          1    1    1    2  502    0 -0.93324816135E+02 -0.10314195320E+03  0.10988933412E+04  0.11076616628E+04  0.00000000000E+00 0. -1.
         22    1    1    2    0    0  0.11531543824E+02  0.37946196846E+02  0.13541553793E+03  0.14110371459E+03  0.00000000000E+00 0.  1.
         22    1    1    2    0    0  0.59240243093E+02  0.34133029844E+02 -0.82704432696E+00  0.68375098759E+02  0.00000000000E+00 0. -1.
</event>
<event>
 6    1  0.1157038E-004  0.7969175E+02  0.7818608E-02  0.1373555E+00
          2   -1    0    0  502    0  0.00000000000E+00  0.00000000000E+00  0.24080061018E+03  0.24080061018E+03  0.00000000000E+00 0. -1.
          1   -1    0    0  501    0 -0.00000000000E+00 -0.00000000000E+00 -0.72250132264E+03  0.72250132264E+03  0.00000000000E+00 0.  1.
          2    1    1    2  501    0 -0.26940963648E+01 -0.22208601875E+02 -0.42961954203E+01  0.22780198585E+02  0.00000000000E+00 0. -1.
          1    1    1    2  502    0  0.54643603228E+01  0.79848562165E+02 -0.68659764624E+03  0.69124668530E+03  0.00000000000E+00 0.  1.
         22    1    1    2    0    0  0.44428865550E+01 -0.11881562088E+02 -0.15401567770E+02  0.19952920798E+02  0.00000000000E+00 0. -1.
         22    1    1    2    0    0 -0.72131505129E+01 -0.45758398201E+02  0.22459469697E+03  0.22932212814E+03  0.00000000000E+00 0. -1.
</event>
<event>
 6    1  0.1383644E-005  0.1932409E+03  0.7818608E-02  0.1256871E+00
          2   -1    0    0  502    0  0.00000000000E+00  0.00000000000E+00  0.64683867776E+03  0.64683867776E+03  0.00000000000E+00 0. -1.
          1   -1    0    0  501    0 -0.00000000000E+00 -0.00000000000E+00 -0.32848911617E+03  0.32848911617E+03  0.00000000000E+00 0.  1.
          2    1    1    2  501    0  0.23762314909E+03  0.57895109107E+01  0.44167577244E+03  0.50157329213E+03  0.00000000000E+00 0. -1.
          1    1    1    2  502    0 -0.12949558987E+03  0.72001392026E+02 -0.22104739549E+03  0.26611136635E+03  0.00000000000E+00 0.  1.
         22    1    1    2    0    0 -0.12044692681E+03 -0.95804286786E+02  0.10300221195E+03  0.18519011639E+03  0.00000000000E+00 0. -1.
         22    1    1    2    0    0  0.12319367586E+02  0.18013383849E+02 -0.52810273005E+01  0.22453019057E+02  0.00000000000E+00 0. -1.
</event>
<event>
 6    1  0.1383644E-005  0.8397410E+02  0.7818608E-02  0.1389402E+00
          2   -1    0    0  502    0  0.00000000000E+00  0.00000000000E+00  0.16212798028E+03  0.16212798028E+03  0.00000000000E+00 0.  1.
          1   -1    0    0  501    0 -0.00000000000E+00 -0.00000000000E+00 -0.89256261595E+03  0.89256261595E+03  0.00000000000E+00 0.  1.
          2    1    1    2  501    0 -0.46610441489E+02 -0.22472366075E+02  0.11178113693E+03  0.12317695834E+03  0.00000000000E+00 0.  1.
          1    1    1    2  502    0  0.94200779040E+02  0.33684956121E+02 -0.77736737728E+03  0.78377835024E+03  0.00000000000E+00 0.  1.
         22    1    1    2    0    0 -0.18673088976E+02 -0.16687873303E+02 -0.99308599747E+02  0.10241761250E+03  0.00000000000E+00 0.  1.
         22    1    1    2    0    0 -0.28917248575E+02  0.54752832565E+01  0.34460204422E+02  0.45317675146E+02  0.00000000000E+00 0.  1.
</event>
<event>
 6    1  0.1383644E-005  0.8600394E+02  0.7818608E-02  0.1388049E+00
          2   -1    0    0  502    0  0.00000000000E+00  0.00000000000E+00  0.20486810567E+03  0.20486810567E+03  0.00000000000E+00 0. -1.
          1   -1    0    0  501    0 -0.00000000000E+00 -0.00000000000E+00 -0.14526985774E+03  0.14526985774E+03  0.00000000000E+00 0.  1.
          2    1    1    2  501    0  0.28667578245E+01 -0.24226875671E+02  0.57529473151E+02  0.62488399614E+02  0.00000000000E+00 0. -1.
          1    1    1    2  502    0 -0.56775845076E+02  0.39409854661E+02 -0.95327977388E+02  0.11774572817E+03  0.00000000000E+00 0.  1.
         22    1    1    2    0    0 -0.70524100141E+01 -0.22757195840E+02 -0.24019802120E+02  0.33831602732E+02  0.00000000000E+00 0.  1.
         22    1    1    2    0    0  0.60961497265E+02  0.75742168500E+01  0.12141655428E+03  0.13607223289E+03  0.00000000000E+00 0. -1.
</event>
<event>
 6    1  0.1383644E-005  0.9524454E+02  0.7818608E-02  0.1291049E+00
          2   -1    0    0  502    0  0.00000000000E+00  0.00000000000E+00  0.35861074140E+03  0.35861074140E+03  0.00000000000E+00 0.  1.
          1   -1    0    0  501    0 -0.00000000000E+00 -0.00000000000E+00 -0.12545126478E+03  0.12545126478E+03  0.00000000000E+00 0.  1.
          2    1    1    2  501    0 -0.25878903551E+02 -0.55463545889E+02  0.11100547677E+03  0.12676016111E+03  0.00000000000E+00 0.  1.
          1    1    1    2  502    0 -0.44333903092E+02  0.11788515002E+03 -0.41143712847E+02  0.13249607038E+03  0.00000000000E+00 0.  1.
         22    1    1    2    0    0  0.86235623677E+02 -0.38633687058E+02  0.47984921117E+02  0.10597970193E+03  0.00000000000E+00 0.  1.
         22    1    1    2    0    0 -0.16022817034E+02 -0.23787917076E+02  0.11531279158E+03  0.11882607276E+03  0.00000000000E+00 0.  1.
</event>
<event>
 6    1  0.1383644E-005  0.8534722E+02  0.7818608E-02  0.1314975E+00
          2   -1    0    0  502    0  0.00000000000E+00  0.00000000000E+00  0.66146141779E+02  0.66146141779E+02  0.00000000000E+00 0. -1.
          1   -1    0    0  501    0 -0.00000000000E+00 -0.00000000000E+00 -0.51787938184E+03  0.51787938184E+03  0.00000000000E+00 0.  1.
          2    1    1    2  501    0 -0.60127499041E+02  0.42985635041E+00  0.15439384182E+02  0.62079590055E+02  0.00000000000E+00 0. -1.
          1    1    1    2  502    0  0.43818491039E+02  0.64483274021E+02 -0.25722833116E+03  0.26878349491E+03  0.00000000000E+00 0.  1.
         22    1    1    2    0    0  0.45540200051E+02 -0.71368883410E+02 -0.20631251117E+03  0.22300735325E+03  0.00000000000E+00 0. -1.
         22    1    1    2    0    0 -0.29231192049E+02  0.64557530394E+01 -0.36317819188E+01  0.30155085405E+02  0.00000000000E+00 0.  1.
</event>
<event>
 6    1  0.1383644E-005  0.3241961E+02  0.7818608E-02  0.1572791E+00
          2   -1    0    0  502    0  0.00000000000E+00  0.00000000000E+00  0.27963947877E+03  0.27963947877E+03  0.00000000000E+00 0. -1.
          1   -1    0    0  501    0 -0.00000000000E+00 -0.00000000000E+00 -0.15812659513E+03  0.15812659513E+03  0.00000000000E+00 0.  1.
          2    1    1    2  501    0  0.81346829275E+02 -0.44366366804E+02  0.18246155228E+03  0.20464090304E+03  0.00000000000E+00 0. -1.
          1    1    1    2  502    0 -0.77451861378E+02  0.45336798217E+02 -0.60572204041E+02  0.10827376416E+03  0.00000000000E+00 0.  1.
         22    1    1    2    0    0  0.68823771903E+00 -0.10824959575E+02  0.61286011072E+02  0.62238481457E+02  0.00000000000E+00 0. -1.
         22    1    1    2    0    0 -0.45832056158E+01  0.98545281625E+01 -0.61662475677E+02  0.62612925228E+02  0.00000000000E+00 0.  1.
</event>
<event>
 6    1  0.1383644E-005  0.1080287E+03  0.7818608E-02  0.1320212E+00
          2   -1    0    0  502    0  0.00000000000E+00  0.00000000000E+00  0.56542992774E+03  0.56542992774E+03  0.00000000000E+00 0. -1.
          1   -1    0    0  501    0 -0.00000000000E+00 -0.00000000000E+00 -0.47900355898E+02  0.47900355898E+02  0.00000000000E+00 0. -1.
          2    1    1    2  501    0  0.24120617935E+02  0.64786925965E+02  0.23612356803E+03  0.24603554492E+03  0.00000000000E+00 0. -1.
          1    1    1    2  502    0  0.12627301139E+02 -0.96757923294E+02  0.10077815340E+03  0.14027751301E+03  0.00000000000E+00 0. -1.
         22    1    1    2    0    0 -0.36438660072E+02 -0.10799549742E+02 -0.33314052484E+01  0.38151074473E+02  0.00000000000E+00 0. -1.
         22    1    1    2    0    0 -0.30925900214E+00  0.42770547071E+02  0.18395925567E+03  0.18886615124E+03  0.00000000000E+00 0. -1.
</event>
<event>
 6    1  0.1383644E-005  0.1479513E+03  0.7818608E-02  0.1233381E+00
          2   -1    0    0  502    0  0.00000000000E+00  0.00000000000E+00  0.17528317490E+03  0.17528317490E+03  0.00000000000E+00 0. -1.
          1   -1    0    0  501    0 -0.00000000000E+00 -0.00000000000E+00 -0.34706175571E+03  0.34706175571E+03  0.00000000000E+00 0. -1.
          2    1    1    2  501    0 -0.19121404395E+01  0.54508527958E+02 -0.51843555512E+02  0.75250183716E+02  0.00000000000E+00 0. -1.
          1    1    1    2  502    0  0.90518977050E+02 -0.80294199788E+02  0.11267942727E+03  0.16534054873E+03  0.00000000000E+00 0. -1.
         22    1    1    2    0    0 -0.43155112144E+02 -0.37652340144E+02 -0.30049617930E+02  0.64676440535E+02  0.00000000000E+00 0.  1.
         22    1    1    2    0    0 -0.45451724467E+02  0.63438011974E+02 -0.20256483464E+03  0.21707775762E+03  0.00000000000E+00 0. -1.
</event>
<event>
 6    1  0.1383644E-005  0.5848351E+02  0.7818608E-02  0.1404757E+00
          2   -1    0    0  502    0  0.00000000000E+00  0.00000000000E+00  0.14220070786E+03  0.14220070786E+03  0.00000000000E+00 0. -1.
          1   -1    0    0  501    0 -0.00000000000E+00 -0.00000000000E+00 -0.30877911877E+03  0.30877911877E+03  0.00000000000E+00 0.  1.
          2    1    1    2  501    0 -0.17683087757E+02  0.23538204601E+02  0.81368663654E+02  0.86530908313E+02  0.00000000000E+00 0. -1.
          1    1    1    2  502    0  0.27003788837E+02 -0.21882861477E+02 -0.23568317587E+03  0.23823228922E+03  0.00000000000E+00 0.  1.
         22    1    1    2    0    0  0.17770056573E+02 -0.90166909587E+01 -0.64176822184E+02  0.67199256931E+02  0.00000000000E+00 0.  1.
         22    1    1    2    0    0 -0.27090757652E+02  0.73613478348E+01  0.51912923491E+02  0.59017372167E+02  0.00000000000E+00 0. -1.
</event>
<event>
 6    1  0.1383644E-005  0.2952345E+03  0.7818608E-02  0.1212165E+00
          2   -1    0    0  502    0  0.00000000000E+00  0.00000000000E+00  0.58497810519E+03  0.58497810519E+03  0.00000000000E+00 0. -1.
          1   -1    0    0  501    0 -0.00000000000E+00 -0.00000000000E+00 -0.24645582596E+03  0.24645582596E+03  0.00000000000E+00 0. -1.
          2    1    1    2  501    0 -0.11330125738E+02  0.36992636148E+02 -0.31597954800E+02  0.49952553748E+02  0.00000000000E+00 0. -1.
          1    1    1    2  502    0  0.16672750210E+03 -0.22986248601E+03  0.41295207298E+03  0.50116288471E+03  0.00000000000E+00 0. -1.
         22    1    1    2    0    0  0.34480992556E+01 -0.14908670208E+02 -0.47294246005E+01  0.16016406991E+02  0.00000000000E+00 0. -1.
         22    1    1    2    0    0 -0.15884547562E+03  0.20777852007E+03 -0.38102414344E+02  0.26430208570E+03  0.00000000000E+00 0. -1.
</event>
<event>
 6    1  0.1383644E-005  0.2248142E+02  0.7818608E-02  0.1738195E+00
          2   -1    0    0  502    0  0.00000000000E+00  0.00000000000E+00  0.30733644394E+03  0.30733644394E+03  0.00000000000E+00 0.  1.
          1   -1    0    0  501    0 -0.00000000000E+00 -0.00000000000E+00 -0.26399279374E+03  0.26399279374E+03  0.00000000000E+00 0.  1.
          2    1    1    2  501    0  0.73389108978E+00  0.24270290700E+02  0.23092110556E+03  0.23219419157E+03  0.00000000000E+00 0.  1.
          1    1    1    2  502    0 -0.15877430034E+02 -0.40628969413E+02 -0.20958626852E+03  0.21407757914E+03  0.00000000000E+00 0.  1.
         22    1    1    2    0    0  0.16661999922E+01  0.99273746005E+01 -0.50261934023E+02  0.51260033170E+02  0.00000000000E+00 0.  1.
         22    1    1    2    0    0  0.13477338952E+02  0.64313041123E+01  0.72270747178E+02  0.73797433800E+02  0.00000000000E+00 0. -1.
</event>
<event>
 6    1  0.1383644E-005  0.6346430E+03  0.7818608E-02  0.1054740E+00
          2   -1    0    0  502    0  0.00000000000E+00  0.00000000000E+00  0.10546592716E+04  0.10546592716E+04  0.00000000000E+00 0. -1.
          1   -1    0    0  501    0 -0.00000000000E+00 -0.00000000000E+00 -0.58162965455E+03  0.58162965455E+03  0.00000000000E+00 0. -1.
          2    1    1    2  501    0 -0.10333967216E+03 -0.63482492772E+03  0.59113768382E+02  0.64589179768E+03  0.00000000000E+00 0. -1.
          1    1    1    2  502    0  0.51537958243E+02  0.60912861605E+03  0.53046978076E+03  0.80937755116E+03  0.00000000000E+00 0. -1.
         22    1    1    2    0    0  0.91768112569E+01 -0.33840581275E+02  0.85249390188E+01  0.36084254061E+02  0.00000000000E+00 0. -1.
         22    1    1    2    0    0  0.42624902665E+02  0.59536892948E+02 -0.12507887107E+03  0.14493532329E+03  0.00000000000E+00 0. -1.
</event>
<event>
 6    1  0.1383644E-005  0.2144673E+02  0.7818608E-02  0.1757246E+00
          2   -1    0    0  502    0  0.00000000000E+00  0.00000000000E+00  0.11024724798E+03  0.11024724798E+03  0.00000000000E+00 0.  1.
          1   -1    0    0  501    0 -0.00000000000E+00 -0.00000000000E+00 -0.77586244656E+02  0.77586244656E+02  0.00000000000E+00 0.  1.
          2    1    1    2  501    0 -0.19930004867E+02 -0.23778142298E+01  0.12122422277E+02  0.23448074897E+02  0.00000000000E+00 0.  1.
          1    1    1    2  502    0  0.32278209934E+02  0.14189349554E+02 -0.16356739619E+01  0.35297250695E+02  0.00000000000E+00 0.  1.
         22    1    1    2    0    0 -0.16714767178E+02 -0.15134948711E+01  0.74097160007E+02  0.75974095780E+02  0.00000000000E+00 0.  1.
         22    1    1    2    0    0  0.43665621108E+01 -0.10298040453E+02 -0.51922905002E+02  0.53114071259E+02  0.00000000000E+00 0.  1.
</event>
<event>
 6    1  0.1383644E-005  0.7456528E+02  0.7818608E-02  0.1346547E+00
          2   -1    0    0  502    0  0.00000000000E+00  0.00000000000E+00  0.28340005414E+03  0.28340005414E+03  0.00000000000E+00 0.  1.
          1   -1    0    0  501    0 -0.00000000000E+00 -0.00000000000E+00 -0.15453968659E+03  0.15453968659E+03  0.00000000000E+00 0. -1.
          2    1    1    2  501    0 -0.37781596819E+02 -0.12595609921E+02  0.18415190512E+03  0.18840918928E+03  0.00000000000E+00 0.  1.
          1    1    1    2  502    0  0.48676731630E+02  0.35003686901E+02 -0.10181275097E+03  0.11815463833E+03  0.00000000000E+00 0. -1.
         22    1    1    2    0    0 -0.21392685567E+02 -0.24044918997E+02  0.85299187597E+02  0.91168835300E+02  0.00000000000E+00 0.  1.
         22    1    1    2    0    0  0.10497550756E+02  0.16368420172E+01 -0.38777974195E+02  0.40207077814E+02  0.00000000000E+00 0. -1.
</event>
<event>
 6    1  0.1383644E-005  0.1092133E+03  0.7818608E-02  0.1389887E+00
          2   -1    0    0  502    0  0.00000000000E+00  0.00000000000E+00  0.14595470654E+03  0.14595470654E+03  0.00000000000E+00 0. -1.
          1   -1    0    0  501    0 -0.00000000000E+00 -0.00000000000E+00 -0.20253870265E+03  0.20253870265E+03  0.00000000000E+00 0.  1.
          2    1    1    2  501    0 -0.63325161699E+02 -0.64114116864E+01  0.55399423964E+02  0.84381742573E+02  0.00000000000E+00 0. -1.
          1    1    1    2  502    0  0.96007659747E+02 -0.87419760987E+01 -0.94533511151E+02  0.13502028591E+03  0.00000000000E+00 0.  1.
         22    1    1    2    0    0  0.95543084541E+01 -0.60256291832E+01 -0.62675997310E+02  0.63685741387E+02  0.00000000000E+00 0. -1.
         22    1    1    2    0    0 -0.42236806502E+02  0.21179016968E+02  0.45226088386E+02  0.65405639313E+02  0.00000000000E+00 0. -1.
</event>
<event>
 6    1  0.1383644E-005  0.7370311E+02  0.7818608E-02  0.1427476E+00
          2   -1    0    0  502    0  0.00000000000E+00  0.00000000000E+00  0.29946400528E+03  0.29946400528E+03  0.00000000000E+00 0. -1.
          1   -1    0    0  501    0 -0.00000000000E+00 -0.00000000000E+00 -0.55964587038E+03  0.55964587038E+03  0.00000000000E+00 0. -1.
          2    1    1    2  501    0 -0.27615063298E+02 -0.40842400748E+02  0.27474447549E+03  0.27913297948E+03  0.00000000000E+00 0. -1.
          1    1    1    2  502    0  0.24504556570E+02  0.28818928714E+02 -0.38400941999E+03  0.38586816218E+03  0.00000000000E+00 0. -1.
         22    1    1    2    0    0  0.37992383491E+01 -0.20060033927E+02  0.14861537141E+02  0.25252810920E+02  0.00000000000E+00 0. -1.
         22    1    1    2    0    0 -0.68873162200E+00  0.32083505961E+02 -0.16577845775E+03  0.16885592308E+03  0.00000000000E+00 0. -1.
</event>
<event>
 6    1  0.1383644E-005  0.2068591E+03  0.7818608E-02  0.1243322E+00
          2   -1    0    0  502    0  0.00000000000E+00  0.00000000000E+00  0.11007250994E+04  0.11007250994E+04  0.00000000000E+00 0.  1.
          1   -1    0    0  501    0 -0.00000000000E+00 -0.00000000000E+00 -0.50067166516E+02  0.50067166516E+02  0.00000000000E+00 0.  1.
          2    1    1    2  501    0  0.54228751762E+02  0.45152520371E+02  0.31081912819E+03  0.31872878449E+03  0.00000000000E+00 0.  1.
          1    1    1    2  502    0  0.22114629361E+02 -0.13452379369E+03  0.99923859181E+02  0.16902806138E+03  0.00000000000E+00 0.  1.
         22    1    1    2    0    0 -0.88025019245E+02  0.10955427405E+03  0.60457842682E+03  0.62069768580E+03  0.00000000000E+00 0.  1.
         22    1    1    2    0    0  0.11681638122E+02 -0.20183000726E+02  0.35336518674E+02  0.42337734228E+02  0.00000000000E+00 0.  1.
</event>
<event>
 6    1  0.1383644E-005  0.1798612E+03  0.7818608E-02  0.1168604E+00
          2   -1    0    0  502    0  0.00000000000E+00  0.00000000000E+00  0.37003219687E+03  0.37003219687E+03  0.00000000000E+00 0.  1.
          1   -1    0    0  501    0 -0.00000000000E+00 -0.00000000000E+00 -0.50578373730E+03  0.50578373730E+03  0.00000000000E+00 0. -1.
          2    1    1    2  501    0  0.28851080027E+02 -0.15486538473E+03  0.27922402573E+03  0.32059589634E+03  0.00000000000E+00 0.  1.
          1    1    1    2  502    0 -0.31726664585E+02  0.16072544273E+03 -0.39670780053E+03  0.42920429656E+03  0.00000000000E+00 0. -1.
         22    1    1    2    0    0  0.52521928053E+01 -0.17209312771E+02  0.51882331975E+02  0.54913771920E+02  0.00000000000E+00 0.  1.
         22    1    1    2    0    0 -0.23766082474E+01  0.11349254773E+02 -0.70150097601E+02  0.71101969340E+02  0.00000000000E+00 0.  1.
</event>
<event>
 6    1  0.1383644E-005  0.7270033E+02  0.7818608E-02  0.1428499E+00
          2   -1    0    0  502    0  0.00000000000E+00  0.00000000000E+00  0.10144604099E+03  0.10144604099E+03  0.00000000000E+00 0. -1.
          1   -1    0    0  501    0 -0.00000000000E+00 -0.00000000000E+00 -0.15291919695E+03  0.15291919695E+03  0.00000000000E+00 0.  1.
          2    1    1    2  501    0 -0.24319919964E+02 -0.37620557221E+02  0.24829180022E+02  0.51217702147E+02  0.00000000000E+00 0. -1.
          1    1    1    2  502    0  0.41565502396E+02  0.37922831657E+02 -0.42017838339E+02  0.70223435468E+02  0.00000000000E+00 0.  1.
         22    1    1    2    0    0 -0.11270629959E+01  0.20914597632E+02 -0.78529927098E+02  0.81275089143E+02  0.00000000000E+00 0.  1.
         22    1    1    2    0    0 -0.16118519436E+02 -0.21216872068E+02  0.44245429446E+02  0.51649011182E+02  0.00000000000E+00 0. -1.
</event>
<event>
 6    1  0.1383644E-005  0.3664545E+02  0.7818608E-02  0.1545437E+00
          2   -1    0    0  502    0  0.00000000000E+00  0.00000000000E+00  0.12671668187E+04  0.12671668187E+04  0.00000000000E+00 0. -1.
          1   -1    0    0  501    0 -0.00000000000E+00 -0.00000000000E+00 -0.12832846259E+03  0.12832846259E+03  0.00000000000E+00 0.  1.
          2    1    1    2  501    0 -0.25279306754E+01 -0.79171524257E+02  0.11621194643E+04  0.11648159382E+04  0.00000000000E+00 0. -1.
          1    1    1    2  502    0  0.26522389995E+02  0.89878675355E+02 -0.39018281077E+02  0.10150881594E+03  0.00000000000E+00 0.  1.
         22    1    1    2    0    0 -0.14996001996E+02 -0.12546210784E+01 -0.55111903811E+02  0.57129467804E+02  0.00000000000E+00 0.  1.
         22    1    1    2    0    0 -0.89984573236E+01 -0.94525300205E+01  0.70849076683E+02  0.72041059298E+02  0.00000000000E+00 0. -1.
</event>
<event>
 6    1  0.1383644E-005  0.1065901E+03  0.7818608E-02  0.1267422E+00
          2   -1    0    0  502    0  0.00000000000E+00  0.00000000000E+00  0.91937482230E+02  0.91937482230E+02  0.00000000000E+00 0. -1.
          1   -1    0    0  501    0 -0.00000000000E+00 -0.00000000000E+00 -0.39991682947E+03  0.39991682947E+03  0.00000000000E+00 0.  1.
          2    1    1    2  501    0 -0.12335341469E+02 -0.40348166129E+02  0.15072381139E+02  0.44803033740E+02  0.00000000000E+00 0. -1.
          1    1    1    2  502    0  0.11259845743E+02  0.88053252872E+02 -0.29205157389E+03  0.30524462530E+03  0.00000000000E+00 0.  1.
         22    1    1    2    0    0 -0.50003050611E+01  0.15991238044E+02 -0.66537679758E+02  0.68614762059E+02  0.00000000000E+00 0. -1.
         22    1    1    2    0    0  0.60758007865E+01 -0.63696324787E+02  0.35537525269E+02  0.73191890595E+02  0.00000000000E+00 0. -1.
</event>
<event>
 6    1  0.1383644E-005  0.1469834E+03  0.7818608E-02  0.1305186E+00
          2   -1    0    0  502    0  0.00000000000E+00  0.00000000000E+00  0.19402467475E+03  0.19402467475E+03  0.00000000000E+00 0. -1.
          1   -1    0    0  501    0 -0.00000000000E+00 -0.00000000000E+00 -0.96814362115E+02  0.96814362115E+02  0.00000000000E+00 0. -1.
          2    1    1    2  501    0  0.32452080513E+02  0.38802403343E+02 -0.25192343630E+01  0.50646920702E+02  0.00000000000E+00 0. -1.
          1    1    1    2  502    0 -0.35828041282E+02 -0.92113365866E+01 -0.37448733988E+02  0.52639385835E+02  0.00000000000E+00 0. -1.
         22    1    1    2    0    0 -0.14426005143E+02 -0.38251601938E+02  0.15537508830E+03  0.16066335220E+03  0.00000000000E+00 0. -1.
         22    1    1    2    0    0  0.17801965912E+02  0.86605351815E+01 -0.18196807312E+02  0.26889378132E+02  0.00000000000E+00 0. -1.
</event>
<event>
 6    1  0.1383644E-005  0.6134269E+02  0.7818608E-02  0.1504547E+00
          2   -1    0    0  502    0  0.00000000000E+00  0.00000000000E+00  0.59135854489E+03  0.59135854489E+03  0.00000000000E+00 0.  1.
          1   -1    0    0  501    0 -0.00000000000E+00 -0.00000000000E+00 -0.35782637053E+02  0.35782637053E+02  0.00000000000E+00 0.  1.
          2    1    1    2  501    0  0.55503754883E+02 -0.15735920436E+02  0.72233755847E+02  0.92444586006E+02  0.00000000000E+00 0.  1.
          1    1    1    2  502    0 -0.74647253233E+02  0.59925957898E+02  0.16474741776E+03  0.19053882676E+03  0.00000000000E+00 0.  1.
         22    1    1    2    0    0  0.14808656884E+02 -0.53692424818E+02  0.32640065533E+03  0.33111865034E+03  0.00000000000E+00 0.  1.
         22    1    1    2    0    0  0.43348414661E+01  0.95023873558E+01 -0.78059210953E+01  0.13039118841E+02  0.00000000000E+00 0. -1.
</event>
<event>
 6    1  0.1383644E-005  0.1491727E+03  0.7818608E-02  0.1224378E+00
          2   -1    0    0  502    0  0.00000000000E+00  0.00000000000E+00  0.74044017085E+03  0.74044017085E+03  0.00000000000E+00 0.  1.
          1   -1    0    0  501    0 -0.00000000000E+00 -0.00000000000E+00 -0.61688129805E+02  0.61688129805E+02  0.00000000000E+00 0.  1.
          2    1    1    2  501    0  0.37616818649E+00 -0.58596936263E+02  0.51765415822E+02  0.78188238995E+02  0.00000000000E+00 0.  1.
          1    1    1    2  502    0  0.10786607086E+03  0.13556409874E+03  0.37031147849E+03  0.40883163431E+03  0.00000000000E+00 0.  1.
         22    1    1    2    0    0  0.22202405491E+02 -0.22966854916E+02  0.15166511814E+02  0.35361650343E+02  0.00000000000E+00 0.  1.
         22    1    1    2    0    0 -0.13044464454E+03 -0.54000307562E+02  0.24150863493E+03  0.27974677702E+03  0.00000000000E+00 0.  1.
</event>
<event>
 6    1  0.1383644E-005  0.8251798E+02  0.7818608E-02  0.1384874E+00
          2   -1    0    0  502    0  0.00000000000E+00  0.00000000000E+00  0.54165620079E+03  0.54165620079E+03  0.00000000000E+00 0. -1.
          1   -1    0    0  501    0 -0.00000000000E+00 -0.00000000000E+00 -0.55306205953E+02  0.55306205953E+02  0.00000000000E+00 0.  1.
          2    1    1    2  501    0  0.25125282946E+02 -0.18562048869E+02  0.41734033088E+03  0.41850780313E+03  0.00000000000E+00 0. -1.
          1    1    1    2  502    0 -0.31170504391E+02  0.15210544276E+02  0.17413575396E+02  0.38809710244E+02  0.00000000000E+00 0.  1.
         22    1    1    2    0    0 -0.27895954812E+02  0.52916875222E+01 -0.35902949125E+02  0.45773442164E+02  0.00000000000E+00 0.  1.
         22    1    1    2    0    0  0.33941176256E+02 -0.19401829291E+01  0.87499037685E+02  0.93871451204E+02  0.00000000000E+00 0. -1.
</event>
<event>
 6    1  0.1383644E-005  0.1242549E+03  0.7818608E-02  0.1349469E+00
          2   -1    0    0  502    0  0.00000000000E+00  0.00000000000E+00  0.54688697045E+03  0.54688697045E+03  0.00000000000E+00 0. -1.
          1   -1    0    0  501    0 -0.00000000000E+00 -0.00000000000E+00 -0.15285895373E+03  0.15285895373E+03  0.00000000000E+00 0.  1.
          2    1    1    2  501    0  0.90738812138E+02 -0.39409084336E+02  0.44101793253E+03  0.45197723922E+03  0.00000000000E+00 0. -1.
          1    1    1    2  502    0 -0.97709692159E+02  0.56090014022E+02 -0.42634413653E+02  0.12046147452E+03  0.00000000000E+00 0.  1.
         22    1    1    2    0    0 -0.13722106070E+02 -0.60174524980E+01 -0.62712955011E+02  0.64478063369E+02  0.00000000000E+00 0.  1.
         22    1    1    2    0    0  0.20692986091E+02 -0.10663477188E+02  0.58357452848E+02  0.62829147073E+02  0.00000000000E+00 0. -1.
</event>
<event>
 6    1  0.1383644E-005  0.9486935E+02  0.7818608E-02  0.1296139E+00
          2   -1    0    0  502    0  0.00000000000E+00  0.00000000000E+00  0.23600992927E+03  0.23600992927E+03  0.00000000000E+00 0.  1.
          1   -1    0    0  501    0 -0.00000000000E+00 -0.00000000000E+00 -0.95436744479E+02  0.95436744479E+02  0.00000000000E+00 0.  1.
          2    1    1    2  501    0 -0.70060708331E+02 -0.15079697637E+02  0.48859096092E+02  0.86735871492E+02  0.00000000000E+00 0.  1.
          1    1    1    2  502    0  0.42768280439E+02  0.68783499363E+02  0.52873095581E+02  0.96725693756E+02  0.00000000000E+00 0.  1.
         22    1    1    2    0    0 -0.27153426419E+02  0.29079856121E+02  0.27255981968E+02  0.48226913144E+02  0.00000000000E+00 0. -1.
         22    1    1    2    0    0  0.54445854311E+02 -0.82783657846E+02  0.11585011153E+02  0.99758195360E+02  0.00000000000E+00 0.  1.
</event>
<event>
 6    1  0.1383644E-005  0.6638989E+02  0.7818608E-02  0.1437884E+00
          2   -1    0    0  502    0  0.00000000000E+00  0.00000000000E+00  0.35637547078E+03  0.35637547078E+03  0.00000000000E+00 0.  1.
          1   -1    0    0  501    0 -0.00000000000E+00 -0.00000000000E+00 -0.74199709028E+02  0.74199709028E+02  0.00000000000E+00 0. -1.
          2    1    1    2  501    0  0.46787281873E+02  0.17347561981E+02  0.24274088926E+03  0.24781672052E+03  0.00000000000E+00 0.  1.
          1    1    1    2  502    0 -0.43602560725E+02 -0.26309504028E+02 -0.49268201099E+01  0.51162944211E+02  0.00000000000E+00 0. -1.
         22    1    1    2    0    0 -0.21630608598E+02  0.10096130996E+02 -0.39264708458E+02  0.45951413686E+02  0.00000000000E+00 0. -1.
         22    1    1    2    0    0  0.18445887449E+02 -0.11341889498E+01  0.83626401057E+02  0.85644101385E+02  0.00000000000E+00 0. -1.
</event>
<event>
 6    1  0.1383644E-005  0.5841119E+02  0.7818608E-02  0.1454488E+00
          2   -1    0    0  502    0  0.00000000000E+00  0.00000000000E+00  0.15899432804E+03  0.15899432804E+03  0.00000000000E+00 0. -1.
          1   -1    0    0  501    0 -0.00000000000E+00 -0.00000000000E+00 -0.14944023709E+03  0.14944023709E+03  0.00000000000E+00 0.  1.
          2    1    1    2  501    0 -0.19484052635E+02 -0.12828056772E+02  0.52190113213E+02  0.57166382297E+02  0.00000000000E+00 0. -1.
          1    1    1    2  502    0  0.10910540551E+02  0.32945717035E+02 -0.10584122530E+03  0.11138592882E+03  0.00000000000E+00 0.  1.
         22    1    1    2    0    0  0.24428165958E+02  0.12425481578E+02 -0.29556266241E+02  0.40307576938E+02  0.00000000000E+00 0.  1.
         22    1    1    2    0    0 -0.15854653874E+02 -0.32543141841E+02  0.92761469286E+02  0.99574677074E+02  0.00000000000E+00 0. -1.
</event>
<event>
 6    1  0.1383644E-005  0.1178536E+03  0.7818608E-02  0.1347414E+00
          2   -1    0    0  502    0  0.00000000000E+00  0.00000000000E+00  0.90195652200E+03  0.90195652200E+03  0.00000000000E+00 0.  1.
          1   -1    0    0  501    0 -0.00000000000E+00 -0.00000000000E+00 -0.59039703472E+02  0.59039703472E+02  0.00000000000E+00 0. -1.
          2    1    1    2  501    0 -0.54812076953E+02  0.23436645536E+01  0.72405339105E+03  0.72612889326E+03  0.00000000000E+00 0.  1.
          1    1    1    2  502    0  0.45788113458E+02  0.50227959116E+02  0.55694804486E+02  0.87870987577E+02  0.00000000000E+00 0. -1.
         22    1    1    2    0    0  0.71462498032E+01 -0.16725437554E+02 -0.36652652840E+02  0.40917308170E+02  0.00000000000E+00 0. -1.
         22    1    1    2    0    0  0.18777136916E+01 -0.35846186116E+02  0.99821275832E+02  0.10607903646E+03  0.00000000000E+00 0.  1.
</event>
<event>
 6    1  0.1383644E-005  0.6467090E+02  0.7818608E-02  0.1419399E+00
          2   -1    0    0  502    0  0.00000000000E+00  0.00000000000E+00  0.28803403913E+03  0.28803403913E+03  0.00000000000E+00 0. -1.
          1   -1    0    0  501    0 -0.00000000000E+00 -0.00000000000E+00 -0.81793102849E+02  0.81793102849E+02  0.00000000000E+00 0. -1.
          2    1    1    2  501    0 -0.13749304300E+02  0.31880041488E+02  0.48042044833E+02  0.59274096246E+02  0.00000000000E+00 0. -1.
          1    1    1    2  502    0  0.83982116260E+02 -0.73045510382E+01 -0.13293767043E+02  0.85340943043E+02  0.00000000000E+00 0. -1.
         22    1    1    2    0    0 -0.29190737378E+02  0.17815663490E+02  0.16185245313E+03  0.16542585529E+03  0.00000000000E+00 0. -1.
         22    1    1    2    0    0 -0.41042074582E+02 -0.42391153940E+02  0.96402053550E+01  0.59786247395E+02  0.00000000000E+00 0. -1.
</event>
<event>
 6    1  0.1383644E-005  0.8114384E+02  0.7818608E-02  0.1403788E+00
          2   -1    0    0  502    0  0.00000000000E+00  0.00000000000E+00  0.69335366036E+02  0.69335366036E+02  0.00000000000E+00 0.  1.
          1   -1    0    0  501    0 -0.00000000000E+00 -0.00000000000E+00 -0.21385631704E+03  0.21385631704E+03  0.00000000000E+00 0. -1.
          2    1    1    2  501    0 -0.88151372193E+01 -0.28469589109E+02  0.92888807009E+01  0.31217101930E+02  0.00000000000E+00 0.  1.
          1    1    1    2  502    0  0.43533408325E+01  0.64294601425E+02 -0.57890590414E+02  0.86626022691E+02  0.00000000000E+00 0. -1.
         22    1    1    2    0    0  0.12720850472E+02 -0.56298110749E+02  0.87497131346E+01  0.58376834366E+02  0.00000000000E+00 0.  1.
         22    1    1    2    0    0 -0.82590540853E+01  0.20473098433E+02 -0.10466895442E+03  0.10697172409E+03  0.00000000000E+00 0. -1.
</event>
<event>
 6    1  0.1383644E-005  0.9798053E+02  0.7818608E-02  0.1372659E+00
          2   -1    0    0  502    0  0.00000000000E+00  0.00000000000E+00  0.91291248839E+03  0.91291248839E+03  0.00000000000E+00 0. -1.
          1   -1    0    0  501    0 -0.00000000000E+00 -0.00000000000E+00 -0.13821350581E+03  0.13821350581E+03  0.00000000000E+00 0. -1.
          2    1    1    2  501    0 -0.26231315699E+02  0.48962705338E+02  0.99771362913E+01  0.56435553385E+02  0.00000000000E+00 0. -1.
          1    1    1    2  502    0  0.51429916088E+02 -0.78230840853E+02  0.84166376290E+03  0.84685476353E+03  0.00000000000E+00 0. -1.
         22    1    1    2    0    0 -0.46143123485E+01  0.27013224956E+02  0.28993582684E+02  0.39895288416E+02  0.00000000000E+00 0. -1.
         22    1    1    2    0    0 -0.20584288041E+02  0.22549105593E+01 -0.10593549930E+03  0.10794038887E+03  0.00000000000E+00 0. -1.
</event>
<event>
 6    1  0.1383644E-005  0.7975925E+02  0.7818608E-02  0.1345402E+00
          2   -1    0    0  502    0  0.00000000000E+00  0.00000000000E+00  0.30459880841E+03  0.30459880841E+03  0.00000000000E+00 0.  1.
          1   -1    0    0  501    0 -0.00000000000E+00 -0.00000000000E+00 -0.16097787658E+03  0.16097787658E+03  0.00000000000E+00 0.  1.
          2    1    1    2  501    0  0.46307354039E+02  0.80504710386E+02  0.92090718466E+02  0.13079021317E+03  0.00000000000E+00 0.  1.
          1    1    1    2  502    0 -0.85028480855E+01 -0.64748309697E+02  0.15300882225E+03  0.16636208018E+03  0.00000000000E+00 0.  1.
         22    1    1    2    0    0  0.32072933047E+01  0.29045301016E+02  0.18051287821E+02  0.34347710745E+02  0.00000000000E+00 0. -1.
         22    1    1    2    0    0 -0.41011799258E+02 -0.44801701705E+02 -0.11952989671E+03  0.13407668090E+03  0.00000000000E+00 0.  1.
</event>
<event>
 6    1  0.1383644E-005  0.3836491E+03  0.7818608E-02  0.1156930E+00
          2   -1    0    0  502    0  0.00000000000E+00  0.00000000000E+00  0.69585989749E+03  0.69585989749E+03  0.00000000000E+00 0. -1.
          1   -1    0    0  501    0 -0.00000000000E+00 -0.00000000000E+00 -0.35444225640E+03  0.35444225640E+03  0.00000000000E+00 0. -1.
          2    1    1    2  501    0  0.25544531355E+03  0.22912745424E+03  0.44063372403E+03  0.55848883360E+03  0.00000000000E+00 0. -1.
          1    1    1    2  502    0 -0.26000532201E+03 -0.24794673200E+03 -0.68417272462E+02  0.36573388215E+03  0.00000000000E+00 0. -1.
         22    1    1    2    0    0  0.10041369160E+02  0.42102489729E+02  0.35257314136E+02  0.55825862609E+02  0.00000000000E+00 0. -1.
         22    1    1    2    0    0 -0.54813606958E+01 -0.23283211978E+02 -0.66056124613E+02  0.70253575525E+02  0.00000000000E+00 0. -1.
</event>
<event>
 6    1  0.1383644E-005  0.7789536E+02  0.7818608E-02  0.1378352E+00
          2   -1    0    0  502    0  0.00000000000E+00  0.00000000000E+00  0.62039382594E+03  0.62039382594E+03  0.00000000000E+00 0.  1.
          1   -1    0    0  501    0 -0.00000000000E+00 -0.00000000000E+00 -0.72566803931E+02  0.72566803931E+02  0.00000000000E+00 0. -1.
          2    1    1    2  501    0 -0.25019978670E+02  0.10645534191E+02  0.32672463323E+03  0.32785410275E+03  0.00000000000E+00 0.  1.
          1    1    1    2  502    0  0.71772237205E+02 -0.58760540863E+02 -0.10734807463E+02  0.93377145422E+02  0.00000000000E+00 0. -1.
         22    1    1    2    0    0 -0.39489057392E+01  0.37324820581E+02  0.18869243815E+01  0.37580534477E+02  0.00000000000E+00 0.  1.
         22    1    1    2    0    0 -0.42803352796E+02  0.10790186090E+02  0.22995027186E+03  0.23414884722E+03  0.00000000000E+00 0.  1.
</event>
<event>
 6    1  0.1383644E-005  0.2075146E+03  0.7818608E-02  0.1206355E+00
          2   -1    0    0  502    0  0.00000000000E+00  0.00000000000E+00  0.35167756394E+03  0.35167756394E+03  0.00000000000E+00 0.  1.
          1   -1    0    0  501    0 -0.00000000000E+00 -0.00000000000E+00 -0.25115914758E+03  0.25115914758E+03  0.00000000000E+00 0.  1.
          2    1    1    2  501    0 -0.16656306049E+03  0.28056701408E+02  0.99611899481E+02  0.19609426848E+03  0.00000000000E+00 0.  1.
          1    1    1    2  502    0  0.17867022273E+03 -0.65002585220E+02  0.12663676576E+03  0.22844092238E+03  0.00000000000E+00 0.  1.
         22    1    1    2    0    0  0.34037289353E+02  0.36483386258E+02 -0.12223050030E+03  0.13202223200E+03  0.00000000000E+00 0.  1.
         22    1    1    2    0    0 -0.46144451600E+02  0.46249755461E+00 -0.34997485807E+01  0.46279288646E+02  0.00000000000E+00 0.  1.
</event>
<event>
 6    1  0.1383644E-005  0.8810082E+02  0.7818608E-02  0.1311816E+00
          2   -1    0    0  502    0  0.00000000000E+00  0.00000000000E+00  0.93379912669E+02  0.93379912669E+02  0.00000000000E+00 0. -1.
          1   -1    0    0  501    0 -0.00000000000E+00 -0.00000000000E+00 -0.20689904857E+03  0.20689904857E+03  0.00000000000E+00 0.  1.
          2    1    1    2  501    0  0.49355680090E+02 -0.19977120406E+02  0.29553399146E+02  0.60897224058E+02  0.00000000000E+00 0. -1.
          1    1    1    2  502    0 -0.26810989958E+02  0.29984142880E+02 -0.92759343919E+02  0.10110476691E+03  0.00000000000E+00 0.  1.
         22    1    1    2    0    0  0.24624547852E+02 -0.68942910496E+01  0.33444429528E+02  0.42100231264E+02  0.00000000000E+00 0. -1.
         22    1    1    2    0    0 -0.47169237984E+02 -0.31127314245E+01 -0.83757620658E+02  0.96176739013E+02  0.00000000000E+00 0.  1.
</event>
<event>
 6    1  0.1383644E-005  0.4649450E+02  0.7818608E-02  0.1495514E+00
          2   -1    0    0  502    0  0.00000000000E+00  0.00000000000E+00  0.11449296207E+03  0.11449296207E+03  0.00000000000E+00 0. -1.
          1   -1    0    0  501    0 -0.00000000000E+00 -0.00000000000E+00 -0.73891349624E+02  0.73891349624E+02  0.00000000000E+00 0. -1.
          2    1    1    2  501    0 -0.18583290782E+02  0.14158017920E+02  0.30437125132E+02  0.38369346542E+02  0.00000000000E+00 0. -1.
          1    1    1    2  502    0  0.22187183103E+02 -0.10326554322E+02  0.12522847863E+02  0.27490553592E+02  0.00000000000E+00 0. -1.
         22    1    1    2    0    0 -0.25175669317E+02 -0.16883426987E+02 -0.55761729802E+02  0.63468377503E+02  0.00000000000E+00 0. -1.
         22    1    1    2    0    0  0.21571776996E+02  0.13051963389E+02  0.53403369254E+02  0.59056034059E+02  0.00000000000E+00 0.  1.
</event>
<event>
 6    1  0.1383644E-005  0.1175230E+03  0.7818608E-02  0.1288036E+00
          2   -1    0    0  502    0  0.00000000000E+00  0.00000000000E+00  0.59907915878E+03  0.59907915878E+03  0.00000000000E+00 0.  1.
          1   -1    0    0  501    0 -0.00000000000E+00 -0.00000000000E+00 -0.91496997639E+02  0.91496997639E+02  0.00000000000E+00 0. -1.
          2    1    1    2  501    0  0.17742958594E+02  0.11681050579E+03  0.12493498097E+03  0.17195422738E+03  0.00000000000E+00 0.  1.
          1    1    1    2  502    0 -0.43145585981E+02 -0.94266746075E+02  0.37196539747E+03  0.38614248397E+03  0.00000000000E+00 0. -1.
         22    1    1    2    0    0  0.48808303974E+01 -0.52997185511E+02 -0.42321731208E+02  0.67997449290E+02  0.00000000000E+00 0. -1.
         22    1    1    2    0    0  0.20521796989E+02  0.30453425794E+02  0.53003513909E+02  0.64481995789E+02  0.00000000000E+00 0. -1.
</event>
<event>
 6    1  0.1383644E-005  0.6942520E+02  0.7818608E-02  0.1469602E+00
          2   -1    0    0  502    0  0.00000000000E+00  0.00000000000E+00  0.18372837779E+03  0.18372837779E+03  0.00000000000E+00 0. -1.
          1   -1    0    0  501    0 -0.00000000000E+00 -0.00000000000E+00 -0.14811939993E+03  0.14811939993E+03  0.00000000000E+00 0. -1.
          2    1    1    2  501    0 -0.95008197043E+02  0.21418534725E+02  0.34788261892E+02  0.10341921630E+03  0.00000000000E+00 0. -1.
          1    1    1    2  502    0  0.50673218611E+02 -0.69469912666E+02 -0.18361033658E+02  0.87925942742E+02  0.00000000000E+00 0. -1.
         22    1    1    2    0    0  0.92732152496E+01  0.52199486965E+01 -0.50444683593E+02  0.51554888112E+02  0.00000000000E+00 0. -1.
         22    1    1    2    0    0  0.35061763183E+02  0.42831429244E+02  0.69626433218E+02  0.88947730557E+02  0.00000000000E+00 0.  1.
</event>
<event>
 6    1  0.1383644E-005  0.3668597E+02  0.7818608E-02  0.1562469E+00
          2   -1    0    0  502    0  0.00000000000E+00  0.00000000000E+00  0.16381334780E+03  0.16381334780E+03  0.00000000000E+00 0.  1.
          1   -1    0    0  501    0 -0.00000000000E+00 -0.00000000000E+00 -0.92118689843E+02  0.92118689843E+02  0.00000000000E+00 0.  1.
          2    1    1    2  501    0 -0.16181907821E+02  0.18891420596E+02  0.96338338763E+02  0.99497816199E+02  0.00000000000E+00 0.  1.
          1    1    1    2  502    0 -0.16971204926E+02 -0.19227254128E+02 -0.91448302442E+01  0.27227504809E+02  0.00000000000E+00 0.  1.
         22    1    1    2    0    0  0.23923875495E+02 -0.87279356861E+01 -0.69321620155E+02  0.73851308052E+02  0.00000000000E+00 0.  1.
         22    1    1    2    0    0  0.92292372524E+01  0.90637692180E+01  0.53822769596E+02  0.55355408586E+02  0.00000000000E+00 0.  1.
</event>
<event>
 6    1  0.1383644E-005  0.4119481E+03  0.7818608E-02  0.1159072E+00
          2   -1    0    0  502    0  0.00000000000E+00  0.00000000000E+00  0.37906728461E+03  0.37906728461E+03  0.00000000000E+00 0.  1.
          1   -1    0    0  501    0 -0.00000000000E+00 -0.00000000000E+00 -0.75037791726E+03  0.75037791726E+03  0.00000000000E+00 0.  1.
          2    1    1    2  501    0  0.11481663769E+03 -0.11724265560E+03 -0.12770675584E+03  0.20793680788E+03  0.00000000000E+00 0.  1.
          1    1    1    2  502    0 -0.15503471045E+03  0.34512572304E+03  0.18260606830E+03  0.42011010739E+03  0.00000000000E+00 0.  1.
         22    1    1    2    0    0 -0.14374989856E+02  0.11450264126E+02 -0.24619179813E+02  0.30722188994E+02  0.00000000000E+00 0. -1.
         22    1    1    2    0    0  0.54593062607E+02 -0.23933333156E+03 -0.40159076530E+03  0.47067609761E+03  0.00000000000E+00 0.  1.
</event>
<event>
 6    1  0.1383644E-005  0.4969411E+02  0.7818608E-02  0.1491531E+00
          2   -1    0    0  502    0  0.00000000000E+00  0.00000000000E+00  0.18589570589E+03  0.18589570589E+03  0.00000000000E+00 0. -1.
          1   -1    0    0  501    0 -0.00000000000E+00 -0.00000000000E+00 -0.13813884128E+03  0.13813884128E+03  0.00000000000E+00 0.  1.
          2    1    1    2  501    0  0.37122556800E+02  0.17340076198E+02  0.12221410407E+03  0.12889937820E+03  0.00000000000E+00 0. -1.
          1    1    1    2  502    0 -0.47035959253E+02  0.27196697867E+00  0.80001125564E+01  0.47712233545E+02  0.00000000000E+00 0.  1.
         22    1    1    2    0    0  0.59335080376E+01  0.83203653627E+01  0.30131675072E+02  0.31817492674E+02  0.00000000000E+00 0. -1.
         22    1    1    2    0    0  0.39798944158E+01 -0.25932408540E+02 -0.11258902709E+03  0.11560544275E+03  0.00000000000E+00 0.  1.
</event>
<event>
 6    1  0.1383644E-005  0.5704412E+02  0.7818608E-02  0.1412415E+00
          2   -1    0    0  502    0  0.00000000000E+00  0.00000000000E+00  0.32925457880E+03  0.32925457880E+03  0.00000000000E+00 0. -1.
          1   -1    0    0  501    0 -0.00000000000E+00 -0.00000000000E+00 -0.17603695346E+03  0.17603695346E+03  0.00000000000E+00 0.  1.
          2    1    1    2  501    0 -0.27854280162E+02 -0.26665514418E+02  0.22631189416E+03  0.22957348284E+03  0.00000000000E+00 0. -1.
          1    1    1    2  502    0  0.33311410192E+02  0.31928235236E+02 -0.12975687224E+03  0.13771676785E+03  0.00000000000E+00 0.  1.
         22    1    1    2    0    0 -0.16062994867E+02 -0.54077024250E+01  0.95884259666E+02  0.97370705560E+02  0.00000000000E+00 0.  1.
         22    1    1    2    0    0  0.10605864837E+02  0.14498160671E+00 -0.39221656248E+02  0.40630576017E+02  0.00000000000E+00 0.  1.
</event>
<event>
 6    1  0.1383644E-005  0.6636774E+02  0.7818608E-02  0.1375839E+00
          2   -1    0    0  502    0  0.00000000000E+00  0.00000000000E+00  0.18531328859E+03  0.18531328859E+03  0.00000000000E+00 0. -1.
          1   -1    0    0  501    0 -0.00000000000E+00 -0.00000000000E+00 -0.25954989069E+03  0.25954989069E+03  0.00000000000E+00 0.  1.
          2    1    1    2  501    0 -0.44672133355E+02  0.16621955104E+02  0.11141562011E+03  0.12118304046E+03  0.00000000000E+00 0. -1.
          1    1    1    2  502    0  0.10064954204E+02 -0.76625619572E+02 -0.15918746280E+03  0.17695603180E+03  0.00000000000E+00 0.  1.
         22    1    1    2    0    0  0.44822550335E+02  0.48701737290E+02 -0.72538207496E+02  0.98197310453E+02  0.00000000000E+00 0. -1.
         22    1    1    2    0    0 -0.10215371183E+02  0.11301927178E+02  0.46073448081E+02  0.48526796561E+02  0.00000000000E+00 0.  1.
</event>
<event>
 6    1  0.1383644E-005  0.1472840E+03  0.7818608E-02  0.1254107E+00
          2   -1    0    0  502    0  0.00000000000E+00  0.00000000000E+00  0.97353731816E+03  0.97353731816E+03  0.00000000000E+00 0. -1.
          1   -1    0    0  501    0 -0.00000000000E+00 -0.00000000000E+00 -0.55161175924E+02  0.55161175924E+02  0.00000000000E+00 0. -1.
          2    1    1    2  501    0 -0.45746883488E+02 -0.89380752970E+02  0.20412798023E+03  0.22748610652E+03  0.00000000000E+00 0. -1.
          1    1    1    2  502    0  0.10405711687E+03  0.14836106783E+02  0.59553899234E+03  0.60474348697E+03  0.00000000000E+00 0. -1.
         22    1    1    2    0    0 -0.46636206623E+02  0.23809440456E+02  0.13261877791E+03  0.14258178523E+03  0.00000000000E+00 0. -1.
         22    1    1    2    0    0 -0.11674026758E+02  0.50735205731E+02 -0.13909608239E+02  0.53887115368E+02  0.00000000000E+00 0. -1.
</event>
<event>
 6    1  0.1383644E-005  0.4424528E+02  0.7818608E-02  0.1554871E+00
          2   -1    0    0  502    0  0.00000000000E+00  0.00000000000E+00  0.14531078774E+03  0.14531078774E+03  0.00000000000E+00 0.  1.
          1   -1    0    0  501    0 -0.00000000000E+00 -0.00000000000E+00 -0.16333927914E+03  0.16333927914E+03  0.00000000000E+00 0.  1.
          2    1    1    2  501    0  0.96906587704E+01  0.19376419297E+02  0.50508352078E+02  0.54958603711E+02  0.00000000000E+00 0.  1.
          1    1    1    2  502    0 -0.21049393485E+02 -0.48108772667E+02 -0.11039223871E+03  0.12224556164E+03  0.00000000000E+00 0.  1.
         22    1    1    2    0    0 -0.46545150097E+01  0.15294592602E+02 -0.42044241446E+02  0.44981188419E+02  0.00000000000E+00 0.  1.
         22    1    1    2    0    0  0.16013249724E+02  0.13437760769E+02  0.83899636667E+02  0.86464713115E+02  0.00000000000E+00 0.  1.
</event>
<event>
 6    1  0.1383644E-005  0.1275220E+03  0.7818608E-02  0.1296516E+00
          2   -1    0    0  502    0  0.00000000000E+00  0.00000000000E+00  0.11148965514E+03  0.11148965514E+03  0.00000000000E+00 0. -1.
          1   -1    0    0  501    0 -0.00000000000E+00 -0.00000000000E+00 -0.20442807730E+03  0.20442807730E+03  0.00000000000E+00 0. -1.
          2    1    1    2  501    0 -0.60243874528E+02  0.66167902381E+00 -0.15959352958E+02  0.62325461764E+02  0.00000000000E+00 0. -1.
          1    1    1    2  502    0  0.85507565263E+02  0.55679337675E+02 -0.29731301688E+02  0.10628114913E+03  0.00000000000E+00 0. -1.
         22    1    1    2    0    0  0.34993027237E+02 -0.63260463113E+01 -0.58235894924E+02  0.68234524068E+02  0.00000000000E+00 0. -1.
         22    1    1    2    0    0 -0.60256717972E+02 -0.50014970387E+02  0.10988127407E+02  0.79076597470E+02  0.00000000000E+00 0.  1.
</event>
<event>
 6    1  0.1383644E-005  0.1828893E+03  0.7818608E-02  0.1294078E+00
          2   -1    0    0  502    0  0.00000000000E+00  0.00000000000E+00  0.12223332766E+04  0.12223332766E+04  0.00000000000E+00 0.  1.
          1   -1    0    0  501    0 -0.00000000000E+00 -0.00000000000E+00 -0.73293775183E+02  0.73293775183E+02  0.00000000000E+00 0.  1.
          2    1    1    2  501    0 -0.31108180231E+01 -0.33058621157E+02  0.11252560774E+04  0.11257458813E+04  0.00000000000E+00 0.  1.
          1    1    1    2  502    0 -0.24050394846E+02  0.63804848084E+01 -0.20645058786E+02  0.32331881030E+02  0.00000000000E+00 0.  1.
         22    1    1    2    0    0 -0.12416559707E+02 -0.22177494791E+01 -0.38892250792E+02  0.40886385746E+02  0.00000000000E+00 0.  1.
         22    1    1    2    0    0  0.39577772576E+02  0.28895885827E+02  0.83320733619E+02  0.96662903695E+02  0.00000000000E+00 0.  1.
</event>
<event>
 6    1  0.1383644E-005  0.3551538E+02  0.7818608E-02  0.1574081E+00
          2   -1    0    0  502    0  0.00000000000E+00  0.00000000000E+00  0.13103061236E+03  0.13103061236E+03  0.00000000000E+00 0.  1.
          1   -1    0    0  501    0 -0.00000000000E+00 -0.00000000000E+00 -0.17753058131E+03  0.17753058131E+03  0.00000000000E+00 0.  1.
          2    1    1    2  501    0  0.16053679296E+02 -0.38464782246E+02  0.33906817402E+02  0.53730181076E+02  0.00000000000E+00 0.  1.
          1    1    1    2  502    0 -0.17640174627E+02  0.16067409296E+02 -0.12203910152E+03  0.12434982791E+03  0.00000000000E+00 0.  1.
         22    1    1    2    0    0 -0.11136135023E+02  0.17352679875E+01 -0.41955339194E+02  0.43442780127E+02  0.00000000000E+00 0.  1.
         22    1    1    2    0    0  0.12722630354E+02  0.20662104962E+02  0.83587654369E+02  0.87038404555E+02  0.00000000000E+00 0.  1.
</event>
<event>
 6    1  0.1383644E-005  0.7828423E+02  0.7818608E-02  0.1441683E+00
          2   -1    0    0  502    0  0.00000000000E+00  0.00000000000E+00  0.11816891849E+03  0.11816891849E+03  0.00000000000E+00 0.  1.
          1   -1    0    0  501    0 -0.00000000000E+00 -0.00000000000E+00 -0.18073125640E+03  0.18073125640E+03  0.00000000000E+00 0.  1.
          2    1    1    2  501    0 -0.15831359459E+02  0.27925636538E+02  0.20605376197E+02  0.38145178550E+02  0.00000000000E+00 0.  1.
          1    1    1    2  502    0  0.59522081271E+02  0.31683716836E+01 -0.10898064723E+03  0.12421633632E+03  0.00000000000E+00 0.  1.
         22    1    1    2    0    0 -0.10103344469E+02 -0.93349661575E+01 -0.49433633374E+02  0.51311823893E+02  0.00000000000E+00 0. -1.
         22    1    1    2    0    0 -0.33587377344E+02 -0.21759042064E+02  0.75246566489E+02  0.85226836130E+02  0.00000000000E+00 0.  1.
</event>
<event>
 6    1  0.1383644E-005  0.1228293E+03  0.7818608E-02  0.1252904E+00
          2   -1    0    0  502    0  0.00000000000E+00  0.00000000000E+00  0.11017108211E+04  0.11017108211E+04  0.00000000000E+00 0. -1.
          1   -1    0    0  501    0 -0.00000000000E+00 -0.00000000000E+00 -0.25492002773E+03  0.25492002773E+03  0.00000000000E+00 0. -1.
          2    1    1    2  501    0 -0.28961281230E+03  0.30537613587E+02  0.75281754425E+03  0.80718175266E+03  0.00000000000E+00 0. -1.
          1    1    1    2  502    0  0.28812057941E+03 -0.11761815867E+03 -0.74810468849E+02  0.32006890786E+03  0.00000000000E+00 0. -1.
         22    1    1    2    0    0 -0.11737341885E+02  0.50180266384E+02 -0.44878402123E+01  0.51729730703E+02  0.00000000000E+00 0. -1.
         22    1    1    2    0    0  0.13229574769E+02  0.36900278699E+02  0.17327155822E+03  0.17765045766E+03  0.00000000000E+00 0. -1.
</event>
<event>
 6    1  0.1383644E-005  0.8334525E+02  0.7818608E-02  0.1321582E+00
          2   -1    0    0  502    0  0.00000000000E+00  0.00000000000E+00  0.16026409197E+03  0.16026409197E+03  0.00000000000E+00 0. -1.
          1   -1    0    0  501    0 -0.00000000000E+00 -0.00000000000E+00 -0.66961272671E+02  0.66961272671E+02  0.00000000000E+00 0. -1.
          2    1    1    2  501    0 -0.23314568190E+02 -0.10123747086E+02 -0.70679833825E+01  0.26382110113E+02  0.00000000000E+00 0. -1.
          1    1    1    2  502    0  0.13442033710E+02  0.31990780855E+02  0.51840438644E+02  0.62382124112E+02  0.00000000000E+00 0. -1.
         22    1    1    2    0    0 -0.33201718878E+02 -0.44277058341E+02 -0.16087717203E+02  0.57633555127E+02  0.00000000000E+00 0. -1.
         22    1    1    2    0    0  0.43074253358E+02  0.22410024572E+02  0.64618081239E+02  0.80827575286E+02  0.00000000000E+00 0. -1.
</event>
<event>
 6    1  0.1383644E-005  0.5980794E+02  0.7818608E-02  0.1443694E+00
          2   -1    0    0  502    0  0.00000000000E+00  0.00000000000E+00  0.57476542658E+02  0.57476542658E+02  0.00000000000E+00 0.  1.
          1   -1    0    0  501    0 -0.00000000000E+00 -0.00000000000E+00 -0.35470050616E+03  0.35470050616E+03  0.00000000000E+00 0.  1.
          2    1    1    2  501    0  0.46706714835E+02 -0.36717375403E+02 -0.65400507505E+02  0.88356715925E+02  0.00000000000E+00 0.  1.
          1    1    1    2  502    0 -0.65238752428E+02  0.62904399935E+02 -0.12645501388E+03  0.15557611926E+03  0.00000000000E+00 0.  1.
         22    1    1    2    0    0  0.43779170902E+02 -0.31096198502E+02  0.59181050718E+01  0.54024192116E+02  0.00000000000E+00 0.  1.
         22    1    1    2    0    0 -0.25247133310E+02  0.49091739689E+01 -0.11128654719E+03  0.11422002152E+03  0.00000000000E+00 0.  1.
</event>
<event>
 6    1  0.1383644E-005  0.2877933E+02  0.7818608E-02  0.1637451E+00
          2   -1    0    0  502    0  0.00000000000E+00  0.00000000000E+00  0.97508995786E+03  0.97508995786E+03  0.00000000000E+00 0.  1.
          1   -1    0    0  501    0 -0.00000000000E+00 -0.00000000000E+00 -0.57769232887E+02  0.57769232887E+02  0.00000000000E+00 0.  1.
          2    1    1    2  501    0 -0.29827078891E+02  0.16473266818E+02  0.12790056869E+03  0.13236154512E+03  0.00000000000E+00 0.  1.
          1    1    1    2  502    0  0.25392328051E+02 -0.57301983462E+01  0.77603722448E+03  0.77647368228E+03  0.00000000000E+00 0.  1.
         22    1    1    2    0    0  0.14059445459E+02 -0.16115764289E+02 -0.52780405639E+02  0.56948723293E+02  0.00000000000E+00 0.  1.
         22    1    1    2    0    0 -0.96246946195E+01  0.53726958174E+01  0.66163337443E+02  0.67075240055E+02  0.00000000000E+00 0. -1.
</event>
<event>
 6    1  0.1383644E-005  0.5283621E+02  0.7818608E-02  0.1523430E+00
          2   -1    0    0  502    0  0.00000000000E+00  0.00000000000E+00  0.15838529813E+03  0.15838529813E+03  0.00000000000E+00 0. -1.
          1   -1    0    0  501    0 -0.00000000000E+00 -0.00000000000E+00 -0.93870917046E+02  0.93870917046E+02  0.00000000000E+00 0.  1.
          2    1    1    2  501    0 -0.23340313938E+02 -0.21317859444E+02  0.85860934605E+02  0.91494925964E+02  0.00000000000E+00 0. -1.
          1    1    1    2  502    0  0.32553982089E+02  0.17010008767E+02 -0.12735065842E+02  0.38875236978E+02  0.00000000000E+00 0.  1.
         22    1    1    2    0    0  0.13911744492E+02  0.25494572419E+01 -0.62044911031E+02  0.63636525297E+02  0.00000000000E+00 0.  1.
         22    1    1    2    0    0 -0.23125412642E+02  0.17583934348E+01  0.53433423352E+02  0.58249526937E+02  0.00000000000E+00 0. -1.
</event>
<event>
 6    1  0.1383644E-005  0.4446942E+02  0.7818608E-02  0.1481407E+00
          2   -1    0    0  502    0  0.00000000000E+00  0.00000000000E+00  0.12926006804E+03  0.12926006804E+03  0.00000000000E+00 0.  1.
          1   -1    0    0  501    0 -0.00000000000E+00 -0.00000000000E+00 -0.33217950187E+03  0.33217950187E+03  0.00000000000E+00 0.  1.
          2    1    1    2  501    0 -0.25082895563E+02 -0.60963418328E+01 -0.30743296906E+02  0.40143085808E+02  0.00000000000E+00 0.  1.
          1    1    1    2  502    0  0.11180294116E+02  0.43159215901E+02 -0.25886170447E+03  0.26267298859E+03  0.00000000000E+00 0.  1.
         22    1    1    2    0    0  0.27440811066E+02 -0.45308875479E+02  0.11475309994E+03  0.12638894831E+03  0.00000000000E+00 0.  1.
         22    1    1    2    0    0 -0.13538209618E+02  0.82460014108E+01 -0.28067532392E+02  0.32234547205E+02  0.00000000000E+00 0.  1.
</event>
<event>
 6    1  0.1383644E-005  0.6590268E+02  0.7818608E-02  0.1376647E+00
          2   -1    0    0  502    0  0.00000000000E+00  0.00000000000E+00  0.37857580719E+03  0.37857580719E+03  0.00000000000E+00 0.  1.
          1   -1    0    0  501    0 -0.00000000000E+00 -0.00000000000E+00 -0.70603628941E+02  0.70603628941E+02  0.00000000000E+00 0.  1.
          2    1    1    2  501    0 -0.15529361084E+02  0.26762979348E+02  0.23119792088E+03  0.23325929079E+03  0.00000000000E+00 0.  1.
          1    1    1    2  502    0  0.37411045007E+02 -0.25285789541E+02 -0.25425625539E+02  0.51821036995E+02  0.00000000000E+00 0.  1.
         22    1    1    2    0    0 -0.30342199097E+02  0.10334904570E+02  0.12937333884E+03  0.13328510833E+03  0.00000000000E+00 0.  1.
         22    1    1    2    0    0  0.84605151739E+01 -0.11812094377E+02 -0.27173455928E+02  0.30814000027E+02  0.00000000000E+00 0.  1.
</event>
<event>
 6    1  0.1383644E-005  0.6713401E+02  0.7818608E-02  0.1373981E+00
          2   -1    0    0  502    0  0.00000000000E+00  0.00000000000E+00  0.30497725539E+03  0.30497725539E+03  0.00000000000E+00 0. -1.
          1   -1    0    0  501    0 -0.00000000000E+00 -0.00000000000E+00 -0.19667189502E+03  0.19667189502E+03  0.00000000000E+00 0. -1.
          2    1    1    2  501    0  0.10608225389E+03 -0.78142062656E+02 -0.16998376656E+01  0.13176690022E+03  0.00000000000E+00 0. -1.
          1    1    1    2  502    0 -0.10948469600E+03  0.13303936860E+03  0.14714529583E+03  0.22657914807E+03  0.00000000000E+00 0. -1.
         22    1    1    2    0    0 -0.84641815989E+01 -0.27534056458E+02 -0.83415300332E+02  0.88248960133E+02  0.00000000000E+00 0. -1.
         22    1    1    2    0    0  0.11866623706E+02 -0.27363249483E+02  0.46275202541E+02  0.55054141993E+02  0.00000000000E+00 0. -1.
</event>
<event>
 6    1  0.1383644E-005  0.5140380E+02  0.7818608E-02  0.1527497E+00
          2   -1    0    0  502    0  0.00000000000E+00  0.00000000000E+00  0.25503185048E+03  0.25503185048E+03  0.00000000000E+00 0. -1.
          1   -1    0    0  501    0 -0.00000000000E+00 -0.00000000000E+00 -0.15027081056E+03  0.15027081056E+03  0.00000000000E+00 0.  1.
          2    1    1    2  501    0  0.23664284817E+02 -0.21843430196E+02  0.18327903519E+03  0.18608691130E+03  0.00000000000E+00 0. -1.
          1    1    1    2  502    0 -0.30796605313E+02  0.27438712184E+02 -0.84442275501E+02  0.93977719258E+02  0.00000000000E+00 0.  1.
         22    1    1    2    0    0 -0.34509816277E+00 -0.18079032596E+02  0.63410650206E+02  0.65938464282E+02  0.00000000000E+00 0.  1.
         22    1    1    2    0    0  0.74774186591E+01  0.12483750608E+02 -0.57486369976E+02  0.59299566205E+02  0.00000000000E+00 0. -1.
</event>
<event>
 6    1  0.1383644E-005  0.4468464E+02  0.7818608E-02  0.1571789E+00
          2   -1    0    0  502    0  0.00000000000E+00  0.00000000000E+00  0.31974139079E+03  0.31974139079E+03  0.00000000000E+00 0. -1.
          1   -1    0    0  501    0 -0.00000000000E+00 -0.00000000000E+00 -0.55600984575E+02  0.55600984575E+02  0.00000000000E+00 0. -1.
          2    1    1    2  501    0 -0.15519027210E+02  0.17076041296E+02  0.19384842193E+03  0.19521691032E+03  0.00000000000E+00 0. -1.
          1    1    1    2  502    0  0.23973239272E+02 -0.19965269604E+02 -0.81885814451E+01  0.32254938500E+02  0.00000000000E+00 0. -1.
         22    1    1    2    0    0  0.12535481691E+02  0.11118128595E+00 -0.32528431186E+02  0.34860428826E+02  0.00000000000E+00 0.  1.
         22    1    1    2    0    0 -0.20989693753E+02  0.27780470221E+01  0.11100899692E+03  0.11301009772E+03  0.00000000000E+00 0. -1.
</event>
<event>
 6    1  0.1383644E-005  0.1443061E+03  0.7818608E-02  0.1295827E+00
          2   -1    0    0  502    0  0.00000000000E+00  0.00000000000E+00  0.71981385283E+02  0.71981385283E+02  0.00000000000E+00 0.  1.
          1   -1    0    0  501    0 -0.00000000000E+00 -0.00000000000E+00 -0.26784386482E+03  0.26784386482E+03  0.00000000000E+00 0.  1.
          2    1    1    2  501    0  0.77571343385E+01  0.20239604242E+02 -0.86112999039E+02  0.88799005155E+02  0.00000000000E+00 0.  1.
          1    1    1    2  502    0  0.25147352778E+02 -0.78676464351E+02 -0.39408125859E+02  0.91517079161E+02  0.00000000000E+00 0.  1.
         22    1    1    2    0    0 -0.50920097458E+02  0.75560513554E+02 -0.69057537828E+01  0.91377989521E+02  0.00000000000E+00 0.  1.
         22    1    1    2    0    0  0.18015610342E+02 -0.17123653445E+02 -0.63435600858E+02  0.68131176267E+02  0.00000000000E+00 0. -1.
</event>
<event>
 6    1  0.1383644E-005  0.5969566E+02  0.7818608E-02  0.1441861E+00
          2   -1    0    0  502    0  0.00000000000E+00  0.00000000000E+00  0.13517852194E+03  0.13517852194E+03  0.00000000000E+00 0.  1.
          1   -1    0    0  501    0 -0.00000000000E+00 -0.00000000000E+00 -0.13744822076E+03  0.13744822076E+03  0.00000000000E+00 0.  1.
          2    1    1    2  501    0 -0.38131059663E+02 -0.51688435429E+01  0.23118087024E+02  0.44890317467E+02  0.00000000000E+00 0.  1.
          1    1    1    2  502    0  0.28124696965E+02  0.34338034930E+02 -0.79392199290E+02  0.90957245618E+02  0.00000000000E+00 0.  1.
         22    1    1    2    0    0 -0.96775723438E+01 -0.29388146377E+02  0.90319369265E+02  0.95472022176E+02  0.00000000000E+00 0.  1.
         22    1    1    2    0    0  0.19683935043E+02  0.21895498938E+00 -0.36314955811E+02  0.41307157438E+02  0.00000000000E+00 0.  1.
</event>
<event>
 6    1  0.1383644E-005  0.8050876E+02  0.7818608E-02  0.1344417E+00
          2   -1    0    0  502    0  0.00000000000E+00  0.00000000000E+00  0.10631809977E+03  0.10631809977E+03  0.00000000000E+00 0.  1.
          1   -1    0    0  501    0 -0.00000000000E+00 -0.00000000000E+00 -0.37214208656E+03  0.37214208656E+03  0.00000000000E+00 0. -1.
          2    1    1    2  501    0  0.65051855520E+02 -0.15649447023E+02  0.56686530963E+02  0.87692712875E+02  0.00000000000E+00 0.  1.
          1    1    1    2  502    0 -0.22257538084E+02  0.39814896842E+02 -0.21096442361E+03  0.21583931996E+03  0.00000000000E+00 0. -1.
         22    1    1    2    0    0  0.14941749651E+02 -0.75973414575E+01  0.22489409750E+02  0.28049046878E+02  0.00000000000E+00 0. -1.
         22    1    1    2    0    0 -0.57736067087E+02 -0.16568108361E+02 -0.13403550390E+03  0.14687910662E+03  0.00000000000E+00 0.  1.
</event>
<event>
 6    1  0.1383644E-005  0.3366435E+03  0.7818608E-02  0.1141644E+00
          2   -1    0    0  502    0  0.00000000000E+00  0.00000000000E+00  0.31008730520E+03  0.31008730520E+03  0.00000000000E+00 0. -1.
          1   -1    0    0  501    0 -0.00000000000E+00 -0.00000000000E+00 -0.47407131192E+03  0.47407131192E+03  0.00000000000E+00 0. -1.
          2    1    1    2  501    0  0.12558836843E+03  0.24067983390E+03  0.18888265082E+02  0.27213229740E+03  0.00000000000E+00 0. -1.
          1    1    1    2  502    0 -0.14614815033E+03 -0.27028506598E+03 -0.22107770633E+03  0.37853487418E+03  0.00000000000E+00 0. -1.
         22    1    1    2    0    0  0.19806260533E+02 -0.46866702066E+02  0.21364288653E+02  0.55183408271E+02  0.00000000000E+00 0. -1.
         22    1    1    2    0    0  0.75352136284E+00  0.76471934153E+02  0.16841145869E+02  0.78308037274E+02  0.00000000000E+00 0. -1.
</event>
<event>
 6    1  0.1383644E-005  0.4777009E+02  0.7818608E-02  0.1558022E+00
          2   -1    0    0  502    0  0.00000000000E+00  0.00000000000E+00  0.15288587714E+03  0.15288587714E+03  0.00000000000E+00 0. -1.
          1   -1    0    0  501    0 -0.00000000000E+00 -0.00000000000E+00 -0.26728548879E+03  0.26728548879E+03  0.00000000000E+00 0. -1.
          2    1    1    2  501    0 -0.13173366234E+01  0.21608441337E+02  0.63292361512E+02  0.66892324960E+02  0.00000000000E+00 0. -1.
          1    1    1    2  502    0  0.25203752178E+02 -0.29786226947E+02 -0.21489382516E+03  0.21840742783E+03  0.00000000000E+00 0. -1.
         22    1    1    2    0    0 -0.18115203239E+02  0.18930099071E+02  0.83228166713E+02  0.87255011166E+02  0.00000000000E+00 0. -1.
         22    1    1    2    0    0 -0.57712123162E+01 -0.10752313462E+02 -0.46026314722E+02  0.47616601971E+02  0.00000000000E+00 0. -1.
</event>
<event>
 6    1  0.1383644E-005  0.2465197E+02  0.7818608E-02  0.1670203E+00
          2   -1    0    0  502    0  0.00000000000E+00  0.00000000000E+00  0.22525555220E+03  0.22525555220E+03  0.00000000000E+00 0. -1.
          1   -1    0    0  501    0 -0.00000000000E+00 -0.00000000000E+00 -0.17149100800E+03  0.17149100800E+03  0.00000000000E+00 0.  1.
          2    1    1    2  501    0  0.18712201194E+02 -0.41063187243E+02  0.13803627920E+03  0.14522515690E+03  0.00000000000E+00 0. -1.
          1    1    1    2  502    0  0.56462674579E+01  0.35420248667E+02 -0.11146468174E+03  0.11709333724E+03  0.00000000000E+00 0.  1.
         22    1    1    2    0    0 -0.10632511342E+02  0.80939746464E+01 -0.52167668405E+02  0.53851911292E+02  0.00000000000E+00 0.  1.
         22    1    1    2    0    0 -0.13725957311E+02 -0.24510360700E+01  0.79360615139E+02  0.80576154768E+02  0.00000000000E+00 0. -1.
</event>
<event>
 6    1  0.1383644E-005  0.2996457E+03  0.7818608E-02  0.1209972E+00
          2   -1    0    0  502    0  0.00000000000E+00  0.00000000000E+00  0.73148029852E+03  0.73148029852E+03  0.00000000000E+00 0. -1.
          1   -1    0    0  501    0 -0.00000000000E+00 -0.00000000000E+00 -0.14708933719E+03  0.14708933719E+03  0.00000000000E+00 0. -1.
          2    1    1    2  501    0 -0.24586968486E+02  0.10170657553E+03  0.25515624741E+03  0.27577791268E+03  0.00000000000E+00 0. -1.
          1    1    1    2  502    0 -0.10014155939E+03 -0.23005577659E+03  0.63660137165E+02  0.25885634109E+03  0.00000000000E+00 0. -1.
         22    1    1    2    0    0  0.12545094458E+03  0.14366902371E+03  0.26743974993E+03  0.32848553653E+03  0.00000000000E+00 0. -1.
         22    1    1    2    0    0 -0.72241670710E+00 -0.15319822663E+02 -0.18651731689E+01  0.15449845412E+02  0.00000000000E+00 0.  1.
</event>
<event>
 6    1  0.1383644E-005  0.1174372E+03  0.7818608E-02  0.1313516E+00
          2   -1    0    0  502    0  0.00000000000E+00  0.00000000000E+00  0.13783082553E+04  0.13783082553E+04  0.00000000000E+00 0. -1.
          1   -1    0    0  501    0 -0.00000000000E+00 -0.00000000000E+00 -0.48603077860E+02  0.48603077860E+02  0.00000000000E+00 0.  1.
          2    1    1    2  501    0 -0.17585908107E+03  0.41756379564E+02  0.77354296085E+03  0.79437945839E+03  0.00000000000E+00 0. -1.
          1    1    1    2  502    0  0.90410844686E+02 -0.97258818638E+02  0.18448978956E+03  0.22731009896E+03  0.00000000000E+00 0.  1.
         22    1    1    2    0    0  0.61909551463E+02  0.67223247774E+02  0.36738285145E+03  0.37857881233E+03  0.00000000000E+00 0.  1.
         22    1    1    2    0    0  0.23538684926E+02 -0.11720808700E+02  0.42895755901E+01  0.26642963487E+02  0.00000000000E+00 0. -1.
</event>
<event>
 6    1  0.1383644E-005  0.9045713E+02  0.7818608E-02  0.1421764E+00
          2   -1    0    0  502    0  0.00000000000E+00  0.00000000000E+00  0.81534128681E+03  0.81534128681E+03  0.00000000000E+00 0.  1.
          1   -1    0    0  501    0 -0.00000000000E+00 -0.00000000000E+00 -0.56318786927E+02  0.56318786927E+02  0.00000000000E+00 0.  1.
          2    1    1    2  501    0 -0.72632040634E+01 -0.22911482096E+02  0.47350249746E+03  0.47411212308E+03  0.00000000000E+00 0.  1.
          1    1    1    2  502    0 -0.38160615278E+02  0.27227143935E+02 -0.29942467288E+02  0.55624646269E+02  0.00000000000E+00 0.  1.
         22    1    1    2    0    0 -0.87049323613E+01 -0.83332819706E+01 -0.76564694557E+01  0.14277288270E+02  0.00000000000E+00 0. -1.
         22    1    1    2    0    0  0.54128751703E+02  0.40176201310E+01  0.32311893916E+03  0.32764601611E+03  0.00000000000E+00 0.  1.
</event>
<event>
 6    1  0.1383644E-005  0.7656097E+02  0.7818608E-02  0.1431396E+00
          2   -1    0    0  502    0  0.00000000000E+00  0.00000000000E+00  0.31626864821E+03  0.31626864821E+03  0.00000000000E+00 0.  1.
          1   -1    0    0  501    0 -0.00000000000E+00 -0.00000000000E+00 -0.16662455346E+03  0.16662455346E+03  0.00000000000E+00 0.  1.
          2    1    1    2  501    0  0.45670479090E+02  0.10843216632E+02  0.18506998345E+03  0.19093000493E+03  0.00000000000E+00 0.  1.
          1    1    1    2  502    0 -0.70102261842E+02  0.18954900565E+02 -0.11863268834E+03  0.13909468039E+03  0.00000000000E+00 0.  1.
         22    1    1    2    0    0  0.26776166996E+02 -0.12796247935E+02  0.11390003814E+03  0.11770270077E+03  0.00000000000E+00 0. -1.
         22    1    1    2    0    0 -0.23443842448E+01 -0.17001869262E+02 -0.30693238501E+02  0.35165815582E+02  0.00000000000E+00 0. -1.
</event>
<event>
 6    1  0.1383644E-005  0.1110739E+03  0.7818608E-02  0.1284249E+00
          2   -1    0    0  502    0  0.00000000000E+00  0.00000000000E+00  0.12747384373E+03  0.12747384373E+03  0.00000000000E+00 0. -1.
          1   -1    0    0  501    0 -0.00000000000E+00 -0.00000000000E+00 -0.16439134416E+03  0.16439134416E+03  0.00000000000E+00 0. -1.
          2    1    1    2  501    0 -0.27758800628E+02  0.41101813391E+02 -0.21697427817E+02  0.54135833329E+02  0.00000000000E+00 0. -1.
          1    1    1    2  502    0  0.57068867081E+02 -0.22473123836E+02 -0.70052282599E+02  0.93108641823E+02  0.00000000000E+00 0. -1.
         22    1    1    2    0    0 -0.26582886117E+02  0.49019496644E+02  0.52940422060E+02  0.76891151464E+02  0.00000000000E+00 0. -1.
         22    1    1    2    0    0 -0.27271803362E+01 -0.67648186199E+02  0.18917879317E+01  0.67729561272E+02  0.00000000000E+00 0. -1.
</event>
<event>
 6    1  0.1383644E-005  0.5455045E+02  0.7818608E-02  0.1474290E+00
          2   -1    0    0  502    0  0.00000000000E+00  0.00000000000E+00  0.39019297609E+02  0.39019297609E+02  0.00000000000E+00 0.  1.
          1   -1    0    0  501    0 -0.00000000000E+00 -0.00000000000E+00 -0.28725045525E+03  0.28725045525E+03  0.00000000000E+00 0.  1.
          2    1    1    2  501    0 -0.20639351324E+02  0.29601286198E+01 -0.88521319454E+01  0.22651830489E+02  0.00000000000E+00 0.  1.
          1    1    1    2  502    0  0.86056401154E+01  0.34606599131E+02 -0.11151677327E+03  0.11707973550E+03  0.00000000000E+00 0.  1.
         22    1    1    2    0    0 -0.96168145830E+01 -0.24516118240E+02  0.22149625518E+02  0.34411176772E+02  0.00000000000E+00 0.  1.
         22    1    1    2    0    0  0.21650525791E+02 -0.13050609512E+02 -0.15001187794E+03  0.15212701009E+03  0.00000000000E+00 0.  1.
</event>
<event>
 6    1  0.1383644E-005  0.1269147E+03  0.7818608E-02  0.1297053E+00
          2   -1    0    0  502    0  0.00000000000E+00  0.00000000000E+00  0.33522825062E+03  0.33522825062E+03  0.00000000000E+00 0.  1.
          1   -1    0    0  501    0 -0.00000000000E+00 -0.00000000000E+00 -0.97127999330E+02  0.97127999330E+02  0.00000000000E+00 0.  1.
          2    1    1    2  501    0 -0.95113370266E+02 -0.19764137674E+02  0.16160753588E+03  0.18855813426E+03  0.00000000000E+00 0.  1.
          1    1    1    2  502    0  0.10238293809E+03  0.11358406326E+02  0.12128477937E+02  0.10372260787E+03  0.00000000000E+00 0.  1.
         22    1    1    2    0    0 -0.30933023647E+02 -0.18346247363E+02  0.89463879308E+02  0.96422105583E+02  0.00000000000E+00 0.  1.
         22    1    1    2    0    0  0.23663455820E+02  0.26751978710E+02 -0.25099641838E+02  0.43653402235E+02  0.00000000000E+00 0.  1.
</event>
<event>
 6    1  0.1383644E-005  0.1645821E+03  0.7818608E-02  0.1221141E+00
          2   -1    0    0  502    0  0.00000000000E+00  0.00000000000E+00  0.71662004014E+03  0.71662004014E+03  0.00000000000E+00 0. -1.
          1   -1    0    0  501    0 -0.00000000000E+00 -0.00000000000E+00 -0.24573856113E+03  0.24573856113E+03  0.00000000000E+00 0. -1.
          2    1    1    2  501    0  0.75240032060E+02 -0.29996646896E+03  0.30283417689E+03  0.43283886565E+03  0.00000000000E+00 0. -1.
          1    1    1    2  502    0 -0.78571870344E+01  0.78516180018E+02  0.24210277681E+03  0.25463754722E+03  0.00000000000E+00 0. -1.
         22    1    1    2    0    0 -0.69145094253E+02  0.23711228201E+03 -0.77277364180E+02  0.25879541989E+03  0.00000000000E+00 0. -1.
         22    1    1    2    0    0  0.17622492273E+01 -0.15661993071E+02  0.32218894784E+01  0.16086768511E+02  0.00000000000E+00 0. -1.
</event>
<event>
 6    1  0.1383644E-005  0.8275303E+02  0.7818608E-02  0.1444072E+00
          2   -1    0    0  502    0  0.00000000000E+00  0.00000000000E+00  0.29150290861E+03  0.29150290861E+03  0.00000000000E+00 0.  1.
          1   -1    0    0  501    0 -0.00000000000E+00 -0.00000000000E+00 -0.11295720616E+03  0.11295720616E+03  0.00000000000E+00 0.  1.
          2    1    1    2  501    0  0.38122314749E+02  0.28339133964E+02  0.14104198398E+03  0.14882627000E+03  0.00000000000E+00 0.  1.
          1    1    1    2  502    0 -0.61616577130E+02 -0.59528593836E+02 -0.51268668772E+02  0.99843539896E+02  0.00000000000E+00 0.  1.
         22    1    1    2    0    0  0.12312725806E+02  0.32321619837E+02  0.11879783824E+03  0.12373041945E+03  0.00000000000E+00 0.  1.
         22    1    1    2    0    0  0.11181536576E+02 -0.11321599652E+01 -0.30025450998E+02  0.32059885433E+02  0.00000000000E+00 0.  1.
</event>
<event>
 6    1  0.1383644E-005  0.1435142E+03  0.7818608E-02  0.1318934E+00
          2   -1    0    0  502    0  0.00000000000E+00  0.00000000000E+00  0.35992081632E+03  0.35992081632E+03  0.00000000000E+00 0. -1.
          1   -1    0    0  501    0 -0.00000000000E+00 -0.00000000000E+00 -0.56887027836E+02  0.56887027836E+02  0.00000000000E+00 0. -1.
          2    1    1    2  501    0  0.18643802128E+02 -0.42841283607E+02  0.55550155056E+02  0.72586408271E+02  0.00000000000E+00 0. -1.
          1    1    1    2  502    0 -0.76793698297E+02 -0.20755088900E+02  0.49610611686E+02  0.93751045889E+02  0.00000000000E+00 0. -1.
         22    1    1    2    0    0  0.74712775155E+02  0.62752610027E+02  0.20889460049E+03  0.23055767814E+03  0.00000000000E+00 0. -1.
         22    1    1    2    0    0 -0.16562878986E+02  0.84376248025E+00 -0.11021578746E+02  0.19912711856E+02  0.00000000000E+00 0.  1.
</event>
<event>
 6    1  0.1383644E-005  0.9977181E+02  0.7818608E-02  0.1282382E+00
          2   -1    0    0  502    0  0.00000000000E+00  0.00000000000E+00  0.35841680346E+03  0.35841680346E+03  0.00000000000E+00 0.  1.
          1   -1    0    0  501    0 -0.00000000000E+00 -0.00000000000E+00 -0.23908386631E+03  0.23908386631E+03  0.00000000000E+00 0.  1.
          2    1    1    2  501    0 -0.57276340157E+02 -0.60901715436E+02  0.26274992632E+03  0.27573016132E+03  0.00000000000E+00 0.  1.
          1    1    1    2  502    0  0.51954052088E+02  0.62324634614E+02 -0.17359399392E+03  0.19162061040E+03  0.00000000000E+00 0.  1.
         22    1    1    2    0    0 -0.15770964726E+01 -0.14301350790E+02  0.78427285654E+02  0.79736158691E+02  0.00000000000E+00 0.  1.
         22    1    1    2    0    0  0.68993845417E+01  0.12878431613E+02 -0.48250280909E+02  0.50413739354E+02  0.00000000000E+00 0.  1.
</event>
<event>
 6    1  0.1383644E-005  0.2835145E+02  0.7818608E-02  0.1648739E+00
          2   -1    0    0  502    0  0.00000000000E+00  0.00000000000E+00  0.10168256422E+03  0.10168256422E+03  0.00000000000E+00 0. -1.
          1   -1    0    0  501    0 -0.00000000000E+00 -0.00000000000E+00 -0.92425571654E+02  0.92425571654E+02  0.00000000000E+00 0. -1.
          2    1    1    2  501    0 -0.12204938084E+02  0.33853191551E+02  0.42964531630E-01  0.35986121460E+02  0.00000000000E+00 0. -1.
          1    1    1    2  502    0  0.55627988937E+00 -0.31618421611E+02  0.43332979632E+01  0.31918826791E+02  0.00000000000E+00 0. -1.
         22    1    1    2    0    0  0.23298247681E+02  0.99023505527E+01 -0.56844352027E+02  0.62226563852E+02  0.00000000000E+00 0. -1.
         22    1    1    2    0    0 -0.11649589487E+02 -0.12137120493E+02  0.61725082098E+02  0.63976623770E+02  0.00000000000E+00 0. -1.
</event>
<event>
 6    1  0.1383644E-005  0.2197878E+02  0.7818608E-02  0.1724486E+00
          2   -1    0    0  502    0  0.00000000000E+00  0.00000000000E+00  0.98518991750E+02  0.98518991750E+02  0.00000000000E+00 0. -1.
          1   -1    0    0  501    0 -0.00000000000E+00 -0.00000000000E+00 -0.40343268253E+03  0.40343268253E+03  0.00000000000E+00 0. -1.
          2    1    1    2  501    0 -0.20476240963E+02  0.91573310295E+01 -0.13630527492E+02  0.26247370064E+02  0.00000000000E+00 0. -1.
          1    1    1    2  502    0  0.28424460303E+01  0.26904394491E+02 -0.33872531483E+03  0.33980400947E+03  0.00000000000E+00 0. -1.
         22    1    1    2    0    0  0.12818538661E+02 -0.18061869646E+02  0.88278177047E+02  0.91014189065E+02  0.00000000000E+00 0. -1.
         22    1    1    2    0    0  0.48152562723E+01 -0.17999855874E+02 -0.40836025500E+02  0.44886105680E+02  0.00000000000E+00 0. -1.
</event>
<event>
 6    1  0.1383644E-005  0.5507850E+02  0.7818608E-02  0.1424001E+00
          2   -1    0    0  502    0  0.00000000000E+00  0.00000000000E+00  0.26464747426E+03  0.26464747426E+03  0.00000000000E+00 0.  1.
          1   -1    0    0  501    0 -0.00000000000E+00 -0.00000000000E+00 -0.19118891963E+03  0.19118891963E+03  0.00000000000E+00 0.  1.
          2    1    1    2  501    0 -0.30898905356E+02 -0.11789762855E+02  0.19569223593E+03  0.19846710574E+03  0.00000000000E+00 0.  1.
          1    1    1    2  502    0  0.39722591652E+02  0.92690228635E+01 -0.13044689455E+03  0.13667549660E+03  0.00000000000E+00 0.  1.
         22    1    1    2    0    0  0.45202248708E+01  0.13386605663E+02 -0.54169117950E+02  0.55981487864E+02  0.00000000000E+00 0.  1.
         22    1    1    2    0    0 -0.13343911167E+02 -0.10865865671E+02  0.62382331202E+02  0.64712303685E+02  0.00000000000E+00 0.  1.
</event>
<event>
 6    1  0.1383644E-005  0.1490164E+03  0.7818608E-02  0.1281693E+00
          2   -1    0    0  502    0  0.00000000000E+00  0.00000000000E+00  0.36322937755E+03  0.36322937755E+03  0.00000000000E+00 0. -1.
          1   -1    0    0  501    0 -0.00000000000E+00 -0.00000000000E+00 -0.98606504685E+02  0.98606504685E+02  0.00000000000E+00 0. -1.
          2    1    1    2  501    0  0.39136060931E+02 -0.24110174601E+02  0.11092381852E+02  0.47286073211E+02  0.00000000000E+00 0. -1.
          1    1    1    2  502    0 -0.61358210687E+02  0.11549741914E+03  0.21351312692E+03  0.25038438293E+03  0.00000000000E+00 0. -1.
         22    1    1    2    0    0 -0.92846927356E+01  0.27925805514E+02 -0.98991570996E+01  0.31049145626E+02  0.00000000000E+00 0. -1.
         22    1    1    2    0    0  0.31506842491E+02 -0.11931305006E+03  0.49916521192E+02  0.13311628047E+03  0.00000000000E+00 0. -1.
</event>
<event>
 6    1  0.1383644E-005  0.8505981E+02  0.7818608E-02  0.1401715E+00
          2   -1    0    0  502    0  0.00000000000E+00  0.00000000000E+00  0.52099762843E+03  0.52099762843E+03  0.00000000000E+00 0.  1.
          1   -1    0    0  501    0 -0.00000000000E+00 -0.00000000000E+00 -0.15053012357E+03  0.15053012357E+03  0.00000000000E+00 0.  1.
          2    1    1    2  501    0 -0.54332785832E+02 -0.37755226834E+02  0.40442899462E+03  0.40980522259E+03  0.00000000000E+00 0.  1.
          1    1    1    2  502    0  0.73358648602E+02  0.53842165375E+02 -0.87737582789E+02  0.12640551226E+03  0.00000000000E+00 0.  1.
         22    1    1    2    0    0 -0.17939085739E+02  0.36854660419E+01  0.91176603227E+02  0.92997668966E+02  0.00000000000E+00 0.  1.
         22    1    1    2    0    0 -0.10867770318E+01 -0.19772404583E+02 -0.37400510202E+02  0.42319348184E+02  0.00000000000E+00 0. -1.
</event>
<event>
 6    1  0.1383644E-005  0.3714882E+02  0.7818608E-02  0.1590516E+00
          2   -1    0    0  502    0  0.00000000000E+00  0.00000000000E+00  0.61314979244E+02  0.61314979244E+02  0.00000000000E+00 0. -1.
          1   -1    0    0  501    0 -0.00000000000E+00 -0.00000000000E+00 -0.47870612909E+03  0.47870612909E+03  0.00000000000E+00 0. -1.
          2    1    1    2  501    0 -0.25326442291E+02  0.32997014291E+02  0.17136596866E+02  0.44987715916E+02  0.00000000000E+00 0. -1.
          1    1    1    2  502    0  0.15727463964E+02 -0.61770407738E+02 -0.30135498431E+03  0.30802234167E+03  0.00000000000E+00 0. -1.
         22    1    1    2    0    0 -0.78742566416E+01  0.93328528854E+01  0.24400029149E+02  0.27284931429E+02  0.00000000000E+00 0.  1.
         22    1    1    2    0    0  0.17473234968E+02  0.19440540562E+02 -0.15757279155E+03  0.15972611933E+03  0.00000000000E+00 0.  1.
</event>
<event>
 6    1  0.1383644E-005  0.3134311E+03  0.7818608E-02  0.1218449E+00
          2   -1    0    0  502    0  0.00000000000E+00  0.00000000000E+00  0.16010149813E+03  0.16010149813E+03  0.00000000000E+00 0. -1.
          1   -1    0    0  501    0 -0.00000000000E+00 -0.00000000000E+00 -0.56171357980E+03  0.56171357980E+03  0.00000000000E+00 0. -1.
          2    1    1    2  501    0  0.58090159547E+02  0.64004586594E+02 -0.15610211143E+03  0.17843464612E+03  0.00000000000E+00 0. -1.
          1    1    1    2  502    0 -0.20680173507E+03 -0.14175347488E+03 -0.21413582278E+03  0.32971981418E+03  0.00000000000E+00 0. -1.
         22    1    1    2    0    0  0.13762862191E+03  0.79338661252E+02  0.20875343469E+02  0.16022496904E+03  0.00000000000E+00 0. -1.
         22    1    1    2    0    0  0.11082953608E+02 -0.15897729674E+01 -0.52249490927E+02  0.53435648596E+02  0.00000000000E+00 0. -1.
</event>
<event>
 6    1  0.1383644E-005  0.7138828E+02  0.7818608E-02  0.1355795E+00
          2   -1    0    0  502    0  0.00000000000E+00  0.00000000000E+00  0.25880983355E+03  0.25880983355E+03  0.00000000000E+00 0.  1.
          1   -1    0    0  501    0 -0.00000000000E+00 -0.00000000000E+00 -0.14056750184E+03  0.14056750184E+03  0.00000000000E+00 0. -1.
          2    1    1    2  501    0  0.26152226991E+02 -0.34069418139E+02  0.12088726334E+03  0.12829027503E+03  0.00000000000E+00 0.  1.
          1    1    1    2  502    0 -0.37218237911E+02  0.46055530855E+02 -0.95634262518E+02  0.11248209334E+03  0.00000000000E+00 0. -1.
         22    1    1    2    0    0  0.20022454230E+02 -0.17349776694E+02  0.12352488934E+03  0.12633412726E+03  0.00000000000E+00 0.  1.
         22    1    1    2    0    0 -0.89564433102E+01  0.53636639783E+01 -0.30535558460E+02  0.32270839755E+02  0.00000000000E+00 0.  1.
</event>
<event>
 6    1  0.1383644E-005  0.3253991E+02  0.7818608E-02  0.1630459E+00
          2   -1    0    0  502    0  0.00000000000E+00  0.00000000000E+00  0.29381340953E+03  0.29381340953E+03  0.00000000000E+00 0. -1.
          1   -1    0    0  501    0 -0.00000000000E+00 -0.00000000000E+00 -0.86399495448E+02  0.86399495448E+02  0.00000000000E+00 0. -1.
          2    1    1    2  501    0 -0.79467266319E+01 -0.33251964171E+02  0.92897535819E+02  0.98988866781E+02  0.00000000000E+00 0. -1.
          1    1    1    2  502    0 -0.19808783977E+02  0.33012157598E+02 -0.56302498515E+02  0.68206757810E+02  0.00000000000E+00 0. -1.
         22    1    1    2    0    0 -0.58712539617E+01 -0.14923802130E+02 -0.15963096074E+02  0.22627680601E+02  0.00000000000E+00 0.  1.
         22    1    1    2    0    0  0.33626764571E+02  0.15163608703E+02  0.18678197286E+03  0.19038959979E+03  0.00000000000E+00 0. -1.
</event>
<event>
 6    1  0.1717877E-005  0.1406000E+03  0.7818608E-02  0.1215218E+00
          2   -1    0    0  502    0  0.00000000000E+00  0.00000000000E+00  0.40858900889E+03  0.40858900889E+03  0.00000000000E+00 0. -1.
          1   -1    0    0  501    0 -0.00000000000E+00 -0.00000000000E+00 -0.31613233098E+03  0.31613233098E+03  0.00000000000E+00 0.  1.
          2    1    1    2  501    0 -0.58167219637E+02 -0.10639458725E+03  0.33686652427E+03  0.35802554212E+03  0.00000000000E+00 0. -1.
          1    1    1    2  502    0  0.37165015039E+02  0.10111475138E+03 -0.20180163637E+03  0.22875605288E+03  0.00000000000E+00 0.  1.
         22    1    1    2    0    0 -0.73341226194E+01 -0.79993139604E+01  0.44278676194E+02  0.45589248117E+02  0.00000000000E+00 0. -1.
         22    1    1    2    0    0  0.28336327217E+02  0.13279149831E+02 -0.86886886179E+02  0.92350496752E+02  0.00000000000E+00 0. -1.
</event>
<event>
 6    1  0.1383644E-005  0.5762207E+02  0.7818608E-02  0.1491296E+00
          2   -1    0    0  502    0  0.00000000000E+00  0.00000000000E+00  0.58708662027E+03  0.58708662027E+03  0.00000000000E+00 0. -1.
          1   -1    0    0  501    0 -0.00000000000E+00 -0.00000000000E+00 -0.42579045083E+02  0.42579045083E+02  0.00000000000E+00 0.  1.
          2    1    1    2  501    0 -0.28608954427E+01 -0.31350381137E+02  0.31259009170E+03  0.31417128536E+03  0.00000000000E+00 0. -1.
          1    1    1    2  502    0  0.13310285013E+02  0.53281331061E+02  0.16145075409E+03  0.17053565587E+03  0.00000000000E+00 0.  1.
         22    1    1    2    0    0  0.64279120265E+01 -0.21466285827E+02  0.10454918027E+03  0.10692357353E+03  0.00000000000E+00 0.  1.
         22    1    1    2    0    0 -0.16877301597E+02 -0.46466409705E+00 -0.34082450881E+02  0.38035150584E+02  0.00000000000E+00 0.  1.
</event>
<event>
 6    1  0.1383644E-005  0.4560992E+02  0.7818608E-02  0.1483081E+00
          2   -1    0    0  502    0  0.00000000000E+00  0.00000000000E+00  0.90273208243E+02  0.90273208243E+02  0.00000000000E+00 0. -1.
          1   -1    0    0  501    0 -0.00000000000E+00 -0.00000000000E+00 -0.30180051913E+03  0.30180051913E+03  0.00000000000E+00 0. -1.
          2    1    1    2  501    0  0.67008559023E+02  0.84820272178E+01  0.14401614990E+02  0.69061554300E+02  0.00000000000E+00 0. -1.
          1    1    1    2  502    0 -0.91969426837E+02  0.26137131276E+02 -0.12923811913E+03  0.16076074316E+03  0.00000000000E+00 0. -1.
         22    1    1    2    0    0  0.64442036806E+01 -0.24209419282E+02 -0.12464745437E+03  0.12714012594E+03  0.00000000000E+00 0. -1.
         22    1    1    2    0    0  0.18516664133E+02 -0.10409739212E+02  0.27956647619E+02  0.35111303980E+02  0.00000000000E+00 0. -1.
</event>
<event>
 6    1  0.1383644E-005  0.3592678E+02  0.7818608E-02  0.1567495E+00
          2   -1    0    0  502    0  0.00000000000E+00  0.00000000000E+00  0.69313775636E+02  0.69313775636E+02  0.00000000000E+00 0.  1.
          1   -1    0    0  501    0 -0.00000000000E+00 -0.00000000000E+00 -0.25126188993E+03  0.25126188993E+03  0.00000000000E+00 0.  1.
          2    1    1    2  501    0 -0.18215952542E+02  0.14213007843E+02  0.32803333082E+02  0.40123424333E+02  0.00000000000E+00 0.  1.
          1    1    1    2  502    0  0.32571515381E+02 -0.19424967205E+01 -0.10376511138E+03  0.10877442368E+03  0.00000000000E+00 0.  1.
         22    1    1    2    0    0 -0.53730687394E+01  0.11543723342E+02  0.27799857413E+02  0.30577107261E+02  0.00000000000E+00 0.  1.
         22    1    1    2    0    0 -0.89824941004E+01 -0.23814234465E+02 -0.13878619341E+03  0.14110071029E+03  0.00000000000E+00 0.  1.
</event>
<event>
 6    1  0.1383644E-005  0.9725469E+02  0.7818608E-02  0.1302249E+00
          2   -1    0    0  502    0  0.00000000000E+00  0.00000000000E+00  0.67452336678E+03  0.67452336678E+03  0.00000000000E+00 0. -1.
          1   -1    0    0  501    0 -0.00000000000E+00 -0.00000000000E+00 -0.84802044312E+02  0.84802044312E+02  0.00000000000E+00 0.  1.
          2    1    1    2  501    0 -0.44856266324E+02  0.93749244413E+02  0.53865500341E+03  0.54858929825E+03  0.00000000000E+00 0. -1.
          1    1    1    2  502    0  0.32060379429E+02 -0.37271615415E+02  0.57016380037E+02  0.75285515455E+02  0.00000000000E+00 0.  1.
         22    1    1    2    0    0  0.63752093602E+01 -0.71836282680E+02 -0.50400903023E+02  0.87984918192E+02  0.00000000000E+00 0.  1.
         22    1    1    2    0    0  0.64206775348E+01  0.15358653682E+02  0.44450842046E+02  0.47465679196E+02  0.00000000000E+00 0. -1.
</event>
<event>
 6    1  0.1383644E-005  0.9975921E+02  0.7818608E-02  0.1406340E+00
          2   -1    0    0  502    0  0.00000000000E+00  0.00000000000E+00  0.23853617619E+03  0.23853617619E+03  0.00000000000E+00 0.  1.
          1   -1    0    0  501    0 -0.00000000000E+00 -0.00000000000E+00 -0.86588446253E+02  0.86588446253E+02  0.00000000000E+00 0. -1.
          2    1    1    2  501    0  0.30230411466E+02  0.21500783612E+01  0.17350302353E+02  0.34921821346E+02  0.00000000000E+00 0.  1.
          1    1    1    2  502    0 -0.58862644724E+02 -0.27494360604E+02 -0.38831624170E+02  0.75687818337E+02  0.00000000000E+00 0. -1.
         22    1    1    2    0    0 -0.11413230924E+02  0.28903460322E-01 -0.15774337495E+02  0.19470295297E+02  0.00000000000E+00 0.  1.
         22    1    1    2    0    0  0.40045464182E+02  0.25315378783E+02  0.18920338925E+03  0.19504468747E+03  0.00000000000E+00 0.  1.
</event>
<event>
 6    1  0.1383644E-005  0.4420089E+02  0.7818608E-02  0.1522366E+00
          2   -1    0    0  502    0  0.00000000000E+00  0.00000000000E+00  0.14757932227E+03  0.14757932227E+03  0.00000000000E+00 0.  1.
          1   -1    0    0  501    0 -0.00000000000E+00 -0.00000000000E+00 -0.52642860011E+02  0.52642860011E+02  0.00000000000E+00 0.  1.
          2    1    1    2  501    0 -0.15886374388E+02  0.15117683771E+02  0.30179937868E+02  0.37306164417E+02  0.00000000000E+00 0.  1.
          1    1    1    2  502    0  0.19079518223E+02 -0.65535531129E+01 -0.38942322926E+01  0.20546097419E+02  0.00000000000E+00 0.  1.
         22    1    1    2    0    0 -0.13347900303E+02  0.13735249980E+02  0.10043078900E+03  0.10224073021E+03  0.00000000000E+00 0.  1.
         22    1    1    2    0    0  0.10154756468E+02 -0.22299380638E+02 -0.31780032311E+02  0.40129190242E+02  0.00000000000E+00 0.  1.
</event>
<event>
 6    1  0.1383644E-005  0.5559891E+02  0.7818608E-02  0.1533333E+00
          2   -1    0    0  502    0  0.00000000000E+00  0.00000000000E+00  0.32686979295E+03  0.32686979295E+03  0.00000000000E+00 0.  1.
          1   -1    0    0  501    0 -0.00000000000E+00 -0.00000000000E+00 -0.48236610720E+02  0.48236610720E+02  0.00000000000E+00 0.  1.
          2    1    1    2  501    0  0.29346287352E+02  0.14283322586E+02  0.13333017122E+03  0.13726672008E+03  0.00000000000E+00 0.  1.
          1    1    1    2  502    0 -0.30227647280E+02 -0.42159422719E+02  0.62859415912E+02  0.81501127310E+02  0.00000000000E+00 0.  1.
         22    1    1    2    0    0  0.90278550041E+01  0.21018908918E+02  0.11749718365E+03  0.11970332018E+03  0.00000000000E+00 0. -1.
         22    1    1    2    0    0 -0.81464950766E+01  0.68571912146E+01 -0.35053588548E+02  0.36635236092E+02  0.00000000000E+00 0.  1.
</event>
<event>
 6    1  0.1383644E-005  0.2915954E+03  0.7818608E-02  0.1185122E+00
          2   -1    0    0  502    0  0.00000000000E+00  0.00000000000E+00  0.19535058656E+04  0.19535058656E+04  0.00000000000E+00 0.  1.
          1   -1    0    0  501    0 -0.00000000000E+00 -0.00000000000E+00 -0.52796058819E+02  0.52796058819E+02  0.00000000000E+00 0.  1.
          2    1    1    2  501    0  0.15710011099E+02 -0.22340438282E+03  0.60247211030E+03  0.64275109211E+03  0.00000000000E+00 0.  1.
          1    1    1    2  502    0 -0.37325815006E+02  0.27171158479E+03  0.10118891913E+04  0.10483988445E+04  0.00000000000E+00 0.  1.
         22    1    1    2    0    0  0.38523441607E+02 -0.71395601869E+02  0.27057593192E+03  0.28247605642E+03  0.00000000000E+00 0.  1.
         22    1    1    2    0    0 -0.16907637699E+02  0.23088399902E+02  0.15772573280E+02  0.32675931363E+02  0.00000000000E+00 0.  1.
</event>
<event>
 6    1  0.1383644E-005  0.2041284E+03  0.7818608E-02  0.1217380E+00
          2   -1    0    0  502    0  0.00000000000E+00  0.00000000000E+00  0.39914012145E+03  0.39914012145E+03  0.00000000000E+00 0.  1.
          1   -1    0    0  501    0 -0.00000000000E+00 -0.00000000000E+00 -0.16817736053E+03  0.16817736053E+03  0.00000000000E+00 0.  1.
          2    1    1    2  501    0  0.55730039669E+02  0.97783398542E+02  0.29931880887E+02  0.11646178706E+03  0.00000000000E+00 0.  1.
          1    1    1    2  502    0  0.61500785859E+01 -0.15121125761E+03  0.24974398165E+03  0.29201836289E+03  0.00000000000E+00 0.  1.
         22    1    1    2    0    0 -0.55830890145E+02  0.94438954739E+02 -0.36516875976E+02  0.11562563166E+03  0.00000000000E+00 0. -1.
         22    1    1    2    0    0 -0.60492281096E+01 -0.41011095670E+02 -0.12196225643E+02  0.43211700369E+02  0.00000000000E+00 0. -1.
</event>
<event>
 6    1  0.1383644E-005  0.1570380E+03  0.7818608E-02  0.1254632E+00
          2   -1    0    0  502    0  0.00000000000E+00  0.00000000000E+00  0.27080932825E+03  0.27080932825E+03  0.00000000000E+00 0. -1.
          1   -1    0    0  501    0 -0.00000000000E+00 -0.00000000000E+00 -0.62900868405E+03  0.62900868405E+03  0.00000000000E+00 0. -1.
          2    1    1    2  501    0  0.99426010541E+02  0.33793669463E+03 -0.12296889154E+03  0.37310600294E+03  0.00000000000E+00 0. -1.
          1    1    1    2  502    0 -0.11063755021E+02 -0.31332653135E+03 -0.15301815499E+03  0.34887028776E+03  0.00000000000E+00 0. -1.
         22    1    1    2    0    0 -0.19910861224E+02  0.42527403140E+01 -0.99506071512E+02  0.10156764476E+03  0.00000000000E+00 0. -1.
         22    1    1    2    0    0 -0.68451394296E+02 -0.28862903588E+02  0.17293762231E+02  0.76274076832E+02  0.00000000000E+00 0.  1.
</event>
<event>
 6    1  0.1383644E-005  0.3588784E+02  0.7818608E-02  0.1593495E+00
          2   -1    0    0  502    0  0.00000000000E+00  0.00000000000E+00  0.10654527887E+03  0.10654527887E+03  0.00000000000E+00 0.  1.
          1   -1    0    0  501    0 -0.00000000000E+00 -0.00000000000E+00 -0.28366320429E+03  0.28366320429E+03  0.00000000000E+00 0.  1.
          2    1    1    2  501    0 -0.51957063312E+02 -0.35343940960E+01  0.52568206793E+02  0.73996248115E+02  0.00000000000E+00 0.  1.
          1    1    1    2  502    0  0.48676854309E+02  0.15254164162E+02 -0.16913153696E+03  0.17665673626E+03  0.00000000000E+00 0.  1.
         22    1    1    2    0    0 -0.94092184839E+01  0.59825044935E+01  0.37494035357E+02  0.39116830647E+02  0.00000000000E+00 0.  1.
         22    1    1    2    0    0  0.12689427487E+02 -0.17702274559E+02 -0.98048630601E+02  0.10043866814E+03  0.00000000000E+00 0. -1.
</event>
<event>
 6    1  0.1383644E-005  0.3747934E+02  0.7818608E-02  0.1527956E+00
          2   -1    0    0  502    0  0.00000000000E+00  0.00000000000E+00  0.64946667771E+02  0.64946667771E+02  0.00000000000E+00 0. -1.
          1   -1    0    0  501    0 -0.00000000000E+00 -0.00000000000E+00 -0.75633414271E+03  0.75633414271E+03  0.00000000000E+00 0.  1.
          2    1    1    2  501    0 -0.68877479827E+02  0.30901422299E+02 -0.16970888483E+01  0.75510828614E+02  0.00000000000E+00 0. -1.
          1    1    1    2  502    0  0.62352121948E+02  0.10168779018E+02 -0.55399150939E+03  0.55758208692E+03  0.00000000000E+00 0.  1.
         22    1    1    2    0    0  0.18938484978E+02 -0.18066910938E+02  0.18331739717E+02  0.31955158663E+02  0.00000000000E+00 0.  1.
         22    1    1    2    0    0 -0.12413127100E+02 -0.23003290379E+02 -0.15403061642E+03  0.15623273628E+03  0.00000000000E+00 0.  1.
</event>
<event>
 6    1  0.1383644E-005  0.6361390E+02  0.7818608E-02  0.1469032E+00
          2   -1    0    0  502    0  0.00000000000E+00  0.00000000000E+00  0.15923233071E+04  0.15923233071E+04  0.00000000000E+00 0. -1.
          1   -1    0    0  501    0 -0.00000000000E+00 -0.00000000000E+00 -0.26092583268E+02  0.26092583268E+02  0.00000000000E+00 0.  1.
          2    1    1    2  501    0 -0.24252482000E+01  0.69920648910E+02  0.12351076018E+04  0.12370875341E+04  0.00000000000E+00 0. -1.
          1    1    1    2  502    0  0.40337580999E+02 -0.18125328255E+02  0.55775979344E+02  0.71180108436E+02  0.00000000000E+00 0.  1.
         22    1    1    2    0    0  0.11315657470E+02 -0.12933818642E+02 -0.86982215371E+01  0.19261018316E+02  0.00000000000E+00 0. -1.
         22    1    1    2    0    0 -0.49227990269E+02 -0.38861502013E+02  0.28404536426E+03  0.29088722956E+03  0.00000000000E+00 0. -1.
</event>
<event>
 6    1  0.1383644E-005  0.9478221E+02  0.7818608E-02  0.1360443E+00
          2   -1    0    0  502    0  0.00000000000E+00  0.00000000000E+00  0.15428933395E+03  0.15428933395E+03  0.00000000000E+00 0. -1.
          1   -1    0    0  501    0 -0.00000000000E+00 -0.00000000000E+00 -0.80965750239E+02  0.80965750239E+02  0.00000000000E+00 0. -1.
          2    1    1    2  501    0  0.22484634349E+02 -0.30849257709E+02  0.41885396951E+02  0.56671173984E+02  0.00000000000E+00 0. -1.
          1    1    1    2  502    0  0.18458323482E+02  0.41505661397E+02  0.33400371846E+01  0.45547617744E+02  0.00000000000E+00 0. -1.
         22    1    1    2    0    0 -0.56328410978E+02 -0.34089464106E+02  0.61039367012E+02  0.89781878859E+02  0.00000000000E+00 0. -1.
         22    1    1    2    0    0  0.15385453147E+02  0.23433060418E+02 -0.32941217441E+02  0.43254413596E+02  0.00000000000E+00 0. -1.
</event>
<event>
 6    1  0.1383644E-005  0.3777082E+02  0.7818608E-02  0.1535401E+00
          2   -1    0    0  502    0  0.00000000000E+00  0.00000000000E+00  0.77167354736E+02  0.77167354736E+02  0.00000000000E+00 0. -1.
          1   -1    0    0  501    0 -0.00000000000E+00 -0.00000000000E+00 -0.36261664206E+03  0.36261664206E+03  0.00000000000E+00 0. -1.
          2    1    1    2  501    0 -0.37127469454E+02 -0.26271563724E+02  0.24344644246E+02  0.51587845002E+02  0.00000000000E+00 0. -1.
          1    1    1    2  502    0  0.48064326587E+02 -0.83442241658E+01 -0.23200776454E+03  0.23708101648E+03  0.00000000000E+00 0. -1.
         22    1    1    2    0    0  0.98449387453E+01  0.19999742511E+02 -0.10877888903E+03  0.11103944893E+03  0.00000000000E+00 0.  1.
         22    1    1    2    0    0 -0.20781795879E+02  0.14616045378E+02  0.30992722001E+02  0.40075686388E+02  0.00000000000E+00 0. -1.
</event>
<event>
 6    1  0.1383644E-005  0.9475887E+02  0.7818608E-02  0.1293667E+00
          2   -1    0    0  502    0  0.00000000000E+00  0.00000000000E+00  0.20695462709E+03  0.20695462709E+03  0.00000000000E+00 0.  1.
          1   -1    0    0  501    0 -0.00000000000E+00 -0.00000000000E+00 -0.15410615505E+03  0.15410615505E+03  0.00000000000E+00 0.  1.
          2    1    1    2  501    0  0.50597773081E+02 -0.44906009809E+02  0.10837010181E+03  0.12775274292E+03  0.00000000000E+00 0.  1.
          1    1    1    2  502    0 -0.59963690671E+02  0.32829129065E+02 -0.76022223502E+02  0.10223881054E+03  0.00000000000E+00 0.  1.
         22    1    1    2    0    0  0.24208876337E+02  0.16000618041E+01  0.72254494172E+02  0.76219038430E+02  0.00000000000E+00 0.  1.
         22    1    1    2    0    0 -0.14842958747E+02  0.10476818940E+02 -0.51753900436E+02  0.54850190244E+02  0.00000000000E+00 0.  1.
</event>
<event>
 6    1  0.1383644E-005  0.1470853E+03  0.7818608E-02  0.1333069E+00
          2   -1    0    0  502    0  0.00000000000E+00  0.00000000000E+00  0.13932231056E+03  0.13932231056E+03  0.00000000000E+00 0. -1.
          1   -1    0    0  501    0 -0.00000000000E+00 -0.00000000000E+00 -0.23802685303E+03  0.23802685303E+03  0.00000000000E+00 0.  1.
          2    1    1    2  501    0  0.16217653003E+02 -0.19594134248E+02 -0.46241863797E+01  0.25851991519E+02  0.00000000000E+00 0. -1.
          1    1    1    2  502    0 -0.12915728108E+03  0.64717308729E+02 -0.10628787520E+03  0.17935173743E+03  0.00000000000E+00 0.  1.
         22    1    1    2    0    0  0.92379334589E+01  0.76514745234E+01 -0.42072795402E+02  0.43749338166E+02  0.00000000000E+00 0. -1.
         22    1    1    2    0    0  0.10370169462E+03 -0.52774649005E+02  0.54280314508E+02  0.12839609647E+03  0.00000000000E+00 0. -1.
</event>
<event>
 6    1  0.1383644E-005  0.9182557E+02  0.7818608E-02  0.1396716E+00
          2   -1    0    0  502    0  0.00000000000E+00  0.00000000000E+00  0.34973617655E+03  0.34973617655E+03  0.00000000000E+00 0. -1.
          1   -1    0    0  501    0 -0.00000000000E+00 -0.00000000000E+00 -0.88127497349E+02  0.88127497349E+02  0.00000000000E+00 0. -1.
          2    1    1    2  501    0 -0.65749884155E+02 -0.37450450597E+02  0.18474916560E+03  0.19964427792E+03  0.00000000000E+00 0. -1.
          1    1    1    2  502    0  0.57665843089E+02  0.50242484367E+02  0.79572707063E+02  0.11036970782E+03  0.00000000000E+00 0. -1.
         22    1    1    2    0    0  0.14892070492E+02  0.82774685897E+01 -0.62139172239E+02  0.64432654581E+02  0.00000000000E+00 0.  1.
         22    1    1    2    0    0 -0.68080294252E+01 -0.21069502360E+02  0.59425978784E+02  0.63417033585E+02  0.00000000000E+00 0.  1.
</event>
<event>
 6    1  0.1383644E-005  0.1343686E+03  0.7818608E-02  0.1306381E+00
          2   -1    0    0  502    0  0.00000000000E+00  0.00000000000E+00  0.51461044262E+02  0.51461044262E+02  0.00000000000E+00 0. -1.
          1   -1    0    0  501    0 -0.00000000000E+00 -0.00000000000E+00 -0.12209824145E+04  0.12209824145E+04  0.00000000000E+00 0. -1.
          2    1    1    2  501    0  0.40207630319E+01 -0.51058189119E+02 -0.72681329218E+02  0.88913895586E+02  0.00000000000E+00 0. -1.
          1    1    1    2  502    0  0.35947663176E+01  0.21096429496E+02 -0.10466238888E+04  0.10468426559E+04  0.00000000000E+00 0. -1.
         22    1    1    2    0    0  0.16009780077E+02  0.39159261693E+02  0.30453934769E+02  0.52126797114E+02  0.00000000000E+00 0. -1.
         22    1    1    2    0    0 -0.23625309426E+02 -0.91975020700E+01 -0.80670087040E+02  0.84560110175E+02  0.00000000000E+00 0. -1.
</event>
<event>
 6    1  0.1383644E-005  0.7968959E+02  0.7818608E-02  0.1361312E+00
          2   -1    0    0  502    0  0.00000000000E+00  0.00000000000E+00  0.10188450854E+04  0.10188450854E+04  0.00000000000E+00 0. -1.
          1   -1    0    0  501    0 -0.00000000000E+00 -0.00000000000E+00 -0.57836786268E+02  0.57836786268E+02  0.00000000000E+00 0. -1.
          2    1    1    2  501    0 -0.16851578192E+02  0.53758038105E+02  0.26060536641E+03  0.26662531641E+03  0.00000000000E+00 0. -1.
          1    1    1    2  502    0 -0.21459696175E+02 -0.78004899657E+02  0.67138342603E+03  0.67624033278E+03  0.00000000000E+00 0. -1.
         22    1    1    2    0    0  0.46457287427E+02  0.15681007302E+01 -0.39614949425E+02  0.61074403091E+02  0.00000000000E+00 0. -1.
         22    1    1    2    0    0 -0.81460130599E+01  0.22678760822E+02  0.68634456086E+02  0.72741819358E+02  0.00000000000E+00 0. -1.
</event>
<event>
 6    1  0.1383644E-005  0.1533736E+03  0.7818608E-02  0.1309884E+00
          2   -1    0    0  502    0  0.00000000000E+00  0.00000000000E+00  0.14915084553E+03  0.14915084553E+03  0.00000000000E+00 0. -1.
          1   -1    0    0  501    0 -0.00000000000E+00 -0.00000000000E+00 -0.85649687544E+03  0.85649687544E+03  0.00000000000E+00 0. -1.
          2    1    1    2  501    0 -0.14009878348E+03  0.40618474081E+02 -0.14386881838E+03  0.20487988303E+03  0.00000000000E+00 0. -1.
          1    1    1    2  502    0  0.26300217888E+03 -0.14383026737E+02 -0.65909145618E+02  0.27151617452E+03  0.00000000000E+00 0. -1.
         22    1    1    2    0    0 -0.11118188736E+03 -0.28955791093E+02 -0.50306848014E+03  0.51602107091E+03  0.00000000000E+00 0. -1.
         22    1    1    2    0    0 -0.11721508046E+02  0.27203437493E+01  0.55004142353E+01  0.13230592494E+02  0.00000000000E+00 0.  1.
</event>
<event>
 6    1  0.1383644E-005  0.2552776E+03  0.7818608E-02  0.1160227E+00
          2   -1    0    0  502    0  0.00000000000E+00  0.00000000000E+00  0.13965602003E+03  0.13965602003E+03  0.00000000000E+00 0. -1.
          1   -1    0    0  501    0 -0.00000000000E+00 -0.00000000000E+00 -0.14263751114E+04  0.14263751114E+04  0.00000000000E+00 0. -1.
          2    1    1    2  501    0  0.16363763006E+03  0.90356506676E+02 -0.51148639475E+02  0.19379823423E+03  0.00000000000E+00 0. -1.
          1    1    1    2  502    0 -0.28864569985E+03 -0.71173595133E+02 -0.11292989689E+04  0.11677748849E+04  0.00000000000E+00 0. -1.
         22    1    1    2    0    0  0.71223306784E+02 -0.24069531858E+02 -0.12619652469E+03  0.14689337847E+03  0.00000000000E+00 0. -1.
         22    1    1    2    0    0  0.53784763009E+02  0.48866203153E+01  0.19925041630E+02  0.57564633882E+02  0.00000000000E+00 0.  1.
</event>
<event>
 6    1  0.1383644E-005  0.1702146E+03  0.7818608E-02  0.1197041E+00
          2   -1    0    0  502    0  0.00000000000E+00  0.00000000000E+00  0.15101993476E+04  0.15101993476E+04  0.00000000000E+00 0. -1.
          1   -1    0    0  501    0 -0.00000000000E+00 -0.00000000000E+00 -0.36699286000E+02  0.36699286000E+02  0.00000000000E+00 0. -1.
          2    1    1    2  501    0  0.35167028920E+02 -0.29786554295E+02  0.59786596794E+02  0.75487720168E+02  0.00000000000E+00 0. -1.
          1    1    1    2  502    0 -0.16053863887E+03  0.11301456076E+03  0.90876752070E+03  0.92973294670E+03  0.00000000000E+00 0. -1.
         22    1    1    2    0    0  0.15469014519E+02 -0.70685209177E+02  0.30196286281E+03  0.31051128760E+03  0.00000000000E+00 0. -1.
         22    1    1    2    0    0  0.10990259543E+03 -0.12542797287E+02  0.20298308125E+03  0.23116667909E+03  0.00000000000E+00 0. -1.
</event>
<event>
 6    1  0.1383644E-005  0.6710805E+02  0.7818608E-02  0.1482378E+00
          2   -1    0    0  502    0  0.00000000000E+00  0.00000000000E+00  0.14944479684E+03  0.14944479684E+03  0.00000000000E+00 0.  1.
          1   -1    0    0  501    0 -0.00000000000E+00 -0.00000000000E+00 -0.24237084942E+03  0.24237084942E+03  0.00000000000E+00 0.  1.
          2    1    1    2  501    0  0.38902590602E+02  0.20002356474E+02  0.70713351010E+02  0.83149767475E+02  0.00000000000E+00 0.  1.
          1    1    1    2  502    0 -0.63076606603E+02 -0.14735463045E+02 -0.17023472083E+03  0.18214184677E+03  0.00000000000E+00 0.  1.
         22    1    1    2    0    0  0.20075232692E+02  0.61273511693E+01  0.64260303246E+02  0.67601375528E+02  0.00000000000E+00 0.  1.
         22    1    1    2    0    0  0.40987833084E+01 -0.11394244599E+02 -0.57664986009E+02  0.58922656475E+02  0.00000000000E+00 0.  1.
</event>
<event>
 6    1  0.1383644E-005  0.6214330E+02  0.7818608E-02  0.1490860E+00
          2   -1    0    0  502    0  0.00000000000E+00  0.00000000000E+00  0.57029704484E+03  0.57029704484E+03  0.00000000000E+00 0.  1.
          1   -1    0    0  501    0 -0.00000000000E+00 -0.00000000000E+00 -0.18928526206E+03  0.18928526206E+03  0.00000000000E+00 0. -1.
          2    1    1    2  501    0 -0.38443551649E+01 -0.33160693700E+02  0.42204559607E+03  0.42336378664E+03  0.00000000000E+00 0.  1.
          1    1    1    2  502    0  0.30634642440E+02  0.55430355266E+02 -0.15384993935E+03  0.16637550734E+03  0.00000000000E+00 0. -1.
         22    1    1    2    0    0 -0.13401985111E+02 -0.20234911854E+02  0.13860546298E+03  0.14071438886E+03  0.00000000000E+00 0.  1.
         22    1    1    2    0    0 -0.13388302164E+02 -0.20347497117E+01 -0.25789336921E+02  0.29128624067E+02  0.00000000000E+00 0. -1.
</event>
<event>
 6    1  0.1383644E-005  0.7849018E+02  0.7818608E-02  0.1334757E+00
          2   -1    0    0  502    0  0.00000000000E+00  0.00000000000E+00  0.10717612921E+03  0.10717612921E+03  0.00000000000E+00 0. -1.
          1   -1    0    0  501    0 -0.00000000000E+00 -0.00000000000E+00 -0.53398442715E+03  0.53398442715E+03  0.00000000000E+00 0.  1.
          2    1    1    2  501    0  0.58147930473E+02 -0.53190391623E+01  0.60250429345E+02  0.83902254035E+02  0.00000000000E+00 0. -1.
          1    1    1    2  502    0 -0.44930973212E+02  0.17829070042E+02 -0.40791560403E+03  0.41076977506E+03  0.00000000000E+00 0.  1.
         22    1    1    2    0    0 -0.26027225767E+02 -0.12433994415E+01 -0.10901639551E+03  0.11208718488E+03  0.00000000000E+00 0.  1.
         22    1    1    2    0    0  0.12810268506E+02 -0.11266631439E+02  0.29873272249E+02  0.34401342387E+02  0.00000000000E+00 0.  1.
</event>
<event>
 6    1  0.1383644E-005  0.2013493E+03  0.7818608E-02  0.1152707E+00
          2   -1    0    0  502    0  0.00000000000E+00  0.00000000000E+00  0.40413343202E+03  0.40413343202E+03  0.00000000000E+00 0.  1.
          1   -1    0    0  501    0 -0.00000000000E+00 -0.00000000000E+00 -0.11130531778E+03  0.11130531778E+03  0.00000000000E+00 0.  1.
          2    1    1    2  501    0  0.39975873826E+02 -0.92383823854E+02  0.89911160136E+02  0.13496984150E+03  0.00000000000E+00 0.  1.
          1    1    1    2  502    0 -0.11257036311E+03  0.10827018725E+03  0.33446363105E+02  0.15972845489E+03  0.00000000000E+00 0.  1.
         22    1    1    2    0    0 -0.11780050943E+02  0.22691891334E+02 -0.21402502559E+01  0.25656815930E+02  0.00000000000E+00 0. -1.
         22    1    1    2    0    0  0.84374540224E+02 -0.38578254730E+02  0.17161084126E+03  0.19508363748E+03  0.00000000000E+00 0.  1.
</event>
<event>
 6    1  0.1383644E-005  0.1841026E+03  0.7818608E-02  0.1164894E+00
          2   -1    0    0  502    0  0.00000000000E+00  0.00000000000E+00  0.14654907399E+03  0.14654907399E+03  0.00000000000E+00 0.  1.
          1   -1    0    0  501    0 -0.00000000000E+00 -0.00000000000E+00 -0.33306432817E+03  0.33306432817E+03  0.00000000000E+00 0. -1.
          2    1    1    2  501    0  0.10508679737E+03  0.81895488825E+02  0.18883080861E+02  0.13456105237E+03  0.00000000000E+00 0.  1.
          1    1    1    2  502    0 -0.10933502153E+03 -0.78584901202E+02 -0.15712295755E+03  0.20692355452E+03  0.00000000000E+00 0. -1.
         22    1    1    2    0    0 -0.42385771415E+02  0.12090904599E+02 -0.71350276810E+02  0.83866594025E+02  0.00000000000E+00 0. -1.
         22    1    1    2    0    0  0.46633995571E+02 -0.15401492222E+02  0.23074899315E+02  0.54262201245E+02  0.00000000000E+00 0.  1.
</event>
<event>
 6    1  0.1383644E-005  0.4502233E+02  0.7818608E-02  0.1520980E+00
          2   -1    0    0  502    0  0.00000000000E+00  0.00000000000E+00  0.72067135176E+02  0.72067135176E+02  0.00000000000E+00 0. -1.
          1   -1    0    0  501    0 -0.00000000000E+00 -0.00000000000E+00 -0.28920772411E+03  0.28920772411E+03  0.00000000000E+00 0. -1.
          2    1    1    2  501    0  0.53287870845E+01 -0.29204375215E+02  0.29998602812E+02  0.42204356104E+02  0.00000000000E+00 0. -1.
          1    1    1    2  502    0  0.14008632656E+02  0.30828564098E+02 -0.15520603745E+03  0.15885703074E+03  0.00000000000E+00 0. -1.
         22    1    1    2    0    0  0.92774550582E+00 -0.13754663961E+02  0.31582378153E+02  0.34460094344E+02  0.00000000000E+00 0. -1.
         22    1    1    2    0    0 -0.20265165246E+02  0.12130475078E+02 -0.12351553244E+03  0.12575337810E+03  0.00000000000E+00 0. -1.
</event>
<event>
 6    1  0.1383644E-005  0.4675277E+02  0.7818608E-02  0.1477204E+00
          2   -1    0    0  502    0  0.00000000000E+00  0.00000000000E+00  0.24606341946E+02  0.24606341946E+02  0.00000000000E+00 0.  1.
          1   -1    0    0  501    0 -0.00000000000E+00 -0.00000000000E+00 -0.37439910724E+03  0.37439910724E+03  0.00000000000E+00 0.  1.
          2    1    1    2  501    0  0.51035550856E+01 -0.26661321466E+02 -0.20666246231E+02  0.34116946964E+02  0.00000000000E+00 0.  1.
          1    1    1    2  502    0 -0.10422477035E+02 -0.18278305599E+02 -0.20921541205E+02  0.29672131192E+02  0.00000000000E+00 0.  1.
         22    1    1    2    0    0 -0.11862131979E+02  0.57580044810E+02 -0.30833139453E+03  0.31388599935E+03  0.00000000000E+00 0.  1.
         22    1    1    2    0    0  0.17181053928E+02 -0.12640417746E+02  0.12641667176E+00  0.21330371681E+02  0.00000000000E+00 0.  1.
</event>
<event>
 6    1  0.1383644E-005  0.7774052E+02  0.7818608E-02  0.1406201E+00
          2   -1    0    0  502    0  0.00000000000E+00  0.00000000000E+00  0.10378606229E+03  0.10378606229E+03  0.00000000000E+00 0. -1.
          1   -1    0    0  501    0 -0.00000000000E+00 -0.00000000000E+00 -0.13778753322E+03  0.13778753322E+03  0.00000000000E+00 0.  1.
          2    1    1    2  501    0  0.31824754929E+02 -0.17654491810E+02  0.23518153121E+02  0.43331277775E+02  0.00000000000E+00 0. -1.
          1    1    1    2  502    0 -0.50549341785E+02  0.33942619391E+02 -0.43134222363E+02  0.74618352333E+02  0.00000000000E+00 0.  1.
         22    1    1    2    0    0 -0.17142988653E+01  0.24108800166E+02 -0.56711354303E+02  0.61646985108E+02  0.00000000000E+00 0.  1.
         22    1    1    2    0    0  0.20438885722E+02 -0.40396927747E+02  0.42325952617E+02  0.61976980290E+02  0.00000000000E+00 0. -1.
</event>
<event>
 6    1  0.1383644E-005  0.9678852E+02  0.7818608E-02  0.1305030E+00
          2   -1    0    0  502    0  0.00000000000E+00  0.00000000000E+00  0.16348371594E+02  0.16348371594E+02  0.00000000000E+00 0. -1.
          1   -1    0    0  501    0 -0.00000000000E+00 -0.00000000000E+00 -0.11627257992E+04  0.11627257992E+04  0.00000000000E+00 0. -1.
          2    1    1    2  501    0  0.40039282281E+02 -0.49960850897E+02 -0.20173806154E+03  0.21165414294E+03  0.00000000000E+00 0. -1.
          1    1    1    2  502    0 -0.11411197927E+01  0.53133788790E+02 -0.51378982840E+03  0.51653120857E+03  0.00000000000E+00 0. -1.
         22    1    1    2    0    0  0.10530596048E+02 -0.52071738897E+02 -0.10466215815E+03  0.11737345012E+03  0.00000000000E+00 0. -1.
         22    1    1    2    0    0 -0.49428758536E+02  0.48898801004E+02 -0.32618737948E+03  0.33351536912E+03  0.00000000000E+00 0. -1.
</event>
<event>
 6    1  0.1383644E-005  0.4547448E+02  0.7818608E-02  0.1559788E+00
          2   -1    0    0  502    0  0.00000000000E+00  0.00000000000E+00  0.12930473628E+03  0.12930473628E+03  0.00000000000E+00 0.  1.
          1   -1    0    0  501    0 -0.00000000000E+00 -0.00000000000E+00 -0.93983424078E+02  0.93983424078E+02  0.00000000000E+00 0.  1.
          2    1    1    2  501    0  0.17187025218E+02 -0.10776181159E+02  0.56255577600E+02  0.59801420780E+02  0.00000000000E+00 0.  1.
          1    1    1    2  502    0 -0.24239548015E+02 -0.43524804212E+01  0.18636053855E+02  0.30883689499E+02  0.00000000000E+00 0.  1.
         22    1    1    2    0    0 -0.12955050238E+02 -0.48484100761E+01 -0.81150437359E+02  0.82320920127E+02  0.00000000000E+00 0.  1.
         22    1    1    2    0    0  0.20007573035E+02  0.19977071656E+02  0.41580118104E+02  0.50282129950E+02  0.00000000000E+00 0.  1.
</event>
<event>
 6    1  0.1383644E-005  0.4126975E+02  0.7818608E-02  0.1574849E+00
          2   -1    0    0  502    0  0.00000000000E+00  0.00000000000E+00  0.16172551377E+03  0.16172551377E+03  0.00000000000E+00 0.  1.
          1   -1    0    0  501    0 -0.00000000000E+00 -0.00000000000E+00 -0.11384924627E+03  0.11384924627E+03  0.00000000000E+00 0.  1.
          2    1    1    2  501    0  0.15447993116E+02 -0.33654373070E+02  0.83056936305E+02  0.90937956797E+02  0.00000000000E+00 0.  1.
          1    1    1    2  502    0  0.77094069101E+01 -0.32797561804E+02 -0.42255026925E+01  0.33955410293E+02  0.00000000000E+00 0.  1.
         22    1    1    2    0    0 -0.12578970567E+02  0.55374007598E+02  0.45463768834E+02  0.72742460053E+02  0.00000000000E+00 0.  1.
         22    1    1    2    0    0 -0.10578429459E+02  0.11077927276E+02 -0.76418934951E+02  0.77938932900E+02  0.00000000000E+00 0.  1.
</event>
<event>
 6    1  0.1383644E-005  0.8351672E+02  0.7818608E-02  0.1382768E+00
          2   -1    0    0  502    0  0.00000000000E+00  0.00000000000E+00  0.31094905451E+03  0.31094905451E+03  0.00000000000E+00 0.  1.
          1   -1    0    0  501    0 -0.00000000000E+00 -0.00000000000E+00 -0.13499051746E+03  0.13499051746E+03  0.00000000000E+00 0.  1.
          2    1    1    2  501    0  0.66821501931E+02  0.35179678873E+02  0.23774409255E+03  0.24944934650E+03  0.00000000000E+00 0.  1.
          1    1    1    2  502    0 -0.53835192347E+02 -0.23072301260E+02 -0.30586955713E+02  0.66076628851E+02  0.00000000000E+00 0.  1.
         22    1    1    2    0    0  0.63609174072E+01  0.85988997817E+01  0.46496966816E+02  0.47711322249E+02  0.00000000000E+00 0.  1.
         22    1    1    2    0    0 -0.19347226991E+02 -0.20706277395E+02 -0.77695566604E+02  0.82702274368E+02  0.00000000000E+00 0.  1.
</event>
<event>
 6    1  0.1383644E-005  0.2259704E+02  0.7818608E-02  0.1749226E+00
          2   -1    0    0  502    0  0.00000000000E+00  0.00000000000E+00  0.16170443846E+03  0.16170443846E+03  0.00000000000E+00 0. -1.
          1   -1    0    0  501    0 -0.00000000000E+00 -0.00000000000E+00 -0.16695038122E+03  0.16695038122E+03  0.00000000000E+00 0.  1.
          2    1    1    2  501    0 -0.35001543956E+02  0.91251099604E+01  0.11739805470E+03  0.12284412464E+03  0.00000000000E+00 0. -1.
          1    1    1    2  502    0  0.14534387562E+02  0.16019374865E+02 -0.51892351779E+02  0.56219969459E+02  0.00000000000E+00 0.  1.
         22    1    1    2    0    0  0.11222560669E+02 -0.58703775006E+01  0.37327631284E+02  0.39417753072E+02  0.00000000000E+00 0. -1.
         22    1    1    2    0    0  0.92445957252E+01 -0.19274107325E+02 -0.10807927696E+03  0.11017297251E+03  0.00000000000E+00 0. -1.
</event>
<event>
 6    1  0.1383644E-005  0.9977001E+02  0.7818608E-02  0.1404802E+00
          2   -1    0    0  502    0  0.00000000000E+00  0.00000000000E+00  0.24368675569E+03  0.24368675569E+03  0.00000000000E+00 0.  1.
          1   -1    0    0  501    0 -0.00000000000E+00 -0.00000000000E+00 -0.94621623036E+02  0.94621623036E+02  0.00000000000E+00 0.  1.
          2    1    1    2  501    0  0.37785652105E+02 -0.18888120619E+02  0.96684286952E+02  0.10551003719E+03  0.00000000000E+00 0.  1.
          1    1    1    2  502    0 -0.67090627548E+02 -0.17714794243E+02 -0.31540344060E+02  0.76221778668E+02  0.00000000000E+00 0.  1.
         22    1    1    2    0    0 -0.73819975293E+01 -0.90625600381E+01 -0.27950955410E+02  0.30296530994E+02  0.00000000000E+00 0.  1.
         22    1    1    2    0    0  0.36686972972E+02  0.45665474900E+02  0.11187214518E+03  0.12628003187E+03  0.00000000000E+00 0.  1.
</event>
<event>
 6    1  0.1383644E-005  0.1525809E+03  0.7818608E-02  0.1266413E+00
          2   -1    0    0  502    0  0.00000000000E+00  0.00000000000E+00  0.22934833879E+03  0.22934833879E+03  0.00000000000E+00 0. -1.
          1   -1    0    0  501    0 -0.00000000000E+00 -0.00000000000E+00 -0.35703891566E+03  0.35703891566E+03  0.00000000000E+00 0.  1.
          2    1    1    2  501    0  0.53721094513E+02 -0.54884832298E+02  0.29922235616E+02  0.82423546370E+02  0.00000000000E+00 0. -1.
          1    1    1    2  502    0 -0.58514017765E+02  0.55081671930E+02 -0.30169776752E+03  0.31221694987E+03  0.00000000000E+00 0.  1.
         22    1    1    2    0    0 -0.23168733646E+02 -0.24072948086E+02  0.15072483899E+03  0.15438352936E+03  0.00000000000E+00 0. -1.
         22    1    1    2    0    0  0.27961656898E+02  0.23876108453E+02 -0.66398839495E+01  0.37363228852E+02  0.00000000000E+00 0.  1.
</event>
<event>
 6    1  0.1781982E-005  0.2597272E+02  0.7818608E-02  0.1698769E+00
          2   -1    0    0  502    0  0.00000000000E+00  0.00000000000E+00  0.52536525041E+02  0.52536525041E+02  0.00000000000E+00 0.  1.
          1   -1    0    0  501    0 -0.00000000000E+00 -0.00000000000E+00 -0.75373949097E+03  0.75373949097E+03  0.00000000000E+00 0.  1.
          2    1    1    2  501    0  0.28584036633E+02  0.91508343429E+01 -0.50745585175E+02  0.58956758171E+02  0.00000000000E+00 0.  1.
          1    1    1    2  502    0 -0.74316527670E+01 -0.26840930255E+02 -0.61403763588E+03  0.61466892168E+03  0.00000000000E+00 0.  1.
         22    1    1    2    0    0 -0.14594919704E+02 -0.23341672793E+01  0.45616541441E+02  0.47951317720E+02  0.00000000000E+00 0.  1.
         22    1    1    2    0    0 -0.65574641617E+01  0.20024263192E+02 -0.82036286316E+02  0.84699018442E+02  0.00000000000E+00 0.  1.
</event>
<event>
 6    1  0.1383644E-005  0.1585169E+03  0.7818608E-02  0.1283946E+00
          2   -1    0    0  502    0  0.00000000000E+00  0.00000000000E+00  0.65563136889E+03  0.65563136889E+03  0.00000000000E+00 0.  1.
          1   -1    0    0  501    0 -0.00000000000E+00 -0.00000000000E+00 -0.10776752067E+03  0.10776752067E+03  0.00000000000E+00 0. -1.
          2    1    1    2  501    0 -0.27624825089E+02  0.13908344077E+03  0.46852985404E+03  0.48951767954E+03  0.00000000000E+00 0.  1.
          1    1    1    2  502    0  0.83133044282E+01 -0.13925365110E+03  0.40255736780E+02  0.14519371446E+03  0.00000000000E+00 0. -1.
         22    1    1    2    0    0  0.58550363018E+01  0.19346520877E+02  0.79466455556E+02  0.81996871152E+02  0.00000000000E+00 0. -1.
         22    1    1    2    0    0  0.13456484359E+02 -0.19176310549E+02 -0.40388198151E+02  0.46690624406E+02  0.00000000000E+00 0.  1.
</event>
<event>
 6    1  0.1383644E-005  0.1274730E+03  0.7818608E-02  0.1276022E+00
          2   -1    0    0  502    0  0.00000000000E+00  0.00000000000E+00  0.12425601628E+03  0.12425601628E+03  0.00000000000E+00 0.  1.
          1   -1    0    0  501    0 -0.00000000000E+00 -0.00000000000E+00 -0.24415656212E+03  0.24415656212E+03  0.00000000000E+00 0.  1.
          2    1    1    2  501    0 -0.43319763108E+02 -0.47398481390E+02  0.12460839502E+02  0.65410170730E+02  0.00000000000E+00 0.  1.
          1    1    1    2  502    0  0.14968809252E+02  0.11665149091E+03 -0.92476167877E+02  0.14961108651E+03  0.00000000000E+00 0.  1.
         22    1    1    2    0    0 -0.23831234393E+02 -0.64694259784E+02  0.21948362761E+02  0.72353338621E+02  0.00000000000E+00 0.  1.
         22    1    1    2    0    0  0.52182188249E+02 -0.45587497382E+01 -0.61833580232E+02  0.81037982539E+02  0.00000000000E+00 0.  1.
</event>
<event>
 6    1  0.1383644E-005  0.1382659E+03  0.7818608E-02  0.1291946E+00
          2   -1    0    0  502    0  0.00000000000E+00  0.00000000000E+00  0.72664704684E+03  0.72664704684E+03  0.00000000000E+00 0.  1.
          1   -1    0    0  501    0 -0.00000000000E+00 -0.00000000000E+00 -0.41016860152E+02  0.41016860152E+02  0.00000000000E+00 0.  1.
          2    1    1    2  501    0  0.16502879648E+01  0.54757586124E+02  0.19973128581E+03  0.20710795065E+03  0.00000000000E+00 0.  1.
          1    1    1    2  502    0 -0.57876909354E+02 -0.62506872407E+02  0.36481926106E+03  0.37463307246E+03  0.00000000000E+00 0.  1.
         22    1    1    2    0    0  0.75085673970E+02 -0.16061010232E+02  0.13277187212E+03  0.15337595806E+03  0.00000000000E+00 0.  1.
         22    1    1    2    0    0 -0.18859052581E+02  0.23810296515E+02 -0.11692232310E+02  0.32546925827E+02  0.00000000000E+00 0. -1.
</event>
<event>
 6    1  0.1383644E-005  0.1966060E+03  0.7818608E-02  0.1271218E+00
          2   -1    0    0  502    0  0.00000000000E+00  0.00000000000E+00  0.38944851653E+03  0.38944851653E+03  0.00000000000E+00 0.  1.
          1   -1    0    0  501    0 -0.00000000000E+00 -0.00000000000E+00 -0.20545457212E+03  0.20545457212E+03  0.00000000000E+00 0.  1.
          2    1    1    2  501    0  0.80259381714E+02  0.12229235357E+03  0.23339129356E+03  0.27544234243E+03  0.00000000000E+00 0.  1.
          1    1    1    2  502    0 -0.76637628267E+02 -0.16672351826E+03 -0.52516876903E+02  0.19086141561E+03  0.00000000000E+00 0.  1.
         22    1    1    2    0    0 -0.14810779422E+02 -0.50824828972E+01 -0.51621587121E+02  0.53944221900E+02  0.00000000000E+00 0.  1.
         22    1    1    2    0    0  0.11189025975E+02  0.49513647590E+02  0.54741114875E+02  0.74655108718E+02  0.00000000000E+00 0. -1.
</event>
<event>
 6    1  0.1383644E-005  0.8232240E+02  0.7818608E-02  0.1388925E+00
          2   -1    0    0  502    0  0.00000000000E+00  0.00000000000E+00  0.23069272219E+03  0.23069272219E+03  0.00000000000E+00 0. -1.
          1   -1    0    0  501    0 -0.00000000000E+00 -0.00000000000E+00 -0.20186212960E+03  0.20186212960E+03  0.00000000000E+00 0.  1.
          2    1    1    2  501    0 -0.11082319855E+02  0.69139843956E+02  0.17570953045E+03  0.18914802385E+03  0.00000000000E+00 0. -1.
          1    1    1    2  502    0 -0.89634732240E+01 -0.58916355550E+02 -0.80643524235E+02  0.10027391886E+03  0.00000000000E+00 0.  1.
         22    1    1    2    0    0  0.62526027901E+01  0.12738104684E+02  0.35341396156E+02  0.38083705634E+02  0.00000000000E+00 0. -1.
         22    1    1    2    0    0  0.13793190289E+02 -0.22961593090E+02 -0.10157680979E+03  0.10504920344E+03  0.00000000000E+00 0.  1.
</event>
<event>
 6    1  0.1383644E-005  0.1158009E+03  0.7818608E-02  0.1260832E+00
          2   -1    0    0  502    0  0.00000000000E+00  0.00000000000E+00  0.93135238842E+03  0.93135238842E+03  0.00000000000E+00 0. -1.
          1   -1    0    0  501    0 -0.00000000000E+00 -0.00000000000E+00 -0.27682348251E+03  0.27682348251E+03  0.00000000000E+00 0. -1.
          2    1    1    2  501    0 -0.60424826660E+01 -0.43408028416E+02 -0.16004325605E+03  0.16593556682E+03  0.00000000000E+00 0. -1.
          1    1    1    2  502    0  0.59909494611E+02  0.10739854373E+03  0.86959326945E+03  0.87824600712E+03  0.00000000000E+00 0. -1.
         22    1    1    2    0    0 -0.60816140993E+02 -0.98104561517E+02 -0.25179129126E+02  0.11814015634E+03  0.00000000000E+00 0. -1.
         22    1    1    2    0    0  0.69491290474E+01  0.34114046202E+02 -0.29841978365E+02  0.45854140659E+02  0.00000000000E+00 0. -1.
</event>
<event>
 6    1  0.1383644E-005  0.4215813E+02  0.7818608E-02  0.1513367E+00
          2   -1    0    0  502    0  0.00000000000E+00  0.00000000000E+00  0.20267981639E+03  0.20267981639E+03  0.00000000000E+00 0. -1.
          1   -1    0    0  501    0 -0.00000000000E+00 -0.00000000000E+00 -0.77601609036E+02  0.77601609036E+02  0.00000000000E+00 0. -1.
          2    1    1    2  501    0  0.27010909259E+02  0.21218327958E+02  0.85774175301E+02  0.92395972904E+02  0.00000000000E+00 0. -1.
          1    1    1    2  502    0 -0.16234150260E+02  0.11771307701E+02  0.50870182546E+02  0.54679857278E+02  0.00000000000E+00 0. -1.
         22    1    1    2    0    0 -0.18999994675E+01 -0.48456279617E+02 -0.62576941086E+02  0.79167509674E+02  0.00000000000E+00 0. -1.
         22    1    1    2    0    0 -0.88767595322E+01  0.15466643958E+02  0.51010790592E+02  0.54038085569E+02  0.00000000000E+00 0. -1.
</event>
<event>
 6    1  0.1383644E-005  0.4055028E+02  0.7818608E-02  0.1579586E+00
          2   -1    0    0  502    0  0.00000000000E+00  0.00000000000E+00  0.28249862274E+03  0.28249862274E+03  0.00000000000E+00 0.  1.
          1   -1    0    0  501    0 -0.00000000000E+00 -0.00000000000E+00 -0.29934728280E+03  0.29934728280E+03  0.00000000000E+00 0. -1.
          2    1    1    2  501    0 -0.18343808760E+02  0.48809326193E+02  0.24132441641E+03  0.24689333649E+03  0.00000000000E+00 0.  1.
          1    1    1    2  502    0  0.34973384005E+02 -0.70837982931E+02 -0.15303681498E+03  0.17222492315E+03  0.00000000000E+00 0. -1.
         22    1    1    2    0    0 -0.24635573036E+02  0.14802421722E+02 -0.13131025446E+03  0.13441877129E+03  0.00000000000E+00 0. -1.
         22    1    1    2    0    0  0.80059977911E+01  0.72262350169E+01  0.26173992983E+02  0.28308874612E+02  0.00000000000E+00 0. -1.
</event>
<event>
 6    1  0.1383644E-005  0.8086860E+02  0.7818608E-02  0.1358243E+00
          2   -1    0    0  502    0  0.00000000000E+00  0.00000000000E+00  0.32181573794E+03  0.32181573794E+03  0.00000000000E+00 0.  1.
          1   -1    0    0  501    0 -0.00000000000E+00 -0.00000000000E+00 -0.58000873890E+02  0.58000873890E+02  0.00000000000E+00 0.  1.
          2    1    1    2  501    0  0.45181566047E+02  0.54785540631E+02  0.16187103441E+03  0.17676272558E+03  0.00000000000E+00 0.  1.
          1    1    1    2  502    0 -0.42047130381E+02 -0.13273758803E+02  0.21356047793E+02  0.48992189412E+02  0.00000000000E+00 0.  1.
         22    1    1    2    0    0 -0.21252539116E+02 -0.41735597154E+02 -0.20671407033E+02  0.51194116434E+02  0.00000000000E+00 0.  1.
         22    1    1    2    0    0  0.18118103450E+02  0.22381532623E+00  0.10125918888E+03  0.10286758040E+03  0.00000000000E+00 0. -1.
</event>
<event>
 6    1  0.1383644E-005  0.4095523E+02  0.7818608E-02  0.1576974E+00
          2   -1    0    0  502    0  0.00000000000E+00  0.00000000000E+00  0.26642808006E+03  0.26642808006E+03  0.00000000000E+00 0.  1.
          1   -1    0    0  501    0 -0.00000000000E+00 -0.00000000000E+00 -0.12908655508E+03  0.12908655508E+03  0.00000000000E+00 0.  1.
          2    1    1    2  501    0 -0.14191453236E+02 -0.17774733625E+02  0.19141286109E+03  0.19275949235E+03  0.00000000000E+00 0.  1.
          1    1    1    2  502    0  0.38651017055E+02  0.34070352423E+02 -0.50536451125E+02  0.72170789978E+02  0.00000000000E+00 0.  1.
         22    1    1    2    0    0 -0.97598297927E+01 -0.11737330410E+02 -0.65233228357E+02  0.66995472120E+02  0.00000000000E+00 0. -1.
         22    1    1    2    0    0 -0.14699734026E+02 -0.45582883884E+01  0.61698343367E+02  0.63588880692E+02  0.00000000000E+00 0.  1.
</event>
<event>
 6    1  0.1383644E-005  0.6826836E+02  0.7818608E-02  0.1477410E+00
          2   -1    0    0  502    0  0.00000000000E+00  0.00000000000E+00  0.49589059003E+03  0.49589059003E+03  0.00000000000E+00 0. -1.
          1   -1    0    0  501    0 -0.00000000000E+00 -0.00000000000E+00 -0.14892287166E+03  0.14892287166E+03  0.00000000000E+00 0. -1.
          2    1    1    2  501    0 -0.36718572334E+02 -0.40303125802E+02  0.40632077825E+03  0.40996240113E+03  0.00000000000E+00 0. -1.
          1    1    1    2  502    0  0.43619825316E+02  0.43843976730E+02 -0.86309083042E+02  0.10618023014E+03  0.00000000000E+00 0. -1.
         22    1    1    2    0    0  0.45641648308E+00 -0.13445470366E+02  0.76469137302E+02  0.77643531276E+02  0.00000000000E+00 0.  1.
         22    1    1    2    0    0 -0.73576694656E+01  0.99046194391E+01 -0.49513114142E+02  0.51027299147E+02  0.00000000000E+00 0. -1.
</event>
<event>
 6    1  0.1383644E-005  0.7598118E+02  0.7818608E-02  0.1414401E+00
          2   -1    0    0  502    0  0.00000000000E+00  0.00000000000E+00  0.14057324603E+04  0.14057324603E+04  0.00000000000E+00 0. -1.
          1   -1    0    0  501    0 -0.00000000000E+00 -0.00000000000E+00 -0.15150209775E+02  0.15150209775E+02  0.00000000000E+00 0.  1.
          2    1    1    2  501    0 -0.74015093920E+02  0.12953737266E+02  0.68139764391E+03  0.68552810486E+03  0.00000000000E+00 0. -1.
          1    1    1    2  502    0  0.19119968905E+02  0.32435822413E+02  0.26855337840E+03  0.27117996393E+03  0.00000000000E+00 0.  1.
         22    1    1    2    0    0 -0.17522872932E+02 -0.14555293411E+02  0.75485419870E+01  0.23997669224E+02  0.00000000000E+00 0.  1.
         22    1    1    2    0    0  0.72417997947E+02 -0.30834266269E+02  0.43308268626E+03  0.44017693209E+03  0.00000000000E+00 0.  1.
</event>
<event>
 6    1  0.1383644E-005  0.1205723E+03  0.7818608E-02  0.1326411E+00
          2   -1    0    0  502    0  0.00000000000E+00  0.00000000000E+00  0.34699800042E+03  0.34699800042E+03  0.00000000000E+00 0.  1.
          1   -1    0    0  501    0 -0.00000000000E+00 -0.00000000000E+00 -0.10182409513E+03  0.10182409513E+03  0.00000000000E+00 0. -1.
          2    1    1    2  501    0 -0.67144366587E+02 -0.19473559862E+02  0.11887818357E+03  0.13791159497E+03  0.00000000000E+00 0.  1.
          1    1    1    2  502    0  0.11087681883E+03  0.44058869265E+01 -0.18173313177E+02  0.11244265252E+03  0.00000000000E+00 0. -1.
         22    1    1    2    0    0 -0.43876175006E+02 -0.94148945845E+01  0.16216481523E+03  0.16825928287E+03  0.00000000000E+00 0.  1.
         22    1    1    2    0    0  0.14372276395E+00  0.24482567520E+02 -0.17695780339E+02  0.30208565183E+02  0.00000000000E+00 0. -1.
</event>
<event>
 6    1  0.1383644E-005  0.9323954E+02  0.7818608E-02  0.1349727E+00
          2   -1    0    0  502    0  0.00000000000E+00  0.00000000000E+00  0.12016694811E+03  0.12016694811E+03  0.00000000000E+00 0. -1.
          1   -1    0    0  501    0 -0.00000000000E+00 -0.00000000000E+00 -0.12000140599E+03  0.12000140599E+03  0.00000000000E+00 0. -1.
          2    1    1    2  501    0  0.47101499393E+02  0.21137236189E+02  0.17712526413E+02  0.54580835380E+02  0.00000000000E+00 0. -1.
          1    1    1    2  502    0  0.21472352950E+02 -0.25709582837E+01  0.23881631101E+02  0.32218070577E+02  0.00000000000E+00 0. -1.
         22    1    1    2    0    0 -0.34375025860E+02 -0.97965550614E+01  0.46480971837E+02  0.58635276386E+02  0.00000000000E+00 0. -1.
         22    1    1    2    0    0 -0.34198826483E+02 -0.87697228442E+01 -0.87909587229E+02  0.94734171756E+02  0.00000000000E+00 0. -1.
</event>
<event>
 6    1  0.1383644E-005  0.7807048E+02  0.7818608E-02  0.1432828E+00
          2   -1    0    0  502    0  0.00000000000E+00  0.00000000000E+00  0.70032375260E+03  0.70032375260E+03  0.00000000000E+00 0. -1.
          1   -1    0    0  501    0 -0.00000000000E+00 -0.00000000000E+00 -0.33698776362E+02  0.33698776362E+02  0.00000000000E+00 0. -1.
          2    1    1    2  501    0  0.46201810114E+02 -0.28302809457E+01  0.39057604972E+03  0.39330937996E+03  0.00000000000E+00 0. -1.
          1    1    1    2  502    0 -0.74154281225E+02  0.11680874804E+02  0.11517374608E+03  0.13747833301E+03  0.00000000000E+00 0. -1.
         22    1    1    2    0    0  0.30182961388E+02  0.68314185213E+01  0.17755534842E+03  0.18023202043E+03  0.00000000000E+00 0.  1.
         22    1    1    2    0    0 -0.22304902775E+01 -0.15682012380E+02 -0.16680167991E+02  0.23002795556E+02  0.00000000000E+00 0. -1.
</event>
<event>
 6    1  0.1383644E-005  0.6224405E+02  0.7818608E-02  0.1507889E+00
          2   -1    0    0  502    0  0.00000000000E+00  0.00000000000E+00  0.68467121523E+03  0.68467121523E+03  0.00000000000E+00 0. -1.
          1   -1    0    0  501    0 -0.00000000000E+00 -0.00000000000E+00 -0.59036134925E+02  0.59036134925E+02  0.00000000000E+00 0.  1.
          2    1    1    2  501    0 -0.38872006760E+02  0.32973020792E+02  0.41879164646E+03  0.42188232501E+03  0.00000000000E+00 0. -1.
          1    1    1    2  502    0  0.53209450926E+02 -0.26691631919E+02  0.19005716421E+03  0.19916177985E+03  0.00000000000E+00 0.  1.
         22    1    1    2    0    0 -0.33045189387E+01 -0.10137287616E+02 -0.51902968803E+02  0.52986815494E+02  0.00000000000E+00 0.  1.
         22    1    1    2    0    0 -0.11032925228E+02  0.38558987431E+01  0.68689238428E+02  0.69676429803E+02  0.00000000000E+00 0. -1.
</event>
<event>
 6    1  0.1383644E-005  0.1447143E+03  0.7818608E-02  0.1334817E+00
          2   -1    0    0  502    0  0.00000000000E+00  0.00000000000E+00  0.15858249749E+03  0.15858249749E+03  0.00000000000E+00 0. -1.
          1   -1    0    0  501    0 -0.00000000000E+00 -0.00000000000E+00 -0.18660772300E+03  0.18660772300E+03  0.00000000000E+00 0. -1.
          2    1    1    2  501    0 -0.20176358736E+02  0.66133661764E+02  0.11522552862E+02  0.70096475622E+02  0.00000000000E+00 0. -1.
          1    1    1    2  502    0  0.73342234599E+02 -0.10926079982E+03 -0.35169119669E+02  0.13621260122E+03  0.00000000000E+00 0. -1.
         22    1    1    2    0    0  0.94448834579E+01  0.77465569518E+01 -0.51482716692E+02  0.52912050481E+02  0.00000000000E+00 0. -1.
         22    1    1    2    0    0 -0.62610759321E+02  0.35380581100E+02  0.47104057987E+02  0.85969093170E+02  0.00000000000E+00 0.  1.
</event>
<event>
 6    1  0.1383644E-005  0.1213071E+03  0.7818608E-02  0.1302142E+00
          2   -1    0    0  502    0  0.00000000000E+00  0.00000000000E+00  0.58452423346E+03  0.58452423346E+03  0.00000000000E+00 0.  1.
          1   -1    0    0  501    0 -0.00000000000E+00 -0.00000000000E+00 -0.29932956954E+02  0.29932956954E+02  0.00000000000E+00 0.  1.
          2    1    1    2  501    0  0.22677361804E+02  0.38594949906E+02  0.16457720028E+03  0.17055640635E+03  0.00000000000E+00 0.  1.
          1    1    1    2  502    0  0.25138270126E+02 -0.23253947333E+02  0.23827066623E+03  0.24071890054E+03  0.00000000000E+00 0.  1.
         22    1    1    2    0    0 -0.82949349909E+02 -0.30036326706E+01  0.14234408577E+03  0.16477698630E+03  0.00000000000E+00 0.  1.
         22    1    1    2    0    0  0.35133717979E+02 -0.12337369902E+02  0.93993242330E+01  0.38404897229E+02  0.00000000000E+00 0.  1.
</event>
<event>
 6    1  0.1383644E-005  0.6449872E+02  0.7818608E-02  0.1491091E+00
          2   -1    0    0  502    0  0.00000000000E+00  0.00000000000E+00  0.15917605095E+03  0.15917605095E+03  0.00000000000E+00 0. -1.
          1   -1    0    0  501    0 -0.00000000000E+00 -0.00000000000E+00 -0.12030734554E+03  0.12030734554E+03  0.00000000000E+00 0.  1.
          2    1    1    2  501    0 -0.21965455757E+02 -0.43682217952E+02  0.83102783834E+02  0.96419345013E+02  0.00000000000E+00 0. -1.
          1    1    1    2  502    0  0.20156982946E+02  0.33013605339E+02 -0.42938668929E+02  0.57792139504E+02  0.00000000000E+00 0.  1.
         22    1    1    2    0    0  0.19975064060E+01 -0.11906687311E+02  0.59347469147E+02  0.60563035993E+02  0.00000000000E+00 0. -1.
         22    1    1    2    0    0 -0.18903359480E+00  0.22575299924E+02 -0.60642878640E+02  0.64708875977E+02  0.00000000000E+00 0. -1.
</event>
<event>
 6    1  0.1383644E-005  0.8997140E+02  0.7818608E-02  0.1393314E+00
          2   -1    0    0  502    0  0.00000000000E+00  0.00000000000E+00  0.49750154388E+03  0.49750154388E+03  0.00000000000E+00 0. -1.
          1   -1    0    0  501    0 -0.00000000000E+00 -0.00000000000E+00 -0.13770026150E+03  0.13770026150E+03  0.00000000000E+00 0.  1.
          2    1    1    2  501    0 -0.11085439365E+02  0.66118885971E+02  0.39645545569E+03  0.40208397431E+03  0.00000000000E+00 0. -1.
          1    1    1    2  502    0 -0.12712117521E+02 -0.88821084675E+02 -0.54456992832E+02  0.10495878755E+03  0.00000000000E+00 0.  1.
         22    1    1    2    0    0  0.18924737750E+02  0.27500907536E+01 -0.51995992525E+02  0.55401190752E+02  0.00000000000E+00 0.  1.
         22    1    1    2    0    0  0.48728191366E+01  0.19952107951E+02  0.69798812044E+02  0.72757852777E+02  0.00000000000E+00 0. -1.
</event>
<event>
 6    1  0.1383644E-005  0.7523439E+02  0.7818608E-02  0.1441077E+00
          2   -1    0    0  502    0  0.00000000000E+00  0.00000000000E+00  0.76227624730E+03  0.76227624730E+03  0.00000000000E+00 0.  1.
          1   -1    0    0  501    0 -0.00000000000E+00 -0.00000000000E+00 -0.60725665709E+02  0.60725665709E+02  0.00000000000E+00 0.  1.
          2    1    1    2  501    0 -0.90551482356E+02 -0.29036094753E+01  0.36807713512E+03  0.37906302814E+03  0.00000000000E+00 0.  1.
          1    1    1    2  502    0  0.91597191540E+02  0.55368702680E+02  0.28123541194E+02  0.11066468409E+03  0.00000000000E+00 0.  1.
         22    1    1    2    0    0  0.10759605834E+02 -0.15056548451E+01 -0.93028180070E+01  0.14303095368E+02  0.00000000000E+00 0.  1.
         22    1    1    2    0    0 -0.11805315018E+02 -0.50959438360E+02  0.31465272328E+03  0.31897110542E+03  0.00000000000E+00 0.  1.
</event>
<event>
 6    1  0.1383644E-005  0.4306880E+02  0.7818608E-02  0.1589794E+00
          2   -1    0    0  502    0  0.00000000000E+00  0.00000000000E+00  0.33195914894E+03  0.33195914894E+03  0.00000000000E+00 0.  1.
          1   -1    0    0  501    0 -0.00000000000E+00 -0.00000000000E+00 -0.68558096972E+02  0.68558096972E+02  0.00000000000E+00 0. -1.
          2    1    1    2  501    0  0.26743852951E+02 -0.10815027542E+02  0.24217877107E+03  0.24389086831E+03  0.00000000000E+00 0.  1.
          1    1    1    2  502    0 -0.27866971986E+02  0.45068816886E+01 -0.57118519869E+01  0.28801134758E+02  0.00000000000E+00 0. -1.
         22    1    1    2    0    0 -0.11198231747E+02 -0.55646980453E+00 -0.49166428618E+02  0.50428640236E+02  0.00000000000E+00 0. -1.
         22    1    1    2    0    0  0.12321350782E+02  0.68646156579E+01  0.76100561505E+02  0.77396602603E+02  0.00000000000E+00 0. -1.
</event>
<event>
 6    1  0.1383644E-005  0.3090275E+02  0.7818608E-02  0.1632008E+00
          2   -1    0    0  502    0  0.00000000000E+00  0.00000000000E+00  0.20187560884E+03  0.20187560884E+03  0.00000000000E+00 0.  1.
          1   -1    0    0  501    0 -0.00000000000E+00 -0.00000000000E+00 -0.28432516376E+03  0.28432516376E+03  0.00000000000E+00 0. -1.
          2    1    1    2  501    0  0.26340983438E+02 -0.30583963511E+02  0.12294973386E+03  0.12940580856E+03  0.00000000000E+00 0.  1.
          1    1    1    2  502    0 -0.34084513055E+02  0.29423530778E+02 -0.22844859269E+03  0.23284384831E+03  0.00000000000E+00 0. -1.
         22    1    1    2    0    0  0.18134977065E+02  0.54149465736E+01  0.71630758997E+02  0.74088897104E+02  0.00000000000E+00 0.  1.
         22    1    1    2    0    0 -0.10391447448E+02 -0.42545138400E+01 -0.48581455086E+02  0.49862218626E+02  0.00000000000E+00 0. -1.
</event>
<event>
 6    1  0.1383644E-005  0.7304555E+02  0.7818608E-02  0.1392192E+00
          2   -1    0    0  502    0  0.00000000000E+00  0.00000000000E+00  0.18050605392E+03  0.18050605392E+03  0.00000000000E+00 0.  1.
          1   -1    0    0  501    0 -0.00000000000E+00 -0.00000000000E+00 -0.17541780162E+03  0.17541780162E+03  0.00000000000E+00 0.  1.
          2    1    1    2  501    0  0.58062585135E+02 -0.19834011675E+01 -0.72464033354E+01  0.58546631279E+02  0.00000000000E+00 0.  1.
          1    1    1    2  502    0 -0.40627908506E+02  0.88926471571E+02  0.84089394938E+02  0.12895569253E+03  0.00000000000E+00 0.  1.
         22    1    1    2    0    0  0.25994326215E+02 -0.25456228450E+02  0.26234734235E+02  0.44855165173E+02  0.00000000000E+00 0.  1.
         22    1    1    2    0    0 -0.43429002844E+02 -0.61486841953E+02 -0.97989473528E+02  0.12356636656E+03  0.00000000000E+00 0.  1.
</event>
<event>
 6    1  0.1383644E-005  0.6070726E+02  0.7818608E-02  0.1420381E+00
          2   -1    0    0  502    0  0.00000000000E+00  0.00000000000E+00  0.47179138358E+02  0.47179138358E+02  0.00000000000E+00 0.  1.
          1   -1    0    0  501    0 -0.00000000000E+00 -0.00000000000E+00 -0.48476923344E+03  0.48476923344E+03  0.00000000000E+00 0.  1.
          2    1    1    2  501    0  0.11366818200E+02 -0.28892404731E+02  0.12709813051E+01  0.31073960169E+02  0.00000000000E+00 0.  1.
          1    1    1    2  502    0 -0.13428615804E+02  0.86641404892E+02 -0.26049848788E+03  0.27485727742E+03  0.00000000000E+00 0.  1.
         22    1    1    2    0    0  0.17019933550E+02 -0.19871843633E+02  0.13804317146E+02  0.29582553631E+02  0.00000000000E+00 0.  1.
         22    1    1    2    0    0 -0.14958135946E+02 -0.37877156528E+02 -0.19216690565E+03  0.19643458058E+03  0.00000000000E+00 0.  1.
</event>
<event>
 6    1  0.1383644E-005  0.5692029E+02  0.7818608E-02  0.1508627E+00
          2   -1    0    0  502    0  0.00000000000E+00  0.00000000000E+00  0.42881084843E+03  0.42881084843E+03  0.00000000000E+00 0. -1.
          1   -1    0    0  501    0 -0.00000000000E+00 -0.00000000000E+00 -0.76310907775E+02  0.76310907775E+02  0.00000000000E+00 0. -1.
          2    1    1    2  501    0 -0.17153882840E+02  0.13904695905E+02  0.32819080019E+03  0.32893281623E+03  0.00000000000E+00 0. -1.
          1    1    1    2  502    0  0.46652926726E+02 -0.12542187560E+01  0.87683026457E+01  0.47486332434E+02  0.00000000000E+00 0. -1.
         22    1    1    2    0    0 -0.79605661790E+01 -0.11276630009E+02 -0.54079732137E+02  0.55813532644E+02  0.00000000000E+00 0. -1.
         22    1    1    2    0    0 -0.21538477707E+02 -0.13738471393E+01  0.69620569962E+02  0.72889074900E+02  0.00000000000E+00 0. -1.
</event>
<event>
 6    1  0.1383644E-005  0.3748194E+02  0.7818608E-02  0.1531082E+00
          2   -1    0    0  502    0  0.00000000000E+00  0.00000000000E+00  0.22610771966E+03  0.22610771966E+03  0.00000000000E+00 0.  1.
          1   -1    0    0  501    0 -0.00000000000E+00 -0.00000000000E+00 -0.13702879863E+03  0.13702879863E+03  0.00000000000E+00 0.  1.
          2    1    1    2  501    0 -0.11123261911E+02  0.17944433561E+02  0.15820994385E+03  0.15961239295E+03  0.00000000000E+00 0.  1.
          1    1    1    2  502    0  0.16258213968E+02 -0.15523022450E+02 -0.70582706001E+02  0.74075718922E+02  0.00000000000E+00 0.  1.
         22    1    1    2    0    0  0.80771955834E+01 -0.95400131328E+01 -0.62511040923E+02  0.63748593524E+02  0.00000000000E+00 0.  1.
         22    1    1    2    0    0 -0.13212147640E+02  0.71186020226E+01  0.63962724103E+02  0.65699812897E+02  0.00000000000E+00 0.  1.
</event>
<event>
 6    1  0.1383644E-005  0.4680431E+02  0.7818608E-02  0.1466138E+00
          2   -1    0    0  502    0  0.00000000000E+00  0.00000000000E+00  0.32298127198E+03  0.32298127198E+03  0.00000000000E+00 0.  1.
          1   -1    0    0  501    0 -0.00000000000E+00 -0.00000000000E+00 -0.11132410536E+03  0.11132410536E+03  0.00000000000E+00 0. -1.
          2    1    1    2  501    0  0.18307532818E+02 -0.26574641328E+02  0.25965212807E+03  0.26164977533E+03  0.00000000000E+00 0.  1.
          1    1    1    2  502    0 -0.12083143978E+02  0.22905782255E+02 -0.42922910999E+02  0.50130365226E+02  0.00000000000E+00 0. -1.
         22    1    1    2    0    0  0.81926027381E+01 -0.82830021871E+01  0.56747726046E+02  0.57931263375E+02  0.00000000000E+00 0.  1.
         22    1    1    2    0    0 -0.14416991578E+02  0.11951861260E+02 -0.61819776503E+02  0.64593973408E+02  0.00000000000E+00 0. -1.
</event>
<event>
 6    1  0.1383644E-005  0.3194368E+02  0.7818608E-02  0.1587238E+00
          2   -1    0    0  502    0  0.00000000000E+00  0.00000000000E+00  0.12999691271E+03  0.12999691271E+03  0.00000000000E+00 0. -1.
          1   -1    0    0  501    0 -0.00000000000E+00 -0.00000000000E+00 -0.23514800773E+03  0.23514800773E+03  0.00000000000E+00 0.  1.
          2    1    1    2  501    0 -0.11848189759E+02 -0.51980672763E+02  0.76071179658E+02  0.92893456798E+02  0.00000000000E+00 0. -1.
          1    1    1    2  502    0 -0.14043204274E+02  0.61955938002E+02 -0.94079740937E+02  0.11351981102E+03  0.00000000000E+00 0.  1.
         22    1    1    2    0    0  0.17156913928E+02  0.12000187341E+02  0.31462447139E+02  0.37792191941E+02  0.00000000000E+00 0. -1.
         22    1    1    2    0    0  0.87344801050E+01 -0.21975452580E+02 -0.11860498088E+03  0.12093946068E+03  0.00000000000E+00 0.  1.
</event>
<event>
 6    1  0.1383644E-005  0.1340389E+03  0.7818608E-02  0.1223489E+00
          2   -1    0    0  502    0  0.00000000000E+00  0.00000000000E+00  0.34867390241E+02  0.34867390241E+02  0.00000000000E+00 0.  1.
          1   -1    0    0  501    0 -0.00000000000E+00 -0.00000000000E+00 -0.96147993180E+03  0.96147993180E+03  0.00000000000E+00 0. -1.
          2    1    1    2  501    0  0.15742513180E+01  0.64494808304E+02 -0.89625816866E+02  0.11043027490E+03  0.00000000000E+00 0.  1.
          1    1    1    2  502    0  0.11514431869E+02 -0.92619538135E+02 -0.66439287603E+03  0.67091642900E+03  0.00000000000E+00 0. -1.
         22    1    1    2    0    0  0.39049408479E+01 -0.32326035052E+02 -0.14099195477E+03  0.14470297998E+03  0.00000000000E+00 0.  1.
         22    1    1    2    0    0 -0.16993624035E+02  0.60450764883E+02 -0.31601893888E+02  0.70297638155E+02  0.00000000000E+00 0.  1.
</event>
<event>
 6    1  0.1383644E-005  0.6637179E+02  0.7818608E-02  0.1477817E+00
          2   -1    0    0  502    0  0.00000000000E+00  0.00000000000E+00  0.12938362714E+03  0.12938362714E+03  0.00000000000E+00 0. -1.
          1   -1    0    0  501    0 -0.00000000000E+00 -0.00000000000E+00 -0.73916645182E+03  0.73916645182E+03  0.00000000000E+00 0.  1.
          2    1    1    2  501    0 -0.26024915473E+02  0.87757028936E+01  0.30374757516E+02  0.40950397810E+02  0.00000000000E+00 0. -1.
          1    1    1    2  502    0  0.44559059975E+02 -0.30233607037E+02 -0.68904414119E+03  0.69114499877E+03  0.00000000000E+00 0.  1.
         22    1    1    2    0    0  0.12498893417E+02  0.46885814980E+01 -0.39283840849E+02  0.41490062484E+02  0.00000000000E+00 0.  1.
         22    1    1    2    0    0 -0.31033037919E+02  0.16769322645E+02  0.88170399840E+02  0.94964619898E+02  0.00000000000E+00 0. -1.
</event>
<event>
 6    1  0.1383644E-005  0.1681579E+03  0.7818608E-02  0.1272678E+00
          2   -1    0    0  502    0  0.00000000000E+00  0.00000000000E+00  0.40924955318E+03  0.40924955318E+03  0.00000000000E+00 0. -1.
          1   -1    0    0  501    0 -0.00000000000E+00 -0.00000000000E+00 -0.89802286869E+02  0.89802286869E+02  0.00000000000E+00 0. -1.
          2    1    1    2  501    0  0.21059251276E+02 -0.89606670623E+01  0.12946234162E+02  0.26294307321E+02  0.00000000000E+00 0. -1.
          1    1    1    2  502    0  0.49894628920E+02  0.13293363472E+03  0.47150176468E+02  0.14961271462E+03  0.00000000000E+00 0. -1.
         22    1    1    2    0    0 -0.47197733640E+02 -0.12923168549E+03  0.26462094218E+03  0.29824938833E+03  0.00000000000E+00 0. -1.
         22    1    1    2    0    0 -0.23756146556E+02  0.52587178325E+01 -0.52700864986E+01  0.24895429784E+02  0.00000000000E+00 0.  1.
</event>
<event>
 6    1  0.1383644E-005  0.6279831E+02  0.7818608E-02  0.1452995E+00
          2   -1    0    0  502    0  0.00000000000E+00  0.00000000000E+00  0.27942639909E+03  0.27942639909E+03  0.00000000000E+00 0. -1.
          1   -1    0    0  501    0 -0.00000000000E+00 -0.00000000000E+00 -0.54938975581E+02  0.54938975581E+02  0.00000000000E+00 0.  1.
          2    1    1    2  501    0 -0.29831463129E+02 -0.21763128243E+01  0.10799581445E+03  0.11206136028E+03  0.00000000000E+00 0. -1.
          1    1    1    2  502    0  0.21049132612E+02  0.30377779643E+02 -0.14788290723E+02  0.39806645453E+02  0.00000000000E+00 0.  1.
         22    1    1    2    0    0  0.22202093269E+02  0.39037766119E+01 -0.18230028996E+02  0.28991487967E+02  0.00000000000E+00 0.  1.
         22    1    1    2    0    0 -0.13419762751E+02 -0.32105243430E+02  0.14950992878E+03  0.15350588097E+03  0.00000000000E+00 0. -1.
</event>
<event>
 6    1  0.1383644E-005  0.1757889E+03  0.7818608E-02  0.1274109E+00
          2   -1    0    0  502    0  0.00000000000E+00  0.00000000000E+00  0.67028027952E+03  0.67028027952E+03  0.00000000000E+00 0.  1.
          1   -1    0    0  501    0 -0.00000000000E+00 -0.00000000000E+00 -0.85707633002E+02  0.85707633002E+02  0.00000000000E+00 0. -1.
          2    1    1    2  501    0  0.99375137081E+02  0.10846895853E+03  0.36894038353E+03  0.39718753686E+03  0.00000000000E+00 0.  1.
          1    1    1    2  502    0 -0.10437339763E+03 -0.11832728018E+03  0.11252048831E+03  0.19379373482E+03  0.00000000000E+00 0. -1.
         22    1    1    2    0    0  0.17382130144E+02  0.26470298849E+02  0.12843814132E+03  0.13228443339E+03  0.00000000000E+00 0. -1.
         22    1    1    2    0    0 -0.12383869598E+02 -0.16611977200E+02 -0.25326366649E+02  0.32722207449E+02  0.00000000000E+00 0.  1.
</event>
<event>
 6    1  0.1383644E-005  0.6342608E+02  0.7818608E-02  0.1461538E+00
          2   -1    0    0  502    0  0.00000000000E+00  0.00000000000E+00  0.27432448685E+03  0.27432448685E+03  0.00000000000E+00 0.  1.
          1   -1    0    0  501    0 -0.00000000000E+00 -0.00000000000E+00 -0.45518713233E+02  0.45518713233E+02  0.00000000000E+00 0. -1.
          2    1    1    2  501    0 -0.75947414064E+01  0.21966553075E+02  0.44326014163E+02  0.50050025801E+02  0.00000000000E+00 0.  1.
          1    1    1    2  502    0  0.56409004232E+02 -0.21194885003E+02  0.41807713012E+02  0.73342237326E+02  0.00000000000E+00 0. -1.
         22    1    1    2    0    0 -0.31826875020E+02  0.84245106499E+01  0.16423415070E+03  0.16750157793E+03  0.00000000000E+00 0.  1.
         22    1    1    2    0    0 -0.16987387806E+02 -0.91961787223E+01 -0.21562104262E+02  0.28949359021E+02  0.00000000000E+00 0. -1.
</event>
<event>
 6    1  0.1383644E-005  0.1850423E+03  0.7818608E-02  0.1167277E+00
          2   -1    0    0  502    0  0.00000000000E+00  0.00000000000E+00  0.61469995945E+03  0.61469995945E+03  0.00000000000E+00 0.  1.
          1   -1    0    0  501    0 -0.00000000000E+00 -0.00000000000E+00 -0.21688503517E+03  0.21688503517E+03  0.00000000000E+00 0. -1.
          2    1    1    2  501    0 -0.42200623966E+01  0.61672001289E+02  0.19575987323E+03  0.20528802361E+03  0.00000000000E+00 0.  1.
          1    1    1    2  502    0 -0.97080389417E+02 -0.12356438018E+03 -0.16085255681E+03  0.22486952460E+03  0.00000000000E+00 0. -1.
         22    1    1    2    0    0  0.13251338816E+01 -0.10052054820E+02 -0.64885104379E+01  0.12037464584E+02  0.00000000000E+00 0. -1.
         22    1    1    2    0    0  0.99975317932E+02  0.71944433716E+02  0.36939611829E+03  0.38938998183E+03  0.00000000000E+00 0.  1.
</event>
<event>
 6    1  0.1383644E-005  0.1144978E+03  0.7818608E-02  0.1352978E+00
          2   -1    0    0  502    0  0.00000000000E+00  0.00000000000E+00  0.13865563952E+03  0.13865563952E+03  0.00000000000E+00 0.  1.
          1   -1    0    0  501    0 -0.00000000000E+00 -0.00000000000E+00 -0.21053897769E+03  0.21053897769E+03  0.00000000000E+00 0.  1.
          2    1    1    2  501    0 -0.54626916307E+02  0.75833984509E+01  0.30162140157E+02  0.62859864907E+02  0.00000000000E+00 0.  1.
          1    1    1    2  502    0  0.77240585483E+02  0.26882855984E+02 -0.13061595598E+03  0.15410815666E+03  0.00000000000E+00 0.  1.
         22    1    1    2    0    0 -0.36614201623E+02 -0.45840796649E+02  0.67432624794E+02  0.89381974047E+02  0.00000000000E+00 0.  1.
         22    1    1    2    0    0  0.14000532447E+02  0.11374542215E+02 -0.38862147142E+02  0.42844621598E+02  0.00000000000E+00 0.  1.
</event>
<event>
 6    1  0.1383644E-005  0.5248275E+02  0.7818608E-02  0.1455272E+00
          2   -1    0    0  502    0  0.00000000000E+00  0.00000000000E+00  0.12492131480E+03  0.12492131480E+03  0.00000000000E+00 0.  1.
          1   -1    0    0  501    0 -0.00000000000E+00 -0.00000000000E+00 -0.11094940906E+03  0.11094940906E+03  0.00000000000E+00 0.  1.
          2    1    1    2  501    0 -0.28271801596E+02 -0.10230153591E+02  0.43964428798E+02  0.53261823171E+02  0.00000000000E+00 0.  1.
          1    1    1    2  502    0  0.35527435814E+02 -0.20153912295E+02  0.14617070434E+02  0.43382457565E+02  0.00000000000E+00 0.  1.
         22    1    1    2    0    0 -0.32729812744E+02  0.30671937274E+01  0.36988748974E+02  0.49485511721E+02  0.00000000000E+00 0.  1.
         22    1    1    2    0    0  0.25474178527E+02  0.27316872159E+02 -0.81598342460E+02  0.89740931399E+02  0.00000000000E+00 0.  1.
</event>
<event>
 6    1  0.1383644E-005  0.5178482E+02  0.7818608E-02  0.1499822E+00
          2   -1    0    0  502    0  0.00000000000E+00  0.00000000000E+00  0.46599689051E+03  0.46599689051E+03  0.00000000000E+00 0.  1.
          1   -1    0    0  501    0 -0.00000000000E+00 -0.00000000000E+00 -0.42422293086E+02  0.42422293086E+02  0.00000000000E+00 0.  1.
          2    1    1    2  501    0  0.21786086542E+02  0.17500648748E+02  0.22793263364E+03  0.22963926440E+03  0.00000000000E+00 0.  1.
          1    1    1    2  502    0 -0.52452085962E+02 -0.27859627866E+02  0.10705830602E+03  0.12242900422E+03  0.00000000000E+00 0.  1.
         22    1    1    2    0    0  0.11487384483E+02  0.18079557899E+02  0.11825934523E+03  0.12018362264E+03  0.00000000000E+00 0.  1.
         22    1    1    2    0    0  0.19178614937E+02 -0.77205787815E+01 -0.29675687475E+02  0.36167292333E+02  0.00000000000E+00 0.  1.
</event>
<event>
 6    1  0.1383644E-005  0.3287310E+03  0.7818608E-02  0.1203265E+00
          2   -1    0    0  502    0  0.00000000000E+00  0.00000000000E+00  0.62745413406E+03  0.62745413406E+03  0.00000000000E+00 0. -1.
          1   -1    0    0  501    0 -0.00000000000E+00 -0.00000000000E+00 -0.10996526110E+03  0.10996526110E+03  0.00000000000E+00 0. -1.
          2    1    1    2  501    0 -0.13936567157E+03  0.39966507174E+02  0.13819759057E+03  0.20029649560E+03  0.00000000000E+00 0. -1.
          1    1    1    2  502    0 -0.15343800608E+02 -0.15185363799E+03  0.17736278046E+03  0.23399255432E+03  0.00000000000E+00 0. -1.
         22    1    1    2    0    0  0.12331137214E+02 -0.52822311319E+01 -0.13861292689E+02  0.19289747166E+02  0.00000000000E+00 0. -1.
         22    1    1    2    0    0  0.14237833497E+03  0.11716936195E+03  0.21578979463E+03  0.28384059807E+03  0.00000000000E+00 0. -1.
</event>
<event>
 6    1  0.1383644E-005  0.2372328E+02  0.7818608E-02  0.1720339E+00
          2   -1    0    0  502    0  0.00000000000E+00  0.00000000000E+00  0.10876347718E+03  0.10876347718E+03  0.00000000000E+00 0. -1.
          1   -1    0    0  501    0 -0.00000000000E+00 -0.00000000000E+00 -0.82686093587E+02  0.82686093587E+02  0.00000000000E+00 0.  1.
          2    1    1    2  501    0  0.20975480337E+02  0.23006895522E+02  0.18239461896E+02  0.36082765792E+02  0.00000000000E+00 0. -1.
          1    1    1    2  502    0 -0.27187882868E+02 -0.21900898831E+02  0.34898030753E+01  0.35085738840E+02  0.00000000000E+00 0.  1.
         22    1    1    2    0    0 -0.10630579431E+02  0.22935655859E+01 -0.56251194833E+02  0.57292814404E+02  0.00000000000E+00 0.  1.
         22    1    1    2    0    0  0.16842981962E+02 -0.33995622771E+01  0.60599313457E+02  0.62988251734E+02  0.00000000000E+00 0. -1.
</event>
<event>
 6    1  0.1383644E-005  0.7444075E+02  0.7818608E-02  0.1387921E+00
          2   -1    0    0  502    0  0.00000000000E+00  0.00000000000E+00  0.57296664231E+03  0.57296664231E+03  0.00000000000E+00 0.  1.
          1   -1    0    0  501    0 -0.00000000000E+00 -0.00000000000E+00 -0.93143170413E+02  0.93143170413E+02  0.00000000000E+00 0.  1.
          2    1    1    2  501    0  0.97393654075E+01  0.63287500628E+02  0.46423176193E+03  0.46862702842E+03  0.00000000000E+00 0.  1.
          1    1    1    2  502    0  0.27433792282E+02 -0.61742013522E+02  0.18794351920E+02  0.70127860774E+02  0.00000000000E+00 0.  1.
         22    1    1    2    0    0 -0.34643691327E+02 -0.12463421269E+02 -0.59490774699E+02  0.69961950321E+02  0.00000000000E+00 0. -1.
         22    1    1    2    0    0 -0.25294663628E+01  0.10917934163E+02  0.56288132745E+02  0.57392973214E+02  0.00000000000E+00 0. -1.
</event>
<event>
 6    1  0.1383644E-005  0.4586132E+02  0.7818608E-02  0.1506364E+00
          2   -1    0    0  502    0  0.00000000000E+00  0.00000000000E+00  0.24386567402E+03  0.24386567402E+03  0.00000000000E+00 0.  1.
          1   -1    0    0  501    0 -0.00000000000E+00 -0.00000000000E+00 -0.10230475272E+04  0.10230475272E+04  0.00000000000E+00 0.  1.
          2    1    1    2  501    0 -0.71779521191E+01 -0.44662042547E+02  0.76832484792E+02  0.89159698073E+02  0.00000000000E+00 0.  1.
          1    1    1    2  502    0 -0.28205620400E+01  0.59152677338E+02 -0.98967441545E+03  0.99144462448E+03  0.00000000000E+00 0.  1.
         22    1    1    2    0    0  0.77642090695E+00 -0.29048719750E+02  0.15566770595E+03  0.15835676690E+03  0.00000000000E+00 0.  1.
         22    1    1    2    0    0  0.92220932521E+01  0.14558084959E+02 -0.22007628495E+02  0.27952111791E+02  0.00000000000E+00 0. -1.
</event>
<event>
 6    1  0.1383644E-005  0.1157188E+03  0.7818608E-02  0.1253486E+00
          2   -1    0    0  502    0  0.00000000000E+00  0.00000000000E+00  0.40681345228E+03  0.40681345228E+03  0.00000000000E+00 0. -1.
          1   -1    0    0  501    0 -0.00000000000E+00 -0.00000000000E+00 -0.18228752353E+03  0.18228752353E+03  0.00000000000E+00 0.  1.
          2    1    1    2  501    0 -0.73945939388E+02 -0.24595121345E+02  0.23072490131E+03  0.24353008445E+03  0.00000000000E+00 0. -1.
          1    1    1    2  502    0  0.83551461601E+02  0.49145717522E+02 -0.13216304752E+03  0.16390002872E+03  0.00000000000E+00 0.  1.
         22    1    1    2    0    0  0.74873159908E+01  0.77377706823E+01 -0.24538896951E+02  0.26797209919E+02  0.00000000000E+00 0.  1.
         22    1    1    2    0    0 -0.17092838204E+02 -0.32288366859E+02  0.15050297191E+03  0.15487365272E+03  0.00000000000E+00 0.  1.
</event>
<event>
 6    1  0.1383644E-005  0.3186045E+03  0.7818608E-02  0.1159712E+00
          2   -1    0    0  502    0  0.00000000000E+00  0.00000000000E+00  0.33358804299E+03  0.33358804299E+03  0.00000000000E+00 0. -1.
          1   -1    0    0  501    0 -0.00000000000E+00 -0.00000000000E+00 -0.28303882017E+03  0.28303882017E+03  0.00000000000E+00 0. -1.
          2    1    1    2  501    0 -0.68831331844E+02 -0.41551706855E+00 -0.94893905376E+02  0.11722959599E+03  0.00000000000E+00 0. -1.
          1    1    1    2  502    0 -0.32333549521E+02  0.19625914635E+03  0.14410043882E+03  0.24561768548E+03  0.00000000000E+00 0. -1.
         22    1    1    2    0    0  0.78369837486E+02 -0.16402934588E+03  0.52639374817E+02  0.18925739489E+03  0.00000000000E+00 0. -1.
         22    1    1    2    0    0  0.22795043879E+02 -0.31814283403E+02 -0.51296685442E+02  0.64522186814E+02  0.00000000000E+00 0.  1.
</event>
<event>
 6    1  0.1383644E-005  0.7676797E+02  0.7818608E-02  0.1364938E+00
          2   -1    0    0  502    0  0.00000000000E+00  0.00000000000E+00  0.57177654324E+02  0.57177654324E+02  0.00000000000E+00 0.  1.
          1   -1    0    0  501    0 -0.00000000000E+00 -0.00000000000E+00 -0.34312166795E+03  0.34312166795E+03  0.00000000000E+00 0.  1.
          2    1    1    2  501    0  0.23114089469E+02  0.37638789129E+01 -0.16726427118E+02  0.28778486419E+02  0.00000000000E+00 0.  1.
          1    1    1    2  502    0 -0.69599567556E+02  0.60415059066E+02 -0.46831707356E+02  0.10337934020E+03  0.00000000000E+00 0.  1.
         22    1    1    2    0    0  0.40332112437E+02 -0.15632294259E+02 -0.29947697205E+01  0.43359157776E+02  0.00000000000E+00 0.  1.
         22    1    1    2    0    0  0.61533656499E+01 -0.48546643720E+02 -0.21939110943E+03  0.22478233788E+03  0.00000000000E+00 0.  1.
</event>
<event>
 6    1  0.1383644E-005  0.6864675E+02  0.7818608E-02  0.1452479E+00
          2   -1    0    0  502    0  0.00000000000E+00  0.00000000000E+00  0.27166912484E+03  0.27166912484E+03  0.00000000000E+00 0.  1.
          1   -1    0    0  501    0 -0.00000000000E+00 -0.00000000000E+00 -0.83221830162E+02  0.83221830162E+02  0.00000000000E+00 0.  1.
          2    1    1    2  501    0 -0.37038471655E+02  0.56111220100E+02  0.12198356083E+03  0.13928498309E+03  0.00000000000E+00 0.  1.
          1    1    1    2  502    0 -0.42992063907E+02 -0.11217179229E+02  0.29269607437E+02  0.53205757098E+02  0.00000000000E+00 0.  1.
         22    1    1    2    0    0  0.76748652743E+02 -0.27817496444E+02  0.81164253594E+02  0.11511648391E+03  0.00000000000E+00 0.  1.
         22    1    1    2    0    0  0.32818828183E+01 -0.17076544427E+02 -0.43970127176E+02  0.47283730904E+02  0.00000000000E+00 0.  1.
</event>
<event>
 6    1  0.1383644E-005  0.1007661E+03  0.7818608E-02  0.1279907E+00
          2   -1    0    0  502    0  0.00000000000E+00  0.00000000000E+00  0.58999491219E+02  0.58999491219E+02  0.00000000000E+00 0.  1.
          1   -1    0    0  501    0 -0.00000000000E+00 -0.00000000000E+00 -0.25875741205E+03  0.25875741205E+03  0.00000000000E+00 0.  1.
          2    1    1    2  501    0 -0.10645881351E+02 -0.20627625383E+02 -0.13854990652E+02  0.27033210772E+02  0.00000000000E+00 0.  1.
          1    1    1    2  502    0  0.41544331157E+02  0.63145984381E+02 -0.11644431509E+03  0.13882588127E+03  0.00000000000E+00 0.  1.
         22    1    1    2    0    0 -0.42606959044E+02 -0.56832275374E+02  0.87186831850E+01  0.71563090484E+02  0.00000000000E+00 0.  1.
         22    1    1    2    0    0  0.11708509239E+02  0.14313916375E+02 -0.78177298275E+02  0.80334720739E+02  0.00000000000E+00 0.  1.
</event>
<event>
 6    1  0.1383644E-005  0.9923123E+02  0.7818608E-02  0.1334108E+00
          2   -1    0    0  502    0  0.00000000000E+00  0.00000000000E+00  0.18795008886E+03  0.18795008886E+03  0.00000000000E+00 0.  1.
          1   -1    0    0  501    0 -0.00000000000E+00 -0.00000000000E+00 -0.12063016429E+03  0.12063016429E+03  0.00000000000E+00 0. -1.
          2    1    1    2  501    0 -0.35449902791E+02 -0.32085440664E+02  0.41452871084E+02  0.63281210732E+02  0.00000000000E+00 0.  1.
          1    1    1    2  502    0  0.86390815898E+02  0.14875062631E+02  0.52584981954E+02  0.10222436543E+03  0.00000000000E+00 0. -1.
         22    1    1    2    0    0  0.82411124570E+01  0.37463833154E+02 -0.60763048157E+02  0.71858212825E+02  0.00000000000E+00 0. -1.
         22    1    1    2    0    0 -0.59182025564E+02 -0.20253455121E+02  0.34045119684E+02  0.71216464168E+02  0.00000000000E+00 0. -1.
</event>
<event>
 6    1  0.1383644E-005  0.5148699E+02  0.7818608E-02  0.1488984E+00
          2   -1    0    0  502    0  0.00000000000E+00  0.00000000000E+00  0.63432733923E+03  0.63432733923E+03  0.00000000000E+00 0.  1.
          1   -1    0    0  501    0 -0.00000000000E+00 -0.00000000000E+00 -0.37870779846E+02  0.37870779846E+02  0.00000000000E+00 0.  1.
          2    1    1    2  501    0  0.38260359354E+02 -0.44055845833E+02  0.53161134408E+02  0.78935916170E+02  0.00000000000E+00 0.  1.
          1    1    1    2  502    0 -0.44078819708E+02  0.37497002062E+01  0.39638746205E+03  0.39884837052E+03  0.00000000000E+00 0.  1.
         22    1    1    2    0    0  0.26026780461E+02  0.54054177459E+02  0.15692290124E+03  0.16800013195E+03  0.00000000000E+00 0. -1.
         22    1    1    2    0    0 -0.20208320107E+02 -0.13748031833E+02 -0.10014938318E+02  0.26413700429E+02  0.00000000000E+00 0.  1.
</event>
<event>
 6    1  0.1383644E-005  0.6630812E+02  0.7818608E-02  0.1378992E+00
          2   -1    0    0  502    0  0.00000000000E+00  0.00000000000E+00  0.79352354294E+02  0.79352354294E+02  0.00000000000E+00 0.  1.
          1   -1    0    0  501    0 -0.00000000000E+00 -0.00000000000E+00 -0.54695170244E+03  0.54695170244E+03  0.00000000000E+00 0. -1.
          2    1    1    2  501    0  0.26340053620E+02  0.55139531048E+02  0.28457378559E+02  0.67409114393E+02  0.00000000000E+00 0.  1.
          1    1    1    2  502    0 -0.25807322961E+02 -0.55037587781E+02 -0.38522286754E+03  0.38998950199E+03  0.00000000000E+00 0. -1.
         22    1    1    2    0    0 -0.49799944533E+02 -0.10615854418E+02 -0.10686115364E+03  0.11837245034E+03  0.00000000000E+00 0. -1.
         22    1    1    2    0    0  0.49267213875E+02  0.10513911151E+02 -0.39727055219E+01  0.50532990015E+02  0.00000000000E+00 0.  1.
</event>
<event>
 6    1  0.1383644E-005  0.5688535E+02  0.7818608E-02  0.1451289E+00
          2   -1    0    0  502    0  0.00000000000E+00  0.00000000000E+00  0.74073634892E+02  0.74073634892E+02  0.00000000000E+00 0.  1.
          1   -1    0    0  501    0 -0.00000000000E+00 -0.00000000000E+00 -0.49594004197E+03  0.49594004197E+03  0.00000000000E+00 0. -1.
          2    1    1    2  501    0 -0.24523150892E+02 -0.22727207591E+02  0.27572142929E+02  0.43337442936E+02  0.00000000000E+00 0.  1.
          1    1    1    2  502    0  0.74991450734E+02  0.71479863314E+01 -0.34446765349E+03  0.35260853037E+03  0.00000000000E+00 0. -1.
         22    1    1    2    0    0 -0.21756095207E+02  0.36338437945E+01  0.29056225673E+02  0.36480087030E+02  0.00000000000E+00 0.  1.
         22    1    1    2    0    0 -0.28712204635E+02  0.11945377465E+02 -0.13402712219E+03  0.13758761652E+03  0.00000000000E+00 0.  1.
</event>
<event>
 6    1  0.1383644E-005  0.8110472E+02  0.7818608E-02  0.1415725E+00
          2   -1    0    0  502    0  0.00000000000E+00  0.00000000000E+00  0.16409731819E+03  0.16409731819E+03  0.00000000000E+00 0.  1.
          1   -1    0    0  501    0 -0.00000000000E+00 -0.00000000000E+00 -0.14721634828E+03  0.14721634828E+03  0.00000000000E+00 0.  1.
          2    1    1    2  501    0 -0.46891347858E+02  0.11286806155E+02  0.21815188508E+02  0.52934799015E+02  0.00000000000E+00 0.  1.
          1    1    1    2  502    0  0.74291239574E+02 -0.29178788825E+02  0.73231994554E+02  0.10832135072E+03  0.00000000000E+00 0.  1.
         22    1    1    2    0    0 -0.32609564347E+02  0.29795305647E+00  0.27593066861E+02  0.42718260752E+02  0.00000000000E+00 0.  1.
         22    1    1    2    0    0  0.52096726314E+01  0.17594029613E+02 -0.10575928002E+03  0.10733925599E+03  0.00000000000E+00 0.  1.
</event>
<event>
 6    1  0.1383644E-005  0.7680890E+02  0.7818608E-02  0.1419604E+00
          2   -1    0    0  502    0  0.00000000000E+00  0.00000000000E+00  0.25019071986E+03  0.25019071986E+03  0.00000000000E+00 0. -1.
          1   -1    0    0  501    0 -0.00000000000E+00 -0.00000000000E+00 -0.13074718333E+03  0.13074718333E+03  0.00000000000E+00 0. -1.
          2    1    1    2  501    0 -0.53542863441E+02 -0.34049382200E+02  0.10819352929E+03  0.12542742298E+03  0.00000000000E+00 0. -1.
          1    1    1    2  502    0  0.57348875194E+02  0.12155565285E+02 -0.80580364747E+02  0.99648614823E+02  0.00000000000E+00 0. -1.
         22    1    1    2    0    0  0.14520835179E+02  0.13052164906E+02 -0.28100131648E+02  0.34217408751E+02  0.00000000000E+00 0. -1.
         22    1    1    2    0    0 -0.18326846932E+02  0.88416520083E+01  0.11993050363E+03  0.12164445664E+03  0.00000000000E+00 0. -1.
</event>
<event>
 6    1  0.1383644E-005  0.1450772E+03  0.7818608E-02  0.1277637E+00
          2   -1    0    0  502    0  0.00000000000E+00  0.00000000000E+00  0.66004412394E+02  0.66004412394E+02  0.00000000000E+00 0. -1.
          1   -1    0    0  501    0 -0.00000000000E+00 -0.00000000000E+00 -0.14942569263E+04  0.14942569263E+04  0.00000000000E+00 0. -1.
          2    1    1    2  501    0 -0.14453875906E+02 -0.12591029814E+03 -0.10546500895E+04  0.10622377931E+04  0.00000000000E+00 0. -1.
          1    1    1    2  502    0 -0.64103617311E+02 -0.34412777668E+02 -0.87276855888E+01  0.73278138042E+02  0.00000000000E+00 0. -1.
         22    1    1    2    0    0  0.82605342879E+02  0.12610990658E+03 -0.17156561403E+03  0.22839026058E+03  0.00000000000E+00 0. -1.
         22    1    1    2    0    0 -0.40478496621E+01  0.34213169224E+02 -0.19330912478E+03  0.19635514701E+03  0.00000000000E+00 0.  1.
</event>
<event>
 6    1  0.1383644E-005  0.1057692E+03  0.7818608E-02  0.1341565E+00
          2   -1    0    0  502    0  0.00000000000E+00  0.00000000000E+00  0.33462646408E+03  0.33462646408E+03  0.00000000000E+00 0. -1.
          1   -1    0    0  501    0 -0.00000000000E+00 -0.00000000000E+00 -0.63709174109E+02  0.63709174109E+02  0.00000000000E+00 0. -1.
          2    1    1    2  501    0 -0.23195683782E+02  0.26803172259E+02  0.48837053922E+02  0.60344905543E+02  0.00000000000E+00 0. -1.
          1    1    1    2  502    0  0.96351639924E+02  0.22589315678E+02  0.11045981839E+03  0.14830808197E+03  0.00000000000E+00 0. -1.
         22    1    1    2    0    0 -0.23875101264E+02 -0.14291553378E+02 -0.26789937219E+02  0.38626023540E+02  0.00000000000E+00 0.  1.
         22    1    1    2    0    0 -0.49280854878E+02 -0.35100934559E+02  0.13841035487E+03  0.15105662713E+03  0.00000000000E+00 0. -1.
</event>
<event>
 6    1  0.1383644E-005  0.1603539E+03  0.7818608E-02  0.1288962E+00
          2   -1    0    0  502    0  0.00000000000E+00  0.00000000000E+00  0.46910622549E+03  0.46910622549E+03  0.00000000000E+00 0. -1.
          1   -1    0    0  501    0 -0.00000000000E+00 -0.00000000000E+00 -0.11721739757E+03  0.11721739757E+03  0.00000000000E+00 0.  1.
          2    1    1    2  501    0  0.30787140183E+02 -0.96509582968E+02  0.36992181310E+02  0.10784418892E+03  0.00000000000E+00 0. -1.
          1    1    1    2  502    0 -0.82976020444E+02  0.12388772829E+03  0.30429893402E+03  0.33886727554E+03  0.00000000000E+00 0.  1.
         22    1    1    2    0    0  0.12769895046E+02  0.16151919971E+02 -0.50701028911E+02  0.54722473180E+02  0.00000000000E+00 0.  1.
         22    1    1    2    0    0  0.39418985214E+02 -0.43530065295E+02  0.61298741502E+02  0.84889685414E+02  0.00000000000E+00 0. -1.
</event>
<event>
 6    1  0.1383644E-005  0.2606961E+02  0.7818608E-02  0.1672990E+00
          2   -1    0    0  502    0  0.00000000000E+00  0.00000000000E+00  0.12312061734E+03  0.12312061734E+03  0.00000000000E+00 0.  1.
          1   -1    0    0  501    0 -0.00000000000E+00 -0.00000000000E+00 -0.11009384950E+03  0.11009384950E+03  0.00000000000E+00 0. -1.
          2    1    1    2  501    0 -0.34287489132E+02  0.11454048294E+02  0.48745832176E+02  0.60687587593E+02  0.00000000000E+00 0.  1.
          1    1    1    2  502    0  0.47138811336E+02 -0.43508946339E+01 -0.93250608410E+01  0.48248881624E+02  0.00000000000E+00 0. -1.
         22    1    1    2    0    0 -0.44316302849E+01 -0.14970474127E+02 -0.73829846759E+02  0.75462578243E+02  0.00000000000E+00 0. -1.
         22    1    1    2    0    0 -0.84196919191E+01  0.78673204665E+01  0.47435843265E+02  0.48815419383E+02  0.00000000000E+00 0. -1.
</event>
<event>
 6    1  0.1383644E-005  0.5602325E+02  0.7818608E-02  0.1528317E+00
          2   -1    0    0  502    0  0.00000000000E+00  0.00000000000E+00  0.33638709230E+03  0.33638709230E+03  0.00000000000E+00 0.  1.
          1   -1    0    0  501    0 -0.00000000000E+00 -0.00000000000E+00 -0.15789833490E+03  0.15789833490E+03  0.00000000000E+00 0. -1.
          2    1    1    2  501    0 -0.36987522470E+02 -0.10824690772E+02  0.12331810837E+03  0.12919987075E+03  0.00000000000E+00 0.  1.
          1    1    1    2  502    0  0.92248615004E+02  0.25212234719E+02  0.16324877036E+03  0.18919731703E+03  0.00000000000E+00 0. -1.
         22    1    1    2    0    0 -0.54782938913E+02 -0.32783850536E+01 -0.13555688257E+03  0.14624495416E+03  0.00000000000E+00 0. -1.
         22    1    1    2    0    0 -0.47815362089E+00 -0.11109158893E+02  0.27478761235E+02  0.29643285263E+02  0.00000000000E+00 0.  1.
</event>
<event>
 6    1  0.1383644E-005  0.6474823E+02  0.7818608E-02  0.1501147E+00
          2   -1    0    0  502    0  0.00000000000E+00  0.00000000000E+00  0.40301963168E+03  0.40301963168E+03  0.00000000000E+00 0. -1.
          1   -1    0    0  501    0 -0.00000000000E+00 -0.00000000000E+00 -0.44410869501E+02  0.44410869501E+02  0.00000000000E+00 0.  1.
          2    1    1    2  501    0  0.26596127360E+02  0.94841395265E-01  0.19502412185E+03  0.19682929429E+03  0.00000000000E+00 0. -1.
          1    1    1    2  502    0 -0.55044266623E+02 -0.24602685715E+01  0.15112469599E+02  0.57134148693E+02  0.00000000000E+00 0.  1.
         22    1    1    2    0    0 -0.77281490250E+01 -0.69387226714E+01 -0.19122049838E+02  0.21760582475E+02  0.00000000000E+00 0.  1.
         22    1    1    2    0    0  0.36176288288E+02  0.93041498476E+01  0.16759422057E+03  0.17170647573E+03  0.00000000000E+00 0. -1.
</event>
<event>
 6    1  0.1383644E-005  0.2169393E+03  0.7818608E-02  0.1137506E+00
          2   -1    0    0  502    0  0.00000000000E+00  0.00000000000E+00  0.63138770093E+03  0.63138770093E+03  0.00000000000E+00 0.  1.
          1   -1    0    0  501    0 -0.00000000000E+00 -0.00000000000E+00 -0.19416491852E+03  0.19416491852E+03  0.00000000000E+00 0. -1.
          2    1    1    2  501    0  0.55792390476E+02 -0.17434543147E+03  0.47770994413E+03  0.51158177355E+03  0.00000000000E+00 0.  1.
          1    1    1    2  502    0 -0.74829765169E+02  0.16197439831E+03 -0.63881335667E+02  0.18951523556E+03  0.00000000000E+00 0. -1.
         22    1    1    2    0    0  0.20861501112E+02 -0.17163806762E+02  0.66724109549E+02  0.71985451907E+02  0.00000000000E+00 0.  1.
         22    1    1    2    0    0 -0.18241264190E+01  0.29534839925E+02 -0.43329935596E+02  0.52470158427E+02  0.00000000000E+00 0. -1.
</event>
<event>
 6    1  0.1383644E-005  0.6438573E+03  0.7818608E-02  0.9820439E-01
          2   -1    0    0  502    0  0.00000000000E+00  0.00000000000E+00  0.77533186892E+03  0.77533186892E+03  0.00000000000E+00 0. -1.
          1   -1    0    0  501    0 -0.00000000000E+00 -0.00000000000E+00 -0.11959912089E+04  0.11959912089E+04  0.00000000000E+00 0. -1.
          2    1    1    2  501    0 -0.31102554863E+03 -0.51828670606E+03  0.48197426257E+03  0.77308291364E+03  0.00000000000E+00 0. -1.
          1    1    1    2  502    0  0.28132228066E+03  0.53809204312E+03 -0.87838573293E+03  0.10678233788E+04  0.00000000000E+00 0. -1.
         22    1    1    2    0    0  0.33309407125E+02  0.13199598856E+02 -0.67184170499E+02  0.76141045295E+02  0.00000000000E+00 0.  1.
         22    1    1    2    0    0 -0.36061391589E+01 -0.33004935917E+02  0.42936300859E+02  0.54275740124E+02  0.00000000000E+00 0. -1.
</event>
<event>
 6    1  0.1383644E-005  0.1412397E+03  0.7818608E-02  0.1293577E+00
          2   -1    0    0  502    0  0.00000000000E+00  0.00000000000E+00  0.30524919746E+03  0.30524919746E+03  0.00000000000E+00 0.  1.
          1   -1    0    0  501    0 -0.00000000000E+00 -0.00000000000E+00 -0.35469350294E+03  0.35469350294E+03  0.00000000000E+00 0. -1.
          2    1    1    2  501    0 -0.20095137309E+02 -0.11987133803E+03  0.23197577142E+03  0.26188873735E+03  0.00000000000E+00 0.  1.
          1    1    1    2  502    0 -0.14878351318E+02  0.13288434960E+03 -0.21506373466E+03  0.25324301702E+03  0.00000000000E+00 0. -1.
         22    1    1    2    0    0  0.27082907777E+02  0.55320490353E+01 -0.10100938628E+03  0.10472336691E+03  0.00000000000E+00 0. -1.
         22    1    1    2    0    0  0.78905808497E+01 -0.18545060604E+02  0.34653044032E+02  0.40087579119E+02  0.00000000000E+00 0.  1.
</event>
<event>
 6    1  0.1383644E-005  0.1105841E+03  0.7818608E-02  0.1353432E+00
          2   -1    0    0  502    0  0.00000000000E+00  0.00000000000E+00  0.35402940530E+03  0.35402940530E+03  0.00000000000E+00 0.  1.
          1   -1    0    0  501    0 -0.00000000000E+00 -0.00000000000E+00 -0.34441754750E+03  0.34441754750E+03  0.00000000000E+00 0.  1.
          2    1    1    2  501    0 -0.79846987135E+02  0.41649862596E+02  0.28305600891E+03  0.29703696165E+03  0.00000000000E+00 0.  1.
          1    1    1    2  502    0  0.77325905407E+02 -0.67533206100E+02 -0.25373400660E+03  0.27371696272E+03  0.00000000000E+00 0.  1.
         22    1    1    2    0    0  0.16512327326E+02  0.11050177340E+02 -0.70350096894E+02  0.73101980179E+02  0.00000000000E+00 0. -1.
         22    1    1    2    0    0 -0.13991245597E+02  0.14833166164E+02  0.50639952388E+02  0.54591048256E+02  0.00000000000E+00 0. -1.
</event>
<event>
 6    1  0.1383644E-005  0.6321006E+02  0.7818608E-02  0.1484430E+00
          2   -1    0    0  502    0  0.00000000000E+00  0.00000000000E+00  0.20942392950E+03  0.20942392950E+03  0.00000000000E+00 0.  1.
          1   -1    0    0  501    0 -0.00000000000E+00 -0.00000000000E+00 -0.10690095567E+03  0.10690095567E+03  0.00000000000E+00 0. -1.
          2    1    1    2  501    0  0.28107280462E+02 -0.38786955637E+02  0.12132539382E+03  0.13043886817E+03  0.00000000000E+00 0.  1.
          1    1    1    2  502    0 -0.17511859534E+02  0.54410846704E+02  0.99163982890E+01  0.58013277949E+02  0.00000000000E+00 0. -1.
         22    1    1    2    0    0  0.34660058479E+01 -0.16308378113E+02  0.47512232447E+02  0.50352642684E+02  0.00000000000E+00 0.  1.
         22    1    1    2    0    0 -0.14061426776E+02  0.68448704668E+00 -0.76231050726E+02  0.77520096364E+02  0.00000000000E+00 0. -1.
</event>
<event>
 6    1  0.1383644E-005  0.1340931E+03  0.7818608E-02  0.1281374E+00
          2   -1    0    0  502    0  0.00000000000E+00  0.00000000000E+00  0.37822499407E+03  0.37822499407E+03  0.00000000000E+00 0. -1.
          1   -1    0    0  501    0 -0.00000000000E+00 -0.00000000000E+00 -0.10947472807E+03  0.10947472807E+03  0.00000000000E+00 0. -1.
          2    1    1    2  501    0 -0.11966512929E+03 -0.44581842542E+01  0.21291646144E+03  0.24428065443E+03  0.00000000000E+00 0. -1.
          1    1    1    2  502    0  0.11020296600E+03  0.25366889613E+02  0.37896102832E+02  0.11926561706E+03  0.00000000000E+00 0. -1.
         22    1    1    2    0    0  0.27582176024E+02 -0.29837493197E+02 -0.43472867460E+02  0.59505820217E+02  0.00000000000E+00 0. -1.
         22    1    1    2    0    0 -0.18120012729E+02  0.89287878387E+01  0.61410569185E+02  0.64647630437E+02  0.00000000000E+00 0.  1.
</event>
<event>
 6    1  0.1383644E-005  0.1283274E+03  0.7818608E-02  0.1257502E+00
          2   -1    0    0  502    0  0.00000000000E+00  0.00000000000E+00  0.16831079288E+04  0.16831079288E+04  0.00000000000E+00 0. -1.
          1   -1    0    0  501    0 -0.00000000000E+00 -0.00000000000E+00 -0.34584797858E+02  0.34584797858E+02  0.00000000000E+00 0. -1.
          2    1    1    2  501    0  0.11349599823E+02  0.17720555400E+02  0.25408550306E+02  0.32991300800E+02  0.00000000000E+00 0. -1.
          1    1    1    2  502    0 -0.12313592746E+03  0.33078321289E+02  0.13718760564E+04  0.13777882806E+04  0.00000000000E+00 0. -1.
         22    1    1    2    0    0  0.19561130513E+02 -0.70946825557E+02  0.15766015005E+03  0.17399084113E+03  0.00000000000E+00 0.  1.
         22    1    1    2    0    0  0.92225197126E+02  0.20147948868E+02  0.93578374224E+02  0.13292230419E+03  0.00000000000E+00 0. -1.
</event>
<event>
 6    1  0.1383644E-005  0.6290437E+02  0.7818608E-02  0.1462791E+00
          2   -1    0    0  502    0  0.00000000000E+00  0.00000000000E+00  0.24781481725E+03  0.24781481725E+03  0.00000000000E+00 0. -1.
          1   -1    0    0  501    0 -0.00000000000E+00 -0.00000000000E+00 -0.18730584884E+03  0.18730584884E+03  0.00000000000E+00 0. -1.
          2    1    1    2  501    0 -0.59092173642E+02  0.40765886260E+02  0.17909806581E+03  0.19295040722E+03  0.00000000000E+00 0. -1.
          1    1    1    2  502    0  0.19367798602E+02 -0.34002671296E+02 -0.96846469015E+02  0.10445349127E+03  0.00000000000E+00 0. -1.
         22    1    1    2    0    0  0.20568791439E+02 -0.10106558089E+02 -0.76368530877E+02  0.79733118627E+02  0.00000000000E+00 0.  1.
         22    1    1    2    0    0  0.19155583600E+02  0.33433431242E+01  0.54625902483E+02  0.57983648975E+02  0.00000000000E+00 0.  1.
</event>
<event>
 6    1  0.1383644E-005  0.9809927E+02  0.7818608E-02  0.1324907E+00
          2   -1    0    0  502    0  0.00000000000E+00  0.00000000000E+00  0.24209119208E+03  0.24209119208E+03  0.00000000000E+00 0. -1.
          1   -1    0    0  501    0 -0.00000000000E+00 -0.00000000000E+00 -0.22195517065E+03  0.22195517065E+03  0.00000000000E+00 0.  1.
          2    1    1    2  501    0 -0.37175916399E+02 -0.49851110889E+02  0.16251953137E+03  0.17401086200E+03  0.00000000000E+00 0. -1.
          1    1    1    2  502    0  0.90480610598E+02  0.22539621327E+02 -0.11492828027E+03  0.14799758454E+03  0.00000000000E+00 0.  1.
         22    1    1    2    0    0 -0.23029092814E+02  0.40609559641E+02 -0.72456329972E+02  0.86193939480E+02  0.00000000000E+00 0.  1.
         22    1    1    2    0    0 -0.30275601385E+02 -0.13298070079E+02  0.45001100298E+02  0.55843976713E+02  0.00000000000E+00 0.  1.
</event>
<event>
 6    1  0.1383644E-005  0.9001586E+02  0.7818608E-02  0.1403896E+00
          2   -1    0    0  502    0  0.00000000000E+00  0.00000000000E+00  0.30271857798E+03  0.30271857798E+03  0.00000000000E+00 0. -1.
          1   -1    0    0  501    0 -0.00000000000E+00 -0.00000000000E+00 -0.72398119528E+02  0.72398119528E+02  0.00000000000E+00 0.  1.
          2    1    1    2  501    0  0.15477330498E+02 -0.18648036282E+02  0.31754013059E+02  0.39945141906E+02  0.00000000000E+00 0. -1.
          1    1    1    2  502    0  0.28572248028E+02  0.60002211365E+02 -0.26331665120E+02  0.71484231226E+02  0.00000000000E+00 0.  1.
         22    1    1    2    0    0 -0.14707891482E+02  0.66550059285E+01 -0.12053566613E+02  0.20146951229E+02  0.00000000000E+00 0.  1.
         22    1    1    2    0    0 -0.29341687045E+02 -0.48009181011E+02  0.23695167712E+03  0.24354037314E+03  0.00000000000E+00 0. -1.
</event>
<event>
 6    1  0.1383644E-005  0.9190160E+02  0.7818608E-02  0.1425468E+00
          2   -1    0    0  502    0  0.00000000000E+00  0.00000000000E+00  0.68893330329E+03  0.68893330329E+03  0.00000000000E+00 0.  1.
          1   -1    0    0  501    0 -0.00000000000E+00 -0.00000000000E+00 -0.11814230162E+03  0.11814230162E+03  0.00000000000E+00 0. -1.
          2    1    1    2  501    0 -0.46617462366E+02 -0.23497709628E+02  0.48194718195E+03  0.48476635232E+03  0.00000000000E+00 0.  1.
          1    1    1    2  502    0  0.82285842263E+02  0.36773109775E+02 -0.72115992297E+02  0.11542936275E+03  0.00000000000E+00 0. -1.
         22    1    1    2    0    0 -0.28622722511E+02 -0.21537457632E+02  0.18077224253E+03  0.18428707495E+03  0.00000000000E+00 0. -1.
         22    1    1    2    0    0 -0.70456573859E+01  0.82620574855E+01 -0.19812430512E+02  0.22592814891E+02  0.00000000000E+00 0.  1.
</event>
<event>
 6    1  0.1383644E-005  0.9039497E+02  0.7818608E-02  0.1399313E+00
          2   -1    0    0  502    0  0.00000000000E+00  0.00000000000E+00  0.25574329353E+03  0.25574329353E+03  0.00000000000E+00 0. -1.
          1   -1    0    0  501    0 -0.00000000000E+00 -0.00000000000E+00 -0.85031677140E+03  0.85031677140E+03  0.00000000000E+00 0. -1.
          2    1    1    2  501    0  0.76045980689E+02  0.95269895628E+02  0.11782674247E+03  0.16953608888E+03  0.00000000000E+00 0. -1.
          1    1    1    2  502    0 -0.10908958875E+03 -0.54162293219E+02 -0.77461850755E+03  0.78413514436E+03  0.00000000000E+00 0. -1.
         22    1    1    2    0    0 -0.10949417281E+02  0.50724363921E+01 -0.34491096389E+02  0.36541142290E+02  0.00000000000E+00 0. -1.
         22    1    1    2    0    0  0.43993025340E+02 -0.46180038801E+02  0.96709383603E+02  0.11584768940E+03  0.00000000000E+00 0. -1.
</event>
<event>
 6    1  0.1383644E-005  0.7552085E+02  0.7818608E-02  0.1343114E+00
          2   -1    0    0  502    0  0.00000000000E+00  0.00000000000E+00  0.33260655744E+03  0.33260655744E+03  0.00000000000E+00 0. -1.
          1   -1    0    0  501    0 -0.00000000000E+00 -0.00000000000E+00 -0.12947235519E+03  0.12947235519E+03  0.00000000000E+00 0.  1.
          2    1    1    2  501    0 -0.29917497980E+02 -0.31646150129E+02  0.16342308177E+03  0.16912610431E+03  0.00000000000E+00 0. -1.
          1    1    1    2  502    0  0.22653445159E+02  0.57075876030E+02 -0.91103565462E+02  0.10986670944E+03  0.00000000000E+00 0.  1.
         22    1    1    2    0    0  0.11602507789E+02  0.56233070351E+01 -0.22859987173E+02  0.26245357352E+02  0.00000000000E+00 0.  1.
         22    1    1    2    0    0 -0.43384549671E+01 -0.31053032935E+02  0.15367467311E+03  0.15684074153E+03  0.00000000000E+00 0.  1.
</event>
<event>
 6    1  0.1383644E-005  0.1543085E+03  0.7818608E-02  0.1289787E+00
          2   -1    0    0  502    0  0.00000000000E+00  0.00000000000E+00  0.17757284481E+03  0.17757284481E+03  0.00000000000E+00 0.  1.
          1   -1    0    0  501    0 -0.00000000000E+00 -0.00000000000E+00 -0.33184668010E+03  0.33184668010E+03  0.00000000000E+00 0.  1.
          2    1    1    2  501    0 -0.79053024627E+02 -0.10721020713E+03  0.51573907369E+02  0.14284004039E+03  0.00000000000E+00 0.  1.
          1    1    1    2  502    0  0.74829516267E+02  0.10835883956E+03 -0.19811395597E+03  0.23788701975E+03  0.00000000000E+00 0.  1.
         22    1    1    2    0    0  0.15059675551E+02  0.18856905827E+02 -0.63786130546E+02  0.68198586313E+02  0.00000000000E+00 0.  1.
         22    1    1    2    0    0 -0.10836167191E+02 -0.20005538250E+02  0.56052343854E+02  0.60493878464E+02  0.00000000000E+00 0.  1.
</event>
<event>
 6    1  0.1383644E-005  0.6514344E+02  0.7818608E-02  0.1393543E+00
          2   -1    0    0  502    0  0.00000000000E+00  0.00000000000E+00  0.70469483096E+03  0.70469483096E+03  0.00000000000E+00 0. -1.
          1   -1    0    0  501    0 -0.00000000000E+00 -0.00000000000E+00 -0.24793968597E+02  0.24793968597E+02  0.00000000000E+00 0. -1.
          2    1    1    2  501    0  0.10536423843E+02 -0.59017861690E+02  0.40357218879E+03  0.40800077916E+03  0.00000000000E+00 0. -1.
          1    1    1    2  502    0  0.20810375388E+02  0.24471877789E+02  0.66770012285E+02  0.74095742569E+02  0.00000000000E+00 0. -1.
         22    1    1    2    0    0  0.14696724170E+02 -0.23654435598E+02  0.14907922005E+03  0.15165797004E+03  0.00000000000E+00 0. -1.
         22    1    1    2    0    0 -0.46043523401E+02  0.58200419499E+02  0.60479441238E+02  0.95734307798E+02  0.00000000000E+00 0. -1.
</event>
<event>
 6    1  0.1383644E-005  0.8848183E+02  0.7818608E-02  0.1332106E+00
          2   -1    0    0  502    0  0.00000000000E+00  0.00000000000E+00  0.10002377001E+03  0.10002377001E+03  0.00000000000E+00 0. -1.
          1   -1    0    0  501    0 -0.00000000000E+00 -0.00000000000E+00 -0.34039299134E+03  0.34039299134E+03  0.00000000000E+00 0. -1.
          2    1    1    2  501    0 -0.21838591720E+02  0.23887700110E+01 -0.19228073819E+02  0.29195018981E+02  0.00000000000E+00 0. -1.
          1    1    1    2  502    0  0.57843095794E+02  0.79447796338E+02  0.41961481239E+02  0.10685757803E+03  0.00000000000E+00 0. -1.
         22    1    1    2    0    0 -0.30902379997E+02  0.69390624614E+01 -0.58906223280E+01  0.32215013716E+02  0.00000000000E+00 0. -1.
         22    1    1    2    0    0 -0.51021240772E+01 -0.88775628811E+02 -0.25721200642E+03  0.27214915063E+03  0.00000000000E+00 0. -1.
</event>
<event>
 6    1  0.1383644E-005  0.6782039E+02  0.7818608E-02  0.1412202E+00
          2   -1    0    0  502    0  0.00000000000E+00  0.00000000000E+00  0.93283865598E+02  0.93283865598E+02  0.00000000000E+00 0.  1.
          1   -1    0    0  501    0 -0.00000000000E+00 -0.00000000000E+00 -0.16860516745E+03  0.16860516745E+03  0.00000000000E+00 0.  1.
          2    1    1    2  501    0 -0.29546194990E+02  0.29647792812E+02  0.20675186756E+02  0.46684393584E+02  0.00000000000E+00 0.  1.
          1    1    1    2  502    0  0.11833026484E+02 -0.58343751521E+02 -0.42038438885E+02  0.72878283468E+02  0.00000000000E+00 0.  1.
         22    1    1    2    0    0 -0.14192499186E+02  0.19716929780E+02  0.37705622018E+02  0.44854189156E+02  0.00000000000E+00 0.  1.
         22    1    1    2    0    0  0.31905667693E+02  0.89790289301E+01 -0.91663671743E+02  0.97472166842E+02  0.00000000000E+00 0. -1.
</event>
<event>
 6    1  0.1383644E-005  0.1841796E+03  0.7818608E-02  0.1227666E+00
          2   -1    0    0  502    0  0.00000000000E+00  0.00000000000E+00  0.39574429513E+03  0.39574429513E+03  0.00000000000E+00 0. -1.
          1   -1    0    0  501    0 -0.00000000000E+00 -0.00000000000E+00 -0.51543187547E+03  0.51543187547E+03  0.00000000000E+00 0.  1.
          2    1    1    2  501    0 -0.10579401101E+03 -0.13709003316E+03  0.32578909490E+03  0.36895065295E+03  0.00000000000E+00 0. -1.
          1    1    1    2  502    0  0.12851065813E+03  0.11091543040E+03 -0.31603336489E+03  0.35873989140E+03  0.00000000000E+00 0.  1.
         22    1    1    2    0    0  0.23361396030E+01 -0.11825340858E+02  0.22144240675E+02  0.25212370570E+02  0.00000000000E+00 0. -1.
         22    1    1    2    0    0 -0.25052786728E+02  0.37999943621E+02 -0.15158755103E+03  0.15827325568E+03  0.00000000000E+00 0.  1.
</event>
<event>
 6    1  0.1383644E-005  0.1185304E+03  0.7818608E-02  0.1332399E+00
          2   -1    0    0  502    0  0.00000000000E+00  0.00000000000E+00  0.55192777196E+02  0.55192777196E+02  0.00000000000E+00 0. -1.
          1   -1    0    0  501    0 -0.00000000000E+00 -0.00000000000E+00 -0.43483576573E+03  0.43483576573E+03  0.00000000000E+00 0.  1.
          2    1    1    2  501    0  0.23638086689E+02 -0.15775102893E+02 -0.57710070250E+02  0.64327795095E+02  0.00000000000E+00 0. -1.
          1    1    1    2  502    0  0.23828819448E+02  0.21390071406E+02 -0.29094103171E+03  0.29269785056E+03  0.00000000000E+00 0.  1.
         22    1    1    2    0    0 -0.29498636444E+02 -0.20277111580E+02  0.42716739650E+02  0.55731953603E+02  0.00000000000E+00 0. -1.
         22    1    1    2    0    0 -0.17968269693E+02  0.14662143067E+02 -0.73708626226E+02  0.77270943668E+02  0.00000000000E+00 0.  1.
</event>
<event>
 6    1  0.1383644E-005  0.5589356E+02  0.7818608E-02  0.1518728E+00
          2   -1    0    0  502    0  0.00000000000E+00  0.00000000000E+00  0.16876591842E+03  0.16876591842E+03  0.00000000000E+00 0. -1.
          1   -1    0    0  501    0 -0.00000000000E+00 -0.00000000000E+00 -0.11376767973E+03  0.11376767973E+03  0.00000000000E+00 0.  1.
          2    1    1    2  501    0 -0.32103008514E+02 -0.19684770039E+02  0.89178099523E+02  0.96803030747E+02  0.00000000000E+00 0. -1.
          1    1    1    2  502    0  0.31795002034E+02  0.29416028591E+02 -0.36124070229E+02  0.56401891300E+02  0.00000000000E+00 0.  1.
         22    1    1    2    0    0 -0.11321021577E+02 -0.14888392826E+02  0.63641770105E+02  0.66333284802E+02  0.00000000000E+00 0. -1.
         22    1    1    2    0    0  0.11629028057E+02  0.51571342752E+01 -0.61697560709E+02  0.62995391299E+02  0.00000000000E+00 0.  1.
</event>
<event>
 6    1  0.1383644E-005  0.2021671E+03  0.7818608E-02  0.1178676E+00
          2   -1    0    0  502    0  0.00000000000E+00  0.00000000000E+00  0.45799448023E+03  0.45799448023E+03  0.00000000000E+00 0. -1.
          1   -1    0    0  501    0 -0.00000000000E+00 -0.00000000000E+00 -0.15307659718E+03  0.15307659718E+03  0.00000000000E+00 0. -1.
          2    1    1    2  501    0 -0.83244766398E+02 -0.16832983188E+02  0.87988928687E+01  0.85384196263E+02  0.00000000000E+00 0. -1.
          1    1    1    2  502    0 -0.85063901984E+02  0.15785456413E+03  0.16194985295E+03  0.24162302396E+03  0.00000000000E+00 0. -1.
         22    1    1    2    0    0  0.18080512895E+03 -0.14703062980E+03  0.13639166456E+03  0.27002071572E+03  0.00000000000E+00 0. -1.
         22    1    1    2    0    0 -0.12496460569E+02  0.60090488597E+01 -0.22225273181E+01  0.14043141480E+02  0.00000000000E+00 0. -1.
</event>
<event>
 6    1  0.1383644E-005  0.2887563E+02  0.7818608E-02  0.1674308E+00
          2   -1    0    0  502    0  0.00000000000E+00  0.00000000000E+00  0.17782544242E+03  0.17782544242E+03  0.00000000000E+00 0. -1.
          1   -1    0    0  501    0 -0.00000000000E+00 -0.00000000000E+00 -0.12018089571E+03  0.12018089571E+03  0.00000000000E+00 0. -1.
          2    1    1    2  501    0  0.29479997919E+02 -0.39204182211E+01  0.10672190144E+03  0.11078810497E+03  0.00000000000E+00 0. -1.
          1    1    1    2  502    0  0.11885622498E+02  0.16100309500E+02 -0.50295588704E+02  0.54130714306E+02  0.00000000000E+00 0. -1.
         22    1    1    2    0    0 -0.27487713008E+02 -0.14071220691E+02  0.62774110311E+02  0.69958291456E+02  0.00000000000E+00 0.  1.
         22    1    1    2    0    0 -0.13877907410E+02  0.18913294119E+01 -0.61555876335E+02  0.63129227402E+02  0.00000000000E+00 0.  1.
</event>
<event>
 6    1  0.1383644E-005  0.6584473E+02  0.7818608E-02  0.1474444E+00
          2   -1    0    0  502    0  0.00000000000E+00  0.00000000000E+00  0.14689627726E+03  0.14689627726E+03  0.00000000000E+00 0.  1.
          1   -1    0    0  501    0 -0.00000000000E+00 -0.00000000000E+00 -0.13922009795E+03  0.13922009795E+03  0.00000000000E+00 0.  1.
          2    1    1    2  501    0 -0.66340496392E+02 -0.74984050358E+01  0.86531631471E+02  0.10929323302E+03  0.00000000000E+00 0.  1.
          1    1    1    2  502    0  0.13029113013E+02  0.20269430580E+02 -0.19625829674E+02  0.31077013890E+02  0.00000000000E+00 0.  1.
         22    1    1    2    0    0 -0.11316377116E+02  0.88131804445E+01 -0.74542414032E+02  0.75909841459E+02  0.00000000000E+00 0.  1.
         22    1    1    2    0    0  0.64627760494E+02 -0.21584205988E+02  0.15312791537E+02  0.69836286838E+02  0.00000000000E+00 0.  1.
</event>
<event>
 6    1  0.1383644E-005  0.1861359E+03  0.7818608E-02  0.1231439E+00
          2   -1    0    0  502    0  0.00000000000E+00  0.00000000000E+00  0.34683945277E+03  0.34683945277E+03  0.00000000000E+00 0.  1.
          1   -1    0    0  501    0 -0.00000000000E+00 -0.00000000000E+00 -0.12692690511E+03  0.12692690511E+03  0.00000000000E+00 0.  1.
          2    1    1    2  501    0  0.34324435360E+02 -0.26065214623E+02 -0.10682636833E+02  0.44403614783E+02  0.00000000000E+00 0.  1.
          1    1    1    2  502    0 -0.84134228537E+02  0.98254918969E+02 -0.25865474322E+02  0.13191520108E+03  0.00000000000E+00 0.  1.
         22    1    1    2    0    0  0.44107053673E+01 -0.40548316366E+02  0.63385958682E+01  0.41277089039E+02  0.00000000000E+00 0. -1.
         22    1    1    2    0    0  0.45399087810E+02 -0.31641387980E+02  0.25012206295E+03  0.25617045298E+03  0.00000000000E+00 0.  1.
</event>
<event>
 6    1  0.1383644E-005  0.1008461E+03  0.7818608E-02  0.1368454E+00
          2   -1    0    0  502    0  0.00000000000E+00  0.00000000000E+00  0.22555289971E+03  0.22555289971E+03  0.00000000000E+00 0. -1.
          1   -1    0    0  501    0 -0.00000000000E+00 -0.00000000000E+00 -0.13528180334E+03  0.13528180334E+03  0.00000000000E+00 0.  1.
          2    1    1    2  501    0 -0.60387880776E+02  0.11826886722E+02  0.87593189671E+02  0.10704736461E+03  0.00000000000E+00 0. -1.
          1    1    1    2  502    0  0.84569391621E+02  0.19423000021E+01 -0.63805890328E+02  0.10595728464E+03  0.00000000000E+00 0.  1.
         22    1    1    2    0    0 -0.37466701040E+02  0.16592184939E+01  0.10101013405E+03  0.10774763976E+03  0.00000000000E+00 0. -1.
         22    1    1    2    0    0  0.13285190195E+02 -0.15428405218E+02 -0.34526337031E+02  0.40082414035E+02  0.00000000000E+00 0.  1.
</event>
<event>
 6    1  0.1383644E-005  0.5119391E+02  0.7818608E-02  0.1463702E+00
          2   -1    0    0  502    0  0.00000000000E+00  0.00000000000E+00  0.15655968603E+03  0.15655968603E+03  0.00000000000E+00 0.  1.
          1   -1    0    0  501    0 -0.00000000000E+00 -0.00000000000E+00 -0.12766772161E+03  0.12766772161E+03  0.00000000000E+00 0.  1.
          2    1    1    2  501    0  0.25202502753E+02 -0.16097449254E+02  0.94703691450E+02  0.99313056502E+02  0.00000000000E+00 0.  1.
          1    1    1    2  502    0 -0.11649132075E+02  0.44595740883E+02 -0.11843196422E+02  0.47589323219E+02  0.00000000000E+00 0.  1.
         22    1    1    2    0    0 -0.31402486415E+02 -0.16776089314E+02 -0.89247407079E+02  0.96086695208E+02  0.00000000000E+00 0.  1.
         22    1    1    2    0    0  0.17849115737E+02 -0.11722202315E+02  0.35278876472E+02  0.41238332712E+02  0.00000000000E+00 0.  1.
</event>
<event>
 6    1  0.1383644E-005  0.1013371E+03  0.7818608E-02  0.1378034E+00
          2   -1    0    0  502    0  0.00000000000E+00  0.00000000000E+00  0.44712956300E+03  0.44712956300E+03  0.00000000000E+00 0. -1.
          1   -1    0    0  501    0 -0.00000000000E+00 -0.00000000000E+00 -0.20632852651E+03  0.20632852651E+03  0.00000000000E+00 0. -1.
          2    1    1    2  501    0 -0.13512299381E+03 -0.67663774449E+02  0.22180654218E+03  0.26839290599E+03  0.00000000000E+00 0. -1.
          1    1    1    2  502    0  0.17897230555E+03  0.33337078862E+02 -0.96594170236E+02  0.20608949684E+03  0.00000000000E+00 0. -1.
         22    1    1    2    0    0 -0.40602441974E+02  0.43870134275E+02  0.14018300014E+03  0.15239560526E+03  0.00000000000E+00 0. -1.
         22    1    1    2    0    0 -0.32468697728E+01 -0.95434386879E+01 -0.24594335592E+02  0.26580081424E+02  0.00000000000E+00 0.  1.
</event>
<event>
 6    1  0.1383644E-005  0.7849378E+02  0.7818608E-02  0.1409446E+00
          2   -1    0    0  502    0  0.00000000000E+00  0.00000000000E+00  0.13083250463E+03  0.13083250463E+03  0.00000000000E+00 0.  1.
          1   -1    0    0  501    0 -0.00000000000E+00 -0.00000000000E+00 -0.17379770658E+03  0.17379770658E+03  0.00000000000E+00 0.  1.
          2    1    1    2  501    0  0.25027307563E+02 -0.20184672068E+02  0.46760418056E+02  0.56747896940E+02  0.00000000000E+00 0.  1.
          1    1    1    2  502    0 -0.83496357969E+02  0.33900052518E+02 -0.19759983635E+02  0.92256773779E+02  0.00000000000E+00 0.  1.
         22    1    1    2    0    0  0.36661156706E+02 -0.18457577367E+02  0.31496867186E+02  0.51737560977E+02  0.00000000000E+00 0.  1.
         22    1    1    2    0    0  0.21807893700E+02  0.47421969176E+01 -0.10146250356E+03  0.10388797952E+03  0.00000000000E+00 0.  1.
</event>
<event>
 6    1  0.1383644E-005  0.5413910E+02  0.7818608E-02  0.1484181E+00
          2   -1    0    0  502    0  0.00000000000E+00  0.00000000000E+00  0.89756627355E+02  0.89756627355E+02  0.00000000000E+00 0.  1.
          1   -1    0    0  501    0 -0.00000000000E+00 -0.00000000000E+00 -0.40703400605E+03  0.40703400605E+03  0.00000000000E+00 0.  1.
          2    1    1    2  501    0  0.28258950853E+02 -0.82975086764E+02 -0.97607058630E+02  0.13118906670E+03  0.00000000000E+00 0.  1.
          1    1    1    2  502    0 -0.40311181554E+02  0.97955242730E+02 -0.21124498793E+03  0.23631476014E+03  0.00000000000E+00 0.  1.
         22    1    1    2    0    0  0.24116466737E+02 -0.17502684069E+02  0.56138596681E+02  0.63556981952E+02  0.00000000000E+00 0.  1.
         22    1    1    2    0    0 -0.12064236036E+02  0.25225281034E+01 -0.64563928814E+02  0.65729824609E+02  0.00000000000E+00 0. -1.
</event>
<event>
 6    1  0.1383644E-005  0.3411837E+03  0.7818608E-02  0.1208026E+00
          2   -1    0    0  502    0  0.00000000000E+00  0.00000000000E+00  0.77271982110E+03  0.77271982110E+03  0.00000000000E+00 0. -1.
          1   -1    0    0  501    0 -0.00000000000E+00 -0.00000000000E+00 -0.50442197721E+03  0.50442197721E+03  0.00000000000E+00 0. -1.
          2    1    1    2  501    0 -0.25329804333E+02  0.20243611472E+02  0.46519879595E+02  0.56705396485E+02  0.00000000000E+00 0. -1.
          1    1    1    2  502    0  0.31835091194E+03 -0.94573157235E+02 -0.39922045855E+03  0.51929602321E+03  0.00000000000E+00 0. -1.
         22    1    1    2    0    0 -0.30068185755E+03  0.66672946319E+02  0.61699638974E+03  0.68959365294E+03  0.00000000000E+00 0. -1.
         22    1    1    2    0    0  0.76607499440E+01  0.76565994436E+01  0.40020331025E+01  0.11546725670E+02  0.00000000000E+00 0. -1.
</event>
<event>
 6    1  0.1383644E-005  0.8554025E+02  0.7818608E-02  0.1365142E+00
          2   -1    0    0  502    0  0.00000000000E+00  0.00000000000E+00  0.16239401740E+03  0.16239401740E+03  0.00000000000E+00 0. -1.
          1   -1    0    0  501    0 -0.00000000000E+00 -0.00000000000E+00 -0.23832395122E+03  0.23832395122E+03  0.00000000000E+00 0. -1.
          2    1    1    2  501    0 -0.26071225492E+02  0.53129861474E+01  0.11721476086E+03  0.12019665879E+03  0.00000000000E+00 0. -1.
          1    1    1    2  502    0 -0.71104293266E+01 -0.46222426327E+02 -0.10845311541E+03  0.11810651609E+03  0.00000000000E+00 0. -1.
         22    1    1    2    0    0 -0.47472685822E+01  0.34929956292E+02 -0.11060811485E+03  0.11608959246E+03  0.00000000000E+00 0. -1.
         22    1    1    2    0    0  0.37928923401E+02  0.59794838880E+01  0.25916535583E+02  0.46325201290E+02  0.00000000000E+00 0. -1.
</event>
<event>
 6    1  0.1383644E-005  0.4654803E+02  0.7818608E-02  0.1557793E+00
          2   -1    0    0  502    0  0.00000000000E+00  0.00000000000E+00  0.28589066679E+02  0.28589066679E+02  0.00000000000E+00 0.  1.
          1   -1    0    0  501    0 -0.00000000000E+00 -0.00000000000E+00 -0.10630870228E+04  0.10630870228E+04  0.00000000000E+00 0.  1.
          2    1    1    2  501    0 -0.16872716913E+02  0.12443464439E+02 -0.23255756298E+02  0.31310678439E+02  0.00000000000E+00 0.  1.
          1    1    1    2  502    0  0.57416079985E+02  0.21087537735E+01 -0.85183797422E+03  0.85377338176E+03  0.00000000000E+00 0.  1.
         22    1    1    2    0    0 -0.12799487351E+02  0.33405885996E+01  0.20108198726E+02  0.24069193270E+02  0.00000000000E+00 0.  1.
         22    1    1    2    0    0 -0.27743875721E+02 -0.17892806812E+02 -0.17951242433E+03  0.18252283601E+03  0.00000000000E+00 0.  1.
</event>
<event>
 6    1  0.1383644E-005  0.1112787E+03  0.7818608E-02  0.1259693E+00
          2   -1    0    0  502    0  0.00000000000E+00  0.00000000000E+00  0.19687751087E+03  0.19687751087E+03  0.00000000000E+00 0. -1.
          1   -1    0    0  501    0 -0.00000000000E+00 -0.00000000000E+00 -0.25570102577E+03  0.25570102577E+03  0.00000000000E+00 0.  1.
          2    1    1    2  501    0 -0.32894887399E+02  0.11401626970E+02  0.72941420102E+02  0.80824015497E+02  0.00000000000E+00 0. -1.
          1    1    1    2  502    0  0.94673323415E+02 -0.11086968426E+01 -0.19525211486E+03  0.21699690259E+03  0.00000000000E+00 0.  1.
         22    1    1    2    0    0 -0.71439766026E+02  0.31644955841E+01  0.95148126866E+02  0.11902445231E+03  0.00000000000E+00 0. -1.
         22    1    1    2    0    0  0.96613300104E+01 -0.13457425712E+02 -0.31660947011E+02  0.35733166246E+02  0.00000000000E+00 0.  1.
</event>
<event>
 6    1  0.1383644E-005  0.9922272E+02  0.7818608E-02  0.1367730E+00
          2   -1    0    0  502    0  0.00000000000E+00  0.00000000000E+00  0.19438023468E+03  0.19438023468E+03  0.00000000000E+00 0.  1.
          1   -1    0    0  501    0 -0.00000000000E+00 -0.00000000000E+00 -0.24498695941E+03  0.24498695941E+03  0.00000000000E+00 0.  1.
          2    1    1    2  501    0 -0.28757145987E+02  0.52937649990E+02  0.87190430111E+02  0.10597895704E+03  0.00000000000E+00 0.  1.
          1    1    1    2  502    0 -0.54052090422E+01 -0.83802053122E+02 -0.17928407217E+03  0.19797671309E+03  0.00000000000E+00 0.  1.
         22    1    1    2    0    0  0.21055124875E+02 -0.49724944049E+01 -0.39975846947E+02  0.45454508283E+02  0.00000000000E+00 0.  1.
         22    1    1    2    0    0  0.13107230154E+02  0.35836897537E+02  0.81462764271E+02  0.89957015680E+02  0.00000000000E+00 0.  1.
</event>
<event>
 6    1  0.1383644E-005  0.8443562E+02  0.7818608E-02  0.1364878E+00
          2   -1    0    0  502    0  0.00000000000E+00  0.00000000000E+00  0.12871306559E+03  0.12871306559E+03  0.00000000000E+00 0. -1.
          1   -1    0    0  501    0 -0.00000000000E+00 -0.00000000000E+00 -0.26958507062E+03  0.26958507062E+03  0.00000000000E+00 0. -1.
          2    1    1    2  501    0  0.44117821283E+02 -0.56662990783E+02  0.71108647627E+02  0.10106194361E+03  0.00000000000E+00 0. -1.
          1    1    1    2  502    0 -0.18334327997E+02  0.76467238773E+02 -0.82594836721E+02  0.11404075255E+03  0.00000000000E+00 0. -1.
         22    1    1    2    0    0  0.95722337242E+01 -0.95440872601E+01  0.22862404809E+02  0.26559495736E+02  0.00000000000E+00 0. -1.
         22    1    1    2    0    0 -0.35355727010E+02 -0.10260160730E+02 -0.15224822075E+03  0.15663594431E+03  0.00000000000E+00 0. -1.
</event>
<event>
 6    1  0.1383644E-005  0.1447163E+03  0.7818608E-02  0.1315776E+00
          2   -1    0    0  502    0  0.00000000000E+00  0.00000000000E+00  0.41803606400E+03  0.41803606400E+03  0.00000000000E+00 0. -1.
          1   -1    0    0  501    0 -0.00000000000E+00 -0.00000000000E+00 -0.10720654191E+03  0.10720654191E+03  0.00000000000E+00 0.  1.
          2    1    1    2  501    0 -0.61164427235E+02 -0.60376751666E+02  0.14757902438E+03  0.17078058360E+03  0.00000000000E+00 0. -1.
          1    1    1    2  502    0  0.10635897785E+03  0.10957911880E+03  0.20864826105E+02  0.15412707878E+03  0.00000000000E+00 0.  1.
         22    1    1    2    0    0 -0.36238449235E+02 -0.34614903272E+02  0.16473193787E+03  0.17218602756E+03  0.00000000000E+00 0. -1.
         22    1    1    2    0    0 -0.89561013787E+01 -0.14587463860E+02 -0.22346266268E+02  0.28148915963E+02  0.00000000000E+00 0. -1.
</event>
<event>
 6    1  0.1383644E-005  0.2379530E+03  0.7818608E-02  0.1194635E+00
          2   -1    0    0  502    0  0.00000000000E+00  0.00000000000E+00  0.64644648134E+03  0.64644648134E+03  0.00000000000E+00 0. -1.
          1   -1    0    0  501    0 -0.00000000000E+00 -0.00000000000E+00 -0.74412535486E+02  0.74412535486E+02  0.00000000000E+00 0. -1.
          2    1    1    2  501    0  0.91873877195E+02  0.27603449129E+02  0.61773569826E+02  0.11409966540E+03  0.00000000000E+00 0. -1.
          1    1    1    2  502    0 -0.37931858279E+02 -0.13740528990E+03  0.15537338598E+03  0.21085523147E+03  0.00000000000E+00 0. -1.
         22    1    1    2    0    0 -0.11411729321E+02  0.11332681850E+03  0.32339444999E+03  0.34286610454E+03  0.00000000000E+00 0. -1.
         22    1    1    2    0    0 -0.42530289595E+02 -0.35249777228E+01  0.31492540065E+02  0.53038015430E+02  0.00000000000E+00 0. -1.
</event>
<event>
 6    1  0.1383644E-005  0.8362578E+02  0.7818608E-02  0.1375866E+00
          2   -1    0    0  502    0  0.00000000000E+00  0.00000000000E+00  0.36273350529E+03  0.36273350529E+03  0.00000000000E+00 0. -1.
          1   -1    0    0  501    0 -0.00000000000E+00 -0.00000000000E+00 -0.10669352880E+03  0.10669352880E+03  0.00000000000E+00 0.  1.
          2    1    1    2  501    0  0.31779162882E+02 -0.59346271365E+02  0.23959437573E+03  0.24887217602E+03  0.00000000000E+00 0. -1.
          1    1    1    2  502    0 -0.61545764135E+02  0.44232860263E+02 -0.32636545542E+02  0.82520125515E+02  0.00000000000E+00 0.  1.
         22    1    1    2    0    0  0.17744864927E+02  0.26141084305E+02 -0.38010687496E+02  0.49427207931E+02  0.00000000000E+00 0.  1.
         22    1    1    2    0    0  0.12021736326E+02 -0.11027673203E+02  0.87092833797E+02  0.88607524621E+02  0.00000000000E+00 0. -1.
</event>
<event>
 6    1  0.1383644E-005  0.1072347E+03  0.7818608E-02  0.1302185E+00
          2   -1    0    0  502    0  0.00000000000E+00  0.00000000000E+00  0.27434894804E+03  0.27434894804E+03  0.00000000000E+00 0.  1.
          1   -1    0    0  501    0 -0.00000000000E+00 -0.00000000000E+00 -0.54512888713E+03  0.54512888713E+03  0.00000000000E+00 0.  1.
          2    1    1    2  501    0  0.76228787551E+02  0.10576378096E+02  0.14073688269E+03  0.16040435772E+03  0.00000000000E+00 0.  1.
          1    1    1    2  502    0 -0.80325048745E+02 -0.84969675564E+02 -0.48291339389E+03  0.49686749262E+03  0.00000000000E+00 0.  1.
         22    1    1    2    0    0  0.14149817261E+02  0.51969800798E+02 -0.27377962275E+02  0.60420446389E+02  0.00000000000E+00 0.  1.
         22    1    1    2    0    0 -0.10053556066E+02  0.22423496670E+02  0.98774534385E+02  0.10178553844E+03  0.00000000000E+00 0.  1.
</event>
<event>
 6    1  0.1383644E-005  0.5950851E+02  0.7818608E-02  0.1426328E+00
          2   -1    0    0  502    0  0.00000000000E+00  0.00000000000E+00  0.97603371641E+02  0.97603371641E+02  0.00000000000E+00 0.  1.
          1   -1    0    0  501    0 -0.00000000000E+00 -0.00000000000E+00 -0.25475357038E+03  0.25475357038E+03  0.00000000000E+00 0.  1.
          2    1    1    2  501    0 -0.43668800847E+02 -0.48282676979E+02 -0.81063193352E+01  0.65604066008E+02  0.00000000000E+00 0.  1.
          1    1    1    2  502    0  0.76097344859E+02  0.14966000180E+02 -0.13549746270E+03  0.15612286653E+03  0.00000000000E+00 0.  1.
         22    1    1    2    0    0 -0.53181532009E+01  0.48186359838E+02 -0.58557891182E+02  0.76021277598E+02  0.00000000000E+00 0.  1.
         22    1    1    2    0    0 -0.27110390812E+02 -0.14869683039E+02  0.45011474476E+02  0.54608731885E+02  0.00000000000E+00 0.  1.
</event>
<event>
 6    1  0.1383644E-005  0.2368226E+03  0.7818608E-02  0.1145493E+00
          2   -1    0    0  502    0  0.00000000000E+00  0.00000000000E+00  0.42165105018E+03  0.42165105018E+03  0.00000000000E+00 0. -1.
          1   -1    0    0  501    0 -0.00000000000E+00 -0.00000000000E+00 -0.20078042513E+04  0.20078042513E+04  0.00000000000E+00 0. -1.
          2    1    1    2  501    0 -0.25706293794E+02  0.10606760768E+03 -0.10392124687E+04  0.10449276081E+04  0.00000000000E+00 0. -1.
          1    1    1    2  502    0  0.11203249821E+03 -0.30571546001E+03  0.33540806593E+03  0.46745245088E+03  0.00000000000E+00 0. -1.
         22    1    1    2    0    0 -0.97750455234E+02  0.21181583176E+03 -0.82419239430E+03  0.85657118847E+03  0.00000000000E+00 0. -1.
         22    1    1    2    0    0  0.11424250821E+02 -0.12167979431E+02 -0.58156404027E+02  0.60504054076E+02  0.00000000000E+00 0. -1.
</event>
<event>
 6    1  0.1383644E-005  0.1595074E+03  0.7818608E-02  0.1316985E+00
          2   -1    0    0  502    0  0.00000000000E+00  0.00000000000E+00  0.45175951177E+03  0.45175951177E+03  0.00000000000E+00 0.  1.
          1   -1    0    0  501    0 -0.00000000000E+00 -0.00000000000E+00 -0.15806147644E+03  0.15806147644E+03  0.00000000000E+00 0.  1.
          2    1    1    2  501    0  0.73852097279E+02 -0.12257139871E+03  0.30294842769E+03  0.33504571314E+03  0.00000000000E+00 0.  1.
          1    1    1    2  502    0 -0.71930433829E+02  0.12924126994E+03  0.42989115063E+01  0.14797220619E+03  0.00000000000E+00 0.  1.
         22    1    1    2    0    0 -0.66411133575E+01  0.10600244700E+02 -0.68177718329E+02  0.69315733068E+02  0.00000000000E+00 0.  1.
         22    1    1    2    0    0  0.47194499067E+01 -0.17270115928E+02  0.54628414461E+02  0.57487335807E+02  0.00000000000E+00 0.  1.
</event>
<event>
 6    1  0.1383644E-005  0.7396447E+02  0.7818608E-02  0.1418705E+00
          2   -1    0    0  502    0  0.00000000000E+00  0.00000000000E+00  0.21418682920E+03  0.21418682920E+03  0.00000000000E+00 0. -1.
          1   -1    0    0  501    0 -0.00000000000E+00 -0.00000000000E+00 -0.11978946611E+03  0.11978946611E+03  0.00000000000E+00 0. -1.
          2    1    1    2  501    0 -0.18209500899E+02  0.55419283697E+02  0.11600256287E+03  0.12984405077E+03  0.00000000000E+00 0. -1.
          1    1    1    2  502    0  0.58509749630E+00 -0.58732406739E+02  0.34593557221E+02  0.68165622873E+02  0.00000000000E+00 0. -1.
         22    1    1    2    0    0  0.45804191782E+01  0.22383529641E+02  0.35049530670E+02  0.41838645285E+02  0.00000000000E+00 0.  1.
         22    1    1    2    0    0  0.13043984225E+02 -0.19070406599E+02 -0.91248287673E+02  0.94127976370E+02  0.00000000000E+00 0. -1.
</event>
<event>
 6    1  0.1383644E-005  0.3165576E+02  0.7818608E-02  0.1623161E+00
          2   -1    0    0  502    0  0.00000000000E+00  0.00000000000E+00  0.57676061772E+02  0.57676061772E+02  0.00000000000E+00 0. -1.
          1   -1    0    0  501    0 -0.00000000000E+00 -0.00000000000E+00 -0.16962774042E+03  0.16962774042E+03  0.00000000000E+00 0. -1.
          2    1    1    2  501    0 -0.11478284478E+02  0.32232288480E+02  0.89794089933E+00  0.34226856898E+02  0.00000000000E+00 0. -1.
          1    1    1    2  502    0 -0.18048326407E+02 -0.88848184899E+01 -0.24293083940E+02  0.31541021116E+02  0.00000000000E+00 0. -1.
         22    1    1    2    0    0 -0.74219192853E+01 -0.17448526123E+02 -0.11446510897E+03  0.11602498490E+03  0.00000000000E+00 0. -1.
         22    1    1    2    0    0  0.36948530171E+02 -0.58989438672E+01  0.25908573361E+02  0.45510939280E+02  0.00000000000E+00 0. -1.
</event>
<event>
 6    1  0.1383644E-005  0.6335861E+02  0.7818608E-02  0.1478151E+00
          2   -1    0    0  502    0  0.00000000000E+00  0.00000000000E+00  0.51671105109E+03  0.51671105109E+03  0.00000000000E+00 0.  1.
          1   -1    0    0  501    0 -0.00000000000E+00 -0.00000000000E+00 -0.61741356452E+02  0.61741356452E+02  0.00000000000E+00 0.  1.
          2    1    1    2  501    0 -0.38188977340E+02  0.11965138014E+02  0.37356889696E+03  0.37570637909E+03  0.00000000000E+00 0.  1.
          1    1    1    2  502    0  0.49931784100E+02 -0.28509649003E+02  0.15096488486E+02  0.59446506326E+02  0.00000000000E+00 0.  1.
         22    1    1    2    0    0  0.87775359613E+01  0.12499316728E+02 -0.35880602389E+02  0.38996098318E+02  0.00000000000E+00 0.  1.
         22    1    1    2    0    0 -0.20520342721E+02  0.40451942614E+01  0.10218491158E+03  0.10430342380E+03  0.00000000000E+00 0. -1.
</event>
<event>
 6    1  0.1383644E-005  0.3098889E+03  0.7818608E-02  0.1202222E+00
          2   -1    0    0  502    0  0.00000000000E+00  0.00000000000E+00  0.75087622063E+03  0.75087622063E+03  0.00000000000E+00 0.  1.
          1   -1    0    0  501    0 -0.00000000000E+00 -0.00000000000E+00 -0.62711099174E+03  0.62711099174E+03  0.00000000000E+00 0.  1.
          2    1    1    2  501    0  0.27391788200E+03 -0.90054668079E+02  0.63087926244E+03  0.69364940215E+03  0.00000000000E+00 0.  1.
          1    1    1    2  502    0 -0.27887208833E+03  0.94070285786E+02 -0.46297809107E+03  0.54860511585E+03  0.00000000000E+00 0.  1.
         22    1    1    2    0    0  0.10356307234E+02 -0.19478104728E+02  0.42327700342E+02  0.47731372068E+02  0.00000000000E+00 0. -1.
         22    1    1    2    0    0 -0.54021009018E+01  0.15462487020E+02 -0.86463642815E+02  0.88001322308E+02  0.00000000000E+00 0.  1.
</event>
<event>
 6    1  0.1383644E-005  0.2447361E+03  0.7818608E-02  0.1117467E+00
          2   -1    0    0  502    0  0.00000000000E+00  0.00000000000E+00  0.13597499539E+04  0.13597499539E+04  0.00000000000E+00 0. -1.
          1   -1    0    0  501    0 -0.00000000000E+00 -0.00000000000E+00 -0.43197999197E+02  0.43197999197E+02  0.00000000000E+00 0. -1.
          2    1    1    2  501    0 -0.11078203312E+03  0.30071286991E+02  0.21386203897E+03  0.24272188380E+03  0.00000000000E+00 0. -1.
          1    1    1    2  502    0  0.19755444788E+03 -0.53709393363E+02  0.61792654475E+03  0.65095750516E+03  0.00000000000E+00 0. -1.
         22    1    1    2    0    0 -0.10935398761E+03  0.43284325213E+02  0.43980048892E+03  0.45525410209E+03  0.00000000000E+00 0. -1.
         22    1    1    2    0    0  0.22581572850E+02 -0.19646218841E+02  0.44962882078E+02  0.54014462062E+02  0.00000000000E+00 0.  1.
</event>
<event>
 6    1  0.1383644E-005  0.8036694E+02  0.7818608E-02  0.1376458E+00
          2   -1    0    0  502    0  0.00000000000E+00  0.00000000000E+00  0.25731234095E+03  0.25731234095E+03  0.00000000000E+00 0.  1.
          1   -1    0    0  501    0 -0.00000000000E+00 -0.00000000000E+00 -0.10431074647E+03  0.10431074647E+03  0.00000000000E+00 0. -1.
          2    1    1    2  501    0 -0.26477181650E+02  0.71493087006E+02  0.14944878965E+03  0.16777140211E+03  0.00000000000E+00 0.  1.
          1    1    1    2  502    0  0.22788128843E+02 -0.47329093449E+02  0.29046650221E+02  0.60025409553E+02  0.00000000000E+00 0. -1.
         22    1    1    2    0    0  0.18878377548E+02 -0.29771302898E+02 -0.74389458682E+02  0.82319591702E+02  0.00000000000E+00 0. -1.
         22    1    1    2    0    0 -0.15189324741E+02  0.56073093406E+01  0.48895613279E+02  0.51506684052E+02  0.00000000000E+00 0. -1.
</event>
<event>
 6    1  0.1383644E-005  0.4634509E+02  0.7818608E-02  0.1496635E+00
          2   -1    0    0  502    0  0.00000000000E+00  0.00000000000E+00  0.16520026855E+03  0.16520026855E+03  0.00000000000E+00 0.  1.
          1   -1    0    0  501    0 -0.00000000000E+00 -0.00000000000E+00 -0.24893201897E+03  0.24893201897E+03  0.00000000000E+00 0.  1.
          2    1    1    2  501    0 -0.60160408150E+02  0.54616896371E+02  0.74998563403E+02  0.11057605794E+03  0.00000000000E+00 0.  1.
          1    1    1    2  502    0  0.61361471840E+02 -0.34137474483E+01 -0.15656089644E+03  0.16819095752E+03  0.00000000000E+00 0.  1.
         22    1    1    2    0    0 -0.13575996477E+02 -0.31908363751E+02 -0.62141471386E+02  0.71161884627E+02  0.00000000000E+00 0.  1.
         22    1    1    2    0    0  0.12374932788E+02 -0.19294785171E+02  0.59972054000E+02  0.64203387429E+02  0.00000000000E+00 0.  1.
</event>
<event>
 6    1  0.1383644E-005  0.1981918E+03  0.7818608E-02  0.1196171E+00
          2   -1    0    0  502    0  0.00000000000E+00  0.00000000000E+00  0.81709555394E+03  0.81709555394E+03  0.00000000000E+00 0. -1.
          1   -1    0    0  501    0 -0.00000000000E+00 -0.00000000000E+00 -0.76332695603E+02  0.76332695603E+02  0.00000000000E+00 0. -1.
          2    1    1    2  501    0 -0.22232771079E+02  0.15794672788E+03  0.27880763395E+03  0.32120890664E+03  0.00000000000E+00 0. -1.
          1    1    1    2  502    0  0.83491459329E+01 -0.11205086100E+03  0.41819958727E+03  0.43303117495E+03  0.00000000000E+00 0. -1.
         22    1    1    2    0    0  0.65959565962E+02 -0.27380855411E+02  0.48162953021E+01  0.71579133030E+02  0.00000000000E+00 0. -1.
         22    1    1    2    0    0 -0.52075940815E+02 -0.18515011473E+02  0.38939341815E+02  0.67609034918E+02  0.00000000000E+00 0. -1.
</event>
<event>
 6    1  0.1383644E-005  0.1029928E+03  0.7818608E-02  0.1277697E+00
          2   -1    0    0  502    0  0.00000000000E+00  0.00000000000E+00  0.43890130824E+03  0.43890130824E+03  0.00000000000E+00 0. -1.
          1   -1    0    0  501    0 -0.00000000000E+00 -0.00000000000E+00 -0.36583454994E+02  0.36583454994E+02  0.00000000000E+00 0. -1.
          2    1    1    2  501    0 -0.44207988756E+02  0.36352440699E+02  0.19004392574E+03  0.19847553987E+03  0.00000000000E+00 0. -1.
          1    1    1    2  502    0  0.42777605635E+02 -0.34408901308E+02  0.54364653164E+02  0.77261967013E+02  0.00000000000E+00 0. -1.
         22    1    1    2    0    0  0.18000721152E+02 -0.36793055991E+02  0.40929561031E+01  0.41164392632E+02  0.00000000000E+00 0. -1.
         22    1    1    2    0    0 -0.16570338031E+02  0.34849516600E+02  0.15381631824E+03  0.15858286372E+03  0.00000000000E+00 0. -1.
</event>
<event>
 6    1  0.1383644E-005  0.6768702E+02  0.7818608E-02  0.1371543E+00
          2   -1    0    0  502    0  0.00000000000E+00  0.00000000000E+00  0.41891083437E+02  0.41891083437E+02  0.00000000000E+00 0.  1.
          1   -1    0    0  501    0 -0.00000000000E+00 -0.00000000000E+00 -0.27067788807E+03  0.27067788807E+03  0.00000000000E+00 0. -1.
          2    1    1    2  501    0 -0.66057882382E+01  0.22916771650E+02 -0.10726285439E+02  0.26150871122E+02  0.00000000000E+00 0.  1.
          1    1    1    2  502    0  0.51013932212E+01 -0.28542975129E+02 -0.13699765841E+03  0.14003243928E+03  0.00000000000E+00 0. -1.
         22    1    1    2    0    0 -0.14002112032E+02  0.35211414997E+02  0.17921294438E+02  0.41917486587E+02  0.00000000000E+00 0.  1.
         22    1    1    2    0    0  0.15506507049E+02 -0.29585211518E+02 -0.98984155230E+02  0.10446817452E+03  0.00000000000E+00 0. -1.
</event>
<event>
 6    1  0.1383644E-005  0.8083693E+02  0.7818608E-02  0.1425871E+00
          2   -1    0    0  502    0  0.00000000000E+00  0.00000000000E+00  0.37274029555E+03  0.37274029555E+03  0.00000000000E+00 0.  1.
          1   -1    0    0  501    0 -0.00000000000E+00 -0.00000000000E+00 -0.35887137506E+03  0.35887137506E+03  0.00000000000E+00 0. -1.
          2    1    1    2  501    0  0.61281718979E+02 -0.39786207114E+01  0.30461325842E+03  0.31074187955E+03  0.00000000000E+00 0.  1.
          1    1    1    2  502    0 -0.92460274387E+02 -0.32085391425E+01 -0.27801857173E+03  0.29300771882E+03  0.00000000000E+00 0. -1.
         22    1    1    2    0    0  0.17755849332E+02 -0.12559319870E+01  0.55257579475E+02  0.58053833982E+02  0.00000000000E+00 0.  1.
         22    1    1    2    0    0  0.13422706076E+02  0.84430918409E+01 -0.67983345674E+02  0.69808238248E+02  0.00000000000E+00 0.  1.
</event>
<event>
 6    1  0.1383644E-005  0.5621050E+02  0.7818608E-02  0.1522899E+00
          2   -1    0    0  502    0  0.00000000000E+00  0.00000000000E+00  0.33473130613E+03  0.33473130613E+03  0.00000000000E+00 0. -1.
          1   -1    0    0  501    0 -0.00000000000E+00 -0.00000000000E+00 -0.10548298602E+03  0.10548298602E+03  0.00000000000E+00 0. -1.
          2    1    1    2  501    0 -0.29471036722E+02 -0.13642700360E+02  0.23472320001E+03  0.23695916505E+03  0.00000000000E+00 0. -1.
          1    1    1    2  502    0  0.45562609892E+02  0.26664351699E+02 -0.46264282758E+02  0.70194892484E+02  0.00000000000E+00 0. -1.
         22    1    1    2    0    0 -0.21359876833E+02 -0.24299516454E+01  0.84802593707E+02  0.87485021019E+02  0.00000000000E+00 0.  1.
         22    1    1    2    0    0  0.52683036627E+01 -0.10591699694E+02 -0.44013190852E+02  0.45575213602E+02  0.00000000000E+00 0. -1.
</event>
<event>
 6    1  0.1383644E-005  0.1590369E+03  0.7818608E-02  0.1307930E+00
          2   -1    0    0  502    0  0.00000000000E+00  0.00000000000E+00  0.14109997570E+04  0.14109997570E+04  0.00000000000E+00 0. -1.
          1   -1    0    0  501    0 -0.00000000000E+00 -0.00000000000E+00 -0.22382529853E+02  0.22382529853E+02  0.00000000000E+00 0. -1.
          2    1    1    2  501    0  0.31410255981E+02  0.38554423194E+02  0.63153698039E+03  0.63349191417E+03  0.00000000000E+00 0. -1.
          1    1    1    2  502    0 -0.95975619995E+02  0.29769437750E+02  0.28634345792E+03  0.30346353150E+03  0.00000000000E+00 0. -1.
         22    1    1    2    0    0  0.76454335321E+02 -0.59400994972E+02  0.47169726363E+03  0.48153094616E+03  0.00000000000E+00 0. -1.
         22    1    1    2    0    0 -0.11888971307E+02 -0.89228659716E+01 -0.96047481101E+00  0.14895894996E+02  0.00000000000E+00 0.  1.
</event>
<event>
 6    1  0.1383644E-005  0.1144784E+03  0.7818608E-02  0.1297069E+00
          2   -1    0    0  502    0  0.00000000000E+00  0.00000000000E+00  0.35602576347E+03  0.35602576347E+03  0.00000000000E+00 0.  1.
          1   -1    0    0  501    0 -0.00000000000E+00 -0.00000000000E+00 -0.11598596092E+03  0.11598596092E+03  0.00000000000E+00 0.  1.
          2    1    1    2  501    0  0.34370133074E+02  0.64037454308E+02  0.14974406037E+03  0.16644934731E+03  0.00000000000E+00 0.  1.
          1    1    1    2  502    0  0.58403191229E+01 -0.12583599792E+03 -0.16407597689E+02  0.12703549489E+03  0.00000000000E+00 0.  1.
         22    1    1    2    0    0  0.25579135336E+01  0.38606157460E+02  0.12163080405E+03  0.12763632245E+03  0.00000000000E+00 0. -1.
         22    1    1    2    0    0 -0.42768365731E+02  0.23192386153E+02 -0.14927464188E+02  0.50890559732E+02  0.00000000000E+00 0. -1.
</event>
<event>
 6    1  0.1383644E-005  0.1700062E+03  0.7818608E-02  0.1295518E+00
          2   -1    0    0  502    0  0.00000000000E+00  0.00000000000E+00  0.99441708310E+03  0.99441708310E+03  0.00000000000E+00 0.  1.
          1   -1    0    0  501    0 -0.00000000000E+00 -0.00000000000E+00 -0.42454739858E+02  0.42454739858E+02  0.00000000000E+00 0.  1.
          2    1    1    2  501    0  0.25824954207E+02  0.20281755220E+02  0.80965334028E+02  0.87370837061E+02  0.00000000000E+00 0.  1.
          1    1    1    2  502    0 -0.14274749480E+03 -0.95447104049E+02  0.27075055535E+03  0.32061325638E+03  0.00000000000E+00 0.  1.
         22    1    1    2    0    0  0.14498071334E+02 -0.48526095565E+01  0.58271544929E+00  0.15299720560E+02  0.00000000000E+00 0. -1.
         22    1    1    2    0    0  0.10242446926E+03  0.80017958385E+02  0.59966373841E+03  0.61358800895E+03  0.00000000000E+00 0.  1.
</event>
<event>
 6    1  0.1383644E-005  0.6654727E+02  0.7818608E-02  0.1496179E+00
          2   -1    0    0  502    0  0.00000000000E+00  0.00000000000E+00  0.25425645976E+03  0.25425645976E+03  0.00000000000E+00 0.  1.
          1   -1    0    0  501    0 -0.00000000000E+00 -0.00000000000E+00 -0.29273079911E+03  0.29273079911E+03  0.00000000000E+00 0.  1.
          2    1    1    2  501    0  0.16059471245E+02  0.12451415203E+02  0.14198283853E+03  0.14342967195E+03  0.00000000000E+00 0.  1.
          1    1    1    2  502    0 -0.30816267635E+02 -0.44991389933E+02 -0.24787240690E+03  0.25380031052E+03  0.00000000000E+00 0.  1.
         22    1    1    2    0    0  0.24922964427E+02  0.31283291492E+02  0.10417889449E+03  0.11159319218E+03  0.00000000000E+00 0.  1.
         22    1    1    2    0    0 -0.10166168037E+02  0.12566832373E+01 -0.36763665470E+02  0.38164084217E+02  0.00000000000E+00 0. -1.
</event>
<event>
 6    1  0.1383644E-005  0.1238411E+03  0.7818608E-02  0.1256183E+00
          2   -1    0    0  502    0  0.00000000000E+00  0.00000000000E+00  0.15074173276E+03  0.15074173276E+03  0.00000000000E+00 0.  1.
          1   -1    0    0  501    0 -0.00000000000E+00 -0.00000000000E+00 -0.57668524572E+03  0.57668524572E+03  0.00000000000E+00 0.  1.
          2    1    1    2  501    0 -0.70354518994E+02 -0.12122349644E+02  0.68877340175E+02  0.99200794822E+02  0.00000000000E+00 0.  1.
          1    1    1    2  502    0  0.15903539643E+03 -0.38754641327E+02 -0.42339519406E+03  0.45393575525E+03  0.00000000000E+00 0.  1.
         22    1    1    2    0    0 -0.43213839802E+02 -0.19810095899E+02  0.18675205437E+02  0.51074838698E+02  0.00000000000E+00 0.  1.
         22    1    1    2    0    0 -0.45467037638E+02  0.70687086871E+02 -0.90100864505E+02  0.12321558971E+03  0.00000000000E+00 0.  1.
</event>
<event>
 6    1  0.1383644E-005  0.7029525E+02  0.7818608E-02  0.1404059E+00
          2   -1    0    0  502    0  0.00000000000E+00  0.00000000000E+00  0.71002284862E+02  0.71002284862E+02  0.00000000000E+00 0. -1.
          1   -1    0    0  501    0 -0.00000000000E+00 -0.00000000000E+00 -0.27645790969E+03  0.27645790969E+03  0.00000000000E+00 0. -1.
          2    1    1    2  501    0  0.39037788917E+02  0.11427183729E+02 -0.23862779682E+01  0.40745844133E+02  0.00000000000E+00 0. -1.
          1    1    1    2  502    0 -0.58393337343E+02  0.65751952115E+01 -0.15612379637E+03  0.16681623072E+03  0.00000000000E+00 0. -1.
         22    1    1    2    0    0 -0.12885664531E+02 -0.78197906348E+01 -0.86533688472E+02  0.87836602374E+02  0.00000000000E+00 0. -1.
         22    1    1    2    0    0  0.32241212957E+02 -0.10182588306E+02  0.39588137982E+02  0.52061517327E+02  0.00000000000E+00 0. -1.
</event>
<event>
 6    1  0.1383644E-005  0.4296259E+02  0.7818608E-02  0.1493762E+00
          2   -1    0    0  502    0  0.00000000000E+00  0.00000000000E+00  0.18665307762E+03  0.18665307762E+03  0.00000000000E+00 0.  1.
          1   -1    0    0  501    0 -0.00000000000E+00 -0.00000000000E+00 -0.11515075106E+03  0.11515075106E+03  0.00000000000E+00 0.  1.
          2    1    1    2  501    0 -0.60770599516E+01 -0.70750212172E+02  0.15398290802E+02  0.72661066189E+02  0.00000000000E+00 0.  1.
          1    1    1    2  502    0  0.30225411804E+02  0.87085275683E+02  0.22869580380E+01  0.92209820174E+02  0.00000000000E+00 0.  1.
         22    1    1    2    0    0 -0.20038755375E+02  0.62491250861E+01 -0.37391339031E+02  0.42880246220E+02  0.00000000000E+00 0.  1.
         22    1    1    2    0    0 -0.41095964772E+01 -0.22584188596E+02  0.91208416746E+02  0.94052696097E+02  0.00000000000E+00 0.  1.
</event>
<event>
 6    1  0.1383644E-005  0.7171353E+02  0.7818608E-02  0.1424849E+00
          2   -1    0    0  502    0  0.00000000000E+00  0.00000000000E+00  0.13066236088E+04  0.13066236088E+04  0.00000000000E+00 0.  1.
          1   -1    0    0  501    0 -0.00000000000E+00 -0.00000000000E+00 -0.25553691965E+02  0.25553691965E+02  0.00000000000E+00 0.  1.
          2    1    1    2  501    0  0.78871983566E+02 -0.44404884035E+02  0.29613196690E+03  0.30965581754E+03  0.00000000000E+00 0.  1.
          1    1    1    2  502    0 -0.11412240614E+03  0.11835993757E+02  0.65796338907E+03  0.66789208386E+03  0.00000000000E+00 0.  1.
         22    1    1    2    0    0 -0.17492875941E+02  0.54490099086E+01 -0.36887670222E+01  0.18689553762E+02  0.00000000000E+00 0. -1.
         22    1    1    2    0    0  0.52743298516E+02  0.27119880369E+02  0.33066332786E+03  0.33593984557E+03  0.00000000000E+00 0.  1.
</event>
<event>
 6    1  0.1383644E-005  0.1240614E+03  0.7818608E-02  0.1309746E+00
          2   -1    0    0  502    0  0.00000000000E+00  0.00000000000E+00  0.29524719385E+03  0.29524719385E+03  0.00000000000E+00 0. -1.
          1   -1    0    0  501    0 -0.00000000000E+00 -0.00000000000E+00 -0.73835196297E+02  0.73835196297E+02  0.00000000000E+00 0. -1.
          2    1    1    2  501    0 -0.31194215879E+02 -0.12108892736E+02  0.96594967224E+01  0.34828296894E+02  0.00000000000E+00 0. -1.
          1    1    1    2  502    0  0.10503441538E+03  0.84826758244E+01  0.12005696031E+03  0.15974309976E+03  0.00000000000E+00 0. -1.
         22    1    1    2    0    0  0.20620255586E+02 -0.22197662404E+02 -0.11352284147E+02  0.32354373923E+02  0.00000000000E+00 0. -1.
         22    1    1    2    0    0 -0.94460455086E+02  0.25823879315E+02  0.10304782467E+03  0.14215661957E+03  0.00000000000E+00 0. -1.
</event>
<event>
 6    1  0.1383644E-005  0.3962422E+03  0.7818608E-02  0.1175459E+00
          2   -1    0    0  502    0  0.00000000000E+00  0.00000000000E+00  0.10064160171E+04  0.10064160171E+04  0.00000000000E+00 0.  1.
          1   -1    0    0  501    0 -0.00000000000E+00 -0.00000000000E+00 -0.23527881905E+03  0.23527881905E+03  0.00000000000E+00 0.  1.
          2    1    1    2  501    0  0.80513242418E+02  0.30487051128E+02 -0.52109862309E+02  0.10063438896E+03  0.00000000000E+00 0.  1.
          1    1    1    2  502    0 -0.18654658263E+03 -0.29307892741E+03  0.74316053537E+03  0.82035508562E+03  0.00000000000E+00 0.  1.
         22    1    1    2    0    0 -0.11187908924E+02 -0.86960843768E+01 -0.11404010917E+01  0.14215896181E+02  0.00000000000E+00 0. -1.
         22    1    1    2    0    0  0.11722124913E+03  0.27128796066E+03  0.81226926043E+02  0.30648946534E+03  0.00000000000E+00 0. -1.
</event>
<event>
 6    1  0.1383644E-005  0.4952360E+02  0.7818608E-02  0.1455963E+00
          2   -1    0    0  502    0  0.00000000000E+00  0.00000000000E+00  0.16519545836E+03  0.16519545836E+03  0.00000000000E+00 0.  1.
          1   -1    0    0  501    0 -0.00000000000E+00 -0.00000000000E+00 -0.14028021135E+03  0.14028021135E+03  0.00000000000E+00 0.  1.
          2    1    1    2  501    0 -0.29076155575E+02 -0.13848933045E+01  0.11288251797E+03  0.11657531306E+03  0.00000000000E+00 0.  1.
          1    1    1    2  502    0  0.14726065050E+02 -0.18191781016E+02 -0.57457068791E+02  0.62041217287E+02  0.00000000000E+00 0.  1.
         22    1    1    2    0    0  0.22397812450E+02  0.37882922172E+02 -0.69948245948E+02  0.82641000151E+02  0.00000000000E+00 0.  1.
         22    1    1    2    0    0 -0.80477219248E+01 -0.18306247851E+02  0.39438043781E+02  0.44218139217E+02  0.00000000000E+00 0.  1.
</event>
<event>
 6    1  0.1383644E-005  0.1010113E+03  0.7818608E-02  0.1404874E+00
          2   -1    0    0  502    0  0.00000000000E+00  0.00000000000E+00  0.44454222575E+03  0.44454222575E+03  0.00000000000E+00 0.  1.
          1   -1    0    0  501    0 -0.00000000000E+00 -0.00000000000E+00 -0.39423098980E+02  0.39423098980E+02  0.00000000000E+00 0.  1.
          2    1    1    2  501    0 -0.50914440562E+01 -0.25496265025E+02  0.39933186593E+02  0.47651251025E+02  0.00000000000E+00 0.  1.
          1    1    1    2  502    0  0.25886933316E+02  0.93337412246E+02  0.16871798973E+03  0.19454502281E+03  0.00000000000E+00 0.  1.
         22    1    1    2    0    0 -0.31656508028E+02 -0.64907720590E+02  0.21121570431E+03  0.22322011657E+03  0.00000000000E+00 0.  1.
         22    1    1    2    0    0  0.10861018769E+02 -0.29334266309E+01 -0.14747753867E+02  0.18548934326E+02  0.00000000000E+00 0.  1.
</event>
<event>
 6    1  0.1383644E-005  0.1248549E+03  0.7818608E-02  0.1314125E+00
          2   -1    0    0  502    0  0.00000000000E+00  0.00000000000E+00  0.14576845507E+03  0.14576845507E+03  0.00000000000E+00 0.  1.
          1   -1    0    0  501    0 -0.00000000000E+00 -0.00000000000E+00 -0.35076655998E+03  0.35076655998E+03  0.00000000000E+00 0. -1.
          2    1    1    2  501    0 -0.79791917828E+02 -0.43918464263E+02  0.60469579597E+02  0.10932589680E+03  0.00000000000E+00 0.  1.
          1    1    1    2  502    0  0.12621209985E+03  0.58459931060E+02 -0.17742068269E+03  0.22544435308E+03  0.00000000000E+00 0. -1.
         22    1    1    2    0    0 -0.20440378404E+02 -0.23433152144E+02  0.28406832499E+02  0.42117333977E+02  0.00000000000E+00 0.  1.
         22    1    1    2    0    0 -0.25979803621E+02  0.88916853474E+01 -0.11645383432E+03  0.11964743120E+03  0.00000000000E+00 0.  1.
</event>
<event>
 6    1  0.1383644E-005  0.9618102E+02  0.7818608E-02  0.1369017E+00
          2   -1    0    0  502    0  0.00000000000E+00  0.00000000000E+00  0.47383424978E+03  0.47383424978E+03  0.00000000000E+00 0.  1.
          1   -1    0    0  501    0 -0.00000000000E+00 -0.00000000000E+00 -0.50021650875E+02  0.50021650875E+02  0.00000000000E+00 0.  1.
          2    1    1    2  501    0 -0.28391331220E+01 -0.46348436687E+02  0.16206671908E+03  0.16858783969E+03  0.00000000000E+00 0.  1.
          1    1    1    2  502    0  0.35131689363E+00  0.94192009566E+02  0.54820460512E+02  0.10898413178E+03  0.00000000000E+00 0.  1.
         22    1    1    2    0    0 -0.20612737383E+02 -0.45207400492E+02  0.21576357798E+03  0.22141028789E+03  0.00000000000E+00 0.  1.
         22    1    1    2    0    0  0.23100553611E+02 -0.26361723874E+01 -0.88381586687E+01  0.24873641283E+02  0.00000000000E+00 0.  1.
</event>
<event>
 6    1  0.1383644E-005  0.3884863E+03  0.7818608E-02  0.1133865E+00
          2   -1    0    0  502    0  0.00000000000E+00  0.00000000000E+00  0.64041049647E+03  0.64041049647E+03  0.00000000000E+00 0. -1.
          1   -1    0    0  501    0 -0.00000000000E+00 -0.00000000000E+00 -0.48017742272E+03  0.48017742272E+03  0.00000000000E+00 0. -1.
          2    1    1    2  501    0  0.10996598465E+03 -0.27983763930E+03 -0.21932631889E+03  0.37216348062E+03  0.00000000000E+00 0. -1.
          1    1    1    2  502    0 -0.18764162989E+03  0.31739574550E+03  0.45221914766E+03  0.58348230311E+03  0.00000000000E+00 0. -1.
         22    1    1    2    0    0  0.29382648527E+02  0.27099566060E+02 -0.74137565609E+02  0.84226510966E+02  0.00000000000E+00 0.  1.
         22    1    1    2    0    0  0.48292996710E+02 -0.64657672261E+02  0.14778105847E+01  0.80715624495E+02  0.00000000000E+00 0. -1.
</event>
<event>
 6    1  0.1383644E-005  0.9754218E+02  0.7818608E-02  0.1388716E+00
          2   -1    0    0  502    0  0.00000000000E+00  0.00000000000E+00  0.61561012066E+03  0.61561012066E+03  0.00000000000E+00 0. -1.
          1   -1    0    0  501    0 -0.00000000000E+00 -0.00000000000E+00 -0.20389826353E+02  0.20389826353E+02  0.00000000000E+00 0.  1.
          2    1    1    2  501    0 -0.19225342966E+01 -0.25544819433E+02  0.12970491818E+03  0.13221043733E+03  0.00000000000E+00 0. -1.
          1    1    1    2  502    0  0.24768144630E+02 -0.30528375547E+02  0.42086667342E+02  0.57591060676E+02  0.00000000000E+00 0.  1.
         22    1    1    2    0    0  0.12866491896E+02 -0.97716405204E+01 -0.39312032749E-01  0.16156519353E+02  0.00000000000E+00 0.  1.
         22    1    1    2    0    0 -0.35712102229E+02  0.65844835500E+02  0.42346802082E+03  0.43004192966E+03  0.00000000000E+00 0. -1.
</event>
<event>
 6    1  0.1383644E-005  0.6308371E+02  0.7818608E-02  0.1441128E+00
          2   -1    0    0  502    0  0.00000000000E+00  0.00000000000E+00  0.29881837941E+03  0.29881837941E+03  0.00000000000E+00 0.  1.
          1   -1    0    0  501    0 -0.00000000000E+00 -0.00000000000E+00 -0.18996688153E+03  0.18996688153E+03  0.00000000000E+00 0.  1.
          2    1    1    2  501    0 -0.46274723180E+02  0.31936599871E+02  0.20027411762E+03  0.20801687096E+03  0.00000000000E+00 0.  1.
          1    1    1    2  502    0  0.47011038406E+02 -0.16490766087E+02 -0.13994771053E+03  0.14855081549E+03  0.00000000000E+00 0.  1.
         22    1    1    2    0    0 -0.11006052464E+02 -0.24113495332E+02  0.87270864841E+02  0.91207443217E+02  0.00000000000E+00 0.  1.
         22    1    1    2    0    0  0.10269737238E+02  0.86676615483E+01 -0.38745774053E+02  0.41010131268E+02  0.00000000000E+00 0. -1.
</event>
<event>
 6    1  0.1383644E-005  0.6970962E+02  0.7818608E-02  0.1421539E+00
          2   -1    0    0  502    0  0.00000000000E+00  0.00000000000E+00  0.76975770213E+02  0.76975770213E+02  0.00000000000E+00 0.  1.
          1   -1    0    0  501    0 -0.00000000000E+00 -0.00000000000E+00 -0.32236236541E+03  0.32236236541E+03  0.00000000000E+00 0. -1.
          2    1    1    2  501    0  0.18495042120E+02 -0.20062298440E+02  0.44813902302E+02  0.52467592295E+02  0.00000000000E+00 0.  1.
          1    1    1    2  502    0  0.21564219423E+02  0.40541360857E+02 -0.14416756094E+03  0.15130400896E+03  0.00000000000E+00 0. -1.
         22    1    1    2    0    0 -0.16161891295E+02 -0.31749507200E+02  0.10245486977E+02  0.37070310777E+02  0.00000000000E+00 0.  1.
         22    1    1    2    0    0 -0.23897370249E+02  0.11270444783E+02 -0.15627842354E+03  0.15849622360E+03  0.00000000000E+00 0. -1.
</event>
<event>
 6    1  0.1383644E-005  0.6615136E+02  0.7818608E-02  0.1374657E+00
          2   -1    0    0  502    0  0.00000000000E+00  0.00000000000E+00  0.49396885290E+03  0.49396885290E+03  0.00000000000E+00 0. -1.
          1   -1    0    0  501    0 -0.00000000000E+00 -0.00000000000E+00 -0.57735413914E+02  0.57735413914E+02  0.00000000000E+00 0.  1.
          2    1    1    2  501    0 -0.33649917721E+02 -0.25923530343E+02  0.34490997502E+03  0.34751580864E+03  0.00000000000E+00 0. -1.
          1    1    1    2  502    0  0.22798783277E+02  0.29866632802E+02 -0.11009483647E+02  0.39153658884E+02  0.00000000000E+00 0.  1.
         22    1    1    2    0    0  0.21307122000E+02  0.15237665908E+02 -0.24779788358E+02  0.36058533266E+02  0.00000000000E+00 0.  1.
         22    1    1    2    0    0 -0.10455987555E+02 -0.19180768367E+02  0.12711273597E+03  0.12897626602E+03  0.00000000000E+00 0. -1.
</event>
<event>
 6    1  0.1383644E-005  0.2186862E+03  0.7818608E-02  0.1223492E+00
          2   -1    0    0  502    0  0.00000000000E+00  0.00000000000E+00  0.13474381240E+04  0.13474381240E+04  0.00000000000E+00 0. -1.
          1   -1    0    0  501    0 -0.00000000000E+00 -0.00000000000E+00 -0.40732379488E+02  0.40732379488E+02  0.00000000000E+00 0. -1.
          2    1    1    2  501    0  0.10916159116E+02  0.55790987380E+02  0.17760291156E+03  0.18647946535E+03  0.00000000000E+00 0. -1.
          1    1    1    2  502    0  0.59159926093E+02 -0.19710152999E+03  0.50523401775E+03  0.54553672898E+03  0.00000000000E+00 0. -1.
         22    1    1    2    0    0 -0.48318235077E+02  0.16146298185E+03  0.57299598179E+03  0.59726823245E+03  0.00000000000E+00 0. -1.
         22    1    1    2    0    0 -0.21757850132E+02 -0.20152439244E+02  0.50872833403E+02  0.58886076693E+02  0.00000000000E+00 0.  1.
</event>
<event>
 6    1  0.1383644E-005  0.1661328E+03  0.7818608E-02  0.1274570E+00
          2   -1    0    0  502    0  0.00000000000E+00  0.00000000000E+00  0.23323387486E+03  0.23323387486E+03  0.00000000000E+00 0.  1.
          1   -1    0    0  501    0 -0.00000000000E+00 -0.00000000000E+00 -0.19872308578E+03  0.19872308578E+03  0.00000000000E+00 0. -1.
          2    1    1    2  501    0  0.14138123621E+02 -0.29067046701E+02 -0.55241752354E+01  0.32791710164E+02  0.00000000000E+00 0.  1.
          1    1    1    2  502    0 -0.63924066206E+01  0.15569449341E+03  0.12776538316E+03  0.20150839008E+03  0.00000000000E+00 0. -1.
         22    1    1    2    0    0 -0.16276862592E+02 -0.14941341598E+03 -0.63008892710E+02  0.16297062831E+03  0.00000000000E+00 0.  1.
         22    1    1    2    0    0  0.85311455911E+01  0.22785969280E+02 -0.24721526138E+02  0.34686232078E+02  0.00000000000E+00 0. -1.
</event>
<event>
 6    1  0.1383644E-005  0.1231866E+03  0.7818608E-02  0.1280227E+00
          2   -1    0    0  502    0  0.00000000000E+00  0.00000000000E+00  0.83939254160E+03  0.83939254160E+03  0.00000000000E+00 0.  1.
          1   -1    0    0  501    0 -0.00000000000E+00 -0.00000000000E+00 -0.10436802196E+03  0.10436802196E+03  0.00000000000E+00 0. -1.
          2    1    1    2  501    0  0.14439557454E+03  0.23477954101E+02  0.59017538137E+03  0.60803641096E+03  0.00000000000E+00 0.  1.
          1    1    1    2  502    0 -0.87139254661E+02 -0.54804310532E+02 -0.32063543625E+02  0.10781851875E+03  0.00000000000E+00 0. -1.
         22    1    1    2    0    0 -0.14854679435E+02 -0.14039349128E+01 -0.19367074507E+02  0.24448233256E+02  0.00000000000E+00 0.  1.
         22    1    1    2    0    0 -0.42401640441E+02  0.32730291344E+02  0.19627975640E+03  0.20345740060E+03  0.00000000000E+00 0. -1.
</event>
<event>
 6    1  0.1383644E-005  0.5860315E+03  0.7818608E-02  0.9944977E-01
          2   -1    0    0  502    0  0.00000000000E+00  0.00000000000E+00  0.19017211454E+04  0.19017211454E+04  0.00000000000E+00 0. -1.
          1   -1    0    0  501    0 -0.00000000000E+00 -0.00000000000E+00 -0.39659039095E+03  0.39659039095E+03  0.00000000000E+00 0. -1.
          2    1    1    2  501    0 -0.28200273639E+03  0.43697280557E+03  0.14637381557E+04  0.15533834571E+04  0.00000000000E+00 0. -1.
          1    1    1    2  502    0  0.32380180779E+03 -0.43361500042E+03 -0.10011620114E+03  0.55035700509E+03  0.00000000000E+00 0. -1.
         22    1    1    2    0    0  0.22957518311E+02 -0.10588650184E+02 -0.11866910402E+02  0.27928313988E+02  0.00000000000E+00 0.  1.
         22    1    1    2    0    0 -0.64756589715E+02  0.72308450360E+01  0.15337571024E+03  0.16664276019E+03  0.00000000000E+00 0. -1.
</event>
<event>
 6    1  0.1383644E-005  0.5125767E+02  0.7818608E-02  0.1498878E+00
          2   -1    0    0  502    0  0.00000000000E+00  0.00000000000E+00  0.85125044929E+02  0.85125044929E+02  0.00000000000E+00 0. -1.
          1   -1    0    0  501    0 -0.00000000000E+00 -0.00000000000E+00 -0.23775184527E+03  0.23775184527E+03  0.00000000000E+00 0. -1.
          2    1    1    2  501    0  0.68239186396E+00 -0.61478933071E+02  0.14978582292E+02  0.63280982907E+02  0.00000000000E+00 0. -1.
          1    1    1    2  502    0  0.31889115915E+02  0.10862118519E+02 -0.10648240818E+03  0.11168439723E+03  0.00000000000E+00 0. -1.
         22    1    1    2    0    0 -0.20828453542E+02  0.57108019094E+01 -0.90459385321E+02  0.93001817875E+02  0.00000000000E+00 0. -1.
         22    1    1    2    0    0 -0.11743054237E+02  0.44906012642E+02  0.29336410864E+02  0.54909692192E+02  0.00000000000E+00 0. -1.
</event>
<event>
 6    1  0.1383644E-005  0.1138229E+03  0.7818608E-02  0.1342713E+00
          2   -1    0    0  502    0  0.00000000000E+00  0.00000000000E+00  0.72012260199E+03  0.72012260199E+03  0.00000000000E+00 0.  1.
          1   -1    0    0  501    0 -0.00000000000E+00 -0.00000000000E+00 -0.92653383016E+02  0.92653383016E+02  0.00000000000E+00 0. -1.
          2    1    1    2  501    0 -0.71374996656E+02  0.65793774582E+02  0.56416504136E+03  0.57245559200E+03  0.00000000000E+00 0.  1.
          1    1    1    2  502    0  0.66746659371E+02 -0.73059532371E+02 -0.92005257728E+01  0.99385418860E+02  0.00000000000E+00 0. -1.
         22    1    1    2    0    0 -0.17188593499E+02  0.54935575944E+01  0.10234707668E+03  0.10392569955E+03  0.00000000000E+00 0.  1.
         22    1    1    2    0    0  0.21816930784E+02  0.17722001942E+01 -0.29842373294E+02  0.37009274597E+02  0.00000000000E+00 0.  1.
</event>
<event>
 6    1  0.1383644E-005  0.6766409E+02  0.7818608E-02  0.1393120E+00
          2   -1    0    0  502    0  0.00000000000E+00  0.00000000000E+00  0.34923843689E+03  0.34923843689E+03  0.00000000000E+00 0. -1.
          1   -1    0    0  501    0 -0.00000000000E+00 -0.00000000000E+00 -0.40518922300E+02  0.40518922300E+02  0.00000000000E+00 0. -1.
          2    1    1    2  501    0 -0.17847284413E+02 -0.16420520557E+02  0.56057027874E+02  0.61078223864E+02  0.00000000000E+00 0. -1.
          1    1    1    2  502    0  0.64703107995E+02 -0.21707576924E+02  0.12153241437E+03  0.13938378250E+03  0.00000000000E+00 0. -1.
         22    1    1    2    0    0 -0.93432602002E+00  0.45087545321E+02 -0.50817201376E+01  0.45382635310E+02  0.00000000000E+00 0. -1.
         22    1    1    2    0    0 -0.45921497562E+02 -0.69594478398E+01  0.13621179248E+03  0.14391271752E+03  0.00000000000E+00 0. -1.
</event>
<event>
 6    1  0.1383644E-005  0.1046781E+03  0.7818608E-02  0.1397407E+00
          2   -1    0    0  502    0  0.00000000000E+00  0.00000000000E+00  0.76491908957E+02  0.76491908957E+02  0.00000000000E+00 0. -1.
          1   -1    0    0  501    0 -0.00000000000E+00 -0.00000000000E+00 -0.41175274589E+03  0.41175274589E+03  0.00000000000E+00 0. -1.
          2    1    1    2  501    0  0.12575658690E+02  0.16205844288E+02 -0.51939252601E+00  0.20519413958E+02  0.00000000000E+00 0. -1.
          1    1    1    2  502    0  0.63518132041E+02 -0.18759337497E+02 -0.31529975549E+03  0.32218069721E+03  0.00000000000E+00 0. -1.
         22    1    1    2    0    0  0.63959765778E+01 -0.94071207344E+01 -0.54093194088E+02  0.55276360983E+02  0.00000000000E+00 0.  1.
         22    1    1    2    0    0 -0.82489767309E+02  0.11960613943E+02  0.34651505173E+02  0.90268182696E+02  0.00000000000E+00 0. -1.
</event>
<event>
 6    1  0.1383644E-005  0.3494257E+03  0.7818608E-02  0.1115931E+00
          2   -1    0    0  502    0  0.00000000000E+00  0.00000000000E+00  0.25613035464E+03  0.25613035464E+03  0.00000000000E+00 0. -1.
          1   -1    0    0  501    0 -0.00000000000E+00 -0.00000000000E+00 -0.98701668530E+03  0.98701668530E+03  0.00000000000E+00 0. -1.
          2    1    1    2  501    0  0.25398798215E+03 -0.21470658367E+03  0.58268987607E+02  0.33764491269E+03  0.00000000000E+00 0. -1.
          1    1    1    2  502    0 -0.25517682779E+03  0.14000942209E+03 -0.43770206236E+03  0.52564336495E+03  0.00000000000E+00 0. -1.
         22    1    1    2    0    0 -0.26462970828E+02  0.81493131254E+02 -0.33739155383E+03  0.34810124944E+03  0.00000000000E+00 0. -1.
         22    1    1    2    0    0  0.27651816471E+02 -0.67959696775E+01 -0.14061702073E+02  0.31757512862E+02  0.00000000000E+00 0. -1.
</event>
<event>
 6    1  0.1383644E-005  0.6737491E+02  0.7818608E-02  0.1449253E+00
          2   -1    0    0  502    0  0.00000000000E+00  0.00000000000E+00  0.17655288806E+03  0.17655288806E+03  0.00000000000E+00 0.  1.
          1   -1    0    0  501    0 -0.00000000000E+00 -0.00000000000E+00 -0.22477602887E+03  0.22477602887E+03  0.00000000000E+00 0.  1.
          2    1    1    2  501    0 -0.79948470055E+02 -0.11509672015E+02  0.38260807779E+02  0.89376282234E+02  0.00000000000E+00 0.  1.
          1    1    1    2  502    0  0.89407673977E+02  0.44665852560E+02 -0.13818254279E+03  0.17053793034E+03  0.00000000000E+00 0.  1.
         22    1    1    2    0    0 -0.76719878313E+01 -0.46379194885E+02  0.89627277427E+02  0.10120740079E+03  0.00000000000E+00 0.  1.
         22    1    1    2    0    0 -0.17872160906E+01  0.13223014340E+02 -0.37928683225E+02  0.40207303575E+02  0.00000000000E+00 0. -1.
</event>
<event>
 6    1  0.1383644E-005  0.1393146E+03  0.7818608E-02  0.1293721E+00
          2   -1    0    0  502    0  0.00000000000E+00  0.00000000000E+00  0.22574625527E+03  0.22574625527E+03  0.00000000000E+00 0.  1.
          1   -1    0    0  501    0 -0.00000000000E+00 -0.00000000000E+00 -0.37647942915E+03  0.37647942915E+03  0.00000000000E+00 0.  1.
          2    1    1    2  501    0 -0.94733149951E+01 -0.52881283837E+02  0.14747172120E+03  0.15695248462E+03  0.00000000000E+00 0.  1.
          1    1    1    2  502    0  0.42241930054E+02  0.90085968410E+02 -0.29555044178E+03  0.31184920393E+03  0.00000000000E+00 0.  1.
         22    1    1    2    0    0 -0.21558000671E+02 -0.63653740390E+02  0.42782692911E+02  0.79667464320E+02  0.00000000000E+00 0.  1.
         22    1    1    2    0    0 -0.11210614388E+02  0.26449055817E+02 -0.45437146209E+02  0.53756531549E+02  0.00000000000E+00 0.  1.
</event>
<event>
 6    1  0.1383644E-005  0.1106691E+03  0.7818608E-02  0.1262933E+00
          2   -1    0    0  502    0  0.00000000000E+00  0.00000000000E+00  0.30733795608E+03  0.30733795608E+03  0.00000000000E+00 0.  1.
          1   -1    0    0  501    0 -0.00000000000E+00 -0.00000000000E+00 -0.18541770881E+03  0.18541770881E+03  0.00000000000E+00 0. -1.
          2    1    1    2  501    0 -0.22599972773E+02 -0.53752035772E+02  0.14561618099E+03  0.15685698035E+03  0.00000000000E+00 0.  1.
          1    1    1    2  502    0 -0.91302631551E+01  0.90519415047E+02 -0.13603361266E+03  0.16365289481E+03  0.00000000000E+00 0. -1.
         22    1    1    2    0    0  0.71170790022E+01  0.94243935654E+01 -0.23703910390E+02  0.26482963871E+02  0.00000000000E+00 0. -1.
         22    1    1    2    0    0  0.24613156926E+02 -0.46191772840E+02  0.13604158933E+03  0.14576282585E+03  0.00000000000E+00 0.  1.
</event>
<event>
 6    1  0.1383644E-005  0.1093113E+03  0.7818608E-02  0.1279532E+00
          2   -1    0    0  502    0  0.00000000000E+00  0.00000000000E+00  0.84489058144E+03  0.84489058144E+03  0.00000000000E+00 0. -1.
          1   -1    0    0  501    0 -0.00000000000E+00 -0.00000000000E+00 -0.54844862234E+02  0.54844862234E+02  0.00000000000E+00 0. -1.
          2    1    1    2  501    0  0.59590801988E+02  0.15470199135E+02  0.21325139413E+03  0.22196068986E+03  0.00000000000E+00 0. -1.
          1    1    1    2  502    0 -0.15632365861E+03  0.20739979007E+02  0.43214037077E+03  0.46001362264E+03  0.00000000000E+00 0. -1.
         22    1    1    2    0    0  0.68609287474E+02 -0.36431016809E+02  0.78286336784E+01  0.78075225383E+02  0.00000000000E+00 0. -1.
         22    1    1    2    0    0  0.28123569147E+02  0.22083866667E+00  0.13682532062E+03  0.13968590578E+03  0.00000000000E+00 0.  1.
</event>
<event>
 6    1  0.1383644E-005  0.3053594E+02  0.7818608E-02  0.1627534E+00
          2   -1    0    0  502    0  0.00000000000E+00  0.00000000000E+00  0.21748592441E+03  0.21748592441E+03  0.00000000000E+00 0. -1.
          1   -1    0    0  501    0 -0.00000000000E+00 -0.00000000000E+00 -0.59327382556E+02  0.59327382556E+02  0.00000000000E+00 0. -1.
          2    1    1    2  501    0  0.54028985088E+01  0.30983910682E+02  0.95932367026E+02  0.10095649101E+03  0.00000000000E+00 0. -1.
          1    1    1    2  502    0  0.23258844344E+02 -0.24393735337E+02  0.37592069572E+01  0.33914005969E+02  0.00000000000E+00 0. -1.
         22    1    1    2    0    0 -0.11468478335E+02  0.12115489651E+02  0.95547574882E+02  0.96993041764E+02  0.00000000000E+00 0. -1.
         22    1    1    2    0    0 -0.17193264518E+02 -0.18705664996E+02 -0.37080607008E+02  0.44949768229E+02  0.00000000000E+00 0. -1.
</event>
<event>
 6    1  0.1383644E-005  0.3449659E+02  0.7818608E-02  0.1566373E+00
          2   -1    0    0  502    0  0.00000000000E+00  0.00000000000E+00  0.52531149163E+02  0.52531149163E+02  0.00000000000E+00 0.  1.
          1   -1    0    0  501    0 -0.00000000000E+00 -0.00000000000E+00 -0.22260386359E+03  0.22260386359E+03  0.00000000000E+00 0.  1.
          2    1    1    2  501    0  0.29773866994E+02 -0.68925025524E+01 -0.21963042390E+02  0.37634624726E+02  0.00000000000E+00 0.  1.
          1    1    1    2  502    0 -0.31658439770E+01  0.20694109734E+02 -0.95287104423E+02  0.97559730499E+02  0.00000000000E+00 0.  1.
         22    1    1    2    0    0 -0.15175036907E+02 -0.24898835717E+02  0.37906042825E+02  0.47823653644E+02  0.00000000000E+00 0.  1.
         22    1    1    2    0    0 -0.11432986110E+02  0.11097228535E+02 -0.90728610436E+02  0.92117003882E+02  0.00000000000E+00 0.  1.
</event>
<event>
 6    1  0.1383644E-005  0.7305527E+02  0.7818608E-02  0.1384894E+00
          2   -1    0    0  502    0  0.00000000000E+00  0.00000000000E+00  0.18142835729E+03  0.18142835729E+03  0.00000000000E+00 0. -1.
          1   -1    0    0  501    0 -0.00000000000E+00 -0.00000000000E+00 -0.14195341187E+03  0.14195341187E+03  0.00000000000E+00 0. -1.
          2    1    1    2  501    0 -0.16726541741E+02  0.15305515155E+02  0.23035955739E+02  0.32321683891E+02  0.00000000000E+00 0. -1.
          1    1    1    2  502    0  0.42556784912E+02  0.51847481048E+01 -0.10689105395E+03  0.11516795982E+03  0.00000000000E+00 0. -1.
         22    1    1    2    0    0 -0.33321988588E+02  0.23722917390E+02 -0.38046990818E+01  0.41080499852E+02  0.00000000000E+00 0. -1.
         22    1    1    2    0    0  0.74917454170E+01 -0.44213180650E+02  0.12713474271E+03  0.13481162560E+03  0.00000000000E+00 0. -1.
</event>
<event>
 6    1  0.1383644E-005  0.7227792E+02  0.7818608E-02  0.1436259E+00
          2   -1    0    0  502    0  0.00000000000E+00  0.00000000000E+00  0.39417071110E+03  0.39417071110E+03  0.00000000000E+00 0. -1.
          1   -1    0    0  501    0 -0.00000000000E+00 -0.00000000000E+00 -0.19504563789E+03  0.19504563789E+03  0.00000000000E+00 0.  1.
          2    1    1    2  501    0 -0.36092416720E+02 -0.42444616607E+02  0.28589550209E+03  0.29127383360E+03  0.00000000000E+00 0. -1.
          1    1    1    2  502    0  0.40102437692E+02  0.77210791479E+02 -0.13194390997E+03  0.15804716767E+03  0.00000000000E+00 0.  1.
         22    1    1    2    0    0 -0.58791922743E+00 -0.16121656530E+02  0.89890384343E+02  0.91326527666E+02  0.00000000000E+00 0.  1.
         22    1    1    2    0    0 -0.34221017448E+01 -0.18644518343E+02 -0.44716903259E+02  0.48568820057E+02  0.00000000000E+00 0.  1.
</event>
<event>
 6    1  0.1383644E-005  0.1466063E+03  0.7818608E-02  0.1263152E+00
          2   -1    0    0  502    0  0.00000000000E+00  0.00000000000E+00  0.11047532291E+03  0.11047532291E+03  0.00000000000E+00 0.  1.
          1   -1    0    0  501    0 -0.00000000000E+00 -0.00000000000E+00 -0.29153874240E+03  0.29153874240E+03  0.00000000000E+00 0. -1.
          2    1    1    2  501    0  0.44247667559E+02 -0.15668588659E+02 -0.42978896237E+02  0.63643902117E+02  0.00000000000E+00 0.  1.
          1    1    1    2  502    0 -0.84489849228E+02 -0.19884319602E+02 -0.17438162773E+03  0.19478930381E+03  0.00000000000E+00 0. -1.
         22    1    1    2    0    0  0.56849474179E+02 -0.53772402329E+01  0.68306393241E+02  0.89031122561E+02  0.00000000000E+00 0.  1.
         22    1    1    2    0    0 -0.16607292510E+02  0.40930148493E+02 -0.32009288758E+02  0.54549736818E+02  0.00000000000E+00 0. -1.
</event>
<event>
 6    1  0.1383644E-005  0.1060711E+03  0.7818608E-02  0.1300656E+00
          2   -1    0    0  502    0  0.00000000000E+00  0.00000000000E+00  0.65737525161E+03  0.65737525161E+03  0.00000000000E+00 0. -1.
          1   -1    0    0  501    0 -0.00000000000E+00 -0.00000000000E+00 -0.11372578326E+03  0.11372578326E+03  0.00000000000E+00 0. -1.
          2    1    1    2  501    0  0.67732614651E+02 -0.19124270058E+02  0.57459850218E+03  0.57889280830E+03  0.00000000000E+00 0. -1.
          1    1    1    2  502    0 -0.26263449202E+02  0.48796102532E+02  0.45026355152E+00  0.55416884823E+02  0.00000000000E+00 0. -1.
         22    1    1    2    0    0 -0.10222949389E+02  0.18289528104E+02  0.40074238281E+02  0.45221235125E+02  0.00000000000E+00 0.  1.
         22    1    1    2    0    0 -0.31246216060E+02 -0.47961360578E+02 -0.71473535665E+02  0.91570106623E+02  0.00000000000E+00 0. -1.
</event>
<event>
 6    1  0.1383644E-005  0.6203513E+02  0.7818608E-02  0.1430485E+00
          2   -1    0    0  502    0  0.00000000000E+00  0.00000000000E+00  0.19184353720E+03  0.19184353720E+03  0.00000000000E+00 0. -1.
          1   -1    0    0  501    0 -0.00000000000E+00 -0.00000000000E+00 -0.69074778724E+02  0.69074778724E+02  0.00000000000E+00 0. -1.
          2    1    1    2  501    0  0.18526995884E+02 -0.16906839854E+02  0.97499757583E+02  0.10067419500E+03  0.00000000000E+00 0. -1.
          1    1    1    2  502    0 -0.18550765802E+01  0.28957594959E+02  0.69205986845E+01  0.29830828032E+02  0.00000000000E+00 0. -1.
         22    1    1    2    0    0 -0.21940883301E+01 -0.41382507953E+02  0.62789551852E+02  0.75231999906E+02  0.00000000000E+00 0. -1.
         22    1    1    2    0    0 -0.14477830974E+02  0.29331752848E+02 -0.44441149638E+02  0.55181292990E+02  0.00000000000E+00 0. -1.
</event>
<event>
 6    1  0.1383644E-005  0.6666239E+02  0.7818608E-02  0.1432287E+00
          2   -1    0    0  502    0  0.00000000000E+00  0.00000000000E+00  0.22015676575E+03  0.22015676575E+03  0.00000000000E+00 0. -1.
          1   -1    0    0  501    0 -0.00000000000E+00 -0.00000000000E+00 -0.96296153931E+02  0.96296153931E+02  0.00000000000E+00 0.  1.
          2    1    1    2  501    0 -0.12200327371E+02  0.54141457817E+02  0.13598240841E+03  0.14687191985E+03  0.00000000000E+00 0. -1.
          1    1    1    2  502    0  0.17386193357E+02 -0.42291155437E+02 -0.43340909472E+01  0.45930446242E+02  0.00000000000E+00 0.  1.
         22    1    1    2    0    0  0.22526591587E+01 -0.25552463290E+02 -0.62076326627E+02  0.67167500928E+02  0.00000000000E+00 0.  1.
         22    1    1    2    0    0 -0.74385251451E+01  0.13702160910E+02  0.54288620985E+02  0.56483052665E+02  0.00000000000E+00 0. -1.
</event>
<event>
 6    1  0.1383644E-005  0.1163397E+03  0.7818608E-02  0.1334593E+00
          2   -1    0    0  502    0  0.00000000000E+00  0.00000000000E+00  0.10376777692E+04  0.10376777692E+04  0.00000000000E+00 0. -1.
          1   -1    0    0  501    0 -0.00000000000E+00 -0.00000000000E+00 -0.26219398443E+02  0.26219398443E+02  0.00000000000E+00 0. -1.
          2    1    1    2  501    0 -0.53166675274E+01  0.23302887062E+02  0.70879957039E+02  0.74801469296E+02  0.00000000000E+00 0. -1.
          1    1    1    2  502    0  0.79029166482E+02 -0.70400969470E+02  0.65568894745E+03  0.66417610727E+03  0.00000000000E+00 0. -1.
         22    1    1    2    0    0 -0.83119858697E+02  0.68744698807E+02  0.28100981531E+03  0.30100043326E+03  0.00000000000E+00 0. -1.
         22    1    1    2    0    0  0.94073597423E+01 -0.21646616400E+02  0.38796509519E+01  0.23919157811E+02  0.00000000000E+00 0.  1.
</event>
<event>
 6    1  0.1383644E-005  0.6334813E+03  0.7818608E-02  0.1124287E+00
          2   -1    0    0  502    0  0.00000000000E+00  0.00000000000E+00  0.76154631500E+03  0.76154631500E+03  0.00000000000E+00 0. -1.
          1   -1    0    0  501    0 -0.00000000000E+00 -0.00000000000E+00 -0.56839683166E+03  0.56839683166E+03  0.00000000000E+00 0.  1.
          2    1    1    2  501    0 -0.24672919277E+03  0.90198393935E+02  0.50641322121E+03  0.57049574534E+03  0.00000000000E+00 0. -1.
          1    1    1    2  502    0  0.44623054664E+02 -0.28708744191E+03 -0.34239759346E+03  0.44905069682E+03  0.00000000000E+00 0.  1.
         22    1    1    2    0    0  0.19786407927E+03  0.18601910705E+03  0.59368104744E+02  0.27798898164E+03  0.00000000000E+00 0. -1.
         22    1    1    2    0    0  0.42420588381E+01  0.10869940926E+02 -0.30234249156E+02  0.32407722860E+02  0.00000000000E+00 0.  1.
</event>
<event>
 6    1  0.1383644E-005  0.9297791E+02  0.7818608E-02  0.1337048E+00
          2   -1    0    0  502    0  0.00000000000E+00  0.00000000000E+00  0.84463751799E+02  0.84463751799E+02  0.00000000000E+00 0. -1.
          1   -1    0    0  501    0 -0.00000000000E+00 -0.00000000000E+00 -0.36448457007E+03  0.36448457007E+03  0.00000000000E+00 0.  1.
          2    1    1    2  501    0 -0.75920513641E+02 -0.25316205723E+01  0.19687759816E+02  0.78472551767E+02  0.00000000000E+00 0. -1.
          1    1    1    2  502    0  0.76542248099E+02 -0.25072603030E+02 -0.68908931176E+02  0.10599901869E+03  0.00000000000E+00 0.  1.
         22    1    1    2    0    0  0.20665376571E+02  0.39184837403E+02 -0.23563723739E+03  0.23976533718E+03  0.00000000000E+00 0.  1.
         22    1    1    2    0    0 -0.21287111029E+02 -0.11580613800E+02  0.48375904731E+01  0.24711414236E+02  0.00000000000E+00 0.  1.
</event>
<event>
 6    1  0.1383644E-005  0.3088400E+02  0.7818608E-02  0.1634177E+00
          2   -1    0    0  502    0  0.00000000000E+00  0.00000000000E+00  0.17578384304E+03  0.17578384304E+03  0.00000000000E+00 0.  1.
          1   -1    0    0  501    0 -0.00000000000E+00 -0.00000000000E+00 -0.83760034153E+02  0.83760034153E+02  0.00000000000E+00 0.  1.
          2    1    1    2  501    0  0.22085197349E+02 -0.25759351519E+02  0.46531603504E+02  0.57588976873E+02  0.00000000000E+00 0.  1.
          1    1    1    2  502    0 -0.31182013947E+02  0.32889176975E+02 -0.30274427164E+02  0.54502815486E+02  0.00000000000E+00 0.  1.
         22    1    1    2    0    0 -0.11440076612E+02 -0.36166859347E+01 -0.33828922142E+02  0.35893617027E+02  0.00000000000E+00 0.  1.
         22    1    1    2    0    0  0.20536893209E+02 -0.35131395212E+01  0.10959555469E+03  0.11155846781E+03  0.00000000000E+00 0.  1.
</event>
<event>
 6    1  0.1383644E-005  0.6891538E+02  0.7818608E-02  0.1419529E+00
          2   -1    0    0  502    0  0.00000000000E+00  0.00000000000E+00  0.10017719730E+03  0.10017719730E+03  0.00000000000E+00 0.  1.
          1   -1    0    0  501    0 -0.00000000000E+00 -0.00000000000E+00 -0.19751497130E+03  0.19751497130E+03  0.00000000000E+00 0.  1.
          2    1    1    2  501    0  0.32108283966E+02  0.22345932670E+02  0.31865157740E+02  0.50454641847E+02  0.00000000000E+00 0.  1.
          1    1    1    2  502    0 -0.64055112362E+02 -0.21525385263E+02 -0.88778006223E+02  0.11157030976E+03  0.00000000000E+00 0.  1.
         22    1    1    2    0    0  0.14542654434E+02 -0.24165457011E+02 -0.80974489881E+02  0.85745706143E+02  0.00000000000E+00 0.  1.
         22    1    1    2    0    0  0.17404173963E+02  0.23344909604E+02  0.40549564365E+02  0.49921510854E+02  0.00000000000E+00 0.  1.
</event>
<event>
 6    1  0.1383644E-005  0.4828036E+02  0.7818608E-02  0.1520602E+00
          2   -1    0    0  502    0  0.00000000000E+00  0.00000000000E+00  0.22643220326E+03  0.22643220326E+03  0.00000000000E+00 0.  1.
          1   -1    0    0  501    0 -0.00000000000E+00 -0.00000000000E+00 -0.14751651968E+03  0.14751651968E+03  0.00000000000E+00 0.  1.
          2    1    1    2  501    0 -0.47401903330E+02 -0.55184994618E+01 -0.91810207516E+02  0.10347225947E+03  0.00000000000E+00 0.  1.
          1    1    1    2  502    0  0.61258694228E+01 -0.44802677195E+02 -0.49528331702E+01  0.45489962810E+02  0.00000000000E+00 0.  1.
         22    1    1    2    0    0  0.44165610371E+01  0.18735987275E+02 -0.17370367488E+02  0.25928225879E+02  0.00000000000E+00 0.  1.
         22    1    1    2    0    0  0.36859472870E+02  0.31585189382E+02  0.19304909175E+03  0.19905827477E+03  0.00000000000E+00 0.  1.
</event>
<event>
 6    1  0.1383644E-005  0.3667294E+02  0.7818608E-02  0.1546861E+00
          2   -1    0    0  502    0  0.00000000000E+00  0.00000000000E+00  0.23646043382E+03  0.23646043382E+03  0.00000000000E+00 0.  1.
          1   -1    0    0  501    0 -0.00000000000E+00 -0.00000000000E+00 -0.12349869696E+03  0.12349869696E+03  0.00000000000E+00 0. -1.
          2    1    1    2  501    0  0.37126080027E+02 -0.37636307437E+02  0.12814359871E+03  0.13862041461E+03  0.00000000000E+00 0.  1.
          1    1    1    2  502    0 -0.45380975670E+02  0.47373461281E+02 -0.57806310329E+02  0.87437104826E+02  0.00000000000E+00 0. -1.
         22    1    1    2    0    0 -0.60644936555E+01 -0.20381092158E+02  0.85160477102E+02  0.87775132362E+02  0.00000000000E+00 0.  1.
         22    1    1    2    0    0  0.14319389299E+02  0.10643938313E+02 -0.42536028627E+02  0.46126478990E+02  0.00000000000E+00 0. -1.
</event>
<event>
 6    1  0.1383644E-005  0.4640421E+02  0.7818608E-02  0.1469475E+00
          2   -1    0    0  502    0  0.00000000000E+00  0.00000000000E+00  0.16764511585E+03  0.16764511585E+03  0.00000000000E+00 0. -1.
          1   -1    0    0  501    0 -0.00000000000E+00 -0.00000000000E+00 -0.18936809049E+03  0.18936809049E+03  0.00000000000E+00 0.  1.
          2    1    1    2  501    0 -0.19542074114E+02  0.17636067871E+02  0.87927102506E+02  0.91782890049E+02  0.00000000000E+00 0. -1.
          1    1    1    2  502    0  0.33223102115E+02 -0.13337414511E+02 -0.13499499001E+03  0.13966140651E+03  0.00000000000E+00 0.  1.
         22    1    1    2    0    0 -0.16396410021E+02  0.57767875303E+01  0.73893840764E+02  0.75911219451E+02  0.00000000000E+00 0. -1.
         22    1    1    2    0    0  0.27153820201E+01 -0.10075440890E+02 -0.48548927901E+02  0.49657690331E+02  0.00000000000E+00 0.  1.
</event>
<event>
 6    1  0.1383644E-005  0.8545014E+02  0.7818608E-02  0.1421704E+00
          2   -1    0    0  502    0  0.00000000000E+00  0.00000000000E+00  0.41119578288E+03  0.41119578288E+03  0.00000000000E+00 0. -1.
          1   -1    0    0  501    0 -0.00000000000E+00 -0.00000000000E+00 -0.64271703191E+02  0.64271703191E+02  0.00000000000E+00 0. -1.
          2    1    1    2  501    0  0.57894969197E+02 -0.46408081062E+00  0.24712522889E+03  0.25381670864E+03  0.00000000000E+00 0. -1.
          1    1    1    2  502    0 -0.24777326075E+02  0.20126873864E+01  0.85181010282E+02  0.88734273596E+02  0.00000000000E+00 0. -1.
         22    1    1    2    0    0 -0.24865719195E+02 -0.13238236497E+02  0.70137181071E+02  0.75582928398E+02  0.00000000000E+00 0. -1.
         22    1    1    2    0    0 -0.82519239272E+01  0.11689629921E+02 -0.55519340559E+02  0.57333575436E+02  0.00000000000E+00 0. -1.
</event>
<event>
 6    1  0.1383644E-005  0.6789759E+02  0.7818608E-02  0.1466436E+00
          2   -1    0    0  502    0  0.00000000000E+00  0.00000000000E+00  0.17872329077E+03  0.17872329077E+03  0.00000000000E+00 0. -1.
          1   -1    0    0  501    0 -0.00000000000E+00 -0.00000000000E+00 -0.24630318312E+03  0.24630318312E+03  0.00000000000E+00 0.  1.
          2    1    1    2  501    0  0.26368477397E+02  0.23647337991E+01  0.28838104902E+02  0.39147475787E+02  0.00000000000E+00 0. -1.
          1    1    1    2  502    0 -0.35681499950E+02 -0.44416129507E+02 -0.20514571015E+03  0.21291013220E+03  0.00000000000E+00 0.  1.
         22    1    1    2    0    0  0.75027039917E+01  0.27492940742E+02  0.13763367311E+03  0.14055312281E+03  0.00000000000E+00 0. -1.
         22    1    1    2    0    0  0.18103185613E+01  0.14558454965E+02 -0.28905960215E+02  0.32415743092E+02  0.00000000000E+00 0.  1.
</event>
<event>
 6    1  0.1383644E-005  0.6535333E+02  0.7818608E-02  0.1387725E+00
          2   -1    0    0  502    0  0.00000000000E+00  0.00000000000E+00  0.16445032988E+03  0.16445032988E+03  0.00000000000E+00 0. -1.
          1   -1    0    0  501    0 -0.00000000000E+00 -0.00000000000E+00 -0.13686430844E+03  0.13686430844E+03  0.00000000000E+00 0. -1.
          2    1    1    2  501    0  0.28357207695E+02  0.26117782449E+02  0.76681558197E+02  0.85827333384E+02  0.00000000000E+00 0. -1.
          1    1    1    2  502    0  0.18099127505E+02 -0.68079842798E+02 -0.24195058566E+02  0.74483852417E+02  0.00000000000E+00 0. -1.
         22    1    1    2    0    0 -0.60671178763E+02  0.35432317054E+02 -0.66388895958E+02  0.96663987766E+02  0.00000000000E+00 0. -1.
         22    1    1    2    0    0  0.14214843563E+02  0.65297432958E+01  0.41488417775E+02  0.44339464752E+02  0.00000000000E+00 0. -1.
</event>
<event>
 6    1  0.1383644E-005  0.1676522E+03  0.7818608E-02  0.1264527E+00
          2   -1    0    0  502    0  0.00000000000E+00  0.00000000000E+00  0.53482219541E+03  0.53482219541E+03  0.00000000000E+00 0.  1.
          1   -1    0    0  501    0 -0.00000000000E+00 -0.00000000000E+00 -0.98094206054E+02  0.98094206054E+02  0.00000000000E+00 0. -1.
          2    1    1    2  501    0 -0.31985056625E+02 -0.85548197523E+02  0.60522596520E+02  0.10956515247E+03  0.00000000000E+00 0.  1.
          1    1    1    2  502    0  0.10542712724E+03  0.11092143552E+03  0.33708513174E+03  0.37019566456E+03  0.00000000000E+00 0. -1.
         22    1    1    2    0    0 -0.75581665541E+02 -0.54047766109E+02  0.65858413200E+02  0.11389064833E+03  0.00000000000E+00 0.  1.
         22    1    1    2    0    0  0.21395949246E+01  0.28674528113E+02 -0.26738152108E+02  0.39264936102E+02  0.00000000000E+00 0. -1.
</event>
<event>
 6    1  0.1383644E-005  0.6121167E+02  0.7818608E-02  0.1394288E+00
          2   -1    0    0  502    0  0.00000000000E+00  0.00000000000E+00  0.28202685682E+03  0.28202685682E+03  0.00000000000E+00 0. -1.
          1   -1    0    0  501    0 -0.00000000000E+00 -0.00000000000E+00 -0.13448917732E+03  0.13448917732E+03  0.00000000000E+00 0.  1.
          2    1    1    2  501    0 -0.29656265436E+02 -0.13616693755E+02  0.15472419506E+03  0.15812806508E+03  0.00000000000E+00 0. -1.
          1    1    1    2  502    0  0.47570185471E+02  0.10648483492E+02 -0.94253109437E+02  0.10611296521E+03  0.00000000000E+00 0.  1.
         22    1    1    2    0    0  0.96150440775E+01 -0.41520690300E+01 -0.30015111788E+02  0.31789867655E+02  0.00000000000E+00 0. -1.
         22    1    1    2    0    0 -0.27528964112E+02  0.71202792928E+01  0.11708170567E+03  0.12048513619E+03  0.00000000000E+00 0. -1.
</event>
<event>
 6    1  0.1383644E-005  0.3855128E+02  0.7818608E-02  0.1612098E+00
          2   -1    0    0  502    0  0.00000000000E+00  0.00000000000E+00  0.33488980600E+03  0.33488980600E+03  0.00000000000E+00 0.  1.
          1   -1    0    0  501    0 -0.00000000000E+00 -0.00000000000E+00 -0.14197164127E+03  0.14197164127E+03  0.00000000000E+00 0. -1.
          2    1    1    2  501    0 -0.99042710032E+01  0.18216125500E+02  0.26086707866E+03  0.26168980596E+03  0.00000000000E+00 0.  1.
          1    1    1    2  502    0  0.40348581271E+02 -0.44985396124E+02 -0.50013430478E+02  0.78441297180E+02  0.00000000000E+00 0. -1.
         22    1    1    2    0    0 -0.18508776422E+02  0.27490547044E+02 -0.73112311007E+02  0.80272753797E+02  0.00000000000E+00 0. -1.
         22    1    1    2    0    0 -0.11935533846E+02 -0.72127641915E+00  0.55176827550E+02  0.56457590334E+02  0.00000000000E+00 0.  1.
</event>
<event>
 6    1  0.1383644E-005  0.3776848E+02  0.7818608E-02  0.1605336E+00
          2   -1    0    0  502    0  0.00000000000E+00  0.00000000000E+00  0.16280611818E+03  0.16280611818E+03  0.00000000000E+00 0. -1.
          1   -1    0    0  501    0 -0.00000000000E+00 -0.00000000000E+00 -0.13898423054E+03  0.13898423054E+03  0.00000000000E+00 0.  1.
          2    1    1    2  501    0 -0.22088626765E+02  0.19506817792E+02  0.43318355921E+02  0.52391825053E+02  0.00000000000E+00 0. -1.
          1    1    1    2  502    0  0.17533128728E+02  0.24033894518E+02 -0.94173026638E+02  0.98760303943E+02  0.00000000000E+00 0.  1.
         22    1    1    2    0    0  0.17501311456E+02 -0.48267939751E+02  0.10524819050E+03  0.11710367848E+03  0.00000000000E+00 0. -1.
         22    1    1    2    0    0 -0.12945813420E+02  0.47272274414E+01 -0.30571632144E+02  0.33534541242E+02  0.00000000000E+00 0.  1.
</event>
<event>
 6    1  0.1383644E-005  0.9177665E+02  0.7818608E-02  0.1317854E+00
          2   -1    0    0  502    0  0.00000000000E+00  0.00000000000E+00  0.34542248236E+03  0.34542248236E+03  0.00000000000E+00 0.  1.
          1   -1    0    0  501    0 -0.00000000000E+00 -0.00000000000E+00 -0.10302234206E+03  0.10302234206E+03  0.00000000000E+00 0.  1.
          2    1    1    2  501    0 -0.80914560816E+02 -0.21450718289E+02  0.16180173835E+03  0.18217327466E+03  0.00000000000E+00 0.  1.
          1    1    1    2  502    0  0.56565323270E+02  0.68733691993E+02  0.94727320429E+02  0.12998931282E+03  0.00000000000E+00 0.  1.
         22    1    1    2    0    0  0.35722441053E+02 -0.53888674010E+02 -0.60218020746E+02  0.88353222940E+02  0.00000000000E+00 0.  1.
         22    1    1    2    0    0 -0.11373203507E+02  0.66057003056E+01  0.46089102270E+02  0.47929013996E+02  0.00000000000E+00 0.  1.
</event>
<event>
 6    1  0.1383644E-005  0.6124455E+02  0.7818608E-02  0.1505883E+00
          2   -1    0    0  502    0  0.00000000000E+00  0.00000000000E+00  0.31967314001E+03  0.31967314001E+03  0.00000000000E+00 0.  1.
          1   -1    0    0  501    0 -0.00000000000E+00 -0.00000000000E+00 -0.14249778969E+03  0.14249778969E+03  0.00000000000E+00 0.  1.
          2    1    1    2  501    0  0.16572222438E+02 -0.46380590607E+02  0.24366980528E+03  0.24859761009E+03  0.00000000000E+00 0.  1.
          1    1    1    2  502    0 -0.10040017029E+02  0.48594192793E+02 -0.76273624464E+02  0.90993754203E+02  0.00000000000E+00 0.  1.
         22    1    1    2    0    0 -0.54970358067E+01  0.10104215270E+02 -0.55225152923E+02  0.56410372134E+02  0.00000000000E+00 0.  1.
         22    1    1    2    0    0 -0.10351696020E+01 -0.12317817456E+02  0.65004322434E+02  0.66169193271E+02  0.00000000000E+00 0.  1.
</event>
<event>
 6    1  0.1383644E-005  0.5629034E+02  0.7818608E-02  0.1526678E+00
          2   -1    0    0  502    0  0.00000000000E+00  0.00000000000E+00  0.14077286663E+03  0.14077286663E+03  0.00000000000E+00 0. -1.
          1   -1    0    0  501    0 -0.00000000000E+00 -0.00000000000E+00 -0.11300550263E+03  0.11300550263E+03  0.00000000000E+00 0. -1.
          2    1    1    2  501    0  0.31085974713E+02 -0.31708377024E+01  0.46500297745E+02  0.56023831768E+02  0.00000000000E+00 0. -1.
          1    1    1    2  502    0 -0.48892704585E+02 -0.42705030776E+02  0.68014995445E+01  0.65272326535E+02  0.00000000000E+00 0. -1.
         22    1    1    2    0    0  0.11897466850E+02  0.55392897576E+02 -0.68031380593E+02  0.88533561798E+02  0.00000000000E+00 0. -1.
         22    1    1    2    0    0  0.59092630220E+01 -0.95170290975E+01  0.42496947303E+02  0.43948649153E+02  0.00000000000E+00 0.  1.
</event>
<event>
 6    1  0.1383644E-005  0.1929611E+03  0.7818608E-02  0.1245796E+00
          2   -1    0    0  502    0  0.00000000000E+00  0.00000000000E+00  0.52318311630E+03  0.52318311630E+03  0.00000000000E+00 0. -1.
          1   -1    0    0  501    0 -0.00000000000E+00 -0.00000000000E+00 -0.12627686893E+03  0.12627686893E+03  0.00000000000E+00 0. -1.
          2    1    1    2  501    0 -0.67113551947E+02 -0.54305720831E+02 -0.30052830061E+02  0.91413963729E+02  0.00000000000E+00 0. -1.
          1    1    1    2  502    0  0.82606311042E+02  0.11486158324E+03  0.38215574333E+03  0.40750459886E+03  0.00000000000E+00 0. -1.
         22    1    1    2    0    0  0.76288488747E+01 -0.75132019090E+02  0.77308235810E+02  0.10807211922E+03  0.00000000000E+00 0. -1.
         22    1    1    2    0    0 -0.23121607970E+02  0.14576156677E+02 -0.32504901706E+02  0.42469303426E+02  0.00000000000E+00 0.  1.
</event>
<event>
 6    1  0.1383644E-005  0.1934402E+03  0.7818608E-02  0.1267053E+00
          2   -1    0    0  502    0  0.00000000000E+00  0.00000000000E+00  0.13477545921E+04  0.13477545921E+04  0.00000000000E+00 0.  1.
          1   -1    0    0  501    0 -0.00000000000E+00 -0.00000000000E+00 -0.10772774600E+03  0.10772774600E+03  0.00000000000E+00 0.  1.
          2    1    1    2  501    0 -0.46316249373E+02  0.12454949994E+02  0.48100200337E+03  0.48338726501E+03  0.00000000000E+00 0.  1.
          1    1    1    2  502    0  0.74944804450E+02 -0.13932161689E+03 -0.31966629112E+02  0.16139734206E+03  0.00000000000E+00 0.  1.
         22    1    1    2    0    0 -0.13301814092E+02 -0.11859659463E+02  0.18455831277E+02  0.25655554736E+02  0.00000000000E+00 0.  1.
         22    1    1    2    0    0 -0.15326740985E+02  0.13872632636E+03  0.77253564059E+03  0.78504217632E+03  0.00000000000E+00 0.  1.
</event>
<event>
 6    1  0.1383644E-005  0.8505209E+02  0.7818608E-02  0.1343638E+00
          2   -1    0    0  502    0  0.00000000000E+00  0.00000000000E+00  0.15963336479E+04  0.15963336479E+04  0.00000000000E+00 0. -1.
          1   -1    0    0  501    0 -0.00000000000E+00 -0.00000000000E+00 -0.11239847779E+03  0.11239847779E+03  0.00000000000E+00 0.  1.
          2    1    1    2  501    0  0.97606583835E+02 -0.21644750347E+03  0.12903744814E+04  0.13120376783E+04  0.00000000000E+00 0. -1.
          1    1    1    2  502    0 -0.10373385294E+03  0.18825265610E+03  0.11892167706E+03  0.24564637195E+03  0.00000000000E+00 0.  1.
         22    1    1    2    0    0 -0.18295332478E+02  0.70213682804E+01  0.10493345287E+03  0.10674759170E+03  0.00000000000E+00 0. -1.
         22    1    1    2    0    0  0.24422601586E+02  0.21173479082E+02 -0.30294441271E+02  0.44300483706E+02  0.00000000000E+00 0. -1.
</event>
<event>
 6    1  0.1383644E-005  0.1757896E+03  0.7818608E-02  0.1267551E+00
          2   -1    0    0  502    0  0.00000000000E+00  0.00000000000E+00  0.49698429243E+02  0.49698429243E+02  0.00000000000E+00 0.  1.
          1   -1    0    0  501    0 -0.00000000000E+00 -0.00000000000E+00 -0.73079470746E+03  0.73079470746E+03  0.00000000000E+00 0.  1.
          2    1    1    2  501    0  0.27426730278E+02 -0.14218899058E+02 -0.15755102003E+03  0.16055132057E+03  0.00000000000E+00 0.  1.
          1    1    1    2  502    0 -0.15311331888E+02  0.41513122367E+02 -0.47681851758E+03  0.47886707437E+03  0.00000000000E+00 0.  1.
         22    1    1    2    0    0  0.11629918106E+02 -0.20440778316E+02 -0.89028547260E+02  0.92082368782E+02  0.00000000000E+00 0.  1.
         22    1    1    2    0    0 -0.23745316496E+02 -0.68534449924E+01  0.42301806653E+02  0.48992372976E+02  0.00000000000E+00 0.  1.
</event>
<event>
 6    1  0.1383644E-005  0.7218198E+02  0.7818608E-02  0.1397423E+00
          2   -1    0    0  502    0  0.00000000000E+00  0.00000000000E+00  0.30378633744E+03  0.30378633744E+03  0.00000000000E+00 0. -1.
          1   -1    0    0  501    0 -0.00000000000E+00 -0.00000000000E+00 -0.28413302645E+03  0.28413302645E+03  0.00000000000E+00 0. -1.
          2    1    1    2  501    0 -0.43324608691E+02  0.13897860590E+02  0.16074144252E+03  0.16705682743E+03  0.00000000000E+00 0. -1.
          1    1    1    2  502    0  0.64375211520E+02 -0.48436374363E+02 -0.24081041292E+03  0.25392893728E+03  0.00000000000E+00 0. -1.
         22    1    1    2    0    0 -0.25989679016E+02  0.20729743305E+00  0.12263843986E+03  0.12536224838E+03  0.00000000000E+00 0. -1.
         22    1    1    2    0    0  0.49390761864E+01  0.34331216339E+02 -0.22916158467E+02  0.41571350806E+02  0.00000000000E+00 0. -1.
</event>
<event>
 6    1  0.1383644E-005  0.4640331E+02  0.7818608E-02  0.1529229E+00
          2   -1    0    0  502    0  0.00000000000E+00  0.00000000000E+00  0.95317628769E+02  0.95317628769E+02  0.00000000000E+00 0.  1.
          1   -1    0    0  501    0 -0.00000000000E+00 -0.00000000000E+00 -0.25802701999E+03  0.25802701999E+03  0.00000000000E+00 0. -1.
          2    1    1    2  501    0  0.19533097203E+02 -0.78297418970E+01  0.34250645626E+02  0.40198923746E+02  0.00000000000E+00 0.  1.
          1    1    1    2  502    0 -0.10945568956E+02  0.49192888106E+02 -0.17262527751E+03  0.17983112121E+03  0.00000000000E+00 0. -1.
         22    1    1    2    0    0 -0.10099171198E+02 -0.16486085500E+02 -0.74677928057E+02  0.77139984527E+02  0.00000000000E+00 0. -1.
         22    1    1    2    0    0  0.15116429508E+01 -0.24877060708E+02  0.50343168720E+02  0.56174619275E+02  0.00000000000E+00 0.  1.
</event>
<event>
 6    1  0.1383644E-005  0.1147338E+03  0.7818608E-02  0.1340786E+00
          2   -1    0    0  502    0  0.00000000000E+00  0.00000000000E+00  0.24571036570E+04  0.24571036570E+04  0.00000000000E+00 0. -1.
          1   -1    0    0  501    0 -0.00000000000E+00 -0.00000000000E+00 -0.12581246693E+02  0.12581246693E+02  0.00000000000E+00 0. -1.
          2    1    1    2  501    0 -0.69643313368E+01  0.36749225364E+02  0.34791801335E+03  0.34992277932E+03  0.00000000000E+00 0. -1.
          1    1    1    2  502    0 -0.42008156086E+02 -0.88592451636E+02  0.15941296305E+04  0.15971420058E+04  0.00000000000E+00 0. -1.
         22    1    1    2    0    0  0.47161111131E+02  0.73864268716E+02  0.48889022520E+03  0.49668274873E+03  0.00000000000E+00 0. -1.
         22    1    1    2    0    0  0.18113762917E+01 -0.22021042445E+02  0.13584541202E+02  0.25937369838E+02  0.00000000000E+00 0. -1.
</event>
<event>
 6    1  0.1383644E-005  0.4718839E+02  0.7818608E-02  0.1484777E+00
          2   -1    0    0  502    0  0.00000000000E+00  0.00000000000E+00  0.88631845509E+02  0.88631845509E+02  0.00000000000E+00 0. -1.
          1   -1    0    0  501    0 -0.00000000000E+00 -0.00000000000E+00 -0.10229421388E+03  0.10229421388E+03  0.00000000000E+00 0. -1.
          2    1    1    2  501    0 -0.30621409229E+02 -0.15770633544E+02  0.22287446246E+02  0.41025770508E+02  0.00000000000E+00 0. -1.
          1    1    1    2  502    0  0.62359631653E+01  0.20730386092E+02 -0.28030766320E+01  0.21828728380E+02  0.00000000000E+00 0. -1.
         22    1    1    2    0    0 -0.60373673203E+01 -0.19392789372E+02  0.41487697719E+02  0.46192630860E+02  0.00000000000E+00 0. -1.
         22    1    1    2    0    0  0.30422813384E+02  0.14433036825E+02 -0.74634435699E+02  0.81878929636E+02  0.00000000000E+00 0. -1.
</event>
<event>
 6    1  0.1383644E-005  0.2934211E+02  0.7818608E-02  0.1631771E+00
          2   -1    0    0  502    0  0.00000000000E+00  0.00000000000E+00  0.21195346978E+03  0.21195346978E+03  0.00000000000E+00 0.  1.
          1   -1    0    0  501    0 -0.00000000000E+00 -0.00000000000E+00 -0.11114680009E+03  0.11114680009E+03  0.00000000000E+00 0. -1.
          2    1    1    2  501    0  0.27991314762E+02 -0.10474251856E+02  0.15522273893E+03  0.15807378763E+03  0.00000000000E+00 0.  1.
          1    1    1    2  502    0 -0.29070785593E+02 -0.11225756964E+02 -0.71232002842E+01  0.31966672906E+02  0.00000000000E+00 0. -1.
         22    1    1    2    0    0  0.21542505809E+02  0.18693878361E+00 -0.83500727001E+02  0.86235061966E+02  0.00000000000E+00 0. -1.
         22    1    1    2    0    0 -0.20463034978E+02  0.21513070036E+02  0.36207858047E+02  0.46824747380E+02  0.00000000000E+00 0.  1.
</event>
<event>
 6    1  0.1383644E-005  0.3654518E+02  0.7818608E-02  0.1586921E+00
          2   -1    0    0  502    0  0.00000000000E+00  0.00000000000E+00  0.17285914384E+03  0.17285914384E+03  0.00000000000E+00 0.  1.
          1   -1    0    0  501    0 -0.00000000000E+00 -0.00000000000E+00 -0.22191983065E+03  0.22191983065E+03  0.00000000000E+00 0.  1.
          2    1    1    2  501    0 -0.28184891953E+02  0.25464275551E+02  0.13067797750E+03  0.13608655799E+03  0.00000000000E+00 0.  1.
          1    1    1    2  502    0  0.49226450136E+02 -0.22095912472E+02 -0.41004036939E+02  0.67770227875E+02  0.00000000000E+00 0.  1.
         22    1    1    2    0    0  0.77606397789E+00  0.14655363465E+02  0.22697220782E+02  0.27028610486E+02  0.00000000000E+00 0.  1.
         22    1    1    2    0    0 -0.21817622161E+02 -0.18023726543E+02 -0.16143184816E+03  0.16389357814E+03  0.00000000000E+00 0.  1.
</event>
<event>
 6    1  0.1383644E-005  0.1067836E+03  0.7818608E-02  0.1325749E+00
          2   -1    0    0  502    0  0.00000000000E+00  0.00000000000E+00  0.41835134797E+03  0.41835134797E+03  0.00000000000E+00 0.  1.
          1   -1    0    0  501    0 -0.00000000000E+00 -0.00000000000E+00 -0.62628476176E+02  0.62628476176E+02  0.00000000000E+00 0. -1.
          2    1    1    2  501    0 -0.60923789160E+02  0.50688756957E+02  0.21916336184E+03  0.23305286383E+03  0.00000000000E+00 0.  1.
          1    1    1    2  502    0  0.63581329606E+02 -0.43413457036E+02  0.82623799172E+02  0.11293363501E+03  0.00000000000E+00 0. -1.
         22    1    1    2    0    0  0.35659723328E+02  0.92151523181E-01 -0.27275216221E+02  0.44895008404E+02  0.00000000000E+00 0. -1.
         22    1    1    2    0    0 -0.38317263774E+02 -0.73674514441E+01  0.81210927003E+02  0.90098316902E+02  0.00000000000E+00 0.  1.
</event>
<event>
 6    1  0.1383644E-005  0.9648781E+02  0.7818608E-02  0.1413941E+00
          2   -1    0    0  502    0  0.00000000000E+00  0.00000000000E+00  0.10583741253E+03  0.10583741253E+03  0.00000000000E+00 0.  1.
          1   -1    0    0  501    0 -0.00000000000E+00 -0.00000000000E+00 -0.60820490978E+03  0.60820490978E+03  0.00000000000E+00 0. -1.
          2    1    1    2  501    0 -0.92789992201E+01 -0.26740436275E+02  0.21661229243E+02  0.35642104470E+02  0.00000000000E+00 0.  1.
          1    1    1    2  502    0 -0.29699088741E+02  0.69073110976E+02 -0.53279731031E+03  0.53807629980E+03  0.00000000000E+00 0. -1.
         22    1    1    2    0    0 -0.92841347261E+01  0.62703162094E+01 -0.49281665463E+02  0.50539040095E+02  0.00000000000E+00 0. -1.
         22    1    1    2    0    0  0.48262222687E+02 -0.48602990910E+02  0.58050249281E+02  0.89784877934E+02  0.00000000000E+00 0.  1.
</event>
<event>
 6    1  0.1383644E-005  0.4248141E+02  0.7818608E-02  0.1512897E+00
          2   -1    0    0  502    0  0.00000000000E+00  0.00000000000E+00  0.11625594538E+03  0.11625594538E+03  0.00000000000E+00 0. -1.
          1   -1    0    0  501    0 -0.00000000000E+00 -0.00000000000E+00 -0.99022218488E+02  0.99022218488E+02  0.00000000000E+00 0. -1.
          2    1    1    2  501    0  0.22931370943E+02  0.12039787671E+02  0.41203142398E+02  0.48667270357E+02  0.00000000000E+00 0. -1.
          1    1    1    2  502    0 -0.29002227711E+02  0.14390500941E+02  0.12505332540E+00  0.32376401404E+02  0.00000000000E+00 0. -1.
         22    1    1    2    0    0  0.21158504991E+02  0.10374095872E+01  0.49718998777E+02  0.54043846935E+02  0.00000000000E+00 0. -1.
         22    1    1    2    0    0 -0.15087648223E+02 -0.27467698200E+02 -0.73813467607E+02  0.80190645174E+02  0.00000000000E+00 0. -1.
</event>
<event>
 6    1  0.1383644E-005  0.4594165E+02  0.7818608E-02  0.1531269E+00
          2   -1    0    0  502    0  0.00000000000E+00  0.00000000000E+00  0.12557635015E+03  0.12557635015E+03  0.00000000000E+00 0.  1.
          1   -1    0    0  501    0 -0.00000000000E+00 -0.00000000000E+00 -0.24793101312E+03  0.24793101312E+03  0.00000000000E+00 0.  1.
          2    1    1    2  501    0  0.12912806701E+02 -0.48716702525E+02  0.38259200174E+02  0.63275777986E+02  0.00000000000E+00 0.  1.
          1    1    1    2  502    0 -0.44138802923E+02  0.19560620249E+02 -0.17108278398E+03  0.17776436865E+03  0.00000000000E+00 0.  1.
         22    1    1    2    0    0  0.16034822401E+02  0.33541098384E+02 -0.54293825873E+02  0.65802282165E+02  0.00000000000E+00 0.  1.
         22    1    1    2    0    0  0.15191173821E+02 -0.43850161081E+01  0.64762746700E+02  0.66664934474E+02  0.00000000000E+00 0.  1.
</event>
<event>
 6    1  0.1383644E-005  0.1134612E+03  0.7818608E-02  0.1333537E+00
          2   -1    0    0  502    0  0.00000000000E+00  0.00000000000E+00  0.96876531867E+03  0.96876531867E+03  0.00000000000E+00 0.  1.
          1   -1    0    0  501    0 -0.00000000000E+00 -0.00000000000E+00 -0.19569283114E+03  0.19569283114E+03  0.00000000000E+00 0. -1.
          2    1    1    2  501    0  0.14032416579E+03 -0.23850089844E+02  0.78917185866E+03  0.80190518192E+03  0.00000000000E+00 0.  1.
          1    1    1    2  502    0 -0.21232464509E+03 -0.80389357510E+01 -0.29092286006E+02  0.21445918145E+03  0.00000000000E+00 0. -1.
         22    1    1    2    0    0  0.46519790811E+01 -0.18606425560E+02  0.51922548928E+02  0.55351522731E+02  0.00000000000E+00 0. -1.
         22    1    1    2    0    0  0.67348500224E+02  0.50495451155E+02 -0.38929634053E+02  0.92742263706E+02  0.00000000000E+00 0. -1.
</event>
<event>
 6    1  0.1383644E-005  0.1072658E+03  0.7818608E-02  0.1387865E+00
          2   -1    0    0  502    0  0.00000000000E+00  0.00000000000E+00  0.40906192103E+03  0.40906192103E+03  0.00000000000E+00 0. -1.
          1   -1    0    0  501    0 -0.00000000000E+00 -0.00000000000E+00 -0.13542655451E+03  0.13542655451E+03  0.00000000000E+00 0. -1.
          2    1    1    2  501    0 -0.56663900477E+02 -0.53286310018E+02  0.30435182044E+03  0.31413414182E+03  0.00000000000E+00 0. -1.
          1    1    1    2  502    0  0.49944744487E+02  0.71699072291E+02 -0.52174840401E+02  0.10177155025E+03  0.00000000000E+00 0. -1.
         22    1    1    2    0    0  0.69254858608E+01  0.10185210191E+02 -0.50062844204E+02  0.51555690577E+02  0.00000000000E+00 0. -1.
         22    1    1    2    0    0 -0.20632987093E+00 -0.28597972465E+02  0.71521230692E+02  0.77027092901E+02  0.00000000000E+00 0. -1.
</event>
<event>
 6    1  0.1383644E-005  0.6653450E+02  0.7818608E-02  0.1448849E+00
          2   -1    0    0  502    0  0.00000000000E+00  0.00000000000E+00  0.11376101129E+03  0.11376101129E+03  0.00000000000E+00 0.  1.
          1   -1    0    0  501    0 -0.00000000000E+00 -0.00000000000E+00 -0.42132149751E+03  0.42132149751E+03  0.00000000000E+00 0. -1.
          2    1    1    2  501    0  0.28645845432E+02  0.35152682138E+01  0.52093892208E+02  0.59554304433E+02  0.00000000000E+00 0.  1.
          1    1    1    2  502    0 -0.43905041116E+02  0.52274905851E+01 -0.35008188337E+03  0.35286301075E+03  0.00000000000E+00 0. -1.
         22    1    1    2    0    0  0.30140498924E+02 -0.22323255643E+02  0.48434560525E+02  0.61259154999E+02  0.00000000000E+00 0.  1.
         22    1    1    2    0    0 -0.14881303240E+02  0.13580496845E+02 -0.58007055590E+02  0.61406038619E+02  0.00000000000E+00 0. -1.
</event>
<event>
 6    1  0.1383644E-005  0.7439461E+02  0.7818608E-02  0.1404767E+00
          2   -1    0    0  502    0  0.00000000000E+00  0.00000000000E+00  0.54146349538E+02  0.54146349538E+02  0.00000000000E+00 0. -1.
          1   -1    0    0  501    0 -0.00000000000E+00 -0.00000000000E+00 -0.29460939296E+03  0.29460939296E+03  0.00000000000E+00 0. -1.
          2    1    1    2  501    0  0.23821354776E+02  0.78625783147E+01 -0.16970372591E+01  0.25142732878E+02  0.00000000000E+00 0. -1.
          1    1    1    2  502    0 -0.68647192872E+02 -0.33626553998E+02 -0.13033101915E+03  0.15109386744E+03  0.00000000000E+00 0. -1.
         22    1    1    2    0    0  0.22761043071E+02 -0.16662061492E+02 -0.12004055057E+03  0.12331027190E+03  0.00000000000E+00 0.  1.
         22    1    1    2    0    0  0.22064795025E+02  0.42426037175E+02  0.11605563554E+02  0.49208870290E+02  0.00000000000E+00 0. -1.
</event>
<event>
 6    1  0.1383644E-005  0.5916253E+02  0.7818608E-02  0.1436265E+00
          2   -1    0    0  502    0  0.00000000000E+00  0.00000000000E+00  0.24309583641E+03  0.24309583641E+03  0.00000000000E+00 0.  1.
          1   -1    0    0  501    0 -0.00000000000E+00 -0.00000000000E+00 -0.42133244122E+02  0.42133244122E+02  0.00000000000E+00 0.  1.
          2    1    1    2  501    0 -0.28105367805E+02  0.56900893251E+01  0.59365859464E+02  0.65928704567E+02  0.00000000000E+00 0.  1.
          1    1    1    2  502    0 -0.16114467851E+02 -0.19141929497E+02  0.22447295685E+01  0.25122268008E+02  0.00000000000E+00 0.  1.
         22    1    1    2    0    0  0.32690962258E+02 -0.11214119432E+02 -0.14831596590E+02  0.37608931724E+02  0.00000000000E+00 0.  1.
         22    1    1    2    0    0  0.11528873398E+02  0.24665959605E+02  0.15418359984E+03  0.15656917623E+03  0.00000000000E+00 0.  1.
</event>
<event>
 6    1  0.1383644E-005  0.2213181E+02  0.7818608E-02  0.1723463E+00
          2   -1    0    0  502    0  0.00000000000E+00  0.00000000000E+00  0.16948964323E+03  0.16948964323E+03  0.00000000000E+00 0.  1.
          1   -1    0    0  501    0 -0.00000000000E+00 -0.00000000000E+00 -0.22719571830E+03  0.22719571830E+03  0.00000000000E+00 0.  1.
          2    1    1    2  501    0 -0.25789262660E+02  0.17099485382E+02  0.10258199119E+03  0.10714729761E+03  0.00000000000E+00 0.  1.
          1    1    1    2  502    0  0.37366921554E+02 -0.17358859914E+01 -0.16113776028E+03  0.16542272491E+03  0.00000000000E+00 0.  1.
         22    1    1    2    0    0 -0.11559160525E+02 -0.48913060812E+01  0.61398137132E+02  0.62667936861E+02  0.00000000000E+00 0. -1.
         22    1    1    2    0    0 -0.18498369535E-01 -0.10472293309E+02 -0.60548443101E+02  0.61447402153E+02  0.00000000000E+00 0. -1.
</event>
<event>
 6    1  0.1383644E-005  0.3900495E+02  0.7818608E-02  0.1568380E+00
          2   -1    0    0  502    0  0.00000000000E+00  0.00000000000E+00  0.19807901257E+03  0.19807901257E+03  0.00000000000E+00 0. -1.
          1   -1    0    0  501    0 -0.00000000000E+00 -0.00000000000E+00 -0.84912428049E+02  0.84912428049E+02  0.00000000000E+00 0. -1.
          2    1    1    2  501    0 -0.14956436497E+02  0.35118929124E+02  0.41541575620E+02  0.56415748515E+02  0.00000000000E+00 0. -1.
          1    1    1    2  502    0 -0.24109355586E+02 -0.58996056309E+02  0.69813017917E+02  0.94528583812E+02  0.00000000000E+00 0. -1.
         22    1    1    2    0    0  0.17391439668E+02 -0.35120214370E+00 -0.59857601703E+02  0.62333923335E+02  0.00000000000E+00 0. -1.
         22    1    1    2    0    0  0.21674352415E+02  0.24228329329E+02  0.61669592688E+02  0.69713184958E+02  0.00000000000E+00 0. -1.
</event>
<event>
 6    1  0.1383644E-005  0.5988766E+02  0.7818608E-02  0.1469893E+00
          2   -1    0    0  502    0  0.00000000000E+00  0.00000000000E+00  0.10115107099E+03  0.10115107099E+03  0.00000000000E+00 0. -1.
          1   -1    0    0  501    0 -0.00000000000E+00 -0.00000000000E+00 -0.22307321587E+03  0.22307321587E+03  0.00000000000E+00 0. -1.
          2    1    1    2  501    0  0.16290505402E+02 -0.28573168787E+02  0.60810880161E+02  0.69135878433E+02  0.00000000000E+00 0. -1.
          1    1    1    2  502    0 -0.29023904616E+02  0.29605943162E+02 -0.87871214787E+02  0.97160945332E+02  0.00000000000E+00 0. -1.
         22    1    1    2    0    0 -0.34806067164E+01  0.20043768306E+02 -0.11977399503E+03  0.12148941170E+03  0.00000000000E+00 0. -1.
         22    1    1    2    0    0  0.16214005931E+02 -0.21076542681E+02  0.24912184770E+02  0.36438051398E+02  0.00000000000E+00 0. -1.
</event>
<event>
 6    1  0.1383644E-005  0.1458296E+03  0.7818608E-02  0.1260864E+00
          2   -1    0    0  502    0  0.00000000000E+00  0.00000000000E+00  0.50647794839E+02  0.50647794839E+02  0.00000000000E+00 0.  1.
          1   -1    0    0  501    0 -0.00000000000E+00 -0.00000000000E+00 -0.72146136726E+03  0.72146136726E+03  0.00000000000E+00 0.  1.
          2    1    1    2  501    0 -0.35001550107E+02 -0.24311166075E+02 -0.12107340846E+03  0.12835463195E+03  0.00000000000E+00 0.  1.
          1    1    1    2  502    0  0.22180875403E+02  0.41470194520E+02 -0.51460059386E+03  0.51674513976E+03  0.00000000000E+00 0.  1.
         22    1    1    2    0    0  0.37953471291E+02 -0.27616953654E+02 -0.69069611743E+02  0.83509121529E+02  0.00000000000E+00 0. -1.
         22    1    1    2    0    0 -0.25132796587E+02  0.10457925210E+02  0.33930041650E+02  0.43500268854E+02  0.00000000000E+00 0.  1.
</event>
<event>
 6    1  0.1383644E-005  0.1435623E+03  0.7818608E-02  0.1237122E+00
          2   -1    0    0  502    0  0.00000000000E+00  0.00000000000E+00  0.67789657151E+02  0.67789657151E+02  0.00000000000E+00 0. -1.
          1   -1    0    0  501    0 -0.00000000000E+00 -0.00000000000E+00 -0.64542671727E+03  0.64542671727E+03  0.00000000000E+00 0. -1.
          2    1    1    2  501    0 -0.61060836364E+01  0.27618510338E+02 -0.26886264734E+02  0.39024833145E+02  0.00000000000E+00 0. -1.
          1    1    1    2  502    0 -0.15310644496E+02 -0.17549193428E+03 -0.16172184480E+03  0.23913550535E+03  0.00000000000E+00 0. -1.
         22    1    1    2    0    0 -0.42262082062E+02  0.28034883641E+02 -0.56616454728E+02  0.76009612727E+02  0.00000000000E+00 0. -1.
         22    1    1    2    0    0  0.63678810194E+02  0.11983854030E+03 -0.33241249585E+03  0.35904642320E+03  0.00000000000E+00 0. -1.
</event>
<event>
 6    1  0.1383644E-005  0.8035318E+02  0.7818608E-02  0.1403514E+00
          2   -1    0    0  502    0  0.00000000000E+00  0.00000000000E+00  0.12582284644E+04  0.12582284644E+04  0.00000000000E+00 0.  1.
          1   -1    0    0  501    0 -0.00000000000E+00 -0.00000000000E+00 -0.14694388411E+03  0.14694388411E+03  0.00000000000E+00 0. -1.
          2    1    1    2  501    0 -0.80110354072E+01  0.13582156903E+03  0.10220497837E+04  0.10310661645E+04  0.00000000000E+00 0.  1.
          1    1    1    2  502    0  0.52186462081E+02 -0.15428857104E+03 -0.60082226587E+02  0.17360375552E+03  0.00000000000E+00 0. -1.
         22    1    1    2    0    0 -0.42298836774E+02  0.64324590256E+01  0.17065297938E+03  0.17593466826E+03  0.00000000000E+00 0. -1.
         22    1    1    2    0    0 -0.18765898994E+01  0.12034542988E+02 -0.21335956193E+02  0.24567760201E+02  0.00000000000E+00 0.  1.
</event>
<event>
 6    1  0.1383644E-005  0.7260299E+02  0.7818608E-02  0.1401763E+00
          2   -1    0    0  502    0  0.00000000000E+00  0.00000000000E+00  0.20331058343E+03  0.20331058343E+03  0.00000000000E+00 0.  1.
          1   -1    0    0  501    0 -0.00000000000E+00 -0.00000000000E+00 -0.28130998694E+03  0.28130998694E+03  0.00000000000E+00 0.  1.
          2    1    1    2  501    0 -0.18881409577E+02 -0.44277718592E+02  0.12019421730E+03  0.12947460702E+03  0.00000000000E+00 0.  1.
          1    1    1    2  502    0  0.46340106857E+02  0.72284399987E+02 -0.20208103104E+03  0.21956589692E+03  0.00000000000E+00 0.  1.
         22    1    1    2    0    0  0.40768935832E+01 -0.23764878794E+02  0.63545679908E+02  0.67966491453E+02  0.00000000000E+00 0.  1.
         22    1    1    2    0    0 -0.31535590863E+02 -0.42418026005E+01 -0.59658269681E+02  0.67613574981E+02  0.00000000000E+00 0.  1.
</event>
<event>
 6    1  0.1383644E-005  0.1064489E+03  0.7818608E-02  0.1356176E+00
          2   -1    0    0  502    0  0.00000000000E+00  0.00000000000E+00  0.49591327339E+03  0.49591327339E+03  0.00000000000E+00 0.  1.
          1   -1    0    0  501    0 -0.00000000000E+00 -0.00000000000E+00 -0.67543165841E+02  0.67543165841E+02  0.00000000000E+00 0.  1.
          2    1    1    2  501    0  0.21013229796E+02  0.28950586163E+02  0.55514574128E+02  0.66042109342E+02  0.00000000000E+00 0.  1.
          1    1    1    2  502    0 -0.42251581481E+02  0.28459664532E+02  0.35168764946E+03  0.35535806087E+03  0.00000000000E+00 0.  1.
         22    1    1    2    0    0 -0.18879861333E+02  0.97822721145E+01 -0.38273276537E+02  0.43783395352E+02  0.00000000000E+00 0.  1.
         22    1    1    2    0    0  0.40118213018E+02 -0.67192522809E+02  0.59441160498E+02  0.98272873666E+02  0.00000000000E+00 0.  1.
</event>
<event>
 6    1  0.1383644E-005  0.2154363E+03  0.7818608E-02  0.1209032E+00
          2   -1    0    0  502    0  0.00000000000E+00  0.00000000000E+00  0.43751318037E+03  0.43751318037E+03  0.00000000000E+00 0.  1.
          1   -1    0    0  501    0 -0.00000000000E+00 -0.00000000000E+00 -0.92410719982E+02  0.92410719982E+02  0.00000000000E+00 0. -1.
          2    1    1    2  501    0 -0.17435869410E+02  0.58289143705E+02  0.20325705513E+02  0.64146458363E+02  0.00000000000E+00 0.  1.
          1    1    1    2  502    0  0.10247021421E+02  0.84570340937E+02 -0.51884687566E+01  0.85346729417E+02  0.00000000000E+00 0. -1.
         22    1    1    2    0    0 -0.10946190106E+02 -0.40656346698E+02  0.89418739092E+01  0.43043172672E+02  0.00000000000E+00 0.  1.
         22    1    1    2    0    0  0.18135038095E+02 -0.10220313794E+03  0.32102334972E+03  0.33738753990E+03  0.00000000000E+00 0.  1.
</event>
<event>
 6    1  0.1383644E-005  0.7477124E+02  0.7818608E-02  0.1356660E+00
          2   -1    0    0  502    0  0.00000000000E+00  0.00000000000E+00  0.40547279102E+02  0.40547279102E+02  0.00000000000E+00 0. -1.
          1   -1    0    0  501    0 -0.00000000000E+00 -0.00000000000E+00 -0.41314923272E+03  0.41314923272E+03  0.00000000000E+00 0. -1.
          2    1    1    2  501    0 -0.13212132418E+02 -0.15554001131E+02 -0.56467992129E+02  0.60042664243E+02  0.00000000000E+00 0. -1.
          1    1    1    2  502    0  0.64966402456E+02  0.27061667781E+02 -0.30169134021E+02  0.76571169240E+02  0.00000000000E+00 0. -1.
         22    1    1    2    0    0 -0.25067271405E+02  0.55453911191E+02 -0.16973479740E+03  0.18031474097E+03  0.00000000000E+00 0.  1.
         22    1    1    2    0    0 -0.26686998633E+02 -0.66961577841E+02 -0.11623003006E+03  0.13676793736E+03  0.00000000000E+00 0. -1.
</event>
<event>
 6    1  0.1383644E-005  0.3482376E+02  0.7818608E-02  0.1561803E+00
          2   -1    0    0  502    0  0.00000000000E+00  0.00000000000E+00  0.15763135709E+03  0.15763135709E+03  0.00000000000E+00 0. -1.
          1   -1    0    0  501    0 -0.00000000000E+00 -0.00000000000E+00 -0.80638210846E+02  0.80638210846E+02  0.00000000000E+00 0. -1.
          2    1    1    2  501    0  0.13536826079E+02  0.15882494964E+02  0.81529541238E+02  0.84157978832E+02  0.00000000000E+00 0. -1.
          1    1    1    2  502    0 -0.28822020752E+02  0.72271368488E+01 -0.53654977012E+01  0.30194849774E+02  0.00000000000E+00 0. -1.
         22    1    1    2    0    0  0.52729828441E+01  0.15648420703E+02  0.54508444900E+02  0.56954788947E+02  0.00000000000E+00 0. -1.
         22    1    1    2    0    0  0.10012211829E+02 -0.38758052516E+02 -0.53679342195E+02  0.66961950382E+02  0.00000000000E+00 0. -1.
</event>
<event>
 6    1  0.1383644E-005  0.4356124E+02  0.7818608E-02  0.1510277E+00
          2   -1    0    0  502    0  0.00000000000E+00  0.00000000000E+00  0.87053444350E+02  0.87053444350E+02  0.00000000000E+00 0.  1.
          1   -1    0    0  501    0 -0.00000000000E+00 -0.00000000000E+00 -0.30760071682E+03  0.30760071682E+03  0.00000000000E+00 0.  1.
          2    1    1    2  501    0 -0.27372391986E+02 -0.39541122724E+02  0.35997937358E+02  0.60071621614E+02  0.00000000000E+00 0.  1.
          1    1    1    2  502    0  0.43853223355E+02  0.48593988221E+02 -0.16076796635E+03  0.17358231447E+03  0.00000000000E+00 0.  1.
         22    1    1    2    0    0  0.13627185176E+02 -0.15804017172E+02 -0.11998227227E+03  0.12178346683E+03  0.00000000000E+00 0.  1.
         22    1    1    2    0    0 -0.30108016545E+02  0.67511516754E+01  0.24205028796E+02  0.39216758257E+02  0.00000000000E+00 0.  1.
</event>
<event>
 6    1  0.1383644E-005  0.5276919E+02  0.7818608E-02  0.1502921E+00
          2   -1    0    0  502    0  0.00000000000E+00  0.00000000000E+00  0.25139354806E+03  0.25139354806E+03  0.00000000000E+00 0.  1.
          1   -1    0    0  501    0 -0.00000000000E+00 -0.00000000000E+00 -0.70858148428E+03  0.70858148428E+03  0.00000000000E+00 0.  1.
          2    1    1    2  501    0  0.58346954650E+01 -0.58683683706E+02  0.21939328218E+03  0.22718105263E+03  0.00000000000E+00 0.  1.
          1    1    1    2  502    0  0.33877142698E+02  0.47340585996E+02 -0.53755408453E+03  0.54069694439E+03  0.00000000000E+00 0.  1.
         22    1    1    2    0    0  0.15687172101E+02  0.10225448994E+02  0.17759007607E+02  0.25807547866E+02  0.00000000000E+00 0. -1.
         22    1    1    2    0    0 -0.55399010264E+02  0.11176487164E+01 -0.15678614149E+03  0.16628948746E+03  0.00000000000E+00 0.  1.
</event>
<event>
 6    1  0.1383644E-005  0.4205360E+02  0.7818608E-02  0.1520549E+00
          2   -1    0    0  502    0  0.00000000000E+00  0.00000000000E+00  0.23914708035E+03  0.23914708035E+03  0.00000000000E+00 0.  1.
          1   -1    0    0  501    0 -0.00000000000E+00 -0.00000000000E+00 -0.12421603868E+03  0.12421603868E+03  0.00000000000E+00 0.  1.
          2    1    1    2  501    0  0.27664463551E+02  0.22198206922E+01  0.16456534383E+03  0.16688919239E+03  0.00000000000E+00 0.  1.
          1    1    1    2  502    0 -0.56107027829E+02  0.21532957763E+02 -0.10563747415E+02  0.61018518511E+02  0.00000000000E+00 0.  1.
         22    1    1    2    0    0  0.12483051370E+02  0.63931646881E+00  0.44880073920E+02  0.46588156565E+02  0.00000000000E+00 0.  1.
         22    1    1    2    0    0  0.15959512909E+02 -0.24392094924E+02 -0.83950628661E+02  0.88867251559E+02  0.00000000000E+00 0.  1.
</event>
<event>
 6    1  0.1383644E-005  0.9239998E+02  0.7818608E-02  0.1383181E+00
          2   -1    0    0  502    0  0.00000000000E+00  0.00000000000E+00  0.33677355159E+03  0.33677355159E+03  0.00000000000E+00 0. -1.
          1   -1    0    0  501    0 -0.00000000000E+00 -0.00000000000E+00 -0.13335802292E+03  0.13335802292E+03  0.00000000000E+00 0. -1.
          2    1    1    2  501    0 -0.67282629276E+02 -0.11111927855E+02  0.25097519139E+03  0.26007493888E+03  0.00000000000E+00 0. -1.
          1    1    1    2  502    0  0.71078271944E+02  0.11932373525E+02 -0.52896147420E+02  0.89400809237E+02  0.00000000000E+00 0. -1.
         22    1    1    2    0    0 -0.20916099249E+02 -0.12607927676E+02  0.58597144749E+02  0.63482819887E+02  0.00000000000E+00 0. -1.
         22    1    1    2    0    0  0.17120456581E+02  0.11787482006E+02 -0.53260660042E+02  0.57173006513E+02  0.00000000000E+00 0. -1.
</event>
<event>
 6    1  0.1383644E-005  0.7693870E+02  0.7818608E-02  0.1353372E+00
          2   -1    0    0  502    0  0.00000000000E+00  0.00000000000E+00  0.67641274181E+03  0.67641274181E+03  0.00000000000E+00 0.  1.
          1   -1    0    0  501    0 -0.00000000000E+00 -0.00000000000E+00 -0.33994583987E+02  0.33994583987E+02  0.00000000000E+00 0. -1.
          2    1    1    2  501    0  0.82848735011E+02  0.58989676312E+01  0.44201035322E+03  0.44974644309E+03  0.00000000000E+00 0.  1.
          1    1    1    2  502    0 -0.15503782652E+02  0.19038369800E+02  0.19346653714E+02  0.31258915706E+02  0.00000000000E+00 0. -1.
         22    1    1    2    0    0 -0.11350569363E+02  0.27665973055E+02 -0.28984039642E+01  0.30044004984E+02  0.00000000000E+00 0. -1.
         22    1    1    2    0    0 -0.55994382996E+02 -0.52603310486E+02  0.18395955485E+03  0.19935796203E+03  0.00000000000E+00 0. -1.
</event>
<event>
 6    1  0.1383644E-005  0.1020338E+03  0.7818608E-02  0.1339456E+00
          2   -1    0    0  502    0  0.00000000000E+00  0.00000000000E+00  0.15100127781E+03  0.15100127781E+03  0.00000000000E+00 0.  1.
          1   -1    0    0  501    0 -0.00000000000E+00 -0.00000000000E+00 -0.11863130453E+03  0.11863130453E+03  0.00000000000E+00 0.  1.
          2    1    1    2  501    0  0.11734115116E+02  0.20216074200E+02  0.12661311422E+02  0.26583602475E+02  0.00000000000E+00 0.  1.
          1    1    1    2  502    0 -0.84982872139E-01 -0.89016534755E+02  0.38430735621E+02  0.96958094671E+02  0.00000000000E+00 0.  1.
         22    1    1    2    0    0 -0.43723352200E+02  0.70971965322E+02  0.29251040652E+02  0.88342372441E+02  0.00000000000E+00 0.  1.
         22    1    1    2    0    0  0.32074219956E+02 -0.21715047662E+01 -0.47973114418E+02  0.57748512758E+02  0.00000000000E+00 0.  1.
</event>
<event>
 6    1  0.1383644E-005  0.4281167E+02  0.7818608E-02  0.1488527E+00
          2   -1    0    0  502    0  0.00000000000E+00  0.00000000000E+00  0.31217165491E+03  0.31217165491E+03  0.00000000000E+00 0.  1.
          1   -1    0    0  501    0 -0.00000000000E+00 -0.00000000000E+00 -0.23451823611E+03  0.23451823611E+03  0.00000000000E+00 0.  1.
          2    1    1    2  501    0 -0.29589377510E+02  0.12815523297E+02  0.23626845495E+03  0.23845870021E+03  0.00000000000E+00 0.  1.
          1    1    1    2  502    0  0.40322462393E+02  0.22790033051E+02 -0.16704220304E+03  0.17334469758E+03  0.00000000000E+00 0.  1.
         22    1    1    2    0    0 -0.77422626040E+01 -0.45595806144E+02 -0.54284151258E+02  0.71314018579E+02  0.00000000000E+00 0. -1.
         22    1    1    2    0    0 -0.29908222794E+01  0.99902497964E+01  0.62711318157E+02  0.63572474656E+02  0.00000000000E+00 0.  1.
</event>
<event>
 6    1  0.1383644E-005  0.5728674E+02  0.7818608E-02  0.1456008E+00
          2   -1    0    0  502    0  0.00000000000E+00  0.00000000000E+00  0.19028185594E+03  0.19028185594E+03  0.00000000000E+00 0. -1.
          1   -1    0    0  501    0 -0.00000000000E+00 -0.00000000000E+00 -0.15544780451E+03  0.15544780451E+03  0.00000000000E+00 0.  1.
          2    1    1    2  501    0 -0.17735095537E+02  0.41566956176E+02  0.11735227335E+03  0.12575333602E+03  0.00000000000E+00 0. -1.
          1    1    1    2  502    0 -0.95185904251E+01 -0.55922716002E+02 -0.71616405912E+02  0.91361169676E+02  0.00000000000E+00 0.  1.
         22    1    1    2    0    0 -0.84946231429E+00  0.10165766540E+02  0.55478862122E+02  0.56408940231E+02  0.00000000000E+00 0. -1.
         22    1    1    2    0    0  0.28103148276E+02  0.41899932855E+01 -0.66380678131E+02  0.72206214524E+02  0.00000000000E+00 0.  1.
</event>
<event>
 6    1  0.1383644E-005  0.1035922E+03  0.7818608E-02  0.1339245E+00
          2   -1    0    0  502    0  0.00000000000E+00  0.00000000000E+00  0.53168939593E+03  0.53168939593E+03  0.00000000000E+00 0. -1.
          1   -1    0    0  501    0 -0.00000000000E+00 -0.00000000000E+00 -0.63436968586E+02  0.63436968586E+02  0.00000000000E+00 0.  1.
          2    1    1    2  501    0  0.67472526199E+02 -0.12634075367E+02  0.32492962635E+03  0.33210152624E+03  0.00000000000E+00 0. -1.
          1    1    1    2  502    0 -0.94664611825E+02  0.10401714964E+02  0.75738023117E+02  0.12167921989E+03  0.00000000000E+00 0.  1.
         22    1    1    2    0    0  0.86838995665E+01  0.29582782274E+02 -0.27111654862E+02  0.41055973354E+02  0.00000000000E+00 0.  1.
         22    1    1    2    0    0  0.18508186060E+02 -0.27350421871E+02  0.94696432741E+02  0.10028964504E+03  0.00000000000E+00 0. -1.
</event>
<event>
 6    1  0.1383644E-005  0.6851601E+02  0.7818608E-02  0.1366912E+00
          2   -1    0    0  502    0  0.00000000000E+00  0.00000000000E+00  0.14989900527E+03  0.14989900527E+03  0.00000000000E+00 0. -1.
          1   -1    0    0  501    0 -0.00000000000E+00 -0.00000000000E+00 -0.12833667305E+03  0.12833667305E+03  0.00000000000E+00 0. -1.
          2    1    1    2  501    0  0.24940509550E+02  0.73054163006E+01  0.38805623540E+02  0.46704116973E+02  0.00000000000E+00 0. -1.
          1    1    1    2  502    0 -0.36972570608E+02 -0.24404550208E+02 -0.77895316404E+02  0.89611569375E+02  0.00000000000E+00 0. -1.
         22    1    1    2    0    0 -0.23854828868E+02  0.10848576259E+01 -0.32782472074E+02  0.40557616445E+02  0.00000000000E+00 0. -1.
         22    1    1    2    0    0  0.35886889926E+02  0.16014276281E+02  0.93434497154E+02  0.10136237552E+03  0.00000000000E+00 0. -1.
</event>
<event>
 6    1  0.1383644E-005  0.1121468E+03  0.7818608E-02  0.1303886E+00
          2   -1    0    0  502    0  0.00000000000E+00  0.00000000000E+00  0.41106898519E+03  0.41106898519E+03  0.00000000000E+00 0.  1.
          1   -1    0    0  501    0 -0.00000000000E+00 -0.00000000000E+00 -0.65383664630E+02  0.65383664630E+02  0.00000000000E+00 0.  1.
          2    1    1    2  501    0  0.72278439412E+02 -0.61415122444E+02  0.16725061826E+03  0.19227261734E+03  0.00000000000E+00 0.  1.
          1    1    1    2  502    0 -0.62733819885E+02  0.61504120103E+02  0.12360577476E+03  0.15164655123E+03  0.00000000000E+00 0.  1.
         22    1    1    2    0    0 -0.23422848965E+02  0.39174321476E+02 -0.17655109960E+02  0.48938330830E+02  0.00000000000E+00 0.  1.
         22    1    1    2    0    0  0.13878229438E+02 -0.39263319135E+02  0.72484037494E+02  0.83595150417E+02  0.00000000000E+00 0. -1.
</event>
<event>
 6    1  0.1383644E-005  0.2149140E+03  0.7818608E-02  0.1204889E+00
          2   -1    0    0  502    0  0.00000000000E+00  0.00000000000E+00  0.75096372624E+02  0.75096372624E+02  0.00000000000E+00 0.  1.
          1   -1    0    0  501    0 -0.00000000000E+00 -0.00000000000E+00 -0.64117690232E+03  0.64117690232E+03  0.00000000000E+00 0.  1.
          2    1    1    2  501    0 -0.70994516123E+02  0.28754755129E+02 -0.18761214071E+03  0.20264592916E+03  0.00000000000E+00 0.  1.
          1    1    1    2  502    0  0.81616355895E+02 -0.11752215452E+02 -0.38147196408E+03  0.39028221007E+03  0.00000000000E+00 0.  1.
         22    1    1    2    0    0  0.23749663938E+02 -0.39810340576E+02 -0.41817636660E+02  0.62430957784E+02  0.00000000000E+00 0.  1.
         22    1    1    2    0    0 -0.34371503710E+02  0.22807800898E+02  0.44821211760E+02  0.60914177929E+02  0.00000000000E+00 0.  1.
</event>
<event>
 6    1  0.1383644E-005  0.7380524E+02  0.7818608E-02  0.1440906E+00
          2   -1    0    0  502    0  0.00000000000E+00  0.00000000000E+00  0.36513782805E+03  0.36513782805E+03  0.00000000000E+00 0.  1.
          1   -1    0    0  501    0 -0.00000000000E+00 -0.00000000000E+00 -0.32868545305E+02  0.32868545305E+02  0.00000000000E+00 0.  1.
          2    1    1    2  501    0  0.21319573477E+01 -0.26484907577E+02  0.13636959167E+03  0.13893401709E+03  0.00000000000E+00 0.  1.
          1    1    1    2  502    0 -0.33232139037E+02  0.11232269736E+02  0.50546960359E+02  0.61526694613E+02  0.00000000000E+00 0.  1.
         22    1    1    2    0    0 -0.40002961176E+01 -0.16117676333E+02 -0.19783984881E+02  0.25829980975E+02  0.00000000000E+00 0.  1.
         22    1    1    2    0    0  0.35100477807E+02  0.31370314174E+02  0.16513671560E+03  0.17171568068E+03  0.00000000000E+00 0.  1.
</event>
<event>
 6    1  0.1383644E-005  0.5113332E+02  0.7818608E-02  0.1532363E+00
          2   -1    0    0  502    0  0.00000000000E+00  0.00000000000E+00  0.13669792255E+03  0.13669792255E+03  0.00000000000E+00 0. -1.
          1   -1    0    0  501    0 -0.00000000000E+00 -0.00000000000E+00 -0.15271460640E+03  0.15271460640E+03  0.00000000000E+00 0. -1.
          2    1    1    2  501    0  0.52628324185E+00  0.32588849785E+02  0.68857037732E+02  0.76181374034E+02  0.00000000000E+00 0. -1.
          1    1    1    2  502    0  0.29572796721E+01 -0.45191682991E+02 -0.73761944964E+02  0.86555521138E+02  0.00000000000E+00 0. -1.
         22    1    1    2    0    0  0.10169302428E+02  0.15016453325E+02  0.55628656841E+02  0.58510307163E+02  0.00000000000E+00 0. -1.
         22    1    1    2    0    0 -0.13652865342E+02 -0.24136201192E+01 -0.66740433455E+02  0.68165326611E+02  0.00000000000E+00 0. -1.
</event>
<event>
 6    1  0.1383644E-005  0.8288500E+02  0.7818608E-02  0.1323999E+00
          2   -1    0    0  502    0  0.00000000000E+00  0.00000000000E+00  0.52282574576E+02  0.52282574576E+02  0.00000000000E+00 0.  1.
          1   -1    0    0  501    0 -0.00000000000E+00 -0.00000000000E+00 -0.19349228190E+03  0.19349228190E+03  0.00000000000E+00 0.  1.
          2    1    1    2  501    0 -0.37617324849E+01  0.28522163318E+02 -0.64440767648E+01  0.29482037871E+02  0.00000000000E+00 0.  1.
          1    1    1    2  502    0  0.17108133264E+01 -0.44227330512E+02 -0.52985012779E+02  0.69039084768E+02  0.00000000000E+00 0.  1.
         22    1    1    2    0    0 -0.99470477764E+01  0.47153331643E+02  0.10242963540E+02  0.49267623716E+02  0.00000000000E+00 0.  1.
         22    1    1    2    0    0  0.11997966935E+02 -0.31448164450E+02 -0.92023581318E+02  0.97986110120E+02  0.00000000000E+00 0.  1.
</event>
<event>
 6    1  0.1383644E-005  0.4753135E+02  0.7818608E-02  0.1572409E+00
          2   -1    0    0  502    0  0.00000000000E+00  0.00000000000E+00  0.20692580800E+03  0.20692580800E+03  0.00000000000E+00 0.  1.
          1   -1    0    0  501    0 -0.00000000000E+00 -0.00000000000E+00 -0.69192488808E+02  0.69192488808E+02  0.00000000000E+00 0.  1.
          2    1    1    2  501    0  0.19533871081E+02  0.96064493232E+01  0.98695901650E+02  0.10106798203E+03  0.00000000000E+00 0.  1.
          1    1    1    2  502    0 -0.36937971366E+02 -0.22685546308E+02  0.27278958150E+01  0.43433732922E+02  0.00000000000E+00 0.  1.
         22    1    1    2    0    0 -0.75517065935E+01  0.70565435552E+01 -0.45092747852E+02  0.46262068569E+02  0.00000000000E+00 0.  1.
         22    1    1    2    0    0  0.24955806878E+02  0.60225534300E+01  0.81402269581E+02  0.85354513294E+02  0.00000000000E+00 0. -1.
</event>
<event>
 6    1  0.1383644E-005  0.2029276E+03  0.7818608E-02  0.1235908E+00
          2   -1    0    0  502    0  0.00000000000E+00  0.00000000000E+00  0.21463955233E+04  0.21463955233E+04  0.00000000000E+00 0. -1.
          1   -1    0    0  501    0 -0.00000000000E+00 -0.00000000000E+00 -0.30821236119E+02  0.30821236119E+02  0.00000000000E+00 0. -1.
          2    1    1    2  501    0  0.12671765197E+03  0.57189001352E+02  0.12642892294E+04  0.12719100600E+04  0.00000000000E+00 0. -1.
          1    1    1    2  502    0 -0.16952967710E+03 -0.45415713528E+02  0.47296187407E+03  0.50447579999E+03  0.00000000000E+00 0. -1.
         22    1    1    2    0    0 -0.23027849014E+02 -0.17160148721E+02  0.16695140756E+02  0.33218673351E+02  0.00000000000E+00 0.  1.
         22    1    1    2    0    0  0.65839874142E+02  0.53868608983E+01  0.36162804295E+03  0.36761222606E+03  0.00000000000E+00 0. -1.
</event>
<event>
 6    1  0.1383644E-005  0.7527197E+02  0.7818608E-02  0.1345177E+00
          2   -1    0    0  502    0  0.00000000000E+00  0.00000000000E+00  0.25217780059E+03  0.25217780059E+03  0.00000000000E+00 0.  1.
          1   -1    0    0  501    0 -0.00000000000E+00 -0.00000000000E+00 -0.89414766860E+02  0.89414766860E+02  0.00000000000E+00 0.  1.
          2    1    1    2  501    0 -0.27436016042E+02 -0.49234408859E+02  0.15226051929E+03  0.16235771533E+03  0.00000000000E+00 0.  1.
          1    1    1    2  502    0  0.21373231029E+02  0.37497264677E+02 -0.21348934470E+02  0.48152225970E+02  0.00000000000E+00 0.  1.
         22    1    1    2    0    0  0.12997639701E+02  0.22746709051E+02 -0.45576144101E+02  0.52569347737E+02  0.00000000000E+00 0.  1.
         22    1    1    2    0    0 -0.69348546876E+01 -0.11009564868E+02  0.77427593010E+02  0.78513278415E+02  0.00000000000E+00 0. -1.
</event>
<event>
 6    1  0.1383644E-005  0.4878878E+02  0.7818608E-02  0.1477390E+00
          2   -1    0    0  502    0  0.00000000000E+00  0.00000000000E+00  0.31565478933E+03  0.31565478933E+03  0.00000000000E+00 0.  1.
          1   -1    0    0  501    0 -0.00000000000E+00 -0.00000000000E+00 -0.66727513316E+02  0.66727513316E+02  0.00000000000E+00 0.  1.
          2    1    1    2  501    0  0.32249521254E+02  0.35589208653E+02  0.11942570102E+03  0.12872109950E+03  0.00000000000E+00 0.  1.
          1    1    1    2  502    0  0.44004068361E+02 -0.53565391184E+02  0.39967889819E+02  0.80019006377E+02  0.00000000000E+00 0.  1.
         22    1    1    2    0    0 -0.28500301122E+02  0.19499124025E+02  0.11459900566E+03  0.11968882613E+03  0.00000000000E+00 0.  1.
         22    1    1    2    0    0 -0.47753288493E+02 -0.15229414931E+01 -0.25065320480E+02  0.53953370640E+02  0.00000000000E+00 0.  1.
</event>
<event>
 6    1  0.1383644E-005  0.2419781E+02  0.7818608E-02  0.1688289E+00
          2   -1    0    0  502    0  0.00000000000E+00  0.00000000000E+00  0.62095686157E+02  0.62095686157E+02  0.00000000000E+00 0. -1.
          1   -1    0    0  501    0 -0.00000000000E+00 -0.00000000000E+00 -0.35966859369E+03  0.35966859369E+03  0.00000000000E+00 0. -1.
          2    1    1    2  501    0 -0.18988184409E+02  0.13630780334E+02  0.19330159788E+02  0.30331574260E+02  0.00000000000E+00 0. -1.
          1    1    1    2  502    0  0.22596079950E+02 -0.23266728790E+02 -0.24576155723E+03  0.24789244949E+03  0.00000000000E+00 0. -1.
         22    1    1    2    0    0 -0.14093694518E+02 -0.51207418684E+01  0.33837822284E+02  0.37011517658E+02  0.00000000000E+00 0. -1.
         22    1    1    2    0    0  0.10485798977E+02  0.14756690325E+02 -0.10497933237E+03  0.10652873845E+03  0.00000000000E+00 0.  1.
</event>
<event>
 6    1  0.1383644E-005  0.3062952E+02  0.7818608E-02  0.1608875E+00
          2   -1    0    0  502    0  0.00000000000E+00  0.00000000000E+00  0.18972953557E+03  0.18972953557E+03  0.00000000000E+00 0. -1.
          1   -1    0    0  501    0 -0.00000000000E+00 -0.00000000000E+00 -0.29183195859E+03  0.29183195859E+03  0.00000000000E+00 0.  1.
          2    1    1    2  501    0  0.59162584698E+01 -0.33611050063E+02  0.71868412099E+02  0.79559873418E+02  0.00000000000E+00 0. -1.
          1    1    1    2  502    0  0.64930929973E+01  0.50068777676E+02 -0.25212046779E+03  0.25712598670E+03  0.00000000000E+00 0.  1.
         22    1    1    2    0    0 -0.14689942305E+02  0.16941904827E+01 -0.30924382384E+02  0.34278012080E+02  0.00000000000E+00 0.  1.
         22    1    1    2    0    0  0.22805908377E+01 -0.18151918096E+02  0.10907401506E+03  0.11059762197E+03  0.00000000000E+00 0. -1.
</event>
<event>
 6    1  0.1383644E-005  0.5154907E+02  0.7818608E-02  0.1437627E+00
          2   -1    0    0  502    0  0.00000000000E+00  0.00000000000E+00  0.53399834588E+02  0.53399834588E+02  0.00000000000E+00 0. -1.
          1   -1    0    0  501    0 -0.00000000000E+00 -0.00000000000E+00 -0.24567667805E+03  0.24567667805E+03  0.00000000000E+00 0.  1.
          2    1    1    2  501    0 -0.21276655791E+02  0.65657043872E+01  0.12840499558E+02  0.25703754291E+02  0.00000000000E+00 0. -1.
          1    1    1    2  502    0  0.14093788405E+02 -0.24550356104E+02 -0.12263721964E+03  0.12586199783E+03  0.00000000000E+00 0.  1.
         22    1    1    2    0    0 -0.14537903005E+02  0.25060006972E+02  0.24608761681E+02  0.38012441709E+02  0.00000000000E+00 0. -1.
         22    1    1    2    0    0  0.21720770392E+02 -0.70753552557E+01 -0.10708888506E+03  0.10949831881E+03  0.00000000000E+00 0.  1.
</event>
<event>
 6    1  0.1383644E-005  0.9550769E+02  0.7818608E-02  0.1312371E+00
          2   -1    0    0  502    0  0.00000000000E+00  0.00000000000E+00  0.50943368642E+03  0.50943368642E+03  0.00000000000E+00 0. -1.
          1   -1    0    0  501    0 -0.00000000000E+00 -0.00000000000E+00 -0.88107205976E+02  0.88107205976E+02  0.00000000000E+00 0. -1.
          2    1    1    2  501    0  0.41725280531E+02 -0.64465772600E+02  0.23320774914E+03  0.24552533297E+03  0.00000000000E+00 0. -1.
          1    1    1    2  502    0  0.21216435600E+02  0.74747905342E+02 -0.36016433464E+02  0.85642103968E+02  0.00000000000E+00 0. -1.
         22    1    1    2    0    0 -0.76611272545E+01  0.20598338492E+02 -0.97686957793E+01  0.24050194109E+02  0.00000000000E+00 0. -1.
         22    1    1    2    0    0 -0.55280588877E+02 -0.30880471234E+02  0.23390386055E+03  0.24232326135E+03  0.00000000000E+00 0. -1.
</event>
<event>
 6    1  0.1383644E-005  0.1805400E+03  0.7818608E-02  0.1265192E+00
          2   -1    0    0  502    0  0.00000000000E+00  0.00000000000E+00  0.27744691552E+03  0.27744691552E+03  0.00000000000E+00 0. -1.
          1   -1    0    0  501    0 -0.00000000000E+00 -0.00000000000E+00 -0.23041776509E+03  0.23041776509E+03  0.00000000000E+00 0. -1.
          2    1    1    2  501    0  0.14396597410E+02 -0.10330272417E+03 -0.32586517410E+02  0.10927303398E+03  0.00000000000E+00 0. -1.
          1    1    1    2  502    0  0.66969741683E+02  0.56061223520E+02  0.18870035760E+03  0.20793179661E+03  0.00000000000E+00 0. -1.
         22    1    1    2    0    0 -0.18537304903E+02  0.13152218761E+02 -0.11659076387E+03  0.11878559993E+03  0.00000000000E+00 0. -1.
         22    1    1    2    0    0 -0.62829034189E+02  0.34089281886E+02  0.75060741042E+01  0.71874250084E+02  0.00000000000E+00 0. -1.
</event>
<event>
 6    1  0.1383644E-005  0.4092639E+02  0.7818608E-02  0.1536676E+00
          2   -1    0    0  502    0  0.00000000000E+00  0.00000000000E+00  0.60681641195E+03  0.60681641195E+03  0.00000000000E+00 0. -1.
          1   -1    0    0  501    0 -0.00000000000E+00 -0.00000000000E+00 -0.72170884865E+02  0.72170884865E+02  0.00000000000E+00 0.  1.
          2    1    1    2  501    0 -0.51200263627E+02 -0.44267520778E+02  0.47561663094E+03  0.48040843042E+03  0.00000000000E+00 0. -1.
          1    1    1    2  502    0  0.60963138571E+02  0.27471767150E+02  0.26967397425E+02  0.72100227313E+02  0.00000000000E+00 0.  1.
         22    1    1    2    0    0 -0.20639036669E+02  0.84922076641E+01  0.76652462889E+02  0.79835377450E+02  0.00000000000E+00 0. -1.
         22    1    1    2    0    0  0.10876161724E+02  0.83035459639E+01 -0.44590964173E+02  0.46643261628E+02  0.00000000000E+00 0. -1.
</event>
<event>
 6    1  0.1383644E-005  0.1160552E+03  0.7818608E-02  0.1369289E+00
          2   -1    0    0  502    0  0.00000000000E+00  0.00000000000E+00  0.38926629407E+03  0.38926629407E+03  0.00000000000E+00 0. -1.
          1   -1    0    0  501    0 -0.00000000000E+00 -0.00000000000E+00 -0.11417956647E+03  0.11417956647E+03  0.00000000000E+00 0.  1.
          2    1    1    2  501    0 -0.71635507653E+02 -0.33449113869E+02  0.23391290732E+03  0.24691240833E+03  0.00000000000E+00 0. -1.
          1    1    1    2  502    0  0.95824277129E+02  0.22939991749E+02 -0.35842106159E+02  0.10484842337E+03  0.00000000000E+00 0.  1.
         22    1    1    2    0    0 -0.37318884868E+02  0.94231902498E+01  0.10980094410E+03  0.11635180706E+03  0.00000000000E+00 0. -1.
         22    1    1    2    0    0  0.13130115392E+02  0.10859318704E+01 -0.32785017665E+02  0.35333221782E+02  0.00000000000E+00 0. -1.
</event>
<event>
 6    1  0.1383644E-005  0.1247652E+03  0.7818608E-02  0.1365862E+00
          2   -1    0    0  502    0  0.00000000000E+00  0.00000000000E+00  0.71940234724E+03  0.71940234724E+03  0.00000000000E+00 0.  1.
          1   -1    0    0  501    0 -0.00000000000E+00 -0.00000000000E+00 -0.22333588865E+03  0.22333588865E+03  0.00000000000E+00 0.  1.
          2    1    1    2  501    0 -0.98365915803E+02 -0.79480529897E+01  0.59386644654E+03  0.60201028335E+03  0.00000000000E+00 0.  1.
          1    1    1    2  502    0  0.11509091132E+03  0.21324189151E+02 -0.15743615120E+03  0.19618047970E+03  0.00000000000E+00 0.  1.
         22    1    1    2    0    0  0.75058873944E+01 -0.83466326504E+01 -0.40175198190E+02  0.41713920600E+02  0.00000000000E+00 0. -1.
         22    1    1    2    0    0 -0.24230882909E+02 -0.50295035109E+01  0.99811361443E+02  0.10283355223E+03  0.00000000000E+00 0.  1.
</event>
<event>
 6    1  0.1383644E-005  0.6645545E+02  0.7818608E-02  0.1415104E+00
          2   -1    0    0  502    0  0.00000000000E+00  0.00000000000E+00  0.20501419427E+03  0.20501419427E+03  0.00000000000E+00 0. -1.
          1   -1    0    0  501    0 -0.00000000000E+00 -0.00000000000E+00 -0.16616624150E+03  0.16616624150E+03  0.00000000000E+00 0. -1.
          2    1    1    2  501    0 -0.20303614132E+02 -0.47199682973E+02  0.12853166883E+03  0.13842122927E+03  0.00000000000E+00 0. -1.
          1    1    1    2  502    0  0.48242294714E+02  0.73239405532E+02 -0.33310798350E+02  0.93813318931E+02  0.00000000000E+00 0. -1.
         22    1    1    2    0    0  0.30347982455E+01 -0.12817113197E+02  0.37218041050E+02  0.39480007228E+02  0.00000000000E+00 0. -1.
         22    1    1    2    0    0 -0.30973478828E+02 -0.13222609362E+02 -0.93590958762E+02  0.99465880336E+02  0.00000000000E+00 0. -1.
</event>
<event>
 6    1  0.1383644E-005  0.6115843E+02  0.7818608E-02  0.1427608E+00
          2   -1    0    0  502    0  0.00000000000E+00  0.00000000000E+00  0.34887673559E+03  0.34887673559E+03  0.00000000000E+00 0.  1.
          1   -1    0    0  501    0 -0.00000000000E+00 -0.00000000000E+00 -0.10588800177E+03  0.10588800177E+03  0.00000000000E+00 0. -1.
          2    1    1    2  501    0 -0.70513125890E+02  0.10583492885E+03  0.10789411518E+03  0.16677611693E+03  0.00000000000E+00 0.  1.
          1    1    1    2  502    0  0.96970622842E+02 -0.72666993260E+02  0.63231295808E+02  0.13668207773E+03  0.00000000000E+00 0. -1.
         22    1    1    2    0    0 -0.93787451450E+01 -0.28591029726E+02 -0.33176258309E+02  0.44789194642E+02  0.00000000000E+00 0. -1.
         22    1    1    2    0    0 -0.17078751808E+02 -0.45769058655E+01  0.10503958114E+03  0.10651734805E+03  0.00000000000E+00 0. -1.
</event>
<event>
 6    1  0.1383644E-005  0.3707039E+03  0.7818608E-02  0.1175259E+00
          2   -1    0    0  502    0  0.00000000000E+00  0.00000000000E+00  0.17072493029E+04  0.17072493029E+04  0.00000000000E+00 0.  1.
          1   -1    0    0  501    0 -0.00000000000E+00 -0.00000000000E+00 -0.21424287796E+03  0.21424287796E+03  0.00000000000E+00 0.  1.
          2    1    1    2  501    0  0.35064781580E+03 -0.41251734094E+02  0.13843790880E+04  0.14286920786E+04  0.00000000000E+00 0.  1.
          1    1    1    2  502    0 -0.35042460685E+03  0.48267605513E+02  0.54064948945E+02  0.35784100594E+03  0.00000000000E+00 0.  1.
         22    1    1    2    0    0 -0.17116087070E+02  0.30370481078E+01 -0.37228398983E+02  0.41086953995E+02  0.00000000000E+00 0. -1.
         22    1    1    2    0    0  0.16892878116E+02 -0.10052919527E+02  0.91790786961E+02  0.93872142263E+02  0.00000000000E+00 0. -1.
</event>
<event>
 6    1  0.1383644E-005  0.4735815E+03  0.7818608E-02  0.1164099E+00
          2   -1    0    0  502    0  0.00000000000E+00  0.00000000000E+00  0.25045397277E+03  0.25045397277E+03  0.00000000000E+00 0. -1.
          1   -1    0    0  501    0 -0.00000000000E+00 -0.00000000000E+00 -0.19755912546E+04  0.19755912546E+04  0.00000000000E+00 0. -1.
          2    1    1    2  501    0  0.23037884041E+03  0.10655467779E+03 -0.88683508268E+03  0.92244499746E+03  0.00000000000E+00 0. -1.
          1    1    1    2  502    0  0.30006452021E+03 -0.26303589687E+03 -0.19017907812E+03  0.44203470575E+03  0.00000000000E+00 0. -1.
         22    1    1    2    0    0  0.55547294614E+01  0.92197457305E+01 -0.61999085851E+01  0.12421658391E+02  0.00000000000E+00 0.  1.
         22    1    1    2    0    0 -0.53599809008E+03  0.14726147334E+03 -0.64192321243E+03  0.84914386576E+03  0.00000000000E+00 0. -1.
</event>
<event>
 6    1  0.1383644E-005  0.6032286E+02  0.7818608E-02  0.1398028E+00
          2   -1    0    0  502    0  0.00000000000E+00  0.00000000000E+00  0.14069880501E+03  0.14069880501E+03  0.00000000000E+00 0.  1.
          1   -1    0    0  501    0 -0.00000000000E+00 -0.00000000000E+00 -0.87871768304E+02  0.87871768304E+02  0.00000000000E+00 0. -1.
          2    1    1    2  501    0  0.19410089089E+02  0.14008757084E+02  0.69180588472E+02  0.73204854039E+02  0.00000000000E+00 0.  1.
          1    1    1    2  502    0 -0.25089334010E+02 -0.11892889173E+02 -0.19129766128E+02  0.33717405684E+02  0.00000000000E+00 0. -1.
         22    1    1    2    0    0  0.29402433813E+02  0.15032004320E+02  0.53624417813E+02  0.62976523037E+02  0.00000000000E+00 0. -1.
         22    1    1    2    0    0 -0.23723188892E+02 -0.17147872231E+02 -0.50848203448E+02  0.58671790557E+02  0.00000000000E+00 0. -1.
</event>
<event>
 6    1  0.1383644E-005  0.4465578E+02  0.7818608E-02  0.1586993E+00
          2   -1    0    0  502    0  0.00000000000E+00  0.00000000000E+00  0.21992476395E+03  0.21992476395E+03  0.00000000000E+00 0.  1.
          1   -1    0    0  501    0 -0.00000000000E+00 -0.00000000000E+00 -0.11926638401E+03  0.11926638401E+03  0.00000000000E+00 0.  1.
          2    1    1    2  501    0 -0.19698269091E+02  0.12546221281E+02  0.12161453650E+03  0.12383668665E+03  0.00000000000E+00 0.  1.
          1    1    1    2  502    0  0.50438881253E+02 -0.15949067199E+02 -0.59055065203E+02  0.79284009817E+02  0.00000000000E+00 0.  1.
         22    1    1    2    0    0 -0.10397783275E+02 -0.47554663374E+00 -0.47179237791E+02  0.48313771538E+02  0.00000000000E+00 0.  1.
         22    1    1    2    0    0 -0.20342828887E+02  0.38783925510E+01  0.85278146436E+02  0.87756679947E+02  0.00000000000E+00 0.  1.
</event>
<event>
 6    1  0.1383644E-005  0.1754932E+03  0.7818608E-02  0.1172837E+00
          2   -1    0    0  502    0  0.00000000000E+00  0.00000000000E+00  0.40755357430E+03  0.40755357430E+03  0.00000000000E+00 0. -1.
          1   -1    0    0  501    0 -0.00000000000E+00 -0.00000000000E+00 -0.10224173722E+03  0.10224173722E+03  0.00000000000E+00 0.  1.
          2    1    1    2  501    0 -0.26187881132E+02  0.23048095986E+01  0.61719571639E+02  0.67085190532E+02  0.00000000000E+00 0. -1.
          1    1    1    2  502    0  0.14910790546E+03 -0.56567153153E+02  0.29426077912E+02  0.16216936932E+03  0.00000000000E+00 0.  1.
         22    1    1    2    0    0  0.81072197206E+01 -0.84050616954E+01 -0.86735716803E+01  0.14546577584E+02  0.00000000000E+00 0.  1.
         22    1    1    2    0    0 -0.13102724405E+03  0.62667405250E+02  0.22283975920E+03  0.26599417408E+03  0.00000000000E+00 0.  1.
</event>
<event>
 6    1  0.1383644E-005  0.9909821E+02  0.7818608E-02  0.1322045E+00
          2   -1    0    0  502    0  0.00000000000E+00  0.00000000000E+00  0.19085738964E+03  0.19085738964E+03  0.00000000000E+00 0. -1.
          1   -1    0    0  501    0 -0.00000000000E+00 -0.00000000000E+00 -0.21476144758E+03  0.21476144758E+03  0.00000000000E+00 0.  1.
          2    1    1    2  501    0 -0.48998741136E+02  0.78228689260E+02  0.12200945330E+03  0.15299317354E+03  0.00000000000E+00 0. -1.
          1    1    1    2  502    0  0.58091388551E+02 -0.40161782702E+02 -0.37942393236E+02  0.80169841075E+02  0.00000000000E+00 0.  1.
         22    1    1    2    0    0 -0.12559950841E+02  0.94567521430E+01  0.25932767345E+02  0.30326406783E+02  0.00000000000E+00 0.  1.
         22    1    1    2    0    0  0.34673034254E+01 -0.47523658701E+02 -0.13390388534E+03  0.14212941581E+03  0.00000000000E+00 0.  1.
</event>
<event>
 6    1  0.1383644E-005  0.6198069E+02  0.7818608E-02  0.1499660E+00
          2   -1    0    0  502    0  0.00000000000E+00  0.00000000000E+00  0.55909220394E+03  0.55909220394E+03  0.00000000000E+00 0.  1.
          1   -1    0    0  501    0 -0.00000000000E+00 -0.00000000000E+00 -0.72110190386E+02  0.72110190386E+02  0.00000000000E+00 0.  1.
          2    1    1    2  501    0  0.46669899019E+02  0.26215173062E+02  0.22842822716E+03  0.23461621797E+03  0.00000000000E+00 0.  1.
          1    1    1    2  502    0 -0.53339260057E+02 -0.17418390736E+02  0.26106332312E+03  0.26702534651E+03  0.00000000000E+00 0.  1.
         22    1    1    2    0    0 -0.76918224276E+01 -0.93206306198E+01 -0.64655390397E+02  0.65775054502E+02  0.00000000000E+00 0.  1.
         22    1    1    2    0    0  0.14361183466E+02  0.52384829418E+00  0.62145853667E+02  0.63785775339E+02  0.00000000000E+00 0.  1.
</event>
<event>
 6    1  0.1383644E-005  0.3789161E+02  0.7818608E-02  0.1580920E+00
          2   -1    0    0  502    0  0.00000000000E+00  0.00000000000E+00  0.17727368644E+03  0.17727368644E+03  0.00000000000E+00 0. -1.
          1   -1    0    0  501    0 -0.00000000000E+00 -0.00000000000E+00 -0.11747472031E+03  0.11747472031E+03  0.00000000000E+00 0. -1.
          2    1    1    2  501    0 -0.50706721818E+02  0.25439780551E+02  0.96506056281E+02  0.11194540174E+03  0.00000000000E+00 0. -1.
          1    1    1    2  502    0  0.38232458258E+02 -0.33516842110E+02 -0.21392087242E+02  0.55160864442E+02  0.00000000000E+00 0. -1.
         22    1    1    2    0    0 -0.10511296603E+02  0.39768725498E+01  0.53659096318E+02  0.54823366270E+02  0.00000000000E+00 0.  1.
         22    1    1    2    0    0  0.22985560163E+02  0.41001890084E+01 -0.68974099223E+02  0.72818774293E+02  0.00000000000E+00 0. -1.
</event>
<event>
 6    1  0.1383644E-005  0.6037257E+02  0.7818608E-02  0.1507608E+00
          2   -1    0    0  502    0  0.00000000000E+00  0.00000000000E+00  0.19649261074E+03  0.19649261074E+03  0.00000000000E+00 0. -1.
          1   -1    0    0  501    0 -0.00000000000E+00 -0.00000000000E+00 -0.15766571167E+03  0.15766571167E+03  0.00000000000E+00 0. -1.
          2    1    1    2  501    0  0.24279789944E+02  0.24156793608E+01  0.11855711981E+03  0.12104187030E+03  0.00000000000E+00 0. -1.
          1    1    1    2  502    0 -0.43005490775E+02 -0.27771746974E+02 -0.86473435038E+02  0.10049078134E+03  0.00000000000E+00 0. -1.
         22    1    1    2    0    0 -0.80344979716E+01  0.85458028965E+01 -0.58748498930E+02  0.59908013081E+02  0.00000000000E+00 0. -1.
         22    1    1    2    0    0  0.26760198803E+02  0.16810264717E+02  0.65491713226E+02  0.72717657698E+02  0.00000000000E+00 0. -1.
</event>
<event>
 6    1  0.1383644E-005  0.2501496E+03  0.7818608E-02  0.1256011E+00
          2   -1    0    0  502    0  0.00000000000E+00  0.00000000000E+00  0.76226800605E+03  0.76226800605E+03  0.00000000000E+00 0.  1.
          1   -1    0    0  501    0 -0.00000000000E+00 -0.00000000000E+00 -0.12303569144E+03  0.12303569144E+03  0.00000000000E+00 0.  1.
          2    1    1    2  501    0  0.14215733244E+03  0.96351273316E+01  0.93959141450E+02  0.17067472897E+03  0.00000000000E+00 0.  1.
          1    1    1    2  502    0 -0.24202425529E+03  0.19185575788E+02  0.48502868427E+03  0.54239897772E+03  0.00000000000E+00 0.  1.
         22    1    1    2    0    0 -0.32542776573E+01  0.97016153596E+01 -0.28850349770E+02  0.30611343412E+02  0.00000000000E+00 0.  1.
         22    1    1    2    0    0  0.10312120050E+03 -0.38522318480E+02  0.89094838658E+02  0.14161864739E+03  0.00000000000E+00 0.  1.
</event>
<event>
 6    1  0.1383644E-005  0.7138564E+02  0.7818608E-02  0.1448720E+00
          2   -1    0    0  502    0  0.00000000000E+00  0.00000000000E+00  0.30193767252E+03  0.30193767252E+03  0.00000000000E+00 0. -1.
          1   -1    0    0  501    0 -0.00000000000E+00 -0.00000000000E+00 -0.95747610144E+02  0.95747610144E+02  0.00000000000E+00 0. -1.
          2    1    1    2  501    0  0.53060386322E+02  0.23005832068E+02  0.19419668036E+03  0.20262532805E+03  0.00000000000E+00 0. -1.
          1    1    1    2  502    0 -0.62945167273E+02 -0.12342185677E+02 -0.85582848412E+01  0.64712192589E+02  0.00000000000E+00 0. -1.
         22    1    1    2    0    0 -0.20230359206E+01 -0.16217518112E+02 -0.53087159960E+02  0.55545901025E+02  0.00000000000E+00 0. -1.
         22    1    1    2    0    0  0.11907816871E+02  0.55538717219E+01  0.73638826818E+02  0.74801860999E+02  0.00000000000E+00 0.  1.
</event>
<event>
 6    1  0.1383644E-005  0.5431699E+02  0.7818608E-02  0.1508694E+00
          2   -1    0    0  502    0  0.00000000000E+00  0.00000000000E+00  0.34736141964E+03  0.34736141964E+03  0.00000000000E+00 0.  1.
          1   -1    0    0  501    0 -0.00000000000E+00 -0.00000000000E+00 -0.12345597439E+03  0.12345597439E+03  0.00000000000E+00 0. -1.
          2    1    1    2  501    0 -0.94054047311E+02  0.62662732314E+01  0.16678172369E+03  0.19157654698E+03  0.00000000000E+00 0.  1.
          1    1    1    2  502    0  0.62536953659E+02 -0.42023497861E+02 -0.61290715620E+02  0.97125675116E+02  0.00000000000E+00 0. -1.
         22    1    1    2    0    0  0.35217495894E+02  0.23856344081E+02  0.14587951313E+03  0.15195469562E+03  0.00000000000E+00 0. -1.
         22    1    1    2    0    0 -0.37004022424E+01  0.11900880548E+02 -0.27465075955E+02  0.30160476319E+02  0.00000000000E+00 0. -1.
</event>
<event>
 6    1  0.1383644E-005  0.4007834E+02  0.7818608E-02  0.1524376E+00
          2   -1    0    0  502    0  0.00000000000E+00  0.00000000000E+00  0.12912632407E+03  0.12912632407E+03  0.00000000000E+00 0. -1.
          1   -1    0    0  501    0 -0.00000000000E+00 -0.00000000000E+00 -0.15162717617E+03  0.15162717617E+03  0.00000000000E+00 0. -1.
          2    1    1    2  501    0  0.11164438683E+02  0.19960494143E+02  0.49219327287E+02  0.54273457566E+02  0.00000000000E+00 0. -1.
          1    1    1    2  502    0 -0.52330575268E+02 -0.18269986326E+02 -0.78697456614E+02  0.96257837009E+02  0.00000000000E+00 0. -1.
         22    1    1    2    0    0  0.11322001319E+02  0.98576727175E+01  0.63510386941E+02  0.65260483255E+02  0.00000000000E+00 0. -1.
         22    1    1    2    0    0  0.29844135266E+02 -0.11548180535E+02 -0.56533109715E+02  0.64961722403E+02  0.00000000000E+00 0. -1.
</event>
<event>
 6    1  0.1383644E-005  0.6803652E+02  0.7818608E-02  0.1375512E+00
          2   -1    0    0  502    0  0.00000000000E+00  0.00000000000E+00  0.81826081805E+03  0.81826081805E+03  0.00000000000E+00 0. -1.
          1   -1    0    0  501    0 -0.00000000000E+00 -0.00000000000E+00 -0.14862851089E+02  0.14862851089E+02  0.00000000000E+00 0. -1.
          2    1    1    2  501    0  0.37235135577E+02  0.57158948460E+01  0.73447043899E+02  0.82544503347E+02  0.00000000000E+00 0. -1.
          1    1    1    2  502    0 -0.23257696151E+02 -0.37300965265E+01  0.32920881256E+03  0.33005041481E+03  0.00000000000E+00 0. -1.
         22    1    1    2    0    0  0.22027116714E+02  0.44768639504E+02  0.29713377898E+03  0.30129372307E+03  0.00000000000E+00 0. -1.
         22    1    1    2    0    0 -0.36004556140E+02 -0.46754437823E+02  0.10360833153E+03  0.11923502791E+03  0.00000000000E+00 0. -1.
</event>
<event>
 6    1  0.1383644E-005  0.4436476E+02  0.7818608E-02  0.1534929E+00
          2   -1    0    0  502    0  0.00000000000E+00  0.00000000000E+00  0.20293400730E+03  0.20293400730E+03  0.00000000000E+00 0.  1.
          1   -1    0    0  501    0 -0.00000000000E+00 -0.00000000000E+00 -0.25220453456E+03  0.25220453456E+03  0.00000000000E+00 0.  1.
          2    1    1    2  501    0 -0.90335574310E+01 -0.24894296861E+02  0.13905145796E+03  0.14155083587E+03  0.00000000000E+00 0.  1.
          1    1    1    2  502    0  0.15456878820E+02  0.16787314032E+02 -0.18510929851E+03  0.18651053968E+03  0.00000000000E+00 0.  1.
         22    1    1    2    0    0  0.13773275060E+02  0.11760219924E+02 -0.62114989076E+02  0.64701450883E+02  0.00000000000E+00 0. -1.
         22    1    1    2    0    0 -0.20196596449E+02 -0.36532370948E+01  0.58902302379E+02  0.62375715427E+02  0.00000000000E+00 0.  1.
</event>
<event>
 6    1  0.1383644E-005  0.7926029E+02  0.7818608E-02  0.1385962E+00
          2   -1    0    0  502    0  0.00000000000E+00  0.00000000000E+00  0.97016045453E+03  0.97016045453E+03  0.00000000000E+00 0. -1.
          1   -1    0    0  501    0 -0.00000000000E+00 -0.00000000000E+00 -0.58040965200E+02  0.58040965200E+02  0.00000000000E+00 0. -1.
          2    1    1    2  501    0  0.11993041198E+03 -0.26188337478E+02  0.57644011743E+03  0.58936605070E+03  0.00000000000E+00 0. -1.
          1    1    1    2  502    0 -0.13533809029E+03  0.23444587812E+01  0.86802473924E+02  0.16079976570E+03  0.00000000000E+00 0. -1.
         22    1    1    2    0    0  0.23979841745E+02  0.39819707512E+02  0.25476682519E+03  0.25897254127E+03  0.00000000000E+00 0.  1.
         22    1    1    2    0    0 -0.85721634386E+01 -0.15975828815E+02 -0.58899272139E+01  0.19063062055E+02  0.00000000000E+00 0. -1.
</event>
<event>
 6    1  0.1383644E-005  0.5109094E+02  0.7818608E-02  0.1498591E+00
          2   -1    0    0  502    0  0.00000000000E+00  0.00000000000E+00  0.60117950493E+02  0.60117950493E+02  0.00000000000E+00 0. -1.
          1   -1    0    0  501    0 -0.00000000000E+00 -0.00000000000E+00 -0.12690661316E+03  0.12690661316E+03  0.00000000000E+00 0.  1.
          2    1    1    2  501    0  0.86131334819E+00 -0.20587932739E+02  0.18782877274E+01  0.20691370180E+02  0.00000000000E+00 0. -1.
          1    1    1    2  502    0  0.18589257755E+02 -0.78484047623E+01 -0.20950759635E+02  0.29087665608E+02  0.00000000000E+00 0.  1.
         22    1    1    2    0    0  0.41064151984E+01  0.21507285533E+02 -0.87662567471E+02  0.90355695517E+02  0.00000000000E+00 0.  1.
         22    1    1    2    0    0 -0.23556986302E+02  0.69290519675E+01  0.39946376714E+02  0.46889832345E+02  0.00000000000E+00 0. -1.
</event>
<event>
 6    1  0.1383644E-005  0.8430235E+02  0.7818608E-02  0.1325671E+00
          2   -1    0    0  502    0  0.00000000000E+00  0.00000000000E+00  0.66393596497E+03  0.66393596497E+03  0.00000000000E+00 0. -1.
          1   -1    0    0  501    0 -0.00000000000E+00 -0.00000000000E+00 -0.59291271528E+02  0.59291271528E+02  0.00000000000E+00 0. -1.
          2    1    1    2  501    0 -0.52437686649E+02  0.81314992784E+02  0.44745977044E+03  0.45780135997E+03  0.00000000000E+00 0. -1.
          1    1    1    2  502    0 -0.21203293476E+02 -0.39386757459E+02 -0.12481742344E+01  0.44748790556E+02  0.00000000000E+00 0. -1.
         22    1    1    2    0    0 -0.41407375488E+01 -0.25132426451E+02 -0.15211559837E+02  0.29667762292E+02  0.00000000000E+00 0.  1.
         22    1    1    2    0    0  0.77781717674E+02 -0.16795808875E+02  0.17364465707E+03  0.19100932367E+03  0.00000000000E+00 0. -1.
</event>
<event>
 6    1  0.1383644E-005  0.4151190E+02  0.7818608E-02  0.1502410E+00
          2   -1    0    0  502    0  0.00000000000E+00  0.00000000000E+00  0.14563596297E+03  0.14563596297E+03  0.00000000000E+00 0.  1.
          1   -1    0    0  501    0 -0.00000000000E+00 -0.00000000000E+00 -0.11069622158E+03  0.11069622158E+03  0.00000000000E+00 0. -1.
          2    1    1    2  501    0 -0.89255201591E+01 -0.20895009122E+02  0.54046727967E+02  0.58628620317E+02  0.00000000000E+00 0.  1.
          1    1    1    2  502    0  0.42308897803E+02  0.16740875823E+02 -0.41653442027E+02  0.61687186589E+02  0.00000000000E+00 0. -1.
         22    1    1    2    0    0 -0.18599854853E+01 -0.18354042032E+02  0.71357590776E+02  0.73703705241E+02  0.00000000000E+00 0.  1.
         22    1    1    2    0    0 -0.31523392158E+02  0.22508175331E+02 -0.48811135324E+02  0.62312672399E+02  0.00000000000E+00 0. -1.
</event>
<event>
 6    1  0.1383644E-005  0.1019255E+03  0.7818608E-02  0.1404911E+00
          2   -1    0    0  502    0  0.00000000000E+00  0.00000000000E+00  0.65612290632E+03  0.65612290632E+03  0.00000000000E+00 0. -1.
          1   -1    0    0  501    0 -0.00000000000E+00 -0.00000000000E+00 -0.17091721162E+03  0.17091721162E+03  0.00000000000E+00 0.  1.
          2    1    1    2  501    0 -0.13109598380E+02 -0.20674136685E+02  0.25724962972E+03  0.25841179053E+03  0.00000000000E+00 0. -1.
          1    1    1    2  502    0  0.72784948175E+01 -0.43491971692E+02 -0.15393676643E+03  0.16012824907E+03  0.00000000000E+00 0.  1.
         22    1    1    2    0    0 -0.19409415324E+00  0.73301947900E+02  0.38874004597E+03  0.39559074379E+03  0.00000000000E+00 0.  1.
         22    1    1    2    0    0  0.60251977161E+01 -0.91358395239E+01 -0.68472145552E+01  0.12909334549E+02  0.00000000000E+00 0. -1.
</event>
<event>
 6    1  0.1383644E-005  0.4603413E+02  0.7818608E-02  0.1543075E+00
          2   -1    0    0  502    0  0.00000000000E+00  0.00000000000E+00  0.10509226209E+03  0.10509226209E+03  0.00000000000E+00 0. -1.
          1   -1    0    0  501    0 -0.00000000000E+00 -0.00000000000E+00 -0.11441652882E+03  0.11441652882E+03  0.00000000000E+00 0. -1.
          2    1    1    2  501    0 -0.12850876925E+02 -0.25662217410E+02  0.39344530884E+02  0.48699964586E+02  0.00000000000E+00 0. -1.
          1    1    1    2  502    0  0.24560827418E+02  0.23241118505E+02 -0.52287267686E+01  0.34215835756E+02  0.00000000000E+00 0. -1.
         22    1    1    2    0    0  0.28892984636E+01  0.16266241471E+02 -0.87029650224E+02  0.88583851098E+02  0.00000000000E+00 0. -1.
         22    1    1    2    0    0 -0.14599248957E+02 -0.13845142567E+02  0.43589579371E+02  0.48009139468E+02  0.00000000000E+00 0.  1.
</event>
<event>
 6    1  0.1383644E-005  0.1207192E+03  0.7818608E-02  0.1254462E+00
          2   -1    0    0  502    0  0.00000000000E+00  0.00000000000E+00  0.12272013093E+03  0.12272013093E+03  0.00000000000E+00 0.  1.
          1   -1    0    0  501    0 -0.00000000000E+00 -0.00000000000E+00 -0.15984139939E+04  0.15984139939E+04  0.00000000000E+00 0.  1.
          2    1    1    2  501    0 -0.24197005411E+03  0.12298769025E+03 -0.22058216408E+03  0.34975987498E+03  0.00000000000E+00 0.  1.
          1    1    1    2  502    0  0.31421722232E+03 -0.12995191672E+03 -0.11324499478E+04  0.11823970770E+04  0.00000000000E+00 0.  1.
         22    1    1    2    0    0 -0.40020082975E+02  0.24240259833E+02  0.12929148427E+02  0.48542353849E+02  0.00000000000E+00 0.  1.
         22    1    1    2    0    0 -0.32227085242E+02 -0.17276033357E+02 -0.13559089948E+03  0.14043481895E+03  0.00000000000E+00 0. -1.
</event>
<event>
 6    1  0.1383644E-005  0.6951319E+02  0.7818608E-02  0.1442407E+00
          2   -1    0    0  502    0  0.00000000000E+00  0.00000000000E+00  0.53312444184E+02  0.53312444184E+02  0.00000000000E+00 0.  1.
          1   -1    0    0  501    0 -0.00000000000E+00 -0.00000000000E+00 -0.26855778080E+03  0.26855778080E+03  0.00000000000E+00 0. -1.
          2    1    1    2  501    0  0.11380456268E+02  0.24631702766E+02  0.92826523227E+00  0.27149534846E+02  0.00000000000E+00 0.  1.
          1    1    1    2  502    0 -0.18423404786E+02 -0.51731907000E+02 -0.12641214023E+03  0.13782467574E+03  0.00000000000E+00 0. -1.
         22    1    1    2    0    0  0.10291372840E+02 -0.16488439136E+02 -0.10785298096E+03  0.10959035761E+03  0.00000000000E+00 0. -1.
         22    1    1    2    0    0 -0.32484243216E+01  0.43588643369E+02  0.18091519343E+02  0.47305656781E+02  0.00000000000E+00 0.  1.
</event>
<event>
 6    1  0.1383644E-005  0.3016316E+02  0.7818608E-02  0.1635388E+00
          2   -1    0    0  502    0  0.00000000000E+00  0.00000000000E+00  0.16136527720E+03  0.16136527720E+03  0.00000000000E+00 0. -1.
          1   -1    0    0  501    0 -0.00000000000E+00 -0.00000000000E+00 -0.13809113515E+03  0.13809113515E+03  0.00000000000E+00 0.  1.
          2    1    1    2  501    0 -0.31395939348E+02  0.28913757038E+02  0.10719141624E+03  0.11537638436E+03  0.00000000000E+00 0. -1.
          1    1    1    2  502    0  0.25578832767E+02 -0.33549810452E+02 -0.25742956872E+02  0.49422325882E+02  0.00000000000E+00 0.  1.
         22    1    1    2    0    0 -0.11306050298E+02 -0.46208732122E+01  0.36247708022E+02  0.38250170972E+02  0.00000000000E+00 0. -1.
         22    1    1    2    0    0  0.17123156878E+02  0.92569266254E+01 -0.94422025330E+02  0.96407531134E+02  0.00000000000E+00 0.  1.
</event>
<event>
 6    1  0.1383644E-005  0.1496158E+03  0.7818608E-02  0.1339353E+00
          2   -1    0    0  502    0  0.00000000000E+00  0.00000000000E+00  0.35817738586E+03  0.35817738586E+03  0.00000000000E+00 0. -1.
          1   -1    0    0  501    0 -0.00000000000E+00 -0.00000000000E+00 -0.85572136135E+02  0.85572136135E+02  0.00000000000E+00 0. -1.
          2    1    1    2  501    0 -0.52609489085E+01  0.38605424226E+02  0.34024901166E+02  0.51727654716E+02  0.00000000000E+00 0. -1.
          1    1    1    2  502    0 -0.82130870662E+02 -0.16175528204E+02 -0.24073466669E+02  0.87101431824E+02  0.00000000000E+00 0. -1.
         22    1    1    2    0    0 -0.57704430167E+01  0.84286097752E+01 -0.10513628921E+02  0.14658644836E+02  0.00000000000E+00 0. -1.
         22    1    1    2    0    0  0.93162262587E+02 -0.30858505797E+02  0.27316744415E+03  0.29026179062E+03  0.00000000000E+00 0. -1.
</event>
<event>
 6    1  0.1448340E-005  0.2121374E+03  0.7818608E-02  0.1223992E+00
          2   -1    0    0  502    0  0.00000000000E+00  0.00000000000E+00  0.55144328250E+03  0.55144328250E+03  0.00000000000E+00 0. -1.
          1   -1    0    0  501    0 -0.00000000000E+00 -0.00000000000E+00 -0.36005536188E+03  0.36005536188E+03  0.00000000000E+00 0.  1.
          2    1    1    2  501    0  0.15470130768E+03  0.11698103936E+03  0.31049393772E+03  0.36609226095E+03  0.00000000000E+00 0. -1.
          1    1    1    2  502    0 -0.14801472840E+03 -0.13461093354E+03 -0.27920313355E+03  0.34348632147E+03  0.00000000000E+00 0.  1.
         22    1    1    2    0    0 -0.93748768297E+01  0.30754699980E+02  0.17725719897E+03  0.18014953364E+03  0.00000000000E+00 0.  1.
         22    1    1    2    0    0  0.26882975581E+01 -0.13124805798E+02 -0.17160082516E+02  0.21770528311E+02  0.00000000000E+00 0. -1.
</event>
<event>
 6    1  0.1383644E-005  0.2955785E+02  0.7818608E-02  0.1629204E+00
          2   -1    0    0  502    0  0.00000000000E+00  0.00000000000E+00  0.58098622700E+03  0.58098622700E+03  0.00000000000E+00 0. -1.
          1   -1    0    0  501    0 -0.00000000000E+00 -0.00000000000E+00 -0.43083639060E+02  0.43083639060E+02  0.00000000000E+00 0. -1.
          2    1    1    2  501    0  0.35656837818E+01 -0.20735986813E+02  0.42557624122E+03  0.42609603653E+03  0.00000000000E+00 0. -1.
          1    1    1    2  502    0 -0.27507491911E+02  0.16632183392E+02  0.41272764721E+02  0.52313791139E+02  0.00000000000E+00 0. -1.
         22    1    1    2    0    0  0.15166407124E+02  0.20760939823E+02 -0.31915791695E+02  0.40983585579E+02  0.00000000000E+00 0. -1.
         22    1    1    2    0    0  0.87754010045E+01 -0.16657136403E+02  0.10296937369E+03  0.10467645281E+03  0.00000000000E+00 0. -1.
</event>
<event>
 6    1  0.1383644E-005  0.3720511E+02  0.7818608E-02  0.1625297E+00
          2   -1    0    0  502    0  0.00000000000E+00  0.00000000000E+00  0.18879025144E+03  0.18879025144E+03  0.00000000000E+00 0.  1.
          1   -1    0    0  501    0 -0.00000000000E+00 -0.00000000000E+00 -0.82826534819E+02  0.82826534819E+02  0.00000000000E+00 0. -1.
          2    1    1    2  501    0  0.94281367552E+01  0.19663875390E+02  0.10967107603E+03  0.11181816792E+03  0.00000000000E+00 0.  1.
          1    1    1    2  502    0 -0.11536881408E+02 -0.26332242008E+02 -0.20556114859E+02  0.35341766508E+02  0.00000000000E+00 0. -1.
         22    1    1    2    0    0  0.13345917358E+02  0.85398112382E+01  0.69143514877E+02  0.70935657716E+02  0.00000000000E+00 0.  1.
         22    1    1    2    0    0 -0.11237172705E+02 -0.18714446199E+01 -0.52294759433E+02  0.53521194115E+02  0.00000000000E+00 0.  1.
</event>
<event>
 6    1  0.1383644E-005  0.6135642E+02  0.7818608E-02  0.1482385E+00
          2   -1    0    0  502    0  0.00000000000E+00  0.00000000000E+00  0.42624178560E+03  0.42624178560E+03  0.00000000000E+00 0.  1.
          1   -1    0    0  501    0 -0.00000000000E+00 -0.00000000000E+00 -0.29717797536E+03  0.29717797536E+03  0.00000000000E+00 0.  1.
          2    1    1    2  501    0  0.38357324809E+02 -0.31126385937E+02  0.34862133228E+03  0.35210363473E+03  0.00000000000E+00 0.  1.
          1    1    1    2  502    0 -0.35699492799E+02  0.35905591624E+02 -0.24333342674E+03  0.24854541208E+03  0.00000000000E+00 0.  1.
         22    1    1    2    0    0 -0.29437493698E+01 -0.15566003010E+02  0.71811455567E+02  0.73538093943E+02  0.00000000000E+00 0.  1.
         22    1    1    2    0    0  0.28591736039E+00  0.10786797322E+02 -0.48035550866E+02  0.49232620205E+02  0.00000000000E+00 0.  1.
</event>
<event>
 6    1  0.1383644E-005  0.1044533E+03  0.7818608E-02  0.1373085E+00
          2   -1    0    0  502    0  0.00000000000E+00  0.00000000000E+00  0.49551110617E+03  0.49551110617E+03  0.00000000000E+00 0. -1.
          1   -1    0    0  501    0 -0.00000000000E+00 -0.00000000000E+00 -0.41882296817E+02  0.41882296817E+02  0.00000000000E+00 0. -1.
          2    1    1    2  501    0 -0.99270929574E+01  0.36987955385E+02  0.12377942045E+03  0.12956851834E+03  0.00000000000E+00 0. -1.
          1    1    1    2  502    0 -0.13383628771E+02 -0.94614428585E+02  0.15528464916E+03  0.18233028789E+03  0.00000000000E+00 0. -1.
         22    1    1    2    0    0  0.11081040263E+02  0.69394154427E+02  0.18998407731E+03  0.20256428055E+03  0.00000000000E+00 0. -1.
         22    1    1    2    0    0  0.12229681465E+02 -0.11767681227E+02 -0.15419337573E+02  0.22930316208E+02  0.00000000000E+00 0. -1.
</event>
<event>
 6    1  0.1383644E-005  0.5911290E+02  0.7818608E-02  0.1401802E+00
          2   -1    0    0  502    0  0.00000000000E+00  0.00000000000E+00  0.12242308491E+03  0.12242308491E+03  0.00000000000E+00 0. -1.
          1   -1    0    0  501    0 -0.00000000000E+00 -0.00000000000E+00 -0.10851476759E+03  0.10851476759E+03  0.00000000000E+00 0. -1.
          2    1    1    2  501    0  0.22106028841E+02 -0.36973899823E+01  0.33038871086E+02  0.39923855105E+02  0.00000000000E+00 0. -1.
          1    1    1    2  502    0 -0.34802405389E+02  0.12452407493E+02 -0.47393925442E+02  0.60103694080E+02  0.00000000000E+00 0. -1.
         22    1    1    2    0    0 -0.19608320611E+02  0.70690426154E+01 -0.44833349126E+02  0.49441751531E+02  0.00000000000E+00 0.  1.
         22    1    1    2    0    0  0.32304697158E+02 -0.15824060126E+02  0.73096720802E+02  0.81468551782E+02  0.00000000000E+00 0. -1.
</event>
<event>
 6    1  0.1383644E-005  0.1061989E+03  0.7818608E-02  0.1381277E+00
          2   -1    0    0  502    0  0.00000000000E+00  0.00000000000E+00  0.65442223020E+03  0.65442223020E+03  0.00000000000E+00 0.  1.
          1   -1    0    0  501    0 -0.00000000000E+00 -0.00000000000E+00 -0.52498701105E+03  0.52498701105E+03  0.00000000000E+00 0. -1.
          2    1    1    2  501    0  0.14301800340E+03 -0.61499400623E+02  0.61191016451E+03  0.63140349620E+03  0.00000000000E+00 0.  1.
          1    1    1    2  502    0 -0.58700994339E+02  0.87925923877E+02 -0.15616648005E+03  0.18858617212E+03  0.00000000000E+00 0. -1.
         22    1    1    2    0    0 -0.10085861157E+02 -0.24602576682E+01  0.98612265387E+01  0.14318563193E+02  0.00000000000E+00 0.  1.
         22    1    1    2    0    0 -0.74231147907E+02 -0.23966265586E+02 -0.33616969185E+03  0.34510100974E+03  0.00000000000E+00 0. -1.
</event>
<event>
 6    1  0.1383644E-005  0.1958707E+03  0.7818608E-02  0.1260799E+00
          2   -1    0    0  502    0  0.00000000000E+00  0.00000000000E+00  0.44646992549E+03  0.44646992549E+03  0.00000000000E+00 0. -1.
          1   -1    0    0  501    0 -0.00000000000E+00 -0.00000000000E+00 -0.73573696453E+02  0.73573696453E+02  0.00000000000E+00 0. -1.
          2    1    1    2  501    0 -0.50069756661E+02 -0.54339056507E+01 -0.13384483421E+02  0.52111920509E+02  0.00000000000E+00 0. -1.
          1    1    1    2  502    0  0.66380950647E+02 -0.83916905362E+02  0.20571657025E+03  0.23187881509E+03  0.00000000000E+00 0. -1.
         22    1    1    2    0    0 -0.26178692872E+02  0.10604914882E+03  0.18618190456E+03  0.21585978669E+03  0.00000000000E+00 0. -1.
         22    1    1    2    0    0  0.98674988855E+01 -0.16698337809E+02 -0.56177623430E+01  0.20193099653E+02  0.00000000000E+00 0. -1.
</event>
<event>
 6    1  0.1383644E-005  0.7776665E+02  0.7818608E-02  0.1337940E+00
          2   -1    0    0  502    0  0.00000000000E+00  0.00000000000E+00  0.15856452327E+03  0.15856452327E+03  0.00000000000E+00 0.  1.
          1   -1    0    0  501    0 -0.00000000000E+00 -0.00000000000E+00 -0.15325726693E+03  0.15325726693E+03  0.00000000000E+00 0.  1.
          2    1    1    2  501    0 -0.33045647918E+02  0.39889070442E+02  0.88222293684E+02  0.10230506288E+03  0.00000000000E+00 0.  1.
          1    1    1    2  502    0  0.31608793291E+02 -0.42897104152E+02 -0.70221528667E+02  0.88149534577E+02  0.00000000000E+00 0.  1.
         22    1    1    2    0    0 -0.71708478146E+01  0.21051864316E+02  0.50450019373E+02  0.55134440274E+02  0.00000000000E+00 0. -1.
         22    1    1    2    0    0  0.86077024411E+01 -0.18043830607E+02 -0.63143528052E+02  0.66232752465E+02  0.00000000000E+00 0. -1.
</event>
<event>
 6    1  0.1383644E-005  0.8031577E+02  0.7818608E-02  0.1417573E+00
          2   -1    0    0  502    0  0.00000000000E+00  0.00000000000E+00  0.45920773261E+03  0.45920773261E+03  0.00000000000E+00 0.  1.
          1   -1    0    0  501    0 -0.00000000000E+00 -0.00000000000E+00 -0.32574167004E+03  0.32574167004E+03  0.00000000000E+00 0.  1.
          2    1    1    2  501    0 -0.31436485877E+02 -0.11777177894E+03  0.16540493688E+03  0.20546833748E+03  0.00000000000E+00 0.  1.
          1    1    1    2  502    0  0.50362796034E+02  0.40267250738E+02 -0.28244115223E+03  0.28970824493E+03  0.00000000000E+00 0.  1.
         22    1    1    2    0    0 -0.16853854213E+01  0.71182982466E+02  0.25966505961E+03  0.26925044234E+03  0.00000000000E+00 0. -1.
         22    1    1    2    0    0 -0.17240924736E+02  0.63215457411E+01 -0.91627816893E+01  0.20522377898E+02  0.00000000000E+00 0. -1.
</event>
<event>
 6    1  0.1383644E-005  0.9467596E+02  0.7818608E-02  0.1293410E+00
          2   -1    0    0  502    0  0.00000000000E+00  0.00000000000E+00  0.45742190192E+02  0.45742190192E+02  0.00000000000E+00 0. -1.
          1   -1    0    0  501    0 -0.00000000000E+00 -0.00000000000E+00 -0.51237918579E+03  0.51237918579E+03  0.00000000000E+00 0. -1.
          2    1    1    2  501    0 -0.33188518236E+02 -0.63139116597E+02 -0.13854295774E+02  0.72663383480E+02  0.00000000000E+00 0. -1.
          1    1    1    2  502    0  0.21814933459E+01  0.34207345754E+02 -0.18658382744E+03  0.18970615720E+03  0.00000000000E+00 0. -1.
         22    1    1    2    0    0  0.35751917666E+02  0.48191782479E+02 -0.26909635627E+03  0.27570545238E+03  0.00000000000E+00 0. -1.
         22    1    1    2    0    0 -0.47448927757E+01 -0.19260011636E+02  0.28974838787E+01  0.20046382928E+02  0.00000000000E+00 0. -1.
</event>
<event>
 6    1  0.1383644E-005  0.2944892E+02  0.7818608E-02  0.1648649E+00
          2   -1    0    0  502    0  0.00000000000E+00  0.00000000000E+00  0.18109845996E+03  0.18109845996E+03  0.00000000000E+00 0. -1.
          1   -1    0    0  501    0 -0.00000000000E+00 -0.00000000000E+00 -0.72301859395E+02  0.72301859395E+02  0.00000000000E+00 0. -1.
          2    1    1    2  501    0  0.13434364475E+02 -0.31666972630E+02  0.52542920570E+02  0.62801574872E+02  0.00000000000E+00 0. -1.
          1    1    1    2  502    0 -0.30004568135E+02 -0.13085670178E+02 -0.18486904679E+02  0.37593543562E+02  0.00000000000E+00 0. -1.
         22    1    1    2    0    0  0.30810283239E+00  0.17567483422E+02 -0.34795760642E+02  0.38980204717E+02  0.00000000000E+00 0.  1.
         22    1    1    2    0    0  0.16262100827E+02  0.27185159386E+02  0.10953634531E+03  0.11402499620E+03  0.00000000000E+00 0. -1.
</event>
<event>
 6    1  0.1383644E-005  0.3112431E+03  0.7818608E-02  0.1189804E+00
          2   -1    0    0  502    0  0.00000000000E+00  0.00000000000E+00  0.51874508855E+03  0.51874508855E+03  0.00000000000E+00 0.  1.
          1   -1    0    0  501    0 -0.00000000000E+00 -0.00000000000E+00 -0.25041573567E+03  0.25041573567E+03  0.00000000000E+00 0.  1.
          2    1    1    2  501    0 -0.18130739726E+03  0.11591322837E+03 -0.45895255843E+02  0.22003323231E+03  0.00000000000E+00 0.  1.
          1    1    1    2  502    0  0.14741665743E+03 -0.16938313438E+03  0.33595907556E+03  0.40409258537E+03  0.00000000000E+00 0.  1.
         22    1    1    2    0    0  0.54382348589E+02  0.58942798208E+02  0.32704705665E+02  0.86609994061E+02  0.00000000000E+00 0.  1.
         22    1    1    2    0    0 -0.20491608764E+02 -0.54728921990E+01 -0.54439172511E+02  0.58425012472E+02  0.00000000000E+00 0.  1.
</event>
<event>
 6    1  0.1383644E-005  0.3420808E+02  0.7818608E-02  0.1595950E+00
          2   -1    0    0  502    0  0.00000000000E+00  0.00000000000E+00  0.68325343794E+03  0.68325343794E+03  0.00000000000E+00 0. -1.
          1   -1    0    0  501    0 -0.00000000000E+00 -0.00000000000E+00 -0.74053561658E+03  0.74053561658E+03  0.00000000000E+00 0. -1.
          2    1    1    2  501    0 -0.50918463385E+02  0.47626542788E+02  0.60908613686E+03  0.61306353636E+03  0.00000000000E+00 0. -1.
          1    1    1    2  502    0  0.42423907027E+02 -0.47749011092E+02 -0.68551917125E+03  0.68848840956E+03  0.00000000000E+00 0. -1.
         22    1    1    2    0    0 -0.74962745239E+01 -0.78089396581E+01 -0.49825913760E+02  0.50988188361E+02  0.00000000000E+00 0.  1.
         22    1    1    2    0    0  0.15990830882E+02  0.79314079629E+01  0.68976769507E+02  0.71248920246E+02  0.00000000000E+00 0. -1.
</event>
<event>
 6    1  0.1383644E-005  0.8848268E+02  0.7818608E-02  0.1383313E+00
          2   -1    0    0  502    0  0.00000000000E+00  0.00000000000E+00  0.56946064941E+03  0.56946064941E+03  0.00000000000E+00 0. -1.
          1   -1    0    0  501    0 -0.00000000000E+00 -0.00000000000E+00 -0.32985799432E+02  0.32985799432E+02  0.00000000000E+00 0.  1.
          2    1    1    2  501    0 -0.33036276162E+02 -0.14878514219E+02  0.36287688005E+03  0.36468122491E+03  0.00000000000E+00 0. -1.
          1    1    1    2  502    0  0.26585712936E+02 -0.73577793856E+01  0.10925702412E+02  0.29669985221E+02  0.00000000000E+00 0.  1.
         22    1    1    2    0    0  0.40793685645E+01 -0.23264772808E+02 -0.12757765706E+02  0.26844952738E+02  0.00000000000E+00 0.  1.
         22    1    1    2    0    0  0.23711946609E+01  0.45501066413E+02  0.17543003322E+03  0.18125028597E+03  0.00000000000E+00 0.  1.
</event>
<event>
 6    1  0.1383644E-005  0.3054287E+03  0.7818608E-02  0.1102998E+00
          2   -1    0    0  502    0  0.00000000000E+00  0.00000000000E+00  0.59795424605E+03  0.59795424605E+03  0.00000000000E+00 0.  1.
          1   -1    0    0  501    0 -0.00000000000E+00 -0.00000000000E+00 -0.35337739128E+03  0.35337739128E+03  0.00000000000E+00 0.  1.
          2    1    1    2  501    0 -0.23069449814E+03  0.25121467099E+03  0.66941518423E+02  0.34757722780E+03  0.00000000000E+00 0.  1.
          1    1    1    2  502    0  0.59802492053E+02 -0.27907586085E+03  0.24630884467E+03  0.37699830388E+03  0.00000000000E+00 0.  1.
         22    1    1    2    0    0 -0.74855766553E+01  0.23978970796E+02  0.15458181667E+02  0.29495428099E+02  0.00000000000E+00 0. -1.
         22    1    1    2    0    0  0.17837758274E+03  0.38822190590E+01 -0.84131689994E+02  0.19726067756E+03  0.00000000000E+00 0. -1.
</event>
<event>
 6    1  0.1383644E-005  0.7826634E+02  0.7818608E-02  0.1407362E+00
          2   -1    0    0  502    0  0.00000000000E+00  0.00000000000E+00  0.32792208898E+03  0.32792208898E+03  0.00000000000E+00 0.  1.
          1   -1    0    0  501    0 -0.00000000000E+00 -0.00000000000E+00 -0.64513792588E+02  0.64513792588E+02  0.00000000000E+00 0.  1.
          2    1    1    2  501    0 -0.59869685178E+02 -0.11961211210E+02  0.18266940747E+03  0.19260208255E+03  0.00000000000E+00 0.  1.
          1    1    1    2  502    0  0.56792504683E+02 -0.17768391647E+01  0.82573433053E+01  0.57417153047E+02  0.00000000000E+00 0.  1.
         22    1    1    2    0    0 -0.18203228142E+02  0.43513161578E+01  0.10263931014E+03  0.10433177586E+03  0.00000000000E+00 0. -1.
         22    1    1    2    0    0  0.21280408638E+02  0.93867342168E+01 -0.30157764521E+02  0.38084870119E+02  0.00000000000E+00 0.  1.
</event>
<event>
 6    1  0.1383644E-005  0.2433096E+03  0.7818608E-02  0.1245996E+00
          2   -1    0    0  502    0  0.00000000000E+00  0.00000000000E+00  0.62167169835E+03  0.62167169835E+03  0.00000000000E+00 0. -1.
          1   -1    0    0  501    0 -0.00000000000E+00 -0.00000000000E+00 -0.18006546959E+03  0.18006546959E+03  0.00000000000E+00 0.  1.
          2    1    1    2  501    0  0.59608891827E+02  0.11495498736E+03  0.48295804107E+03  0.50001633827E+03  0.00000000000E+00 0. -1.
          1    1    1    2  502    0  0.42692918200E+01 -0.14718635133E+03 -0.60074268123E+02  0.15903133829E+03  0.00000000000E+00 0.  1.
         22    1    1    2    0    0 -0.38531491147E+01 -0.13020817991E+02 -0.43208720583E+02  0.45292184686E+02  0.00000000000E+00 0.  1.
         22    1    1    2    0    0 -0.60025034532E+02  0.45252181957E+02  0.61931176397E+02  0.97397306699E+02  0.00000000000E+00 0. -1.
</event>
<event>
 6    1  0.1383644E-005  0.1017527E+03  0.7818608E-02  0.1409116E+00
          2   -1    0    0  502    0  0.00000000000E+00  0.00000000000E+00  0.17898346115E+03  0.17898346115E+03  0.00000000000E+00 0. -1.
          1   -1    0    0  501    0 -0.00000000000E+00 -0.00000000000E+00 -0.18464361246E+03  0.18464361246E+03  0.00000000000E+00 0. -1.
          2    1    1    2  501    0 -0.70398849559E+02  0.46827081831E+01  0.76502287291E+02  0.10406981184E+03  0.00000000000E+00 0. -1.
          1    1    1    2  502    0  0.93668217119E+02 -0.20584614294E+02 -0.84594064022E+02  0.12788126099E+03  0.00000000000E+00 0. -1.
         22    1    1    2    0    0  0.33622229158E+01  0.97337038059E+01 -0.61389223839E+02  0.62246978531E+02  0.00000000000E+00 0. -1.
         22    1    1    2    0    0 -0.26631590476E+02  0.61682023051E+01  0.63820849259E+02  0.69429022253E+02  0.00000000000E+00 0. -1.
</event>
<event>
 6    1  0.1383644E-005  0.3421423E+02  0.7818608E-02  0.1648474E+00
          2   -1    0    0  502    0  0.00000000000E+00  0.00000000000E+00  0.52199190720E+02  0.52199190720E+02  0.00000000000E+00 0.  1.
          1   -1    0    0  501    0 -0.00000000000E+00 -0.00000000000E+00 -0.27088170565E+03  0.27088170565E+03  0.00000000000E+00 0.  1.
          2    1    1    2  501    0 -0.18936247862E+02  0.16534161428E+02  0.89770480012E+01  0.26693582900E+02  0.00000000000E+00 0.  1.
          1    1    1    2  502    0  0.31250117645E+02  0.23915848052E+02 -0.10765445025E+03  0.11462119480E+03  0.00000000000E+00 0.  1.
         22    1    1    2    0    0 -0.10459941565E+02 -0.40756901725E+01  0.27567439381E+02  0.29765505908E+02  0.00000000000E+00 0.  1.
         22    1    1    2    0    0 -0.18539282172E+01 -0.36374319307E+02 -0.14757255207E+03  0.15200061276E+03  0.00000000000E+00 0.  1.
</event>
<event>
 6    1  0.1383644E-005  0.6180847E+02  0.7818608E-02  0.1477739E+00
          2   -1    0    0  502    0  0.00000000000E+00  0.00000000000E+00  0.16384418312E+03  0.16384418312E+03  0.00000000000E+00 0.  1.
          1   -1    0    0  501    0 -0.00000000000E+00 -0.00000000000E+00 -0.80840807158E+02  0.80840807158E+02  0.00000000000E+00 0. -1.
          2    1    1    2  501    0  0.64972189404E+01  0.26056413146E+02  0.41207973540E+02  0.49185847591E+02  0.00000000000E+00 0.  1.
          1    1    1    2  502    0 -0.62365832467E+01 -0.54013804140E+02 -0.14776464892E+02  0.56344741750E+02  0.00000000000E+00 0. -1.
         22    1    1    2    0    0 -0.16791117121E+02  0.28721875541E+02  0.93200736856E+02  0.98960927134E+02  0.00000000000E+00 0.  1.
         22    1    1    2    0    0  0.16530481427E+02 -0.76448454688E+00 -0.36628869539E+02  0.40193473806E+02  0.00000000000E+00 0. -1.
</event>
<event>
 6    1  0.1383644E-005  0.2818711E+02  0.7818608E-02  0.1644223E+00
          2   -1    0    0  502    0  0.00000000000E+00  0.00000000000E+00  0.10832619838E+04  0.10832619838E+04  0.00000000000E+00 0.  1.
          1   -1    0    0  501    0 -0.00000000000E+00 -0.00000000000E+00 -0.50990970345E+02  0.50990970345E+02  0.00000000000E+00 0.  1.
          2    1    1    2  501    0  0.39340189945E+02  0.39474113547E+01  0.88297108723E+03  0.88385585560E+03  0.00000000000E+00 0.  1.
          1    1    1    2  502    0 -0.44885997331E+02  0.55675809900E+00  0.11619575222E+03  0.12456530644E+03  0.00000000000E+00 0.  1.
         22    1    1    2    0    0  0.22543010438E+01  0.13405380902E+02  0.77061906251E+02  0.78251667748E+02  0.00000000000E+00 0.  1.
         22    1    1    2    0    0  0.32915063429E+01 -0.17909550355E+02 -0.43957732250E+02  0.47580124343E+02  0.00000000000E+00 0.  1.
</event>
<event>
 6    1  0.1383644E-005  0.4432749E+02  0.7818608E-02  0.1555428E+00
          2   -1    0    0  502    0  0.00000000000E+00  0.00000000000E+00  0.67090549951E+03  0.67090549951E+03  0.00000000000E+00 0. -1.
          1   -1    0    0  501    0 -0.00000000000E+00 -0.00000000000E+00 -0.12557912292E+03  0.12557912292E+03  0.00000000000E+00 0. -1.
          2    1    1    2  501    0 -0.30637855417E+02 -0.15453031463E+02  0.51970865306E+03  0.52084024271E+03  0.00000000000E+00 0. -1.
          1    1    1    2  502    0  0.69919338016E+02  0.12298522273E+02 -0.78239110735E+02  0.10564717662E+03  0.00000000000E+00 0. -1.
         22    1    1    2    0    0 -0.87132422218E+01  0.67340343052E+01 -0.30360717326E+02  0.32296144733E+02  0.00000000000E+00 0.  1.
         22    1    1    2    0    0 -0.30568240377E+02 -0.35795251155E+01  0.13421755160E+03  0.13770105837E+03  0.00000000000E+00 0.  1.
</event>
<event>
 6    1  0.1383644E-005  0.5439109E+02  0.7818608E-02  0.1432291E+00
          2   -1    0    0  502    0  0.00000000000E+00  0.00000000000E+00  0.10969587353E+03  0.10969587353E+03  0.00000000000E+00 0.  1.
          1   -1    0    0  501    0 -0.00000000000E+00 -0.00000000000E+00 -0.76265539730E+03  0.76265539730E+03  0.00000000000E+00 0.  1.
          2    1    1    2  501    0  0.89821539685E+02 -0.30251563710E+02  0.36138519621E+02  0.10143499741E+03  0.00000000000E+00 0.  1.
          1    1    1    2  502    0 -0.58104746965E+02  0.10011709621E+02 -0.62703992680E+03  0.62980589530E+03  0.00000000000E+00 0.  1.
         22    1    1    2    0    0 -0.32492652281E+02 -0.86774508468E+01 -0.92914983399E+02  0.98814294236E+02  0.00000000000E+00 0.  1.
         22    1    1    2    0    0  0.77585956086E+00  0.28917304935E+02  0.30856866807E+02  0.42296083884E+02  0.00000000000E+00 0.  1.
</event>
<event>
 6    1  0.1383644E-005  0.6518985E+02  0.7818608E-02  0.1481774E+00
          2   -1    0    0  502    0  0.00000000000E+00  0.00000000000E+00  0.30833030732E+03  0.30833030732E+03  0.00000000000E+00 0. -1.
          1   -1    0    0  501    0 -0.00000000000E+00 -0.00000000000E+00 -0.12375812939E+03  0.12375812939E+03  0.00000000000E+00 0. -1.
          2    1    1    2  501    0  0.80810130776E-01 -0.49216432758E+02  0.22746762409E+03  0.23273114057E+03  0.00000000000E+00 0. -1.
          1    1    1    2  502    0  0.17837282168E+02  0.51168700233E+02 -0.43643439811E+02  0.69578404388E+02  0.00000000000E+00 0. -1.
         22    1    1    2    0    0 -0.10174414175E+02 -0.12793167948E+02  0.63529891575E+02  0.65599016559E+02  0.00000000000E+00 0. -1.
         22    1    1    2    0    0 -0.77436781239E+01  0.10840900473E+02 -0.62781897914E+02  0.64179875192E+02  0.00000000000E+00 0. -1.
</event>
<event>
 6    1  0.1383644E-005  0.6445559E+02  0.7818608E-02  0.1401557E+00
          2   -1    0    0  502    0  0.00000000000E+00  0.00000000000E+00  0.29410589202E+02  0.29410589202E+02  0.00000000000E+00 0.  1.
          1   -1    0    0  501    0 -0.00000000000E+00 -0.00000000000E+00 -0.95666935717E+03  0.95666935717E+03  0.00000000000E+00 0.  1.
          2    1    1    2  501    0 -0.20170804971E+02 -0.15828330153E+02 -0.26810970963E+02  0.37097514372E+02  0.00000000000E+00 0.  1.
          1    1    1    2  502    0  0.44878559423E+02  0.56104750549E+02 -0.71995166742E+03  0.72352763012E+03  0.00000000000E+00 0.  1.
         22    1    1    2    0    0 -0.26469003379E+02  0.53131869754E+01  0.10588400963E+02  0.28999178103E+02  0.00000000000E+00 0.  1.
         22    1    1    2    0    0  0.17612489278E+01 -0.45589607372E+02 -0.19108453055E+03  0.19645562378E+03  0.00000000000E+00 0.  1.
</event>
<event>
 6    1  0.1383644E-005  0.1215501E+03  0.7818608E-02  0.1255760E+00
          2   -1    0    0  502    0  0.00000000000E+00  0.00000000000E+00  0.43703582403E+03  0.43703582403E+03  0.00000000000E+00 0.  1.
          1   -1    0    0  501    0 -0.00000000000E+00 -0.00000000000E+00 -0.19667596124E+03  0.19667596124E+03  0.00000000000E+00 0. -1.
          2    1    1    2  501    0 -0.16928079127E+02  0.62287207127E+02  0.20629964542E+03  0.21616151308E+03  0.00000000000E+00 0.  1.
          1    1    1    2  502    0  0.12659983606E+03 -0.56792547227E+02 -0.12733874664E+03  0.18832967983E+03  0.00000000000E+00 0. -1.
         22    1    1    2    0    0 -0.15344562841E+02  0.17094813878E+02  0.12263354441E+03  0.12476647981E+03  0.00000000000E+00 0.  1.
         22    1    1    2    0    0 -0.94327194089E+02 -0.22589473778E+02  0.38765419603E+02  0.10445411254E+03  0.00000000000E+00 0.  1.
</event>
<event>
 6    1  0.1383644E-005  0.1439737E+03  0.7818608E-02  0.1296220E+00
          2   -1    0    0  502    0  0.00000000000E+00  0.00000000000E+00  0.15539353500E+04  0.15539353500E+04  0.00000000000E+00 0. -1.
          1   -1    0    0  501    0 -0.00000000000E+00 -0.00000000000E+00 -0.12897314687E+03  0.12897314687E+03  0.00000000000E+00 0. -1.
          2    1    1    2  501    0 -0.21453589113E+03 -0.21832610376E+02  0.69830762120E+02  0.22666858361E+03  0.00000000000E+00 0. -1.
          1    1    1    2  502    0  0.68047323651E+02  0.27567058322E+02  0.12218982978E+04  0.12241020509E+04  0.00000000000E+00 0. -1.
         22    1    1    2    0    0  0.22606480063E+02  0.10308297051E+02 -0.21791348290E+02  0.33048098119E+02  0.00000000000E+00 0.  1.
         22    1    1    2    0    0  0.12388208741E+03 -0.16042744998E+02  0.15502449156E+03  0.19908976426E+03  0.00000000000E+00 0.  1.
</event>
<event>
 6    1  0.1383644E-005  0.2485250E+02  0.7818608E-02  0.1665932E+00
          2   -1    0    0  502    0  0.00000000000E+00  0.00000000000E+00  0.93882965439E+02  0.93882965439E+02  0.00000000000E+00 0.  1.
          1   -1    0    0  501    0 -0.00000000000E+00 -0.00000000000E+00 -0.19894273667E+03  0.19894273667E+03  0.00000000000E+00 0. -1.
          2    1    1    2  501    0  0.26389232770E+02  0.14569409737E+02  0.50158304692E+01  0.30558433559E+02  0.00000000000E+00 0.  1.
          1    1    1    2  502    0 -0.52095716737E+02 -0.24902679566E+02 -0.11704899874E+03  0.13051657082E+03  0.00000000000E+00 0. -1.
         22    1    1    2    0    0  0.13798019000E+02  0.28497149770E+01 -0.60862554124E+02  0.62472047335E+02  0.00000000000E+00 0. -1.
         22    1    1    2    0    0  0.11908464967E+02  0.74835548528E+01  0.67835951162E+02  0.69278650399E+02  0.00000000000E+00 0.  1.
</event>
<event>
 6    1  0.1383644E-005  0.1355377E+03  0.7818608E-02  0.1267800E+00
          2   -1    0    0  502    0  0.00000000000E+00  0.00000000000E+00  0.15528107112E+03  0.15528107112E+03  0.00000000000E+00 0.  1.
          1   -1    0    0  501    0 -0.00000000000E+00 -0.00000000000E+00 -0.27400288725E+03  0.27400288725E+03  0.00000000000E+00 0.  1.
          2    1    1    2  501    0  0.33844435006E+02 -0.29594264450E+02 -0.10100378843E+02  0.46079105047E+02  0.00000000000E+00 0.  1.
          1    1    1    2  502    0 -0.11889843712E+03  0.74613442306E+02 -0.16310030973E+03  0.21518762779E+03  0.00000000000E+00 0.  1.
         22    1    1    2    0    0  0.58589992378E+02 -0.13504665141E+01  0.88869775034E+02  0.10645397072E+03  0.00000000000E+00 0.  1.
         22    1    1    2    0    0  0.26464009735E+02 -0.43668711343E+02 -0.34390902589E+02  0.61563254807E+02  0.00000000000E+00 0.  1.
</event>
<event>
 6    1  0.1383644E-005  0.9422131E+02  0.7818608E-02  0.1295044E+00
          2   -1    0    0  502    0  0.00000000000E+00  0.00000000000E+00  0.40938338519E+03  0.40938338519E+03  0.00000000000E+00 0.  1.
          1   -1    0    0  501    0 -0.00000000000E+00 -0.00000000000E+00 -0.12458107835E+03  0.12458107835E+03  0.00000000000E+00 0. -1.
          2    1    1    2  501    0  0.34329583043E+02  0.70005108862E+02  0.32373488892E+03  0.33299176242E+03  0.00000000000E+00 0.  1.
          1    1    1    2  502    0 -0.16411215307E+02 -0.51468946949E+02 -0.44705631628E+02  0.70121137948E+02  0.00000000000E+00 0. -1.
         22    1    1    2    0    0 -0.27561841613E+02 -0.26446279855E+02 -0.56024931198E+02  0.67807475598E+02  0.00000000000E+00 0. -1.
         22    1    1    2    0    0  0.96434738776E+01  0.79101179422E+01  0.61797980750E+02  0.63044087582E+02  0.00000000000E+00 0.  1.
</event>
<event>
 6    1  0.1383644E-005  0.6621893E+03  0.7818608E-02  0.1097182E+00
          2   -1    0    0  502    0  0.00000000000E+00  0.00000000000E+00  0.27234183451E+03  0.27234183451E+03  0.00000000000E+00 0. -1.
          1   -1    0    0  501    0 -0.00000000000E+00 -0.00000000000E+00 -0.17079571388E+04  0.17079571388E+04  0.00000000000E+00 0. -1.
          2    1    1    2  501    0 -0.39532256042E+02 -0.45711668074E+03 -0.24767488007E+03  0.52140320798E+03  0.00000000000E+00 0. -1.
          1    1    1    2  502    0  0.21549895583E+03  0.43093936453E+03 -0.11359210933E+04  0.12338821929E+04  0.00000000000E+00 0. -1.
         22    1    1    2    0    0  0.19678984274E+02 -0.52170561073E+01 -0.89452386188E+01  0.22237297282E+02  0.00000000000E+00 0. -1.
         22    1    1    2    0    0 -0.19564568406E+03  0.31394372321E+02 -0.43074092267E+02  0.20277627507E+03  0.00000000000E+00 0. -1.
</event>
<event>
 6    1  0.1383644E-005  0.3691156E+02  0.7818608E-02  0.1554611E+00
          2   -1    0    0  502    0  0.00000000000E+00  0.00000000000E+00  0.40726386051E+03  0.40726386051E+03  0.00000000000E+00 0. -1.
          1   -1    0    0  501    0 -0.00000000000E+00 -0.00000000000E+00 -0.92248094093E+02  0.92248094093E+02  0.00000000000E+00 0. -1.
          2    1    1    2  501    0  0.54528458411E+02 -0.18191234473E+02  0.25317922399E+03  0.25962279031E+03  0.00000000000E+00 0. -1.
          1    1    1    2  502    0 -0.74593716473E+02  0.42472405930E+02  0.74115901925E+02  0.11340764842E+03  0.00000000000E+00 0. -1.
         22    1    1    2    0    0  0.17922941139E+02 -0.92945931145E+01 -0.66859177035E+02  0.69841039754E+02  0.00000000000E+00 0.  1.
         22    1    1    2    0    0  0.21423169242E+01 -0.14986578343E+02  0.54579817538E+02  0.56640476117E+02  0.00000000000E+00 0.  1.
</event>
<event>
 6    1  0.1383644E-005  0.2838847E+02  0.7818608E-02  0.1668160E+00
          2   -1    0    0  502    0  0.00000000000E+00  0.00000000000E+00  0.20363273076E+03  0.20363273076E+03  0.00000000000E+00 0. -1.
          1   -1    0    0  501    0 -0.00000000000E+00 -0.00000000000E+00 -0.93109169580E+02  0.93109169580E+02  0.00000000000E+00 0. -1.
          2    1    1    2  501    0  0.37549226027E+02 -0.40595384360E+02  0.10331980131E+03  0.11718750338E+03  0.00000000000E+00 0. -1.
          1    1    1    2  502    0 -0.20449646031E+02  0.85886334119E+01  0.39132831057E+02  0.44981452991E+02  0.00000000000E+00 0. -1.
         22    1    1    2    0    0 -0.13137010347E+02  0.19486734820E+02 -0.80706529546E+02  0.84058656818E+02  0.00000000000E+00 0. -1.
         22    1    1    2    0    0 -0.39625696489E+01  0.12520016128E+02  0.48777458364E+02  0.50514287152E+02  0.00000000000E+00 0. -1.
</event>
<event>
 6    1  0.1383644E-005  0.7446418E+02  0.7818608E-02  0.1436841E+00
          2   -1    0    0  502    0  0.00000000000E+00  0.00000000000E+00  0.99720788814E+02  0.99720788814E+02  0.00000000000E+00 0.  1.
          1   -1    0    0  501    0 -0.00000000000E+00 -0.00000000000E+00 -0.23941033877E+03  0.23941033877E+03  0.00000000000E+00 0.  1.
          2    1    1    2  501    0  0.52626318775E+02  0.11176587383E+02  0.23779783988E+02  0.58821115765E+02  0.00000000000E+00 0.  1.
          1    1    1    2  502    0 -0.35507351128E+02 -0.74885471511E+02 -0.65930045922E+02  0.10590267599E+03  0.00000000000E+00 0.  1.
         22    1    1    2    0    0  0.13893626250E+02 -0.10112251152E+02  0.23602179158E+02  0.29195090936E+02  0.00000000000E+00 0. -1.
         22    1    1    2    0    0 -0.31012593897E+02  0.73821135281E+02 -0.12114146718E+03  0.14521224489E+03  0.00000000000E+00 0.  1.
</event>
<event>
 6    1  0.1383644E-005  0.1964569E+02  0.7818608E-02  0.1763679E+00
          2   -1    0    0  502    0  0.00000000000E+00  0.00000000000E+00  0.10894831876E+03  0.10894831876E+03  0.00000000000E+00 0.  1.
          1   -1    0    0  501    0 -0.00000000000E+00 -0.00000000000E+00 -0.10644329838E+03  0.10644329838E+03  0.00000000000E+00 0.  1.
          2    1    1    2  501    0 -0.15610446263E+02 -0.25330941415E+02  0.46046298444E+02  0.54823391229E+02  0.00000000000E+00 0.  1.
          1    1    1    2  502    0  0.28158290891E+02  0.86468979666E-01 -0.14186461193E+02  0.31530184014E+02  0.00000000000E+00 0.  1.
         22    1    1    2    0    0 -0.59758574451E+01  0.13563163830E+02 -0.77580960510E+02  0.78984021922E+02  0.00000000000E+00 0.  1.
         22    1    1    2    0    0 -0.65719871837E+01  0.11681308605E+02  0.48226143635E+02  0.50054019980E+02  0.00000000000E+00 0.  1.
</event>
<event>
 6    1  0.1383644E-005  0.7210147E+02  0.7818608E-02  0.1374286E+00
          2   -1    0    0  502    0  0.00000000000E+00  0.00000000000E+00  0.38145168022E+03  0.38145168022E+03  0.00000000000E+00 0.  1.
          1   -1    0    0  501    0 -0.00000000000E+00 -0.00000000000E+00 -0.16135908235E+03  0.16135908235E+03  0.00000000000E+00 0.  1.
          2    1    1    2  501    0  0.52968168398E+02  0.15680568130E+02  0.26104091204E+03  0.26682178479E+03  0.00000000000E+00 0.  1.
          1    1    1    2  502    0 -0.10716764132E+03 -0.52478991339E+02 -0.66786852224E+02  0.13674586468E+03  0.00000000000E+00 0.  1.
         22    1    1    2    0    0  0.11115055383E+02  0.10279967478E+02  0.70287231576E+02  0.71899354032E+02  0.00000000000E+00 0.  1.
         22    1    1    2    0    0  0.43084417540E+02  0.26518455732E+02 -0.44448693525E+02  0.67343759067E+02  0.00000000000E+00 0.  1.
</event>
<event>
 6    1  0.1383644E-005  0.1248042E+03  0.7818608E-02  0.1351644E+00
          2   -1    0    0  502    0  0.00000000000E+00  0.00000000000E+00  0.10823783536E+04  0.10823783536E+04  0.00000000000E+00 0. -1.
          1   -1    0    0  501    0 -0.00000000000E+00 -0.00000000000E+00 -0.35060459215E+02  0.35060459215E+02  0.00000000000E+00 0. -1.
          2    1    1    2  501    0 -0.47309613811E+02  0.40990670300E+02  0.55077044601E+03  0.55431626245E+03  0.00000000000E+00 0. -1.
          1    1    1    2  502    0  0.67999441231E+02 -0.10278185160E+03  0.24260602682E+03  0.27211342723E+03  0.00000000000E+00 0. -1.
         22    1    1    2    0    0 -0.26404944830E+02  0.48739296824E+02  0.26638540121E+03  0.27209175317E+03  0.00000000000E+00 0. -1.
         22    1    1    2    0    0  0.57151174090E+01  0.13051884481E+02 -0.12443979681E+02  0.18917369949E+02  0.00000000000E+00 0. -1.
</event>
<event>
 6    1  0.1383644E-005  0.4268176E+02  0.7818608E-02  0.1549928E+00
          2   -1    0    0  502    0  0.00000000000E+00  0.00000000000E+00  0.85934231217E+02  0.85934231217E+02  0.00000000000E+00 0. -1.
          1   -1    0    0  501    0 -0.00000000000E+00 -0.00000000000E+00 -0.15672547973E+03  0.15672547973E+03  0.00000000000E+00 0. -1.
          2    1    1    2  501    0  0.15363514555E+02 -0.28834789322E+02 -0.30399346377E+02  0.44627378535E+02  0.00000000000E+00 0. -1.
          1    1    1    2  502    0 -0.18777693323E+02  0.23994834307E+02 -0.60843115836E+02  0.68045856483E+02  0.00000000000E+00 0. -1.
         22    1    1    2    0    0  0.18939950961E+02  0.11166417901E+01  0.72813183888E+02  0.75244457465E+02  0.00000000000E+00 0. -1.
         22    1    1    2    0    0 -0.15525772193E+02  0.37233132252E+01 -0.52361970184E+02  0.54742018460E+02  0.00000000000E+00 0. -1.
</event>
<event>
 6    1  0.1383644E-005  0.4402119E+02  0.7818608E-02  0.1530053E+00
          2   -1    0    0  502    0  0.00000000000E+00  0.00000000000E+00  0.84501264056E+02  0.84501264056E+02  0.00000000000E+00 0.  1.
          1   -1    0    0  501    0 -0.00000000000E+00 -0.00000000000E+00 -0.15781987557E+03  0.15781987557E+03  0.00000000000E+00 0.  1.
          2    1    1    2  501    0 -0.19442978947E+02  0.29366762531E+02  0.27402059559E+02  0.44624085873E+02  0.00000000000E+00 0.  1.
          1    1    1    2  502    0  0.41164504856E+02 -0.19451553806E+01 -0.33559383184E+02  0.53146329028E+02  0.00000000000E+00 0.  1.
         22    1    1    2    0    0  0.21202452679E+02 -0.72260888051E+01  0.29403089774E+02  0.36963523199E+02  0.00000000000E+00 0.  1.
         22    1    1    2    0    0 -0.42923978587E+02 -0.20195518346E+02 -0.96564377667E+02  0.10758720153E+03  0.00000000000E+00 0.  1.
</event>
<event>
 6    1  0.1383644E-005  0.4690530E+02  0.7818608E-02  0.1571058E+00
          2   -1    0    0  502    0  0.00000000000E+00  0.00000000000E+00  0.21331919276E+03  0.21331919276E+03  0.00000000000E+00 0.  1.
          1   -1    0    0  501    0 -0.00000000000E+00 -0.00000000000E+00 -0.14443869990E+03  0.14443869990E+03  0.00000000000E+00 0.  1.
          2    1    1    2  501    0 -0.11162931191E+02 -0.19414562885E+02  0.12212005622E+03  0.12415653191E+03  0.00000000000E+00 0.  1.
          1    1    1    2  502    0  0.88553432577E+01  0.33710492412E+02 -0.96439586454E+02  0.10254466460E+03  0.00000000000E+00 0.  1.
         22    1    1    2    0    0 -0.86383364349E+01  0.67093412025E+01 -0.41598394543E+02  0.43012353392E+02  0.00000000000E+00 0.  1.
         22    1    1    2    0    0  0.10945924368E+02 -0.21005270730E+02  0.84798417637E+02  0.88044342762E+02  0.00000000000E+00 0.  1.
</event>
<event>
 6    1  0.1383644E-005  0.1273570E+03  0.7818608E-02  0.1254654E+00
          2   -1    0    0  502    0  0.00000000000E+00  0.00000000000E+00  0.35757646172E+03  0.35757646172E+03  0.00000000000E+00 0. -1.
          1   -1    0    0  501    0 -0.00000000000E+00 -0.00000000000E+00 -0.11020234908E+04  0.11020234908E+04  0.00000000000E+00 0. -1.
          2    1    1    2  501    0  0.11621293807E+03  0.39202591484E+03 -0.71534664289E+03  0.82396030510E+03  0.00000000000E+00 0. -1.
          1    1    1    2  502    0 -0.11711006055E+03 -0.33628383627E+03  0.16996165579E+03  0.39457388314E+03  0.00000000000E+00 0. -1.
         22    1    1    2    0    0 -0.20505513035E+02 -0.38653746592E+02 -0.20776967741E+03  0.21232716981E+03  0.00000000000E+00 0.  1.
         22    1    1    2    0    0  0.21402635512E+02 -0.17088331980E+02  0.87076354372E+01  0.28738594462E+02  0.00000000000E+00 0. -1.
</event>
<event>
 6    1  0.1383644E-005  0.4022435E+02  0.7818608E-02  0.1551034E+00
          2   -1    0    0  502    0  0.00000000000E+00  0.00000000000E+00  0.41089266283E+03  0.41089266283E+03  0.00000000000E+00 0. -1.
          1   -1    0    0  501    0 -0.00000000000E+00 -0.00000000000E+00 -0.35575836705E+02  0.35575836705E+02  0.00000000000E+00 0.  1.
          2    1    1    2  501    0  0.39543079829E+02 -0.10681043858E+02  0.17896089477E+03  0.18358851194E+03  0.00000000000E+00 0. -1.
          1    1    1    2  502    0 -0.30180523923E+02  0.30479593346E+02  0.20119507377E+02  0.47377887372E+02  0.00000000000E+00 0.  1.
         22    1    1    2    0    0  0.24371651839E+01 -0.33156002614E+02  0.19006059016E+03  0.19294633506E+03  0.00000000000E+00 0. -1.
         22    1    1    2    0    0 -0.11799721090E+02  0.13357453126E+02 -0.13824166171E+02  0.22555765164E+02  0.00000000000E+00 0.  1.
</event>
<event>
 6    1  0.1383644E-005  0.1135940E+03  0.7818608E-02  0.1374641E+00
          2   -1    0    0  502    0  0.00000000000E+00  0.00000000000E+00  0.36516001352E+03  0.36516001352E+03  0.00000000000E+00 0.  1.
          1   -1    0    0  501    0 -0.00000000000E+00 -0.00000000000E+00 -0.55883914877E+02  0.55883914877E+02  0.00000000000E+00 0.  1.
          2    1    1    2  501    0  0.18945082630E+02  0.48802447158E+02  0.71040223219E+02  0.88245726919E+02  0.00000000000E+00 0.  1.
          1    1    1    2  502    0  0.60018785175E+01 -0.95087875067E+02  0.82318408625E+02  0.12591285450E+03  0.00000000000E+00 0.  1.
         22    1    1    2    0    0 -0.15156026019E+02  0.54626243518E+02  0.17495494313E+03  0.18391020562E+03  0.00000000000E+00 0.  1.
         22    1    1    2    0    0 -0.97909351281E+01 -0.83408156095E+01 -0.19037476325E+02  0.22975141361E+02  0.00000000000E+00 0.  1.
</event>
<event>
 6    1  0.1383644E-005  0.1333574E+03  0.7818608E-02  0.1291355E+00
          2   -1    0    0  502    0  0.00000000000E+00  0.00000000000E+00  0.13353263328E+03  0.13353263328E+03  0.00000000000E+00 0. -1.
          1   -1    0    0  501    0 -0.00000000000E+00 -0.00000000000E+00 -0.95037751327E+02  0.95037751327E+02  0.00000000000E+00 0. -1.
          2    1    1    2  501    0 -0.17045960266E+02 -0.25108803330E+02 -0.22366120299E+02  0.37699603490E+02  0.00000000000E+00 0. -1.
          1    1    1    2  502    0  0.87679071414E+01 -0.35598799996E+02 -0.10769505863E+02  0.38211686868E+02  0.00000000000E+00 0. -1.
         22    1    1    2    0    0 -0.21371483529E+02  0.77810728329E+02  0.83797076638E+02  0.11633228187E+03  0.00000000000E+00 0. -1.
         22    1    1    2    0    0  0.29649536653E+02 -0.17103125003E+02 -0.12166568519E+02  0.36326812386E+02  0.00000000000E+00 0. -1.
</event>
<event>
 6    1  0.1383644E-005  0.4820730E+02  0.7818608E-02  0.1534468E+00
          2   -1    0    0  502    0  0.00000000000E+00  0.00000000000E+00  0.13660873621E+03  0.13660873621E+03  0.00000000000E+00 0.  1.
          1   -1    0    0  501    0 -0.00000000000E+00 -0.00000000000E+00 -0.38267849872E+03  0.38267849872E+03  0.00000000000E+00 0. -1.
          2    1    1    2  501    0  0.28147116851E+01 -0.31021529265E+02  0.37164452036E+02  0.48491796986E+02  0.00000000000E+00 0.  1.
          1    1    1    2  502    0  0.12768584136E+01  0.36548875776E+02 -0.33096975090E+03  0.33298412379E+03  0.00000000000E+00 0. -1.
         22    1    1    2    0    0 -0.39967846410E+01 -0.15590054971E+02  0.91500074256E+02  0.92904723724E+02  0.00000000000E+00 0.  1.
         22    1    1    2    0    0 -0.94785457648E-01  0.10062708460E+02 -0.43764537905E+02  0.44906590428E+02  0.00000000000E+00 0. -1.
</event>
<event>
 6    1  0.1383644E-005  0.5524674E+02  0.7818608E-02  0.1420545E+00
          2   -1    0    0  502    0  0.00000000000E+00  0.00000000000E+00  0.98966943036E+02  0.98966943036E+02  0.00000000000E+00 0.  1.
          1   -1    0    0  501    0 -0.00000000000E+00 -0.00000000000E+00 -0.14683038617E+03  0.14683038617E+03  0.00000000000E+00 0.  1.
          2    1    1    2  501    0 -0.13056703566E+02  0.21853994944E+02  0.25616968652E+02  0.36115144828E+02  0.00000000000E+00 0.  1.
          1    1    1    2  502    0  0.17123613395E+02 -0.17334015376E+02 -0.80093981810E+02  0.83718170948E+02  0.00000000000E+00 0.  1.
         22    1    1    2    0    0 -0.59413673001E+01  0.24405547931E+02  0.60094631729E+02  0.65132905492E+02  0.00000000000E+00 0.  1.
         22    1    1    2    0    0  0.18744574706E+01 -0.28925527499E+02 -0.53481061709E+02  0.60831107941E+02  0.00000000000E+00 0.  1.
</event>
<event>
 6    1  0.1383644E-005  0.4245551E+02  0.7818608E-02  0.1540765E+00
          2   -1    0    0  502    0  0.00000000000E+00  0.00000000000E+00  0.33735064121E+03  0.33735064121E+03  0.00000000000E+00 0.  1.
          1   -1    0    0  501    0 -0.00000000000E+00 -0.00000000000E+00 -0.29071833432E+03  0.29071833432E+03  0.00000000000E+00 0.  1.
          2    1    1    2  501    0  0.69004462411E+02 -0.52924756417E+02  0.28896994236E+03  0.30177188945E+03  0.00000000000E+00 0.  1.
          1    1    1    2  502    0 -0.39130895851E+02  0.51329738380E+02 -0.17174829097E+03  0.18347600525E+03  0.00000000000E+00 0.  1.
         22    1    1    2    0    0 -0.22536351962E+02 -0.82454819765E+01 -0.10425827684E+03  0.10698440738E+03  0.00000000000E+00 0.  1.
         22    1    1    2    0    0 -0.73372145978E+01  0.98405000140E+01  0.33668932346E+02  0.35836673449E+02  0.00000000000E+00 0.  1.
</event>
<event>
 6    1  0.1383644E-005  0.5932321E+03  0.7818608E-02  0.1055928E+00
          2   -1    0    0  502    0  0.00000000000E+00  0.00000000000E+00  0.16574171377E+04  0.16574171377E+04  0.00000000000E+00 0. -1.
          1   -1    0    0  501    0 -0.00000000000E+00 -0.00000000000E+00 -0.26486304806E+03  0.26486304806E+03  0.00000000000E+00 0. -1.
          2    1    1    2  501    0 -0.11271672259E+03  0.54395313654E+03  0.10257153434E+04  0.11664827646E+04  0.00000000000E+00 0. -1.
          1    1    1    2  502    0  0.14723221004E+03 -0.50983952908E+03  0.30758282112E+03  0.61336845447E+03  0.00000000000E+00 0. -1.
         22    1    1    2    0    0 -0.73028518885E+02 -0.46715882575E+02  0.27511154978E+02  0.90952745442E+02  0.00000000000E+00 0. -1.
         22    1    1    2    0    0  0.38513031444E+02  0.12602275121E+02  0.31744770139E+02  0.51476221310E+02  0.00000000000E+00 0. -1.
</event>
<event>
 6    1  0.1383644E-005  0.1161289E+03  0.7818608E-02  0.1370394E+00
          2   -1    0    0  502    0  0.00000000000E+00  0.00000000000E+00  0.90296516484E+03  0.90296516484E+03  0.00000000000E+00 0.  1.
          1   -1    0    0  501    0 -0.00000000000E+00 -0.00000000000E+00 -0.16463322550E+03  0.16463322550E+03  0.00000000000E+00 0.  1.
          2    1    1    2  501    0 -0.12629740322E+03 -0.46114921600E+02  0.67901116530E+03  0.69219490222E+03  0.00000000000E+00 0.  1.
          1    1    1    2  502    0  0.15950960584E+03  0.12808719066E+03  0.74341626246E+02  0.21766102122E+03  0.00000000000E+00 0.  1.
         22    1    1    2    0    0 -0.10016241667E+01  0.10840571984E+02  0.42517997192E+02  0.43889649545E+02  0.00000000000E+00 0.  1.
         22    1    1    2    0    0 -0.32210578463E+02 -0.92812841044E+02 -0.57538849399E+02  0.11385281735E+03  0.00000000000E+00 0.  1.
</event>
<event>
 6    1  0.1383644E-005  0.1274674E+03  0.7818608E-02  0.1353598E+00
          2   -1    0    0  502    0  0.00000000000E+00  0.00000000000E+00  0.49850266833E+03  0.49850266833E+03  0.00000000000E+00 0.  1.
          1   -1    0    0  501    0 -0.00000000000E+00 -0.00000000000E+00 -0.31389643837E+02  0.31389643837E+02  0.00000000000E+00 0.  1.
          2    1    1    2  501    0  0.46285479869E+02 -0.14655135785E+02  0.82421528478E+02  0.95657864331E+02  0.00000000000E+00 0.  1.
          1    1    1    2  502    0  0.21709433769E+02  0.50118965110E+02  0.13707078580E+03  0.14755206030E+03  0.00000000000E+00 0.  1.
         22    1    1    2    0    0 -0.63286096765E+02 -0.23414495864E+02  0.26009821939E+03  0.26870886177E+03  0.00000000000E+00 0.  1.
         22    1    1    2    0    0 -0.47088168736E+01 -0.12049333461E+02 -0.12477509181E+02  0.17973525769E+02  0.00000000000E+00 0.  1.
</event>
<event>
 6    1  0.1383644E-005  0.1686488E+03  0.7818608E-02  0.1193510E+00
          2   -1    0    0  502    0  0.00000000000E+00  0.00000000000E+00  0.38951508793E+03  0.38951508793E+03  0.00000000000E+00 0. -1.
          1   -1    0    0  501    0 -0.00000000000E+00 -0.00000000000E+00 -0.90570730632E+03  0.90570730632E+03  0.00000000000E+00 0. -1.
          2    1    1    2  501    0  0.40791515023E+03  0.37370401004E+02  0.15490096149E+03  0.43793335626E+03  0.00000000000E+00 0. -1.
          1    1    1    2  502    0 -0.39739873543E+03 -0.53981509789E+02 -0.54570813039E+03  0.67722752594E+03  0.00000000000E+00 0. -1.
         22    1    1    2    0    0  0.27051277216E+02 -0.41080397087E+02 -0.17748815796E+02  0.52291405470E+02  0.00000000000E+00 0.  1.
         22    1    1    2    0    0 -0.37567692016E+02  0.57691505872E+02 -0.10763623368E+03  0.12777010658E+03  0.00000000000E+00 0. -1.
</event>
<event>
 6    1  0.1383644E-005  0.3031267E+02  0.7818608E-02  0.1598434E+00
          2   -1    0    0  502    0  0.00000000000E+00  0.00000000000E+00  0.17590235902E+03  0.17590235902E+03  0.00000000000E+00 0.  1.
          1   -1    0    0  501    0 -0.00000000000E+00 -0.00000000000E+00 -0.35216894510E+03  0.35216894510E+03  0.00000000000E+00 0. -1.
          2    1    1    2  501    0 -0.30989237771E+02  0.16611308616E+02  0.12045024480E+03  0.12547720871E+03  0.00000000000E+00 0.  1.
          1    1    1    2  502    0  0.54137043661E+01 -0.28964769073E+02 -0.26833597788E+03  0.26994900087E+03  0.00000000000E+00 0. -1.
         22    1    1    2    0    0  0.19957975760E+02 -0.70658185606E+01 -0.77070466828E+02  0.79925611949E+02  0.00000000000E+00 0.  1.
         22    1    1    2    0    0  0.56175576452E+01  0.19419279017E+02  0.48689613826E+02  0.52719482603E+02  0.00000000000E+00 0.  1.
</event>
<event>
 6    1  0.1383644E-005  0.9632662E+02  0.7818608E-02  0.1331895E+00
          2   -1    0    0  502    0  0.00000000000E+00  0.00000000000E+00  0.59374085633E+03  0.59374085633E+03  0.00000000000E+00 0.  1.
          1   -1    0    0  501    0 -0.00000000000E+00 -0.00000000000E+00 -0.78214177907E+03  0.78214177907E+03  0.00000000000E+00 0. -1.
          2    1    1    2  501    0 -0.48041694912E+00 -0.78203692770E+02  0.51896826296E+03  0.52482769203E+03  0.00000000000E+00 0.  1.
          1    1    1    2  502    0  0.18821833327E+02  0.13442987791E+03 -0.69567669921E+03  0.70879596733E+03  0.00000000000E+00 0. -1.
         22    1    1    2    0    0 -0.30405787944E+01 -0.15407645084E+02  0.57982074769E+02  0.60071304638E+02  0.00000000000E+00 0.  1.
         22    1    1    2    0    0 -0.15300837584E+02 -0.40818540059E+02 -0.69674561260E+02  0.82187671399E+02  0.00000000000E+00 0.  1.
</event>
<event>
 6    1  0.1383644E-005  0.8051299E+02  0.7818608E-02  0.1427137E+00
          2   -1    0    0  502    0  0.00000000000E+00  0.00000000000E+00  0.49500676831E+03  0.49500676831E+03  0.00000000000E+00 0.  1.
          1   -1    0    0  501    0 -0.00000000000E+00 -0.00000000000E+00 -0.71268122772E+02  0.71268122772E+02  0.00000000000E+00 0.  1.
          2    1    1    2  501    0  0.15155082368E+02 -0.80035939680E+02  0.13649465339E+03  0.15895351071E+03  0.00000000000E+00 0.  1.
          1    1    1    2  502    0  0.24236621345E+02  0.11507526672E+03  0.39828790484E+02  0.12416144078E+03  0.00000000000E+00 0.  1.
         22    1    1    2    0    0  0.11846998570E+01  0.11959020620E+02 -0.11662196247E+02  0.16745999798E+02  0.00000000000E+00 0.  1.
         22    1    1    2    0    0 -0.40576403570E+02 -0.46998347661E+02  0.25907739790E+03  0.26641393979E+03  0.00000000000E+00 0. -1.
</event>
<event>
 6    1  0.1383644E-005  0.9845964E+02  0.7818608E-02  0.1416485E+00
          2   -1    0    0  502    0  0.00000000000E+00  0.00000000000E+00  0.13996674879E+03  0.13996674879E+03  0.00000000000E+00 0.  1.
          1   -1    0    0  501    0 -0.00000000000E+00 -0.00000000000E+00 -0.37833844819E+03  0.37833844819E+03  0.00000000000E+00 0. -1.
          2    1    1    2  501    0 -0.63924244247E+01 -0.46488875621E+02  0.31728526700E+02  0.56646077120E+02  0.00000000000E+00 0.  1.
          1    1    1    2  502    0  0.12055655990E+02  0.10109928799E+03 -0.30660007061E+03  0.32306347390E+03  0.00000000000E+00 0. -1.
         22    1    1    2    0    0 -0.67118490059E+01 -0.44528608998E+02  0.81151221873E+02  0.92808225647E+02  0.00000000000E+00 0. -1.
         22    1    1    2    0    0  0.10486174402E+01 -0.10081803368E+02 -0.44651377371E+02  0.45787420312E+02  0.00000000000E+00 0. -1.
</event>
<event>
 6    1  0.1383644E-005  0.5343150E+02  0.7818608E-02  0.1429807E+00
          2   -1    0    0  502    0  0.00000000000E+00  0.00000000000E+00  0.25546493765E+03  0.25546493765E+03  0.00000000000E+00 0. -1.
          1   -1    0    0  501    0 -0.00000000000E+00 -0.00000000000E+00 -0.73306420421E+02  0.73306420421E+02  0.00000000000E+00 0. -1.
          2    1    1    2  501    0 -0.19344746182E+02 -0.10188109764E+02  0.83383350644E+02  0.86202087852E+02  0.00000000000E+00 0. -1.
          1    1    1    2  502    0  0.38949187934E+02  0.43937518750E+01 -0.38732948080E+02  0.55105222649E+02  0.00000000000E+00 0. -1.
         22    1    1    2    0    0 -0.30657380788E+02  0.47171715891E+01  0.15968089880E+03  0.16266565755E+03  0.00000000000E+00 0. -1.
         22    1    1    2    0    0  0.11052939035E+02  0.10771863000E+01 -0.22172784132E+02  0.24798390025E+02  0.00000000000E+00 0. -1.
</event>
<event>
 6    1  0.1383644E-005  0.7315861E+02  0.7818608E-02  0.1399134E+00
          2   -1    0    0  502    0  0.00000000000E+00  0.00000000000E+00  0.13765341492E+03  0.13765341492E+03  0.00000000000E+00 0. -1.
          1   -1    0    0  501    0 -0.00000000000E+00 -0.00000000000E+00 -0.16863657449E+03  0.16863657449E+03  0.00000000000E+00 0.  1.
          2    1    1    2  501    0 -0.42210239929E+02 -0.25394605267E+02  0.68755654294E+02  0.84580909956E+02  0.00000000000E+00 0. -1.
          1    1    1    2  502    0  0.15882433428E+02  0.44396463475E+02 -0.70196308704E+02  0.84562517798E+02  0.00000000000E+00 0.  1.
         22    1    1    2    0    0  0.21060379374E+02  0.12988728768E+02 -0.76320599169E+02  0.80231418484E+02  0.00000000000E+00 0. -1.
         22    1    1    2    0    0  0.52674271271E+01 -0.31990586975E+02  0.46778094008E+02  0.56915143175E+02  0.00000000000E+00 0. -1.
</event>
<event>
 6    1  0.1383644E-005  0.1564464E+03  0.7818608E-02  0.1304475E+00
          2   -1    0    0  502    0  0.00000000000E+00  0.00000000000E+00  0.75306348384E+03  0.75306348384E+03  0.00000000000E+00 0. -1.
          1   -1    0    0  501    0 -0.00000000000E+00 -0.00000000000E+00 -0.44358410141E+02  0.44358410141E+02  0.00000000000E+00 0.  1.
          2    1    1    2  501    0 -0.35846261951E+02  0.57919867099E+00  0.36338102371E+03  0.36514525652E+03  0.00000000000E+00 0. -1.
          1    1    1    2  502    0 -0.63249692201E+02  0.17650419208E+02  0.16141668261E+02  0.67621108509E+02  0.00000000000E+00 0.  1.
         22    1    1    2    0    0  0.97526192483E+02 -0.34787761578E+02  0.33201239554E+03  0.34778409591E+03  0.00000000000E+00 0. -1.
         22    1    1    2    0    0  0.15697616693E+01  0.16558143698E+02 -0.28300138195E+01  0.16871433035E+02  0.00000000000E+00 0.  1.
</event>
<event>
 6    1  0.1383644E-005  0.1914360E+03  0.7818608E-02  0.1204247E+00
          2   -1    0    0  502    0  0.00000000000E+00  0.00000000000E+00  0.10709571539E+03  0.10709571539E+03  0.00000000000E+00 0.  1.
          1   -1    0    0  501    0 -0.00000000000E+00 -0.00000000000E+00 -0.45963503852E+03  0.45963503852E+03  0.00000000000E+00 0.  1.
          2    1    1    2  501    0 -0.78087715071E+02 -0.74817508820E+02 -0.10448515102E+03  0.15037452462E+03  0.00000000000E+00 0.  1.
          1    1    1    2  502    0  0.15405383926E+03  0.62072262630E+02 -0.20689257548E+03  0.26531130576E+03  0.00000000000E+00 0.  1.
         22    1    1    2    0    0 -0.29130031994E+02 -0.34465998397E+02  0.29576055469E+02  0.53955600882E+02  0.00000000000E+00 0.  1.
         22    1    1    2    0    0 -0.46836092197E+02  0.47211244586E+02 -0.70737652095E+02  0.97089322645E+02  0.00000000000E+00 0. -1.
</event>
<event>
 6    1  0.1383644E-005  0.7073799E+02  0.7818608E-02  0.1369019E+00
          2   -1    0    0  502    0  0.00000000000E+00  0.00000000000E+00  0.99474326727E+02  0.99474326727E+02  0.00000000000E+00 0.  1.
          1   -1    0    0  501    0 -0.00000000000E+00 -0.00000000000E+00 -0.53495282196E+03  0.53495282196E+03  0.00000000000E+00 0.  1.
          2    1    1    2  501    0  0.19806130132E+02  0.71485295452E+02  0.38477584479E+02  0.83564075798E+02  0.00000000000E+00 0.  1.
          1    1    1    2  502    0  0.85638520578E+02 -0.68245866791E+02 -0.26762031878E+03  0.28915755146E+03  0.00000000000E+00 0.  1.
         22    1    1    2    0    0 -0.48947368189E+02  0.97739546718E+01 -0.27102332529E+01  0.49987202430E+02  0.00000000000E+00 0.  1.
         22    1    1    2    0    0 -0.56497282521E+02 -0.13013383333E+02 -0.20362552767E+03  0.21171831900E+03  0.00000000000E+00 0.  1.
</event>
<event>
 6    1  0.1383644E-005  0.6271217E+02  0.7818608E-02  0.1415811E+00
          2   -1    0    0  502    0  0.00000000000E+00  0.00000000000E+00  0.38548050239E+03  0.38548050239E+03  0.00000000000E+00 0.  1.
          1   -1    0    0  501    0 -0.00000000000E+00 -0.00000000000E+00 -0.69311112081E+02  0.69311112081E+02  0.00000000000E+00 0.  1.
          2    1    1    2  501    0 -0.22847003791E+02  0.41171168539E+02  0.27833705337E+03  0.28229163286E+03  0.00000000000E+00 0.  1.
          1    1    1    2  502    0  0.32742860968E+02 -0.21433708871E+02  0.16279930260E+02  0.42385551189E+02  0.00000000000E+00 0.  1.
         22    1    1    2    0    0 -0.55617186289E+01 -0.39247095441E+02 -0.45384367409E+02  0.60257846126E+02  0.00000000000E+00 0.  1.
         22    1    1    2    0    0 -0.43341385479E+01  0.19509635772E+02  0.66936774083E+02  0.69856584296E+02  0.00000000000E+00 0.  1.
</event>
<event>
 6    1  0.1383644E-005  0.8559984E+02  0.7818608E-02  0.1337999E+00
          2   -1    0    0  502    0  0.00000000000E+00  0.00000000000E+00  0.47884126357E+02  0.47884126357E+02  0.00000000000E+00 0.  1.
          1   -1    0    0  501    0 -0.00000000000E+00 -0.00000000000E+00 -0.44561678758E+03  0.44561678758E+03  0.00000000000E+00 0.  1.
          2    1    1    2  501    0 -0.21461633448E+02 -0.48955332232E+02  0.75877076806E+00  0.53458413718E+02  0.00000000000E+00 0.  1.
          1    1    1    2  502    0  0.46710478572E+02  0.40948470854E+00 -0.97414112527E+02  0.10803492864E+03  0.00000000000E+00 0.  1.
         22    1    1    2    0    0 -0.42171539913E+02 -0.46678944955E+01 -0.22768488232E+02  0.48152176213E+02  0.00000000000E+00 0.  1.
         22    1    1    2    0    0  0.16922694789E+02  0.53213742019E+02 -0.27830883124E+03  0.28385539537E+03  0.00000000000E+00 0.  1.
</event>
<event>
 6    1  0.1383644E-005  0.4165191E+02  0.7818608E-02  0.1557161E+00
          2   -1    0    0  502    0  0.00000000000E+00  0.00000000000E+00  0.20151157861E+03  0.20151157861E+03  0.00000000000E+00 0. -1.
          1   -1    0    0  501    0 -0.00000000000E+00 -0.00000000000E+00 -0.43570889015E+02  0.43570889015E+02  0.00000000000E+00 0. -1.
          2    1    1    2  501    0 -0.16192623535E+02  0.12498539188E+02  0.52093720429E+02  0.55965795330E+02  0.00000000000E+00 0. -1.
          1    1    1    2  502    0  0.23922890954E+02 -0.15669059743E+02  0.26987649407E+02  0.39321207577E+02  0.00000000000E+00 0. -1.
         22    1    1    2    0    0 -0.19248742074E+02  0.17789975875E+02  0.11023860414E+03  0.11331172559E+03  0.00000000000E+00 0. -1.
         22    1    1    2    0    0  0.11518474656E+02 -0.14619455320E+02 -0.31379284384E+02  0.36483739127E+02  0.00000000000E+00 0. -1.
</event>
<event>
 6    1  0.1383644E-005  0.5899563E+02  0.7818608E-02  0.1402256E+00
          2   -1    0    0  502    0  0.00000000000E+00  0.00000000000E+00  0.17964277858E+03  0.17964277858E+03  0.00000000000E+00 0.  1.
          1   -1    0    0  501    0 -0.00000000000E+00 -0.00000000000E+00 -0.67621398571E+02  0.67621398571E+02  0.00000000000E+00 0.  1.
          2    1    1    2  501    0  0.47275534367E+02 -0.66039243740E-01  0.46687142653E+02  0.66442981570E+02  0.00000000000E+00 0.  1.
          1    1    1    2  502    0 -0.22300232286E+02  0.31762311023E+02  0.27932461427E+02  0.47815971839E+02  0.00000000000E+00 0.  1.
         22    1    1    2    0    0  0.32871924683E+02 -0.19737692407E+02  0.58784558472E+02  0.70183789073E+02  0.00000000000E+00 0.  1.
         22    1    1    2    0    0 -0.57847226763E+02 -0.11958579373E+02 -0.21382782542E+02  0.62821434671E+02  0.00000000000E+00 0.  1.
</event>
<event>
 6    1  0.1383644E-005  0.3300099E+02  0.7818608E-02  0.1597462E+00
          2   -1    0    0  502    0  0.00000000000E+00  0.00000000000E+00  0.11308917626E+03  0.11308917626E+03  0.00000000000E+00 0.  1.
          1   -1    0    0  501    0 -0.00000000000E+00 -0.00000000000E+00 -0.13489630825E+03  0.13489630825E+03  0.00000000000E+00 0.  1.
          2    1    1    2  501    0 -0.46549994845E+02 -0.90983608006E+01  0.21741004802E+02  0.52176177314E+02  0.00000000000E+00 0.  1.
          1    1    1    2  502    0  0.23045670996E+02 -0.34983433279E+02 -0.50090662104E+02  0.65299448586E+02  0.00000000000E+00 0.  1.
         22    1    1    2    0    0  0.98216014048E+01  0.27764684626E+02 -0.56637928203E+02  0.63837265588E+02  0.00000000000E+00 0.  1.
         22    1    1    2    0    0  0.13682722445E+02  0.16317109454E+02  0.63180453512E+02  0.66672593023E+02  0.00000000000E+00 0.  1.
</event>
<event>
 6    1  0.1383644E-005  0.7632696E+02  0.7818608E-02  0.1379299E+00
          2   -1    0    0  502    0  0.00000000000E+00  0.00000000000E+00  0.36260506273E+02  0.36260506273E+02  0.00000000000E+00 0.  1.
          1   -1    0    0  501    0 -0.00000000000E+00 -0.00000000000E+00 -0.40617287380E+03  0.40617287380E+03  0.00000000000E+00 0.  1.
          2    1    1    2  501    0  0.11697575217E+02  0.29287766929E+02 -0.22156420695E+02  0.38542360276E+02  0.00000000000E+00 0.  1.
          1    1    1    2  502    0 -0.46177975166E+02 -0.59306039624E+02 -0.15052853085E+03  0.16825115252E+03  0.00000000000E+00 0.  1.
         22    1    1    2    0    0  0.36065209692E+02 -0.15569949270E+02 -0.18399779425E+03  0.18814438860E+03  0.00000000000E+00 0. -1.
         22    1    1    2    0    0 -0.15848097428E+01  0.45588221965E+02 -0.13229621736E+02  0.47495478681E+02  0.00000000000E+00 0.  1.
</event>
<event>
 6    1  0.1383644E-005  0.4127189E+02  0.7818608E-02  0.1574593E+00
          2   -1    0    0  502    0  0.00000000000E+00  0.00000000000E+00  0.44032151146E+03  0.44032151146E+03  0.00000000000E+00 0. -1.
          1   -1    0    0  501    0 -0.00000000000E+00 -0.00000000000E+00 -0.16157038528E+03  0.16157038528E+03  0.00000000000E+00 0.  1.
          2    1    1    2  501    0 -0.16491803497E+02 -0.40082943793E+02  0.38145142457E+03  0.38390599275E+03  0.00000000000E+00 0. -1.
          1    1    1    2  502    0 -0.30728818744E+02  0.16731584839E+02 -0.70792898957E+02  0.78967339928E+02  0.00000000000E+00 0.  1.
         22    1    1    2    0    0  0.42601504050E+02  0.86982988157E+01  0.43830143236E+02  0.61738399766E+02  0.00000000000E+00 0. -1.
         22    1    1    2    0    0  0.46191181906E+01  0.14653060138E+02 -0.75737542662E+02  0.77280164290E+02  0.00000000000E+00 0.  1.
</event>
<event>
 6    1  0.1383644E-005  0.4705495E+02  0.7818608E-02  0.1491271E+00
          2   -1    0    0  502    0  0.00000000000E+00  0.00000000000E+00  0.76408357657E+03  0.76408357657E+03  0.00000000000E+00 0. -1.
          1   -1    0    0  501    0 -0.00000000000E+00 -0.00000000000E+00 -0.23598783601E+03  0.23598783601E+03  0.00000000000E+00 0. -1.
          2    1    1    2  501    0  0.30346715223E+01  0.14738048069E+03  0.67803635384E+03  0.69387571830E+03  0.00000000000E+00 0. -1.
          1    1    1    2  502    0 -0.19493677708E+02 -0.13102034275E+03 -0.11712561165E+03  0.17681838872E+03  0.00000000000E+00 0. -1.
         22    1    1    2    0    0  0.13942372446E+01 -0.10553538199E+02  0.46874847438E+02  0.48068413624E+02  0.00000000000E+00 0. -1.
         22    1    1    2    0    0  0.15064768941E+02 -0.58065997353E+01 -0.79689849062E+02  0.81308891933E+02  0.00000000000E+00 0. -1.
</event>
<event>
 6    1  0.1383644E-005  0.3350248E+02  0.7818608E-02  0.1615609E+00
          2   -1    0    0  502    0  0.00000000000E+00  0.00000000000E+00  0.22089719339E+03  0.22089719339E+03  0.00000000000E+00 0. -1.
          1   -1    0    0  501    0 -0.00000000000E+00 -0.00000000000E+00 -0.10579389481E+03  0.10579389481E+03  0.00000000000E+00 0. -1.
          2    1    1    2  501    0  0.22006286603E+02  0.21274191918E+02  0.12187350710E+03  0.12565834483E+03  0.00000000000E+00 0. -1.
          1    1    1    2  502    0 -0.61670294921E+02 -0.51973956440E+01  0.23912685981E+02  0.66347982244E+02  0.00000000000E+00 0. -1.
         22    1    1    2    0    0  0.25771589756E+02 -0.11117651690E+02 -0.79172881710E+02  0.84000727472E+02  0.00000000000E+00 0. -1.
         22    1    1    2    0    0  0.13892418562E+02 -0.49591445843E+01  0.48489987203E+02  0.50684033654E+02  0.00000000000E+00 0.  1.
</event>
<event>
 6    1  0.1383644E-005  0.5630674E+02  0.7818608E-02  0.1507132E+00
          2   -1    0    0  502    0  0.00000000000E+00  0.00000000000E+00  0.14152768588E+03  0.14152768588E+03  0.00000000000E+00 0. -1.
          1   -1    0    0  501    0 -0.00000000000E+00 -0.00000000000E+00 -0.21580813163E+03  0.21580813163E+03  0.00000000000E+00 0. -1.
          2    1    1    2  501    0  0.66650707171E+01 -0.32658795446E+02  0.68541232607E+02  0.76216275525E+02  0.00000000000E+00 0. -1.
          1    1    1    2  502    0 -0.19547233418E+01  0.68272934910E+02 -0.13332616449E+03  0.14980280613E+03  0.00000000000E+00 0. -1.
         22    1    1    2    0    0  0.16156510183E+01 -0.14462509602E+02 -0.67605598244E+02  0.69154113588E+02  0.00000000000E+00 0. -1.
         22    1    1    2    0    0 -0.63259983935E+01 -0.21151629862E+02  0.58110084379E+02  0.62162622274E+02  0.00000000000E+00 0.  1.
</event>
<event>
 6    1  0.1383644E-005  0.1347728E+03  0.7818608E-02  0.1336541E+00
          2   -1    0    0  502    0  0.00000000000E+00  0.00000000000E+00  0.77208559767E+02  0.77208559767E+02  0.00000000000E+00 0.  1.
          1   -1    0    0  501    0 -0.00000000000E+00 -0.00000000000E+00 -0.13321805540E+04  0.13321805540E+04  0.00000000000E+00 0. -1.
          2    1    1    2  501    0  0.50666863805E+02 -0.10135977775E+02 -0.10869821915E+02  0.52801724989E+02  0.00000000000E+00 0.  1.
          1    1    1    2  502    0 -0.92315832078E+02  0.65758883613E+02 -0.12006939864E+04  0.12060317129E+04  0.00000000000E+00 0. -1.
         22    1    1    2    0    0  0.38140364195E+02 -0.69872058272E+02  0.22748780413E+02  0.82790693428E+02  0.00000000000E+00 0.  1.
         22    1    1    2    0    0  0.35086040779E+01  0.14249152433E+02 -0.66156966371E+02  0.67764982455E+02  0.00000000000E+00 0. -1.
</event>
<event>
 6    1  0.1383644E-005  0.5919563E+02  0.7818608E-02  0.1402098E+00
          2   -1    0    0  502    0  0.00000000000E+00  0.00000000000E+00  0.58379497184E+02  0.58379497184E+02  0.00000000000E+00 0.  1.
          1   -1    0    0  501    0 -0.00000000000E+00 -0.00000000000E+00 -0.30887040559E+03  0.30887040559E+03  0.00000000000E+00 0.  1.
          2    1    1    2  501    0 -0.25681267150E+02  0.53664450378E+01  0.94544966639E+01  0.27887519107E+02  0.00000000000E+00 0.  1.
          1    1    1    2  502    0  0.41007674539E+02 -0.16972579896E+01 -0.19380281514E+03  0.19810108837E+03  0.00000000000E+00 0.  1.
         22    1    1    2    0    0  0.15580401020E+02 -0.72434613231E+01 -0.96365835784E+02  0.97885601261E+02  0.00000000000E+00 0.  1.
         22    1    1    2    0    0 -0.30906808408E+02  0.35742742749E+01  0.30223245860E+02  0.43375694034E+02  0.00000000000E+00 0.  1.
</event>
<event>
 6    1  0.1383644E-005  0.1107052E+03  0.7818608E-02  0.1356116E+00
          2   -1    0    0  502    0  0.00000000000E+00  0.00000000000E+00  0.78687593455E+03  0.78687593455E+03  0.00000000000E+00 0.  1.
          1   -1    0    0  501    0 -0.00000000000E+00 -0.00000000000E+00 -0.49278351551E+02  0.49278351551E+02  0.00000000000E+00 0. -1.
          2    1    1    2  501    0 -0.19039059041E+02  0.41603153905E+02  0.58666239818E+03  0.58844377609E+03  0.00000000000E+00 0.  1.
          1    1    1    2  502    0 -0.20682203499E+02 -0.50390215524E+02  0.90897501420E+02  0.10596831190E+03  0.00000000000E+00 0. -1.
         22    1    1    2    0    0  0.35230012775E+02 -0.95957064387E+01  0.95116798561E+02  0.10188442840E+03  0.00000000000E+00 0. -1.
         22    1    1    2    0    0  0.44912497648E+01  0.18382768057E+02 -0.35079115160E+02  0.39857769711E+02  0.00000000000E+00 0. -1.
</event>
<event>
 6    1  0.1383644E-005  0.7703969E+02  0.7818608E-02  0.1458832E+00
          2   -1    0    0  502    0  0.00000000000E+00  0.00000000000E+00  0.62487074784E+03  0.62487074784E+03  0.00000000000E+00 0.  1.
          1   -1    0    0  501    0 -0.00000000000E+00 -0.00000000000E+00 -0.84080939251E+02  0.84080939251E+02  0.00000000000E+00 0.  1.
          2    1    1    2  501    0 -0.26515186141E+02 -0.65653493732E+01  0.45134284643E+03  0.45216868969E+03  0.00000000000E+00 0.  1.
          1    1    1    2  502    0  0.26440227897E+02  0.35984644329E+02 -0.50599372253E+02  0.67485381759E+02  0.00000000000E+00 0.  1.
         22    1    1    2    0    0  0.99307150310E+01 -0.34763672156E+02  0.16128167220E+03  0.16528433014E+03  0.00000000000E+00 0.  1.
         22    1    1    2    0    0 -0.98557567874E+01  0.53443772002E+01 -0.21235337791E+02  0.24013285502E+02  0.00000000000E+00 0.  1.
</event>
<event>
 6    1  0.1383644E-005  0.5373370E+02  0.7818608E-02  0.1512448E+00
          2   -1    0    0  502    0  0.00000000000E+00  0.00000000000E+00  0.11816818859E+03  0.11816818859E+03  0.00000000000E+00 0. -1.
          1   -1    0    0  501    0 -0.00000000000E+00 -0.00000000000E+00 -0.19228065861E+03  0.19228065861E+03  0.00000000000E+00 0. -1.
          2    1    1    2  501    0 -0.23367006946E+02  0.35646210821E+02  0.58843887107E+02  0.72658601757E+02  0.00000000000E+00 0. -1.
          1    1    1    2  502    0  0.29030407808E+02 -0.19838186261E+02 -0.10388320547E+03  0.10967241490E+03  0.00000000000E+00 0. -1.
         22    1    1    2    0    0 -0.15580032590E+02 -0.63185206883E-01  0.47149404330E+02  0.49656900190E+02  0.00000000000E+00 0.  1.
         22    1    1    2    0    0  0.99166317282E+01 -0.15744839353E+02 -0.76222555984E+02  0.78460930352E+02  0.00000000000E+00 0. -1.
</event>
<event>
 6    1  0.1383644E-005  0.7370401E+02  0.7818608E-02  0.1456277E+00
          2   -1    0    0  502    0  0.00000000000E+00  0.00000000000E+00  0.29625732301E+03  0.29625732301E+03  0.00000000000E+00 0. -1.
          1   -1    0    0  501    0 -0.00000000000E+00 -0.00000000000E+00 -0.10640680715E+03  0.10640680715E+03  0.00000000000E+00 0. -1.
          2    1    1    2  501    0  0.15361061538E+02  0.34128954414E+02  0.11517383095E+03  0.12110226702E+03  0.00000000000E+00 0. -1.
          1    1    1    2  502    0 -0.47254987145E+02 -0.69454991292E+02 -0.49521040240E+02  0.97515963062E+02  0.00000000000E+00 0. -1.
         22    1    1    2    0    0  0.21709732321E+02  0.26788362754E+02  0.15059505703E+03  0.15449207118E+03  0.00000000000E+00 0. -1.
         22    1    1    2    0    0  0.10184193286E+02  0.85376741241E+01 -0.26397331879E+02  0.29553828901E+02  0.00000000000E+00 0. -1.
</event>
<event>
 6    1  0.1383644E-005  0.4687200E+02  0.7818608E-02  0.1501731E+00
          2   -1    0    0  502    0  0.00000000000E+00  0.00000000000E+00  0.95327402482E+02  0.95327402482E+02  0.00000000000E+00 0.  1.
          1   -1    0    0  501    0 -0.00000000000E+00 -0.00000000000E+00 -0.22603230815E+03  0.22603230815E+03  0.00000000000E+00 0.  1.
          2    1    1    2  501    0 -0.37615626246E+02 -0.43973288800E+02 -0.78840568720E+02  0.97797856530E+02  0.00000000000E+00 0.  1.
          1    1    1    2  502    0  0.81737816739E+02  0.21475307244E+02 -0.32198360715E+02  0.90437790438E+02  0.00000000000E+00 0.  1.
         22    1    1    2    0    0 -0.27116439544E+02  0.14717911719E+02 -0.71579037480E+02  0.77945345118E+02  0.00000000000E+00 0.  1.
         22    1    1    2    0    0 -0.17005750949E+02  0.77800698366E+01  0.51913061249E+02  0.55178718545E+02  0.00000000000E+00 0.  1.
</event>
<event>
 6    1  0.1383644E-005  0.7614619E+02  0.7818608E-02  0.1356290E+00
          2   -1    0    0  502    0  0.00000000000E+00  0.00000000000E+00  0.13074902642E+03  0.13074902642E+03  0.00000000000E+00 0.  1.
          1   -1    0    0  501    0 -0.00000000000E+00 -0.00000000000E+00 -0.92355462989E+02  0.92355462989E+02  0.00000000000E+00 0.  1.
          2    1    1    2  501    0  0.34136149365E+02 -0.13876418116E+02 -0.51816736967E+01  0.37211307629E+02  0.00000000000E+00 0.  1.
          1    1    1    2  502    0  0.10633309697E+02 -0.26111514200E+02  0.38112446516E+02  0.47407141112E+02  0.00000000000E+00 0.  1.
         22    1    1    2    0    0  0.12133236860E+02  0.28860877253E+02  0.54299597813E+02  0.62678640662E+02  0.00000000000E+00 0.  1.
         22    1    1    2    0    0 -0.56902695922E+02  0.11127055063E+02 -0.48836807204E+02  0.75807400005E+02  0.00000000000E+00 0.  1.
</event>
<event>
 6    1  0.1383644E-005  0.1184217E+03  0.7818608E-02  0.1285007E+00
          2   -1    0    0  502    0  0.00000000000E+00  0.00000000000E+00  0.66109555753E+03  0.66109555753E+03  0.00000000000E+00 0. -1.
          1   -1    0    0  501    0 -0.00000000000E+00 -0.00000000000E+00 -0.83091207598E+02  0.83091207598E+02  0.00000000000E+00 0. -1.
          2    1    1    2  501    0  0.11504194564E+03 -0.20136222708E+02  0.42567604677E+03  0.44140708367E+03  0.00000000000E+00 0. -1.
          1    1    1    2  502    0 -0.96556105475E+02 -0.17598461400E+02  0.13506655881E+03  0.16696036253E+03  0.00000000000E+00 0. -1.
         22    1    1    2    0    0 -0.27911873561E+02  0.47475098582E+02 -0.45607648918E+02  0.71505351624E+02  0.00000000000E+00 0. -1.
         22    1    1    2    0    0  0.94260333973E+01 -0.97404144745E+01  0.62869393267E+02  0.64313967297E+02  0.00000000000E+00 0. -1.
</event>
<event>
 6    1  0.1383644E-005  0.9802850E+02  0.7818608E-02  0.1414136E+00
          2   -1    0    0  502    0  0.00000000000E+00  0.00000000000E+00  0.28186908321E+03  0.28186908321E+03  0.00000000000E+00 0.  1.
          1   -1    0    0  501    0 -0.00000000000E+00 -0.00000000000E+00 -0.11123211267E+03  0.11123211267E+03  0.00000000000E+00 0.  1.
          2    1    1    2  501    0  0.19530952890E+02 -0.75738916657E+02  0.15600108279E+03  0.17451125880E+03  0.00000000000E+00 0.  1.
          1    1    1    2  502    0 -0.32017048225E+02  0.84570141956E+02  0.12005884557E+02  0.91221387577E+02  0.00000000000E+00 0.  1.
         22    1    1    2    0    0  0.46058372987E+01  0.96036440553E+01 -0.60345780003E+02  0.61278518916E+02  0.00000000000E+00 0. -1.
         22    1    1    2    0    0  0.78802580365E+01 -0.18434869354E+02  0.62975783194E+02  0.66090030592E+02  0.00000000000E+00 0. -1.
</event>
<event>
 6    1  0.1383644E-005  0.1837854E+03  0.7818608E-02  0.1285329E+00
          2   -1    0    0  502    0  0.00000000000E+00  0.00000000000E+00  0.12886924417E+04  0.12886924417E+04  0.00000000000E+00 0.  1.
          1   -1    0    0  501    0 -0.00000000000E+00 -0.00000000000E+00 -0.31184660216E+02  0.31184660216E+02  0.00000000000E+00 0.  1.
          2    1    1    2  501    0  0.14830213866E+02  0.79884720154E+02  0.22740999586E+03  0.24148873674E+03  0.00000000000E+00 0.  1.
          1    1    1    2  502    0 -0.34998769629E+02 -0.16203938356E+03  0.47924113309E+03  0.50710328272E+03  0.00000000000E+00 0.  1.
         22    1    1    2    0    0 -0.13060616780E-01 -0.14643912224E+02  0.34834930365E+01  0.15052543291E+02  0.00000000000E+00 0.  1.
         22    1    1    2    0    0  0.20181616379E+02  0.96798575627E+02  0.54737315950E+03  0.55623253916E+03  0.00000000000E+00 0.  1.
</event>
<event>
 6    1  0.1383644E-005  0.1114350E+03  0.7818608E-02  0.1384591E+00
          2   -1    0    0  502    0  0.00000000000E+00  0.00000000000E+00  0.35756592062E+03  0.35756592062E+03  0.00000000000E+00 0. -1.
          1   -1    0    0  501    0 -0.00000000000E+00 -0.00000000000E+00 -0.90162717583E+02  0.90162717583E+02  0.00000000000E+00 0. -1.
          2    1    1    2  501    0  0.30647163335E+02 -0.43977974100E+02  0.16076198711E+03  0.16946305593E+03  0.00000000000E+00 0. -1.
          1    1    1    2  502    0 -0.82161736750E+02  0.79440801929E+02  0.33253597840E+02  0.11902602138E+03  0.00000000000E+00 0. -1.
         22    1    1    2    0    0  0.48387194767E+02 -0.24310808903E+02  0.10904387280E+03  0.12174934186E+03  0.00000000000E+00 0. -1.
         22    1    1    2    0    0  0.31273786476E+01 -0.11152018926E+02 -0.35656254711E+02  0.37490219035E+02  0.00000000000E+00 0.  1.
</event>
<event>
 6    1  0.1383644E-005  0.9596313E+02  0.7818608E-02  0.1378890E+00
          2   -1    0    0  502    0  0.00000000000E+00  0.00000000000E+00  0.82302896346E+02  0.82302896346E+02  0.00000000000E+00 0.  1.
          1   -1    0    0  501    0 -0.00000000000E+00 -0.00000000000E+00 -0.24571465208E+03  0.24571465208E+03  0.00000000000E+00 0.  1.
          2    1    1    2  501    0 -0.16050997699E+02 -0.11978794457E+02  0.73787478583E+01  0.21344131833E+02  0.00000000000E+00 0.  1.
          1    1    1    2  502    0  0.72635881372E+02 -0.73468542701E+01 -0.15205484358E+03  0.16867312468E+03  0.00000000000E+00 0.  1.
         22    1    1    2    0    0 -0.71979965074E+02  0.31932700645E+02  0.30848752185E+02  0.84572207337E+02  0.00000000000E+00 0.  1.
         22    1    1    2    0    0  0.15395081401E+02 -0.12607051918E+02 -0.49584412189E+02  0.53428084577E+02  0.00000000000E+00 0.  1.
</event>
<event>
 6    1  0.1383644E-005  0.6838404E+02  0.7818608E-02  0.1431090E+00
          2   -1    0    0  502    0  0.00000000000E+00  0.00000000000E+00  0.26971380242E+03  0.26971380242E+03  0.00000000000E+00 0. -1.
          1   -1    0    0  501    0 -0.00000000000E+00 -0.00000000000E+00 -0.14538530685E+03  0.14538530685E+03  0.00000000000E+00 0. -1.
          2    1    1    2  501    0  0.19683208301E+01 -0.42321092030E+02  0.13518011971E+03  0.14166373524E+03  0.00000000000E+00 0. -1.
          1    1    1    2  502    0  0.25972682346E+02  0.81391054273E+02 -0.81978075653E+02  0.11840392237E+03  0.00000000000E+00 0. -1.
         22    1    1    2    0    0 -0.16623825007E+02 -0.17683095516E+02  0.10812928980E+03  0.11081961351E+03  0.00000000000E+00 0.  1.
         22    1    1    2    0    0 -0.11317178169E+02 -0.21386866727E+02 -0.37002838297E+02  0.44211838145E+02  0.00000000000E+00 0. -1.
</event>
<event>
 6    1  0.1383644E-005  0.5481238E+02  0.7818608E-02  0.1429848E+00
          2   -1    0    0  502    0  0.00000000000E+00  0.00000000000E+00  0.73876474356E+02  0.73876474356E+02  0.00000000000E+00 0. -1.
          1   -1    0    0  501    0 -0.00000000000E+00 -0.00000000000E+00 -0.20127078109E+03  0.20127078109E+03  0.00000000000E+00 0. -1.
          2    1    1    2  501    0 -0.23215956805E+02  0.84231965667E+01  0.14911405062E+02  0.28849278877E+02  0.00000000000E+00 0. -1.
          1    1    1    2  502    0  0.38171115039E+02  0.26261050440E+01 -0.10797355770E+03  0.11455225713E+03  0.00000000000E+00 0. -1.
         22    1    1    2    0    0 -0.27468906839E+02 -0.39217304721E+02 -0.69871236702E+02  0.84702582905E+02  0.00000000000E+00 0. -1.
         22    1    1    2    0    0  0.12513748605E+02  0.28168003111E+02  0.35539082600E+02  0.47043136539E+02  0.00000000000E+00 0. -1.
</event>
<event>
 6    1  0.1383644E-005  0.6377127E+02  0.7818608E-02  0.1385734E+00
          2   -1    0    0  502    0  0.00000000000E+00  0.00000000000E+00  0.15917292464E+03  0.15917292464E+03  0.00000000000E+00 0. -1.
          1   -1    0    0  501    0 -0.00000000000E+00 -0.00000000000E+00 -0.17390742653E+03  0.17390742653E+03  0.00000000000E+00 0. -1.
          2    1    1    2  501    0 -0.29045144993E+02  0.69472204080E+02 -0.11546480661E+02  0.76179582586E+02  0.00000000000E+00 0. -1.
          1    1    1    2  502    0  0.46201068530E+02 -0.11198516228E+03 -0.30206076564E+02  0.12485039994E+03  0.00000000000E+00 0. -1.
         22    1    1    2    0    0  0.22927731972E+02  0.36810061450E+02  0.63937683686E+02  0.77257290351E+02  0.00000000000E+00 0. -1.
         22    1    1    2    0    0 -0.40083655509E+02  0.57028967531E+01 -0.36919628352E+02  0.54793078286E+02  0.00000000000E+00 0. -1.
</event>
<event>
 6    1  0.1383644E-005  0.4831732E+02  0.7818608E-02  0.1455996E+00
          2   -1    0    0  502    0  0.00000000000E+00  0.00000000000E+00  0.11686721548E+03  0.11686721548E+03  0.00000000000E+00 0.  1.
          1   -1    0    0  501    0 -0.00000000000E+00 -0.00000000000E+00 -0.13845757140E+03  0.13845757140E+03  0.00000000000E+00 0. -1.
          2    1    1    2  501    0 -0.44694124279E+01 -0.39740156744E+02  0.61829988263E+02  0.73635610638E+02  0.00000000000E+00 0.  1.
          1    1    1    2  502    0 -0.23926298871E+02  0.10201382007E+02 -0.30383518236E+02  0.39996176729E+02  0.00000000000E+00 0. -1.
         22    1    1    2    0    0  0.25036621836E+02  0.41888777855E+02 -0.90108274169E+02  0.10247440274E+03  0.00000000000E+00 0.  1.
         22    1    1    2    0    0  0.33590894630E+01 -0.12350003118E+02  0.37071448223E+02  0.39218596767E+02  0.00000000000E+00 0.  1.
</event>
<event>
 6    1  0.1383644E-005  0.2605981E+02  0.7818608E-02  0.1699664E+00
          2   -1    0    0  502    0  0.00000000000E+00  0.00000000000E+00  0.11787285373E+03  0.11787285373E+03  0.00000000000E+00 0.  1.
          1   -1    0    0  501    0 -0.00000000000E+00 -0.00000000000E+00 -0.14558546721E+03  0.14558546721E+03  0.00000000000E+00 0.  1.
          2    1    1    2  501    0 -0.24751377865E+02 -0.13378515929E+02  0.34601735946E+02  0.44597034937E+02  0.00000000000E+00 0.  1.
          1    1    1    2  502    0  0.25491774443E+01  0.39010372709E+02 -0.77468248497E+02  0.86773481028E+02  0.00000000000E+00 0.  1.
         22    1    1    2    0    0  0.78975346869E+01 -0.92981442442E+01 -0.56197329562E+02  0.57506229145E+02  0.00000000000E+00 0. -1.
         22    1    1    2    0    0  0.14304665734E+02 -0.16333712536E+02  0.71351228628E+02  0.74581575833E+02  0.00000000000E+00 0.  1.
</event>
<event>
 6    1  0.1383644E-005  0.3525544E+02  0.7818608E-02  0.1614159E+00
          2   -1    0    0  502    0  0.00000000000E+00  0.00000000000E+00  0.21024622678E+03  0.21024622678E+03  0.00000000000E+00 0. -1.
          1   -1    0    0  501    0 -0.00000000000E+00 -0.00000000000E+00 -0.17096892305E+03  0.17096892305E+03  0.00000000000E+00 0. -1.
          2    1    1    2  501    0 -0.27626849796E+02 -0.26672018506E+02  0.92213166674E+02  0.99889476467E+02  0.00000000000E+00 0. -1.
          1    1    1    2  502    0  0.22834327644E+00  0.37207515762E+02 -0.12709214377E+03  0.13242682650E+03  0.00000000000E+00 0. -1.
         22    1    1    2    0    0  0.37252813682E+02  0.11128026467E+01  0.10666451740E+03  0.11298818402E+03  0.00000000000E+00 0. -1.
         22    1    1    2    0    0 -0.98543071628E+01 -0.11648299903E+02 -0.32508236570E+02  0.35910662834E+02  0.00000000000E+00 0.  1.
</event>
<event>
 6    1  0.1383644E-005  0.2927062E+03  0.7818608E-02  0.1089637E+00
          2   -1    0    0  502    0  0.00000000000E+00  0.00000000000E+00  0.16373852595E+03  0.16373852595E+03  0.00000000000E+00 0.  1.
          1   -1    0    0  501    0 -0.00000000000E+00 -0.00000000000E+00 -0.65758752527E+03  0.65758752527E+03  0.00000000000E+00 0.  1.
          2    1    1    2  501    0  0.50834282798E+02 -0.19592326734E+03 -0.53658373784E+02  0.20940217781E+03  0.00000000000E+00 0.  1.
          1    1    1    2  502    0 -0.62408888950E+02  0.24268645718E+03 -0.39938972157E+03  0.47149097087E+03  0.00000000000E+00 0.  1.
         22    1    1    2    0    0 -0.63694238189E+01 -0.82607085895E+02  0.53379147662E+00  0.82853998897E+02  0.00000000000E+00 0.  1.
         22    1    1    2    0    0  0.17944029971E+02  0.35843896062E+02 -0.41334695440E+02  0.57578903634E+02  0.00000000000E+00 0. -1.
</event>
<event>
 6    1  0.1383644E-005  0.5923924E+02  0.7818608E-02  0.1401682E+00
          2   -1    0    0  502    0  0.00000000000E+00  0.00000000000E+00  0.10657611696E+03  0.10657611696E+03  0.00000000000E+00 0.  1.
          1   -1    0    0  501    0 -0.00000000000E+00 -0.00000000000E+00 -0.31029904658E+03  0.31029904658E+03  0.00000000000E+00 0.  1.
          2    1    1    2  501    0  0.59763915735E+01 -0.41457908267E+02  0.72751965995E+02  0.83948341082E+02  0.00000000000E+00 0.  1.
          1    1    1    2  502    0 -0.43601645728E+02  0.22933967923E+02 -0.12460109321E+03  0.13398695020E+03  0.00000000000E+00 0.  1.
         22    1    1    2    0    0 -0.12002995799E+02 -0.12735496722E+02  0.14375450397E+02  0.22647700966E+02  0.00000000000E+00 0.  1.
         22    1    1    2    0    0  0.49628249953E+02  0.31259437067E+02 -0.16624925281E+03  0.17629217129E+03  0.00000000000E+00 0.  1.
</event>
<event>
 6    1  0.1383644E-005  0.9797158E+02  0.7818608E-02  0.1324154E+00
          2   -1    0    0  502    0  0.00000000000E+00  0.00000000000E+00  0.19407691543E+03  0.19407691543E+03  0.00000000000E+00 0.  1.
          1   -1    0    0  501    0 -0.00000000000E+00 -0.00000000000E+00 -0.21608314860E+03  0.21608314860E+03  0.00000000000E+00 0.  1.
          2    1    1    2  501    0  0.13532382410E+02  0.84732955801E+02  0.12332255660E+03  0.15023731939E+03  0.00000000000E+00 0.  1.
          1    1    1    2  502    0  0.26136364598E+02 -0.74737732254E+02 -0.80317926278E+02  0.11278212384E+03  0.00000000000E+00 0.  1.
         22    1    1    2    0    0 -0.40323843779E+02 -0.25100992732E+02 -0.99074608753E+02  0.10987197237E+03  0.00000000000E+00 0.  1.
         22    1    1    2    0    0  0.65509677055E+00  0.15105769185E+02  0.34063745260E+02  0.37268648427E+02  0.00000000000E+00 0. -1.
</event>
<event>
 6    1  0.1383644E-005  0.7748680E+02  0.7818608E-02  0.1455407E+00
          2   -1    0    0  502    0  0.00000000000E+00  0.00000000000E+00  0.23027402283E+03  0.23027402283E+03  0.00000000000E+00 0. -1.
          1   -1    0    0  501    0 -0.00000000000E+00 -0.00000000000E+00 -0.82095327316E+02  0.82095327316E+02  0.00000000000E+00 0. -1.
          2    1    1    2  501    0  0.13994296853E+02  0.42492953777E+02  0.10730189378E+03  0.11625484022E+03  0.00000000000E+00 0. -1.
          1    1    1    2  502    0 -0.37676432422E+02 -0.47249116130E+02  0.12896487516E+02  0.61792490850E+02  0.00000000000E+00 0. -1.
         22    1    1    2    0    0 -0.97308338226E+01 -0.62830096294E+01 -0.48643830222E+02  0.50003875405E+02  0.00000000000E+00 0. -1.
         22    1    1    2    0    0  0.33412969392E+02  0.11039171983E+02  0.76624144435E+02  0.84318143670E+02  0.00000000000E+00 0. -1.
</event>
<event>
 6    1  0.1383644E-005  0.2072228E+03  0.7818608E-02  0.1242595E+00
          2   -1    0    0  502    0  0.00000000000E+00  0.00000000000E+00  0.42065441244E+03  0.42065441244E+03  0.00000000000E+00 0. -1.
          1   -1    0    0  501    0 -0.00000000000E+00 -0.00000000000E+00 -0.11607110787E+03  0.11607110787E+03  0.00000000000E+00 0. -1.
          2    1    1    2  501    0  0.10804523951E+02  0.75286742276E+02  0.10621290709E+03  0.13063695087E+03  0.00000000000E+00 0. -1.
          1    1    1    2  502    0 -0.81903876946E+02 -0.15151802848E+03  0.17374913086E+03  0.24465223989E+03  0.00000000000E+00 0. -1.
         22    1    1    2    0    0 -0.12595590209E+02 -0.19887809187E+02 -0.15066038463E+02  0.27949228289E+02  0.00000000000E+00 0.  1.
         22    1    1    2    0    0  0.83694943205E+02  0.96119095387E+02  0.39687305083E+02  0.13348710125E+03  0.00000000000E+00 0. -1.
</event>
<event>
 6    1  0.1383644E-005  0.5203576E+02  0.7818608E-02  0.1440769E+00
          2   -1    0    0  502    0  0.00000000000E+00  0.00000000000E+00  0.52052362280E+02  0.52052362280E+02  0.00000000000E+00 0. -1.
          1   -1    0    0  501    0 -0.00000000000E+00 -0.00000000000E+00 -0.33022651096E+03  0.33022651096E+03  0.00000000000E+00 0.  1.
          2    1    1    2  501    0  0.19551936717E+01 -0.20691684431E+02  0.10499450573E+02  0.23285339792E+02  0.00000000000E+00 0. -1.
          1    1    1    2  502    0  0.45791578752E+02  0.26449850201E+02 -0.18325256150E+03  0.19073008299E+03  0.00000000000E+00 0.  1.
         22    1    1    2    0    0  0.12816650574E+02 -0.23364471409E+02  0.16253053685E+02  0.31214208467E+02  0.00000000000E+00 0.  1.
         22    1    1    2    0    0 -0.60563422997E+02  0.17606305639E+02 -0.12167409143E+03  0.13704924199E+03  0.00000000000E+00 0.  1.
</event>
<event>
 6    1  0.1383644E-005  0.1016332E+03  0.7818608E-02  0.1304053E+00
          2   -1    0    0  502    0  0.00000000000E+00  0.00000000000E+00  0.26826857443E+03  0.26826857443E+03  0.00000000000E+00 0.  1.
          1   -1    0    0  501    0 -0.00000000000E+00 -0.00000000000E+00 -0.15414512065E+03  0.15414512065E+03  0.00000000000E+00 0.  1.
          2    1    1    2  501    0 -0.16214264830E+02  0.75225610861E+02  0.73193413742E+02  0.10620296949E+03  0.00000000000E+00 0.  1.
          1    1    1    2  502    0  0.74484760835E+02 -0.83547947982E+02  0.11276082175E+03  0.15888122020E+03  0.00000000000E+00 0.  1.
         22    1    1    2    0    0 -0.59620433974E+02 -0.13526939751E+02 -0.10268018623E+03  0.11950227986E+03  0.00000000000E+00 0.  1.
         22    1    1    2    0    0  0.13499379684E+01  0.21849276872E+02  0.30849404517E+02  0.37827225532E+02  0.00000000000E+00 0. -1.
</event>
<event>
 6    1  0.1383644E-005  0.2310112E+02  0.7818608E-02  0.1690276E+00
          2   -1    0    0  502    0  0.00000000000E+00  0.00000000000E+00  0.88695967506E+02  0.88695967506E+02  0.00000000000E+00 0.  1.
          1   -1    0    0  501    0 -0.00000000000E+00 -0.00000000000E+00 -0.15512411647E+03  0.15512411647E+03  0.00000000000E+00 0. -1.
          2    1    1    2  501    0  0.13141065868E+02 -0.25075648362E+02  0.32776631852E+02  0.43310314574E+02  0.00000000000E+00 0.  1.
          1    1    1    2  502    0  0.10737824405E+02  0.25707712948E+02 -0.64896879108E+02  0.70624303861E+02  0.00000000000E+00 0. -1.
         22    1    1    2    0    0 -0.11645339219E+02 -0.10768945841E+02  0.45669388847E+02  0.48345394793E+02  0.00000000000E+00 0.  1.
         22    1    1    2    0    0 -0.12233551054E+02  0.10136881255E+02 -0.79977290554E+02  0.81540070746E+02  0.00000000000E+00 0. -1.
</event>
<event>
 6    1  0.1383644E-005  0.6115585E+02  0.7818608E-02  0.1494267E+00
          2   -1    0    0  502    0  0.00000000000E+00  0.00000000000E+00  0.36407558353E+03  0.36407558353E+03  0.00000000000E+00 0.  1.
          1   -1    0    0  501    0 -0.00000000000E+00 -0.00000000000E+00 -0.35809296078E+02  0.35809296078E+02  0.00000000000E+00 0.  1.
          2    1    1    2  501    0 -0.32931685481E+02  0.87861044401E+00  0.12897772012E+03  0.13311844408E+03  0.00000000000E+00 0.  1.
          1    1    1    2  502    0  0.51430161860E+02  0.56335825959E+01  0.64102834340E+02  0.82377012402E+02  0.00000000000E+00 0.  1.
         22    1    1    2    0    0 -0.21512168412E+02 -0.19725171315E+02  0.15646341457E+03  0.15916235696E+03  0.00000000000E+00 0.  1.
         22    1    1    2    0    0  0.30136920334E+01  0.13212978275E+02 -0.21277681579E+02  0.25227066177E+02  0.00000000000E+00 0.  1.
</event>
<event>
 6    1  0.1383644E-005  0.3592640E+02  0.7818608E-02  0.1573730E+00
          2   -1    0    0  502    0  0.00000000000E+00  0.00000000000E+00  0.41538513925E+03  0.41538513925E+03  0.00000000000E+00 0. -1.
          1   -1    0    0  501    0 -0.00000000000E+00 -0.00000000000E+00 -0.41825839840E+03  0.41825839840E+03  0.00000000000E+00 0.  1.
          2    1    1    2  501    0 -0.59603734371E+02  0.37288867874E+01  0.36692194192E+03  0.37175021346E+03  0.00000000000E+00 0. -1.
          1    1    1    2  502    0  0.85152442738E+02  0.13004531102E+02 -0.30811424501E+03  0.31992881132E+03  0.00000000000E+00 0.  1.
         22    1    1    2    0    0 -0.17577887884E+02 -0.71615425368E+01 -0.99941230064E+02  0.10172767225E+03  0.00000000000E+00 0.  1.
         22    1    1    2    0    0 -0.79708204831E+01 -0.95718753522E+01  0.38260274004E+02  0.40236840629E+02  0.00000000000E+00 0. -1.
</event>
<event>
 6    1  0.1383644E-005  0.7850764E+02  0.7818608E-02  0.1335111E+00
          2   -1    0    0  502    0  0.00000000000E+00  0.00000000000E+00  0.59312799439E+03  0.59312799439E+03  0.00000000000E+00 0. -1.
          1   -1    0    0  501    0 -0.00000000000E+00 -0.00000000000E+00 -0.15932954437E+03  0.15932954437E+03  0.00000000000E+00 0. -1.
          2    1    1    2  501    0 -0.62890475317E+02 -0.15542428750E+02  0.52082784385E+03  0.52484133021E+03  0.00000000000E+00 0. -1.
          1    1    1    2  502    0  0.42319489761E+02  0.28495735602E+02 -0.87114904385E+02  0.10095520159E+03  0.00000000000E+00 0. -1.
         22    1    1    2    0    0 -0.61213445690E+01 -0.88175920639E+01  0.59993027968E+02  0.60945747956E+02  0.00000000000E+00 0. -1.
         22    1    1    2    0    0  0.26692330125E+02 -0.41357147877E+01 -0.59907517409E+02  0.65715259007E+02  0.00000000000E+00 0. -1.
</event>
<event>
 6    1  0.1383644E-005  0.3987099E+02  0.7818608E-02  0.1577221E+00
          2   -1    0    0  502    0  0.00000000000E+00  0.00000000000E+00  0.20105445965E+03  0.20105445965E+03  0.00000000000E+00 0. -1.
          1   -1    0    0  501    0 -0.00000000000E+00 -0.00000000000E+00 -0.92470620009E+02  0.92470620009E+02  0.00000000000E+00 0. -1.
          2    1    1    2  501    0  0.45153827994E+02 -0.24987309482E+02 -0.18619947911E+02  0.54862886161E+02  0.00000000000E+00 0. -1.
          1    1    1    2  502    0  0.63636445979E+01  0.44085909225E+02 -0.81399960246E+01  0.45280491384E+02  0.00000000000E+00 0. -1.
         22    1    1    2    0    0 -0.16839414201E+02  0.15304157178E+01 -0.23804104488E+02  0.29198346415E+02  0.00000000000E+00 0.  1.
         22    1    1    2    0    0 -0.34678058391E+02 -0.20629015460E+02  0.15914788807E+03  0.16418335570E+03  0.00000000000E+00 0. -1.
</event>
<event>
 6    1  0.1383644E-005  0.1882579E+03  0.7818608E-02  0.1280627E+00
          2   -1    0    0  502    0  0.00000000000E+00  0.00000000000E+00  0.59418202256E+03  0.59418202256E+03  0.00000000000E+00 0. -1.
          1   -1    0    0  501    0 -0.00000000000E+00 -0.00000000000E+00 -0.11180384899E+04  0.11180384899E+04  0.00000000000E+00 0.  1.
          2    1    1    2  501    0  0.14817672123E+03 -0.99548227827E+02  0.50789592969E+03  0.53835347661E+03  0.00000000000E+00 0. -1.
          1    1    1    2  502    0 -0.14750146675E+03  0.89211782662E+02 -0.10300760713E+04  0.10444003722E+04  0.00000000000E+00 0.  1.
         22    1    1    2    0    0 -0.14444533973E+02  0.46588557446E+01 -0.63801106746E+02  0.65581481537E+02  0.00000000000E+00 0. -1.
         22    1    1    2    0    0  0.13769279492E+02  0.56775894208E+01  0.62124780988E+02  0.63885182102E+02  0.00000000000E+00 0. -1.
</event>
<event>
 6    1  0.1383644E-005  0.1259304E+03  0.7818608E-02  0.1321223E+00
          2   -1    0    0  502    0  0.00000000000E+00  0.00000000000E+00  0.50158837106E+03  0.50158837106E+03  0.00000000000E+00 0.  1.
          1   -1    0    0  501    0 -0.00000000000E+00 -0.00000000000E+00 -0.63412364111E+02  0.63412364111E+02  0.00000000000E+00 0. -1.
          2    1    1    2  501    0  0.87538965766E+02 -0.34447821559E+02  0.24276227546E+03  0.26035215637E+03  0.00000000000E+00 0.  1.
          1    1    1    2  502    0 -0.10457158579E+03  0.12794398796E+02  0.11242330279E+03  0.15407112710E+03  0.00000000000E+00 0. -1.
         22    1    1    2    0    0 -0.21160450950E+02  0.10366497103E+02 -0.25672046085E+02  0.34846562195E+02  0.00000000000E+00 0. -1.
         22    1    1    2    0    0  0.38193070974E+02  0.11286925660E+02  0.10866247478E+03  0.11573088951E+03  0.00000000000E+00 0.  1.
</event>
<event>
 6    1  0.1383644E-005  0.8783682E+02  0.7818608E-02  0.1359352E+00
          2   -1    0    0  502    0  0.00000000000E+00  0.00000000000E+00  0.26371865049E+03  0.26371865049E+03  0.00000000000E+00 0.  1.
          1   -1    0    0  501    0 -0.00000000000E+00 -0.00000000000E+00 -0.19286483001E+03  0.19286483001E+03  0.00000000000E+00 0. -1.
          2    1    1    2  501    0 -0.36127508132E+01 -0.74017261585E+02  0.19301015426E+03  0.20674749486E+03  0.00000000000E+00 0.  1.
          1    1    1    2  502    0  0.24357131477E+02  0.67028963197E+02 -0.10132355021E+03  0.12390566407E+03  0.00000000000E+00 0. -1.
         22    1    1    2    0    0 -0.31708544933E+02  0.16777284098E+02 -0.67806170830E+02  0.76711054524E+02  0.00000000000E+00 0. -1.
         22    1    1    2    0    0  0.10964164269E+02 -0.97889857102E+01  0.46973387256E+02  0.49219267057E+02  0.00000000000E+00 0.  1.
</event>
<event>
 6    1  0.1383644E-005  0.6138074E+02  0.7818608E-02  0.1471691E+00
          2   -1    0    0  502    0  0.00000000000E+00  0.00000000000E+00  0.11345203132E+03  0.11345203132E+03  0.00000000000E+00 0.  1.
          1   -1    0    0  501    0 -0.00000000000E+00 -0.00000000000E+00 -0.68119796504E+02  0.68119796504E+02  0.00000000000E+00 0.  1.
          2    1    1    2  501    0 -0.20195938867E+02 -0.16523380041E+02  0.45458443404E+01  0.26487029570E+02  0.00000000000E+00 0.  1.
          1    1    1    2  502    0  0.16293407243E+02  0.15980351409E+02  0.64743307654E+01  0.23722641287E+02  0.00000000000E+00 0.  1.
         22    1    1    2    0    0  0.16986459259E+02  0.71118686011E+01 -0.46092787522E+02  0.49635305325E+02  0.00000000000E+00 0.  1.
         22    1    1    2    0    0 -0.13083927636E+02 -0.65688399695E+01  0.80404847234E+02  0.81726851644E+02  0.00000000000E+00 0.  1.
</event>
<event>
 6    1  0.1383644E-005  0.6409562E+02  0.7818608E-02  0.1437768E+00
          2   -1    0    0  502    0  0.00000000000E+00  0.00000000000E+00  0.29292030697E+03  0.29292030697E+03  0.00000000000E+00 0. -1.
          1   -1    0    0  501    0 -0.00000000000E+00 -0.00000000000E+00 -0.83125740517E+02  0.83125740517E+02  0.00000000000E+00 0. -1.
          2    1    1    2  501    0  0.38261002944E+02 -0.71887064536E+02  0.67689492975E+02  0.10589391792E+03  0.00000000000E+00 0. -1.
          1    1    1    2  502    0 -0.59010238891E+02  0.56521739071E+01  0.10576953418E+03  0.12124912257E+03  0.00000000000E+00 0. -1.
         22    1    1    2    0    0  0.45630947265E+02  0.56905037363E+02  0.73280204288E+02  0.10339417279E+03  0.00000000000E+00 0. -1.
         22    1    1    2    0    0 -0.24881711318E+02  0.93298532652E+01 -0.36944664987E+02  0.45508834209E+02  0.00000000000E+00 0. -1.
</event>
<event>
 6    1  0.1383644E-005  0.4157811E+02  0.7818608E-02  0.1581574E+00
          2   -1    0    0  502    0  0.00000000000E+00  0.00000000000E+00  0.10122819440E+03  0.10122819440E+03  0.00000000000E+00 0. -1.
          1   -1    0    0  501    0 -0.00000000000E+00 -0.00000000000E+00 -0.14383782281E+03  0.14383782281E+03  0.00000000000E+00 0. -1.
          2    1    1    2  501    0 -0.46102330927E+01 -0.21427149863E+02  0.38083815651E+02  0.43940346095E+02  0.00000000000E+00 0. -1.
          1    1    1    2  502    0  0.11243195285E+02  0.29165508626E+02 -0.67208167507E+02  0.74121347217E+02  0.00000000000E+00 0. -1.
         22    1    1    2    0    0 -0.75391446395E+01  0.11538086119E+02 -0.67891822721E+02  0.69276732930E+02  0.00000000000E+00 0.  1.
         22    1    1    2    0    0  0.90618244684E+00 -0.19276444883E+02  0.54406546164E+02  0.57727590972E+02  0.00000000000E+00 0. -1.
</event>
<event>
 6    1  0.1383644E-005  0.1121480E+03  0.7818608E-02  0.1324070E+00
          2   -1    0    0  502    0  0.00000000000E+00  0.00000000000E+00  0.67560849725E+03  0.67560849725E+03  0.00000000000E+00 0. -1.
          1   -1    0    0  501    0 -0.00000000000E+00 -0.00000000000E+00 -0.20024335079E+03  0.20024335079E+03  0.00000000000E+00 0.  1.
          2    1    1    2  501    0 -0.72219992595E+02  0.57991168169E+02  0.54230561152E+03  0.55015823106E+03  0.00000000000E+00 0. -1.
          1    1    1    2  502    0  0.89802809921E+02 -0.28621231765E+02 -0.14652091569E+03  0.17421853608E+03  0.00000000000E+00 0.  1.
         22    1    1    2    0    0 -0.19887534072E+02  0.22602812927E+01  0.10742392255E+03  0.10927269567E+03  0.00000000000E+00 0. -1.
         22    1    1    2    0    0  0.23047167458E+01 -0.31630217697E+02 -0.27843471920E+02  0.42202385233E+02  0.00000000000E+00 0.  1.
</event>
<event>
 6    1  0.1383644E-005  0.1168853E+03  0.7818608E-02  0.1367862E+00
          2   -1    0    0  502    0  0.00000000000E+00  0.00000000000E+00  0.71113922654E+03  0.71113922654E+03  0.00000000000E+00 0.  1.
          1   -1    0    0  501    0 -0.00000000000E+00 -0.00000000000E+00 -0.66463665898E+02  0.66463665898E+02  0.00000000000E+00 0. -1.
          2    1    1    2  501    0 -0.37793990977E+02 -0.69427574855E+02  0.44119861436E+03  0.44822404132E+03  0.00000000000E+00 0.  1.
          1    1    1    2  502    0  0.71339461302E+02  0.79643302673E+02  0.25719997764E+02  0.10997223597E+03  0.00000000000E+00 0. -1.
         22    1    1    2    0    0 -0.25690247941E+01  0.12952849014E+02 -0.16614704393E+02  0.21223208713E+02  0.00000000000E+00 0. -1.
         22    1    1    2    0    0 -0.30976445531E+02 -0.23168576833E+02  0.19437165290E+03  0.19818340643E+03  0.00000000000E+00 0. -1.
</event>
<event>
 6    1  0.1383644E-005  0.7520917E+02  0.7818608E-02  0.1349065E+00
          2   -1    0    0  502    0  0.00000000000E+00  0.00000000000E+00  0.44715426335E+02  0.44715426335E+02  0.00000000000E+00 0. -1.
          1   -1    0    0  501    0 -0.00000000000E+00 -0.00000000000E+00 -0.45631520628E+03  0.45631520628E+03  0.00000000000E+00 0. -1.
          2    1    1    2  501    0 -0.42679364892E+02 -0.50914479501E+01 -0.16031201713E+03  0.16597407588E+03  0.00000000000E+00 0. -1.
          1    1    1    2  502    0  0.36980043660E+02 -0.27385168946E+02  0.65713145996E+01  0.46482827828E+02  0.00000000000E+00 0. -1.
         22    1    1    2    0    0  0.94299933609E+01 -0.35456995412E+02 -0.18612528398E+03  0.18970699681E+03  0.00000000000E+00 0. -1.
         22    1    1    2    0    0 -0.37306721294E+01  0.67933612308E+02 -0.71733793430E+02  0.98866732097E+02  0.00000000000E+00 0. -1.
</event>
<event>
 6    1  0.1383644E-005  0.7298481E+02  0.7818608E-02  0.1356665E+00
          2   -1    0    0  502    0  0.00000000000E+00  0.00000000000E+00  0.14117767483E+03  0.14117767483E+03  0.00000000000E+00 0. -1.
          1   -1    0    0  501    0 -0.00000000000E+00 -0.00000000000E+00 -0.43160651804E+03  0.43160651804E+03  0.00000000000E+00 0.  1.
          2    1    1    2  501    0 -0.60765028867E+02 -0.15157256646E+01  0.92360434394E+02  0.11056733694E+03  0.00000000000E+00 0. -1.
          1    1    1    2  502    0  0.20805845710E+02 -0.70349404239E+02 -0.25068995420E+03  0.26120370409E+03  0.00000000000E+00 0.  1.
         22    1    1    2    0    0 -0.15116735592E+02  0.56852270881E+01  0.20320077348E+02  0.25956560740E+02  0.00000000000E+00 0. -1.
         22    1    1    2    0    0  0.55075918749E+02  0.66179902815E+02 -0.15241940075E+03  0.17505659110E+03  0.00000000000E+00 0.  1.
</event>
<event>
 6    1  0.1383644E-005  0.6884943E+02  0.7818608E-02  0.1419291E+00
          2   -1    0    0  502    0  0.00000000000E+00  0.00000000000E+00  0.13372637973E+03  0.13372637973E+03  0.00000000000E+00 0. -1.
          1   -1    0    0  501    0 -0.00000000000E+00 -0.00000000000E+00 -0.14809127973E+03  0.14809127973E+03  0.00000000000E+00 0. -1.
          2    1    1    2  501    0 -0.43139933299E+02 -0.33904488542E+02  0.70435537919E+02  0.89284563001E+02  0.00000000000E+00 0. -1.
          1    1    1    2  502    0  0.43436448087E+02  0.20974710492E+02 -0.40036568889E+02  0.62686444716E+02  0.00000000000E+00 0. -1.
         22    1    1    2    0    0 -0.50859769073E+01 -0.15052184360E+02  0.38621123435E+02  0.41761544397E+02  0.00000000000E+00 0.  1.
         22    1    1    2    0    0  0.47894621197E+01  0.27981962409E+02 -0.83384992460E+02  0.88085107341E+02  0.00000000000E+00 0. -1.
</event>
<event>
 6    1  0.1383644E-005  0.6596457E+02  0.7818608E-02  0.1435059E+00
          2   -1    0    0  502    0  0.00000000000E+00  0.00000000000E+00  0.41121822922E+03  0.41121822922E+03  0.00000000000E+00 0. -1.
          1   -1    0    0  501    0 -0.00000000000E+00 -0.00000000000E+00 -0.10966022982E+03  0.10966022982E+03  0.00000000000E+00 0.  1.
          2    1    1    2  501    0 -0.25065445491E+02 -0.41038566857E+02  0.34151516942E+03  0.34488411311E+03  0.00000000000E+00 0. -1.
          1    1    1    2  502    0  0.12288266395E+02  0.45068373673E+02 -0.22040557303E+02  0.51652163195E+02  0.00000000000E+00 0.  1.
         22    1    1    2    0    0  0.24683944036E+02  0.59479543538E+01 -0.67640052877E+02  0.72248543288E+02  0.00000000000E+00 0.  1.
         22    1    1    2    0    0 -0.11906764939E+02 -0.99777611695E+01  0.49723440164E+02  0.52093639448E+02  0.00000000000E+00 0.  1.
</event>
<event>
 6    1  0.1383644E-005  0.5826553E+02  0.7818608E-02  0.1520916E+00
          2   -1    0    0  502    0  0.00000000000E+00  0.00000000000E+00  0.41076566794E+03  0.41076566794E+03  0.00000000000E+00 0.  1.
          1   -1    0    0  501    0 -0.00000000000E+00 -0.00000000000E+00 -0.36541812815E+02  0.36541812815E+02  0.00000000000E+00 0.  1.
          2    1    1    2  501    0 -0.50108160947E+02 -0.21907366252E+02  0.72550865946E+02  0.90853666074E+02  0.00000000000E+00 0.  1.
          1    1    1    2  502    0 -0.21137317590E+02  0.23814267824E+02  0.18064059794E+02  0.36608957963E+02  0.00000000000E+00 0.  1.
         22    1    1    2    0    0  0.10642512809E+02 -0.23835433798E+01 -0.13079428168E+02  0.17029850238E+02  0.00000000000E+00 0. -1.
         22    1    1    2    0    0  0.60602965727E+02  0.47664180689E+00  0.29668835755E+03  0.30281500648E+03  0.00000000000E+00 0.  1.
</event>
<event>
 6    1  0.1383644E-005  0.6134188E+02  0.7818608E-02  0.1473610E+00
          2   -1    0    0  502    0  0.00000000000E+00  0.00000000000E+00  0.44073266881E+03  0.44073266881E+03  0.00000000000E+00 0. -1.
          1   -1    0    0  501    0 -0.00000000000E+00 -0.00000000000E+00 -0.33539325695E+02  0.33539325695E+02  0.00000000000E+00 0. -1.
          2    1    1    2  501    0  0.68257274734E+01  0.25218878789E+02  0.17390601942E+03  0.17585757304E+03  0.00000000000E+00 0. -1.
          1    1    1    2  502    0  0.33761396308E+02 -0.41352207556E+02  0.56042374678E+02  0.77398867627E+02  0.00000000000E+00 0. -1.
         22    1    1    2    0    0 -0.15603508290E+02 -0.88768325093E+01 -0.16312578960E+02  0.24256295238E+02  0.00000000000E+00 0. -1.
         22    1    1    2    0    0 -0.24983615492E+02  0.25010161277E+02  0.19355752797E+03  0.19675925860E+03  0.00000000000E+00 0. -1.
</event>
<event>
 6    1  0.1383644E-005  0.9415105E+02  0.7818608E-02  0.1321213E+00
          2   -1    0    0  502    0  0.00000000000E+00  0.00000000000E+00  0.34210997890E+02  0.34210997890E+02  0.00000000000E+00 0. -1.
          1   -1    0    0  501    0 -0.00000000000E+00 -0.00000000000E+00 -0.12961274493E+04  0.12961274493E+04  0.00000000000E+00 0.  1.
          2    1    1    2  501    0 -0.59495406785E+02  0.23066998866E+02 -0.37446864836E+02  0.73986874182E+02  0.00000000000E+00 0. -1.
          1    1    1    2  502    0  0.37182028137E+02 -0.32203773527E+02 -0.96294478725E+03  0.96420031608E+03  0.00000000000E+00 0.  1.
         22    1    1    2    0    0  0.55855593685E+02  0.77667817008E+01 -0.25057207663E+03  0.25683951376E+03  0.00000000000E+00 0.  1.
         22    1    1    2    0    0 -0.33542215036E+02  0.13699929610E+01 -0.10952722690E+02  0.35311743154E+02  0.00000000000E+00 0.  1.
</event>
<event>
 6    1  0.1383644E-005  0.4530456E+02  0.7818608E-02  0.1557599E+00
          2   -1    0    0  502    0  0.00000000000E+00  0.00000000000E+00  0.17063604025E+03  0.17063604025E+03  0.00000000000E+00 0.  1.
          1   -1    0    0  501    0 -0.00000000000E+00 -0.00000000000E+00 -0.84930031527E+02  0.84930031527E+02  0.00000000000E+00 0.  1.
          2    1    1    2  501    0  0.14154735652E+01 -0.26978759820E+02  0.30740201871E+02  0.40924528805E+02  0.00000000000E+00 0.  1.
          1    1    1    2  502    0 -0.11701943645E+01  0.38849705671E+02  0.81016724315E+02  0.89857546173E+02  0.00000000000E+00 0.  1.
         22    1    1    2    0    0 -0.12150216986E+02  0.76970353629E+01 -0.72010619785E+02  0.73432972758E+02  0.00000000000E+00 0.  1.
         22    1    1    2    0    0  0.11904937786E+02 -0.19567981215E+02  0.45959702322E+02  0.51351024041E+02  0.00000000000E+00 0.  1.
</event>
<event>
 6    1  0.1383644E-005  0.7561091E+02  0.7818608E-02  0.1419668E+00
          2   -1    0    0  502    0  0.00000000000E+00  0.00000000000E+00  0.52780583554E+03  0.52780583554E+03  0.00000000000E+00 0.  1.
          1   -1    0    0  501    0 -0.00000000000E+00 -0.00000000000E+00 -0.10480096342E+03  0.10480096342E+03  0.00000000000E+00 0. -1.
          2    1    1    2  501    0  0.33347148571E+02 -0.98524202489E+02  0.29446395422E+03  0.31229484647E+03  0.00000000000E+00 0.  1.
          1    1    1    2  502    0  0.72722333732E+01  0.13929857087E+03  0.11749600617E+03  0.18237951828E+03  0.00000000000E+00 0. -1.
         22    1    1    2    0    0 -0.94777389052E+01 -0.89803231532E+01 -0.55977231280E+02  0.57479771750E+02  0.00000000000E+00 0. -1.
         22    1    1    2    0    0 -0.31141643039E+02 -0.31794045224E+02  0.67022143016E+02  0.80452662463E+02  0.00000000000E+00 0.  1.
</event>
<event>
 6    1  0.1383644E-005  0.2371181E+02  0.7818608E-02  0.1717412E+00
          2   -1    0    0  502    0  0.00000000000E+00  0.00000000000E+00  0.11322222074E+03  0.11322222074E+03  0.00000000000E+00 0.  1.
          1   -1    0    0  501    0 -0.00000000000E+00 -0.00000000000E+00 -0.82682373162E+02  0.82682373162E+02  0.00000000000E+00 0.  1.
          2    1    1    2  501    0  0.15808606366E+02  0.23006813877E+02  0.65335666321E+01  0.28669025322E+02  0.00000000000E+00 0.  1.
          1    1    1    2  502    0 -0.16805251883E+02 -0.29735743752E+02 -0.12311456520E+02  0.36307064175E+02  0.00000000000E+00 0.  1.
         22    1    1    2    0    0  0.52496918637E+01 -0.10530628587E+02 -0.45605468045E+02  0.47098960909E+02  0.00000000000E+00 0.  1.
         22    1    1    2    0    0 -0.42530463472E+01  0.17259558463E+02  0.81923205507E+02  0.83829543492E+02  0.00000000000E+00 0. -1.
</event>
<event>
 6    1  0.1383644E-005  0.5877816E+02  0.7818608E-02  0.1419511E+00
          2   -1    0    0  502    0  0.00000000000E+00  0.00000000000E+00  0.11864453680E+03  0.11864453680E+03  0.00000000000E+00 0.  1.
          1   -1    0    0  501    0 -0.00000000000E+00 -0.00000000000E+00 -0.22274409592E+03  0.22274409592E+03  0.00000000000E+00 0.  1.
          2    1    1    2  501    0  0.46816253382E+02  0.45423095287E+02  0.13951054010E+02  0.66705704960E+02  0.00000000000E+00 0.  1.
          1    1    1    2  502    0 -0.31098429111E+02 -0.85727684459E+02 -0.10869562357E+03  0.14188406098E+03  0.00000000000E+00 0.  1.
         22    1    1    2    0    0 -0.38977612894E+02  0.17905634424E+02 -0.59383056277E+02  0.73254443031E+02  0.00000000000E+00 0.  1.
         22    1    1    2    0    0  0.23259788623E+02  0.22398954748E+02  0.50028066715E+02  0.59544423751E+02  0.00000000000E+00 0.  1.
</event>
<event>
 6    1  0.1383644E-005  0.4787997E+02  0.7818608E-02  0.1528373E+00
          2   -1    0    0  502    0  0.00000000000E+00  0.00000000000E+00  0.65393558714E+03  0.65393558714E+03  0.00000000000E+00 0.  1.
          1   -1    0    0  501    0 -0.00000000000E+00 -0.00000000000E+00 -0.24199087873E+02  0.24199087873E+02  0.00000000000E+00 0.  1.
          2    1    1    2  501    0  0.20061647112E+02 -0.48082134074E+02  0.23672355728E+03  0.24238895163E+03  0.00000000000E+00 0.  1.
          1    1    1    2  502    0 -0.49807733445E+02  0.36013760782E+02  0.15795451074E+03  0.16949167750E+03  0.00000000000E+00 0.  1.
         22    1    1    2    0    0  0.42318602014E+02  0.38148470357E+01  0.24471813839E+03  0.24837951685E+03  0.00000000000E+00 0.  1.
         22    1    1    2    0    0 -0.12572515681E+02  0.82535262564E+01 -0.96597071422E+01  0.17874529037E+02  0.00000000000E+00 0.  1.
</event>
<event>
 6    1  0.1383644E-005  0.8237063E+02  0.7818608E-02  0.1367928E+00
          2   -1    0    0  502    0  0.00000000000E+00  0.00000000000E+00  0.38434104543E+03  0.38434104543E+03  0.00000000000E+00 0. -1.
          1   -1    0    0  501    0 -0.00000000000E+00 -0.00000000000E+00 -0.29030687820E+02  0.29030687820E+02  0.00000000000E+00 0. -1.
          2    1    1    2  501    0 -0.32883517259E+02  0.58847027739E+01  0.13470897999E+03  0.13878928173E+03  0.00000000000E+00 0. -1.
          1    1    1    2  502    0 -0.26632764519E+02 -0.16659618244E+01  0.35515031838E+02  0.44422933955E+02  0.00000000000E+00 0. -1.
         22    1    1    2    0    0  0.37746142230E+02 -0.34986283323E+02  0.18545827054E+03  0.19246709170E+03  0.00000000000E+00 0. -1.
         22    1    1    2    0    0  0.21770139549E+02  0.30767542373E+02 -0.37192475839E+00  0.37692425866E+02  0.00000000000E+00 0. -1.
</event>
<event>
 6    1  0.1383644E-005  0.4425769E+02  0.7818608E-02  0.1544121E+00
          2   -1    0    0  502    0  0.00000000000E+00  0.00000000000E+00  0.11864432170E+03  0.11864432170E+03  0.00000000000E+00 0.  1.
          1   -1    0    0  501    0 -0.00000000000E+00 -0.00000000000E+00 -0.10622485144E+03  0.10622485144E+03  0.00000000000E+00 0.  1.
          2    1    1    2  501    0 -0.21105878796E+02  0.58277490801E+01  0.62653541275E+02  0.66369322833E+02  0.00000000000E+00 0.  1.
          1    1    1    2  502    0  0.26852976888E+02 -0.55680893749E+01 -0.19314661451E+02  0.33543138404E+02  0.00000000000E+00 0.  1.
         22    1    1    2    0    0 -0.24079715493E+02  0.28551701669E+00  0.42735082319E+02  0.49053047602E+02  0.00000000000E+00 0.  1.
         22    1    1    2    0    0  0.18332617401E+02 -0.54517672187E+00 -0.73654491883E+02  0.75903664292E+02  0.00000000000E+00 0.  1.
</event>
<event>
 6    1  0.1383644E-005  0.1373740E+03  0.7818608E-02  0.1290876E+00
          2   -1    0    0  502    0  0.00000000000E+00  0.00000000000E+00  0.88178345341E+03  0.88178345341E+03  0.00000000000E+00 0.  1.
          1   -1    0    0  501    0 -0.00000000000E+00 -0.00000000000E+00 -0.57913008345E+02  0.57913008345E+02  0.00000000000E+00 0.  1.
          2    1    1    2  501    0 -0.46310112335E+02 -0.83990681431E+02  0.35701523087E+03  0.36967409450E+03  0.00000000000E+00 0.  1.
          1    1    1    2  502    0  0.83495792868E+02  0.13193422500E+03  0.36213335095E+03  0.39435865785E+03  0.00000000000E+00 0.  1.
         22    1    1    2    0    0 -0.12666888948E+02 -0.28944949502E+02 -0.26244991672E+02  0.41073833095E+02  0.00000000000E+00 0. -1.
         22    1    1    2    0    0 -0.24518791585E+02 -0.18998594066E+02  0.13096685491E+03  0.13458987630E+03  0.00000000000E+00 0.  1.
</event>
<event>
 6    1  0.1383644E-005  0.6866047E+02  0.7818608E-02  0.1443747E+00
          2   -1    0    0  502    0  0.00000000000E+00  0.00000000000E+00  0.10186542258E+03  0.10186542258E+03  0.00000000000E+00 0. -1.
          1   -1    0    0  501    0 -0.00000000000E+00 -0.00000000000E+00 -0.20468414884E+03  0.20468414884E+03  0.00000000000E+00 0. -1.
          2    1    1    2  501    0 -0.48912373848E+02 -0.16061034285E+02  0.32377889904E+02  0.60816978652E+02  0.00000000000E+00 0. -1.
          1    1    1    2  502    0  0.47199009384E+02  0.11919910911E+02 -0.10974084756E+03  0.12005367294E+03  0.00000000000E+00 0. -1.
         22    1    1    2    0    0  0.21101129552E+02  0.26357524334E+00 -0.72042794945E+02  0.75069910375E+02  0.00000000000E+00 0. -1.
         22    1    1    2    0    0 -0.19387765088E+02  0.38775481306E+01  0.46587026340E+02  0.50609009453E+02  0.00000000000E+00 0. -1.
</event>
<event>
 6    1  0.1383644E-005  0.2466030E+02  0.7818608E-02  0.1682230E+00
          2   -1    0    0  502    0  0.00000000000E+00  0.00000000000E+00  0.12461661523E+03  0.12461661523E+03  0.00000000000E+00 0.  1.
          1   -1    0    0  501    0 -0.00000000000E+00 -0.00000000000E+00 -0.11920638749E+03  0.11920638749E+03  0.00000000000E+00 0.  1.
          2    1    1    2  501    0 -0.39026572843E+01  0.28925330969E+02  0.35760419783E+02  0.46159648272E+02  0.00000000000E+00 0.  1.
          1    1    1    2  502    0  0.58179660585E+01 -0.48235377175E+02 -0.52358767369E+02  0.71427871736E+02  0.00000000000E+00 0.  1.
         22    1    1    2    0    0  0.87712371777E+01  0.12422125120E+02  0.72546350873E+02  0.74122984419E+02  0.00000000000E+00 0.  1.
         22    1    1    2    0    0 -0.10686545952E+02  0.68879210861E+01 -0.50537775550E+02  0.52112498298E+02  0.00000000000E+00 0.  1.
</event>
<event>
 6    1  0.1383644E-005  0.6842518E+02  0.7818608E-02  0.1453018E+00
          2   -1    0    0  502    0  0.00000000000E+00  0.00000000000E+00  0.88631977804E+02  0.88631977804E+02  0.00000000000E+00 0. -1.
          1   -1    0    0  501    0 -0.00000000000E+00 -0.00000000000E+00 -0.22436431603E+03  0.22436431603E+03  0.00000000000E+00 0. -1.
          2    1    1    2  501    0  0.47458707990E+02  0.25981433274E+01  0.32960712963E+02  0.57840192875E+02  0.00000000000E+00 0. -1.
          1    1    1    2  502    0 -0.50600898701E+02 -0.71780984443E+00 -0.10635238431E+03  0.11777858824E+03  0.00000000000E+00 0. -1.
         22    1    1    2    0    0 -0.14894167147E+02 -0.90348127086E+01 -0.96517362949E+02  0.98076834199E+02  0.00000000000E+00 0. -1.
         22    1    1    2    0    0  0.18036357858E+02  0.71544792256E+01  0.34176696069E+02  0.39300678518E+02  0.00000000000E+00 0. -1.
</event>
<event>
 6    1  0.1383644E-005  0.6708027E+02  0.7818608E-02  0.1474590E+00
          2   -1    0    0  502    0  0.00000000000E+00  0.00000000000E+00  0.92229781831E+02  0.92229781831E+02  0.00000000000E+00 0.  1.
          1   -1    0    0  501    0 -0.00000000000E+00 -0.00000000000E+00 -0.13342911565E+03  0.13342911565E+03  0.00000000000E+00 0. -1.
          2    1    1    2  501    0  0.20071440070E+02  0.71209045092E+01  0.74499519764E+01  0.22562618907E+02  0.00000000000E+00 0.  1.
          1    1    1    2  502    0 -0.44498031675E+02  0.12357536991E+02 -0.57858264472E+02  0.74029469208E+02  0.00000000000E+00 0. -1.
         22    1    1    2    0    0 -0.97444029421E+00  0.13502144521E+02 -0.52729242257E+02  0.54439236123E+02  0.00000000000E+00 0. -1.
         22    1    1    2    0    0  0.25401031900E+02 -0.32980586022E+02  0.61938220933E+02  0.74627573244E+02  0.00000000000E+00 0.  1.
</event>
<event>
 6    1  0.1383644E-005  0.4362895E+02  0.7818608E-02  0.1520630E+00
          2   -1    0    0  502    0  0.00000000000E+00  0.00000000000E+00  0.23935028598E+03  0.23935028598E+03  0.00000000000E+00 0. -1.
          1   -1    0    0  501    0 -0.00000000000E+00 -0.00000000000E+00 -0.94083375575E+02  0.94083375575E+02  0.00000000000E+00 0.  1.
          2    1    1    2  501    0 -0.54787210257E+01 -0.31370248843E+02  0.15182011269E+03  0.15512400044E+03  0.00000000000E+00 0. -1.
          1    1    1    2  502    0  0.22097578337E+02  0.26692219619E+02  0.32151161648E+02  0.47270231138E+02  0.00000000000E+00 0.  1.
         22    1    1    2    0    0  0.51605610503E+00 -0.14977725862E+02  0.42861920440E+02  0.45406418155E+02  0.00000000000E+00 0. -1.
         22    1    1    2    0    0 -0.17134913417E+02  0.19655755086E+02 -0.81566284375E+02  0.85633011815E+02  0.00000000000E+00 0.  1.
</event>
<event>
 6    1  0.1383644E-005  0.4029632E+02  0.7818608E-02  0.1512780E+00
          2   -1    0    0  502    0  0.00000000000E+00  0.00000000000E+00  0.59235098332E+03  0.59235098332E+03  0.00000000000E+00 0. -1.
          1   -1    0    0  501    0 -0.00000000000E+00 -0.00000000000E+00 -0.43197911696E+02  0.43197911696E+02  0.00000000000E+00 0. -1.
          2    1    1    2  501    0  0.64741841118E+02 -0.52351190692E+02  0.38436895578E+03  0.39328316431E+03  0.00000000000E+00 0. -1.
          1    1    1    2  502    0 -0.20576530749E+02  0.33733176776E+02  0.55535046441E+02  0.68157627719E+02  0.00000000000E+00 0. -1.
         22    1    1    2    0    0 -0.14934820736E+02  0.22600903538E+02  0.13331309716E+03  0.13603761092E+03  0.00000000000E+00 0.  1.
         22    1    1    2    0    0 -0.29230489633E+02 -0.39828896226E+01 -0.24064027761E+02  0.38070492064E+02  0.00000000000E+00 0. -1.
</event>
<event>
 6    1  0.1383644E-005  0.1009610E+03  0.7818608E-02  0.1279093E+00
          2   -1    0    0  502    0  0.00000000000E+00  0.00000000000E+00  0.12181036271E+03  0.12181036271E+03  0.00000000000E+00 0. -1.
          1   -1    0    0  501    0 -0.00000000000E+00 -0.00000000000E+00 -0.20442345541E+03  0.20442345541E+03  0.00000000000E+00 0.  1.
          2    1    1    2  501    0  0.50068626396E+02  0.45542303154E+02  0.49809962140E+02  0.84035712969E+02  0.00000000000E+00 0. -1.
          1    1    1    2  502    0 -0.58792271968E+02 -0.34712550529E+02 -0.85623478012E+02  0.10951197375E+03  0.00000000000E+00 0.  1.
         22    1    1    2    0    0 -0.21808204032E+02 -0.15105250666E+02 -0.81829156046E+02  0.86021957313E+02  0.00000000000E+00 0.  1.
         22    1    1    2    0    0  0.30531849603E+02  0.42754980407E+01  0.35029579219E+02  0.46664174095E+02  0.00000000000E+00 0. -1.
</event>
<event>
 6    1  0.1383644E-005  0.2169375E+03  0.7818608E-02  0.1275144E+00
          2   -1    0    0  502    0  0.00000000000E+00  0.00000000000E+00  0.11444721598E+03  0.11444721598E+03  0.00000000000E+00 0. -1.
          1   -1    0    0  501    0 -0.00000000000E+00 -0.00000000000E+00 -0.51017450405E+03  0.51017450405E+03  0.00000000000E+00 0. -1.
          2    1    1    2  501    0 -0.44587716291E+02 -0.63519139992E+02 -0.77226608230E+02  0.10948376413E+03  0.00000000000E+00 0. -1.
          1    1    1    2  502    0  0.10528771929E+03  0.15288562208E+03 -0.29592756721E+03  0.34933170813E+03  0.00000000000E+00 0. -1.
         22    1    1    2    0    0 -0.85917670101E+01  0.65565864488E+01 -0.51705578839E+02  0.52823045816E+02  0.00000000000E+00 0. -1.
         22    1    1    2    0    0 -0.52108235989E+02 -0.95923068533E+02  0.29132466213E+02  0.11298320195E+03  0.00000000000E+00 0. -1.
</event>
<event>
 6    1  0.1383644E-005  0.2125558E+03  0.7818608E-02  0.1277557E+00
          2   -1    0    0  502    0  0.00000000000E+00  0.00000000000E+00  0.44667946443E+03  0.44667946443E+03  0.00000000000E+00 0. -1.
          1   -1    0    0  501    0 -0.00000000000E+00 -0.00000000000E+00 -0.10255265455E+03  0.10255265455E+03  0.00000000000E+00 0. -1.
          2    1    1    2  501    0 -0.18162893403E+02 -0.72152873751E+02  0.58414122958E+02  0.94594596296E+02  0.00000000000E+00 0. -1.
          1    1    1    2  502    0 -0.11326349204E+03  0.89678464422E+02  0.38998972672E+02  0.14963878334E+03  0.00000000000E+00 0. -1.
         22    1    1    2    0    0  0.10917580170E+02 -0.10837753083E+01 -0.13718416921E+02  0.17565963921E+02  0.00000000000E+00 0. -1.
         22    1    1    2    0    0  0.12050880528E+03 -0.16441815363E+02  0.26043213117E+03  0.28743277542E+03  0.00000000000E+00 0. -1.
</event>
<event>
 6    1  0.1383644E-005  0.4449916E+02  0.7818608E-02  0.1543402E+00
          2   -1    0    0  502    0  0.00000000000E+00  0.00000000000E+00  0.26283728505E+03  0.26283728505E+03  0.00000000000E+00 0. -1.
          1   -1    0    0  501    0 -0.00000000000E+00 -0.00000000000E+00 -0.74659730597E+02  0.74659730597E+02  0.00000000000E+00 0. -1.
          2    1    1    2  501    0 -0.14997568317E+02 -0.52732006007E+02  0.73400364851E+02  0.91614437035E+02  0.00000000000E+00 0. -1.
          1    1    1    2  502    0  0.39682418064E+02  0.59102213833E+02 -0.55966568808E+01  0.71407902585E+02  0.00000000000E+00 0. -1.
         22    1    1    2    0    0 -0.20945123217E+01  0.11547476745E+02 -0.24284046526E+02  0.26971209033E+02  0.00000000000E+00 0.  1.
         22    1    1    2    0    0 -0.22590337425E+02 -0.17917684572E+02  0.14465789301E+03  0.14750346699E+03  0.00000000000E+00 0. -1.
</event>
<event>
 6    1  0.1383644E-005  0.5200671E+02  0.7818608E-02  0.1484044E+00
          2   -1    0    0  502    0  0.00000000000E+00  0.00000000000E+00  0.24460296198E+03  0.24460296198E+03  0.00000000000E+00 0. -1.
          1   -1    0    0  501    0 -0.00000000000E+00 -0.00000000000E+00 -0.34591574276E+03  0.34591574276E+03  0.00000000000E+00 0.  1.
          2    1    1    2  501    0 -0.19543157520E+02 -0.57707900984E+01  0.18549561586E+03  0.18661152303E+03  0.00000000000E+00 0. -1.
          1    1    1    2  502    0  0.60293533024E+02 -0.15757884571E+02 -0.25780478532E+03  0.26522995378E+03  0.00000000000E+00 0.  1.
         22    1    1    2    0    0 -0.19575411718E+02  0.16207411189E+02 -0.79606670191E+02  0.83564937984E+02  0.00000000000E+00 0.  1.
         22    1    1    2    0    0 -0.21174963786E+02  0.53212634810E+01  0.50603058865E+02  0.55112289943E+02  0.00000000000E+00 0. -1.
</event>
<event>
 6    1  0.1383644E-005  0.1954572E+03  0.7818608E-02  0.1189029E+00
          2   -1    0    0  502    0  0.00000000000E+00  0.00000000000E+00  0.91770631140E+03  0.91770631140E+03  0.00000000000E+00 0.  1.
          1   -1    0    0  501    0 -0.00000000000E+00 -0.00000000000E+00 -0.46619959733E+03  0.46619959733E+03  0.00000000000E+00 0.  1.
          2    1    1    2  501    0 -0.85037946826E+02 -0.69601256115E+02  0.79414211358E+03  0.80170910174E+03  0.00000000000E+00 0.  1.
          1    1    1    2  502    0  0.13334244683E+03  0.12449332957E+03 -0.39117186540E+03  0.43161814780E+03  0.00000000000E+00 0.  1.
         22    1    1    2    0    0  0.40774814586E+01  0.14723770951E+02 -0.29754388403E+02  0.33447554699E+02  0.00000000000E+00 0. -1.
         22    1    1    2    0    0 -0.52381981461E+02 -0.69615844406E+02  0.78290854287E+02  0.11713110449E+03  0.00000000000E+00 0.  1.
</event>
<event>
 6    1  0.1383644E-005  0.1946256E+03  0.7818608E-02  0.1193593E+00
          2   -1    0    0  502    0  0.00000000000E+00  0.00000000000E+00  0.39352578747E+03  0.39352578747E+03  0.00000000000E+00 0. -1.
          1   -1    0    0  501    0 -0.00000000000E+00 -0.00000000000E+00 -0.13987051422E+03  0.13987051422E+03  0.00000000000E+00 0. -1.
          2    1    1    2  501    0 -0.86957363102E+02 -0.99940567038E+01  0.21693349716E+02  0.90177966205E+02  0.00000000000E+00 0. -1.
          1    1    1    2  502    0  0.10927624187E+03  0.14929259376E+03  0.13903322151E+03  0.23142992951E+03  0.00000000000E+00 0. -1.
         22    1    1    2    0    0 -0.66289840785E+02 -0.72707880361E+02  0.87726473644E+02  0.13182076102E+03  0.00000000000E+00 0.  1.
         22    1    1    2    0    0  0.43970962016E+02 -0.66590656698E+02  0.52022283778E+01  0.79967644958E+02  0.00000000000E+00 0. -1.
</event>
<event>
 6    1  0.1383644E-005  0.1366933E+03  0.7818608E-02  0.1219829E+00
          2   -1    0    0  502    0  0.00000000000E+00  0.00000000000E+00  0.29030349433E+03  0.29030349433E+03  0.00000000000E+00 0. -1.
          1   -1    0    0  501    0 -0.00000000000E+00 -0.00000000000E+00 -0.32582354981E+03  0.32582354981E+03  0.00000000000E+00 0.  1.
          2    1    1    2  501    0 -0.62084181882E+02 -0.84197556740E+02  0.19379192472E+03  0.22022484938E+03  0.00000000000E+00 0. -1.
          1    1    1    2  502    0  0.88796133217E+02  0.73361675889E+02 -0.23895790905E+03  0.26526886561E+03  0.00000000000E+00 0.  1.
         22    1    1    2    0    0  0.52435668413E+01  0.12018244291E+02 -0.56052624126E+02  0.57565874096E+02  0.00000000000E+00 0. -1.
         22    1    1    2    0    0 -0.31955518176E+02 -0.11823634397E+01  0.65698552979E+02  0.73067455059E+02  0.00000000000E+00 0. -1.
</event>
<event>
 6    1  0.1383644E-005  0.4276088E+02  0.7818608E-02  0.1572987E+00
          2   -1    0    0  502    0  0.00000000000E+00  0.00000000000E+00  0.14307044780E+03  0.14307044780E+03  0.00000000000E+00 0. -1.
          1   -1    0    0  501    0 -0.00000000000E+00 -0.00000000000E+00 -0.14374980216E+03  0.14374980216E+03  0.00000000000E+00 0. -1.
          2    1    1    2  501    0  0.13438996439E+02  0.22354871937E+02  0.85189210886E+02  0.89092921020E+02  0.00000000000E+00 0. -1.
          1    1    1    2  502    0 -0.20498366975E+02 -0.26272577826E+02 -0.56894432958E+02  0.65934876173E+02  0.00000000000E+00 0. -1.
         22    1    1    2    0    0  0.51767722848E+01 -0.13107872209E+02 -0.78309741957E+02  0.79567775956E+02  0.00000000000E+00 0.  1.
         22    1    1    2    0    0  0.18825982520E+01  0.17025578099E+02  0.49335609675E+02  0.52224676809E+02  0.00000000000E+00 0.  1.
</event>
<event>
 6    1  0.1383644E-005  0.2234545E+03  0.7818608E-02  0.1233481E+00
          2   -1    0    0  502    0  0.00000000000E+00  0.00000000000E+00  0.93359346837E+02  0.93359346837E+02  0.00000000000E+00 0. -1.
          1   -1    0    0  501    0 -0.00000000000E+00 -0.00000000000E+00 -0.51092303803E+03  0.51092303803E+03  0.00000000000E+00 0. -1.
          2    1    1    2  501    0 -0.81112416414E+02  0.12548990523E+02 -0.40725560228E+02  0.91625719727E+02  0.00000000000E+00 0. -1.
          1    1    1    2  502    0  0.11104434082E+03 -0.13320221397E+03 -0.20514347790E+03  0.26862152177E+03  0.00000000000E+00 0. -1.
         22    1    1    2    0    0 -0.25381972333E+01 -0.22462444286E+02 -0.47384740066E+02  0.52500642278E+02  0.00000000000E+00 0. -1.
         22    1    1    2    0    0 -0.27393727169E+02  0.14311566773E+03 -0.12430991300E+03  0.19153450109E+03  0.00000000000E+00 0. -1.
</event>
<event>
 6    1  0.1383644E-005  0.4599971E+02  0.7818608E-02  0.1557637E+00
          2   -1    0    0  502    0  0.00000000000E+00  0.00000000000E+00  0.15263063714E+03  0.15263063714E+03  0.00000000000E+00 0.  1.
          1   -1    0    0  501    0 -0.00000000000E+00 -0.00000000000E+00 -0.71872308355E+02  0.71872308355E+02  0.00000000000E+00 0. -1.
          2    1    1    2  501    0  0.18284429049E+02  0.89916817503E+01  0.43551698505E+02  0.48082440963E+02  0.00000000000E+00 0.  1.
          1    1    1    2  502    0 -0.31523522769E+02 -0.93335576018E+01 -0.18158330868E+02  0.37557592644E+02  0.00000000000E+00 0. -1.
         22    1    1    2    0    0  0.23624059188E+02 -0.86457992917E+01  0.94288859188E+02  0.97587063614E+02  0.00000000000E+00 0.  1.
         22    1    1    2    0    0 -0.10384965468E+02  0.89876751433E+01 -0.38923898038E+02  0.41275848274E+02  0.00000000000E+00 0. -1.
</event>
<event>
 6    1  0.1383644E-005  0.7963217E+02  0.7818608E-02  0.1399138E+00
          2   -1    0    0  502    0  0.00000000000E+00  0.00000000000E+00  0.65113977859E+03  0.65113977859E+03  0.00000000000E+00 0.  1.
          1   -1    0    0  501    0 -0.00000000000E+00 -0.00000000000E+00 -0.15475835882E+02  0.15475835882E+02  0.00000000000E+00 0. -1.
          2    1    1    2  501    0  0.19711047225E+02  0.84624458742E+01  0.94162676506E+02  0.96575090058E+02  0.00000000000E+00 0.  1.
          1    1    1    2  502    0  0.13308887096E+02 -0.36758021703E+02  0.16361006399E+03  0.16821572957E+03  0.00000000000E+00 0. -1.
         22    1    1    2    0    0 -0.48518654434E+02  0.48087581969E+02  0.36883088631E+03  0.37510358311E+03  0.00000000000E+00 0.  1.
         22    1    1    2    0    0  0.15498720113E+02 -0.19792006140E+02  0.90603158993E+01  0.26721211731E+02  0.00000000000E+00 0. -1.
</event>
<event>
 6    1  0.1383644E-005  0.2135173E+03  0.7818608E-02  0.1176278E+00
          2   -1    0    0  502    0  0.00000000000E+00  0.00000000000E+00  0.60627911573E+03  0.60627911573E+03  0.00000000000E+00 0.  1.
          1   -1    0    0  501    0 -0.00000000000E+00 -0.00000000000E+00 -0.17755196796E+03  0.17755196796E+03  0.00000000000E+00 0. -1.
          2    1    1    2  501    0  0.43028999657E+02  0.14451763081E+02  0.10688154136E+03  0.11612067926E+03  0.00000000000E+00 0.  1.
          1    1    1    2  502    0 -0.23649975031E+03  0.44827729879E+02 -0.30136174069E+02  0.24258987252E+03  0.00000000000E+00 0. -1.
         22    1    1    2    0    0  0.15642776190E+03 -0.51128728408E+02  0.16035849185E+03  0.22977954102E+03  0.00000000000E+00 0.  1.
         22    1    1    2    0    0  0.37042988752E+02 -0.81507645515E+01  0.19162328863E+03  0.19534099089E+03  0.00000000000E+00 0.  1.
</event>
<event>
 6    1  0.1383644E-005  0.4462954E+02  0.7818608E-02  0.1483183E+00
          2   -1    0    0  502    0  0.00000000000E+00  0.00000000000E+00  0.44679736932E+03  0.44679736932E+03  0.00000000000E+00 0. -1.
          1   -1    0    0  501    0 -0.00000000000E+00 -0.00000000000E+00 -0.91275373138E+02  0.91275373138E+02  0.00000000000E+00 0.  1.
          2    1    1    2  501    0  0.34300409229E+02 -0.26095516216E+02  0.32773475158E+03  0.33055644213E+03  0.00000000000E+00 0. -1.
          1    1    1    2  502    0 -0.63054626525E+02  0.48111923097E+02  0.63675464211E+01  0.79568767225E+02  0.00000000000E+00 0.  1.
         22    1    1    2    0    0 -0.14589875891E+01 -0.27579155495E+02 -0.46115704950E+02  0.53753108800E+02  0.00000000000E+00 0.  1.
         22    1    1    2    0    0  0.30213204885E+02  0.55627486136E+01  0.67535403131E+02  0.74194424303E+02  0.00000000000E+00 0. -1.
</event>
<event>
 6    1  0.1383644E-005  0.9518270E+02  0.7818608E-02  0.1367666E+00
          2   -1    0    0  502    0  0.00000000000E+00  0.00000000000E+00  0.30287617166E+03  0.30287617166E+03  0.00000000000E+00 0.  1.
          1   -1    0    0  501    0 -0.00000000000E+00 -0.00000000000E+00 -0.45102855475E+03  0.45102855475E+03  0.00000000000E+00 0. -1.
          2    1    1    2  501    0 -0.26837719867E+02  0.63608382787E+02  0.24899008232E+03  0.25838411457E+03  0.00000000000E+00 0.  1.
          1    1    1    2  502    0  0.24324763475E+02 -0.10903468301E+03 -0.32406447962E+03  0.34277987568E+03  0.00000000000E+00 0. -1.
         22    1    1    2    0    0 -0.20457895225E+01  0.21319723668E+02  0.35480922492E+02  0.41444079589E+02  0.00000000000E+00 0.  1.
         22    1    1    2    0    0  0.45587459141E+01  0.24106576552E+02 -0.10855890828E+03  0.11129665658E+03  0.00000000000E+00 0. -1.
</event>
<event>
 6    1  0.1383644E-005  0.2584268E+02  0.7818608E-02  0.1656808E+00
          2   -1    0    0  502    0  0.00000000000E+00  0.00000000000E+00  0.18908892941E+03  0.18908892941E+03  0.00000000000E+00 0. -1.
          1   -1    0    0  501    0 -0.00000000000E+00 -0.00000000000E+00 -0.11753040756E+03  0.11753040756E+03  0.00000000000E+00 0.  1.
          2    1    1    2  501    0 -0.33048787327E+02 -0.27653896115E+02  0.13636882688E+03  0.14301544413E+03  0.00000000000E+00 0. -1.
          1    1    1    2  502    0  0.22524589840E+02  0.72751123032E+01 -0.37863421311E+01  0.23971249305E+02  0.00000000000E+00 0.  1.
         22    1    1    2    0    0 -0.67724378514E+01  0.15132418545E+02  0.36689599315E+02  0.40261429475E+02  0.00000000000E+00 0.  1.
         22    1    1    2    0    0  0.17296635338E+02  0.52463652673E+01 -0.97713562218E+02  0.99371214061E+02  0.00000000000E+00 0.  1.
</event>
<event>
 6    1  0.1383644E-005  0.1381265E+03  0.7818608E-02  0.1317844E+00
          2   -1    0    0  502    0  0.00000000000E+00  0.00000000000E+00  0.10022097804E+03  0.10022097804E+03  0.00000000000E+00 0. -1.
          1   -1    0    0  501    0 -0.00000000000E+00 -0.00000000000E+00 -0.10377426797E+04  0.10377426797E+04  0.00000000000E+00 0.  1.
          2    1    1    2  501    0 -0.32687319663E+02 -0.75827407268E+02  0.68514242162E+01  0.82856493852E+02  0.00000000000E+00 0. -1.
          1    1    1    2  502    0  0.70450022305E+02  0.10339304928E+03 -0.91083456947E+03  0.91938726401E+03  0.00000000000E+00 0.  1.
         22    1    1    2    0    0 -0.26423554697E+02 -0.42771697732E+02  0.37161953968E+02  0.62519062632E+02  0.00000000000E+00 0. -1.
         22    1    1    2    0    0 -0.11339147944E+02  0.15206055721E+02 -0.70700510354E+02  0.73200837229E+02  0.00000000000E+00 0. -1.
</event>
<event>
 6    1  0.1383644E-005  0.1094213E+03  0.7818608E-02  0.1349084E+00
          2   -1    0    0  502    0  0.00000000000E+00  0.00000000000E+00  0.75052810412E+03  0.75052810412E+03  0.00000000000E+00 0.  1.
          1   -1    0    0  501    0 -0.00000000000E+00 -0.00000000000E+00 -0.53491161209E+02  0.53491161209E+02  0.00000000000E+00 0. -1.
          2    1    1    2  501    0  0.29327844649E+02  0.58289384680E+02  0.20736652045E+03  0.21739054405E+03  0.00000000000E+00 0.  1.
          1    1    1    2  502    0 -0.21528886199E+02 -0.11467358872E+03  0.40752759960E+03  0.42390124949E+03  0.00000000000E+00 0. -1.
         22    1    1    2    0    0 -0.33322513420E+01  0.34755572699E+02  0.11664713455E+03  0.12176045224E+03  0.00000000000E+00 0. -1.
         22    1    1    2    0    0 -0.44667071077E+01  0.21628631339E+02 -0.34504311679E+02  0.40967019545E+02  0.00000000000E+00 0. -1.
</event>
<event>
 6    1  0.1383644E-005  0.9519620E+02  0.7818608E-02  0.1414648E+00
          2   -1    0    0  502    0  0.00000000000E+00  0.00000000000E+00  0.35386031219E+03  0.35386031219E+03  0.00000000000E+00 0. -1.
          1   -1    0    0  501    0 -0.00000000000E+00 -0.00000000000E+00 -0.54392526075E+02  0.54392526075E+02  0.00000000000E+00 0. -1.
          2    1    1    2  501    0 -0.30502676112E+02 -0.14235958054E+01  0.12121555338E+03  0.12500260100E+03  0.00000000000E+00 0. -1.
          1    1    1    2  502    0  0.82939048362E+02 -0.11284175866E+02  0.72634198273E+02  0.11082393752E+03  0.00000000000E+00 0. -1.
         22    1    1    2    0    0  0.10805232021E+02  0.40472023176E+01 -0.24729299689E+02  0.27288663374E+02  0.00000000000E+00 0.  1.
         22    1    1    2    0    0 -0.63241604271E+02  0.86605693535E+01  0.13034733415E+03  0.14513763637E+03  0.00000000000E+00 0. -1.
</event>
<event>
 6    1  0.1383644E-005  0.6193489E+02  0.7818608E-02  0.1432235E+00
          2   -1    0    0  502    0  0.00000000000E+00  0.00000000000E+00  0.35470256977E+03  0.35470256977E+03  0.00000000000E+00 0.  1.
          1   -1    0    0  501    0 -0.00000000000E+00 -0.00000000000E+00 -0.12105979703E+03  0.12105979703E+03  0.00000000000E+00 0.  1.
          2    1    1    2  501    0  0.17946144226E+02  0.17431659497E+02  0.10911694910E+03  0.11194836054E+03  0.00000000000E+00 0.  1.
          1    1    1    2  502    0  0.79684150931E+00 -0.51965597195E+02 -0.94783672634E+02  0.10809719167E+03  0.00000000000E+00 0.  1.
         22    1    1    2    0    0  0.13264700075E+02  0.34109862849E+02  0.22066327506E+03  0.22367770557E+03  0.00000000000E+00 0.  1.
         22    1    1    2    0    0 -0.32007685810E+02  0.42407484947E+00 -0.13537787878E+01  0.32039109029E+02  0.00000000000E+00 0.  1.
</event>
<event>
 6    1  0.1383644E-005  0.9187078E+02  0.7818608E-02  0.1345417E+00
          2   -1    0    0  502    0  0.00000000000E+00  0.00000000000E+00  0.44312260858E+02  0.44312260858E+02  0.00000000000E+00 0. -1.
          1   -1    0    0  501    0 -0.00000000000E+00 -0.00000000000E+00 -0.78718358088E+03  0.78718358088E+03  0.00000000000E+00 0.  1.
          2    1    1    2  501    0  0.24902909316E+02  0.66703159310E+01  0.11751830219E+02  0.28332905261E+02  0.00000000000E+00 0. -1.
          1    1    1    2  502    0 -0.10303204278E+03 -0.57474296848E+02 -0.30182442683E+03  0.32406308224E+03  0.00000000000E+00 0.  1.
         22    1    1    2    0    0  0.64439706789E+02  0.53004775320E+02 -0.45704509870E+03  0.46459897144E+03  0.00000000000E+00 0. -1.
         22    1    1    2    0    0  0.13689426676E+02 -0.22007944030E+01  0.42463752933E+01  0.14500882796E+02  0.00000000000E+00 0. -1.
</event>
<event>
 6    1  0.1383644E-005  0.5917942E+02  0.7818608E-02  0.1413978E+00
          2   -1    0    0  502    0  0.00000000000E+00  0.00000000000E+00  0.32924114074E+03  0.32924114074E+03  0.00000000000E+00 0.  1.
          1   -1    0    0  501    0 -0.00000000000E+00 -0.00000000000E+00 -0.24055083837E+03  0.24055083837E+03  0.00000000000E+00 0.  1.
          2    1    1    2  501    0  0.25161893294E+02  0.12037836431E+02  0.27073472728E+03  0.27216782127E+03  0.00000000000E+00 0.  1.
          1    1    1    2  502    0  0.18995279989E+01 -0.33049220052E+02 -0.15850050345E+03  0.16192056308E+03  0.00000000000E+00 0.  1.
         22    1    1    2    0    0 -0.46156203534E+02  0.14990110106E+02 -0.69965423987E+02  0.85148453182E+02  0.00000000000E+00 0.  1.
         22    1    1    2    0    0  0.19094782241E+02  0.60212735144E+01  0.46421502529E+02  0.50555141585E+02  0.00000000000E+00 0. -1.
</event>
<event>
 6    1  0.1383644E-005  0.1709674E+03  0.7818608E-02  0.1277743E+00
          2   -1    0    0  502    0  0.00000000000E+00  0.00000000000E+00  0.18002551123E+04  0.18002551123E+04  0.00000000000E+00 0. -1.
          1   -1    0    0  501    0 -0.00000000000E+00 -0.00000000000E+00 -0.32148669369E+02  0.32148669369E+02  0.00000000000E+00 0. -1.
          2    1    1    2  501    0  0.11781775320E+03 -0.60813676674E+02  0.61498391808E+03  0.62911409596E+03  0.00000000000E+00 0. -1.
          1    1    1    2  502    0 -0.12862461207E+03  0.10485237465E+03  0.92239832037E+03  0.93720700634E+03  0.00000000000E+00 0. -1.
         22    1    1    2    0    0 -0.15871218936E+02 -0.13764161431E+02 -0.90949152764E+01  0.22892470690E+02  0.00000000000E+00 0.  1.
         22    1    1    2    0    0  0.26678077803E+02 -0.30274536544E+02  0.23981911971E+03  0.24319020864E+03  0.00000000000E+00 0. -1.
</event>
<event>
 6    1  0.1383644E-005  0.8302666E+02  0.7818608E-02  0.1410480E+00
          2   -1    0    0  502    0  0.00000000000E+00  0.00000000000E+00  0.67876346715E+03  0.67876346715E+03  0.00000000000E+00 0. -1.
          1   -1    0    0  501    0 -0.00000000000E+00 -0.00000000000E+00 -0.46148838819E+02  0.46148838819E+02  0.00000000000E+00 0. -1.
          2    1    1    2  501    0 -0.13248858100E+02 -0.59228667478E+02  0.21377817355E+03  0.22222662932E+03  0.00000000000E+00 0. -1.
          1    1    1    2  502    0  0.34000146446E+02  0.77500196712E+02  0.34902445838E+03  0.35913836191E+03  0.00000000000E+00 0. -1.
         22    1    1    2    0    0 -0.18542484200E+02  0.71722075975E+00 -0.33599799566E+02  0.38383390376E+02  0.00000000000E+00 0. -1.
         22    1    1    2    0    0 -0.22088041455E+01 -0.18988749994E+02  0.10341179597E+03  0.10516392436E+03  0.00000000000E+00 0. -1.
</event>
<event>
 6    1  0.1383644E-005  0.3524064E+02  0.7818608E-02  0.1570243E+00
          2   -1    0    0  502    0  0.00000000000E+00  0.00000000000E+00  0.21633230481E+03  0.21633230481E+03  0.00000000000E+00 0.  1.
          1   -1    0    0  501    0 -0.00000000000E+00 -0.00000000000E+00 -0.65719262548E+02  0.65719262548E+02  0.00000000000E+00 0. -1.
          2    1    1    2  501    0  0.29611345790E+02 -0.23429921379E+01  0.59325947249E+02  0.66346736382E+02  0.00000000000E+00 0.  1.
          1    1    1    2  502    0 -0.24018777756E+02  0.92589846242E+01  0.83952625864E+02  0.87810442834E+02  0.00000000000E+00 0. -1.
         22    1    1    2    0    0  0.16083070608E+02  0.75419048140E+01  0.63522385471E+02  0.65959373438E+02  0.00000000000E+00 0.  1.
         22    1    1    2    0    0 -0.21675638642E+02 -0.14457897300E+02 -0.56187916326E+02  0.61935014700E+02  0.00000000000E+00 0. -1.
</event>
<event>
 6    1  0.1383644E-005  0.7218912E+02  0.7818608E-02  0.1441289E+00
          2   -1    0    0  502    0  0.00000000000E+00  0.00000000000E+00  0.17660226585E+03  0.17660226585E+03  0.00000000000E+00 0.  1.
          1   -1    0    0  501    0 -0.00000000000E+00 -0.00000000000E+00 -0.11227797532E+03  0.11227797532E+03  0.00000000000E+00 0. -1.
          2    1    1    2  501    0 -0.33035578284E+02 -0.29677592674E+02  0.10890471706E+03  0.11761099582E+03  0.00000000000E+00 0.  1.
          1    1    1    2  502    0  0.63806053470E+01  0.31035146545E+02  0.14378281797E+02  0.34794071809E+02  0.00000000000E+00 0. -1.
         22    1    1    2    0    0  0.42650760241E+01  0.17122645300E+02 -0.91314730342E+02  0.93004063530E+02  0.00000000000E+00 0. -1.
         22    1    1    2    0    0  0.22389896913E+02 -0.18480199171E+02  0.32356022008E+02  0.43471110008E+02  0.00000000000E+00 0. -1.
</event>
<event>
 6    1  0.1383644E-005  0.1288782E+03  0.7818608E-02  0.1305492E+00
          2   -1    0    0  502    0  0.00000000000E+00  0.00000000000E+00  0.18620034472E+03  0.18620034472E+03  0.00000000000E+00 0. -1.
          1   -1    0    0  501    0 -0.00000000000E+00 -0.00000000000E+00 -0.96960449129E+03  0.96960449129E+03  0.00000000000E+00 0. -1.
          2    1    1    2  501    0 -0.23909973108E+03 -0.12474630048E+03 -0.82964943326E+02  0.28215864812E+03  0.00000000000E+00 0. -1.
          1    1    1    2  502    0  0.26627515137E+03  0.16519531314E+03 -0.66503353808E+03  0.73516090382E+03  0.00000000000E+00 0. -1.
         22    1    1    2    0    0 -0.39182876028E+02 -0.37757784482E+02  0.36507646914E+02  0.65526760534E+02  0.00000000000E+00 0.  1.
         22    1    1    2    0    0  0.12007455739E+02 -0.26912281821E+01 -0.71913312077E+02  0.72958523534E+02  0.00000000000E+00 0. -1.
</event>
<event>
 6    1  0.1383644E-005  0.2054565E+02  0.7818608E-02  0.1762340E+00
          2   -1    0    0  502    0  0.00000000000E+00  0.00000000000E+00  0.10152113366E+03  0.10152113366E+03  0.00000000000E+00 0. -1.
          1   -1    0    0  501    0 -0.00000000000E+00 -0.00000000000E+00 -0.25615154751E+03  0.25615154751E+03  0.00000000000E+00 0. -1.
          2    1    1    2  501    0 -0.11785838097E+02 -0.20906226317E+02  0.37227390028E+02  0.44292830647E+02  0.00000000000E+00 0. -1.
          1    1    1    2  502    0  0.15478763310E+02  0.21901672746E+02 -0.19115732405E+03  0.19302952603E+03  0.00000000000E+00 0. -1.
         22    1    1    2    0    0  0.98265978487E+01 -0.32925223246E+01 -0.59284093948E+02  0.60183108293E+02  0.00000000000E+00 0. -1.
         22    1    1    2    0    0 -0.13519523062E+02  0.22970758958E+01  0.58583614122E+02  0.60167216198E+02  0.00000000000E+00 0. -1.
</event>
<event>
 6    1  0.1383644E-005  0.1305758E+03  0.7818608E-02  0.1337521E+00
          2   -1    0    0  502    0  0.00000000000E+00  0.00000000000E+00  0.57412861148E+02  0.57412861148E+02  0.00000000000E+00 0. -1.
          1   -1    0    0  501    0 -0.00000000000E+00 -0.00000000000E+00 -0.26288378508E+03  0.26288378508E+03  0.00000000000E+00 0. -1.
          2    1    1    2  501    0 -0.13002404565E+02 -0.31463108973E+02 -0.25817474670E+02  0.42726241926E+02  0.00000000000E+00 0. -1.
          1    1    1    2  502    0 -0.57890023302E+02 -0.96831338389E+01 -0.86317326579E+02  0.10438246379E+03  0.00000000000E+00 0. -1.
         22    1    1    2    0    0  0.85345754742E+02  0.47683166662E+02 -0.22130022551E+02  0.10023632143E+03  0.00000000000E+00 0. -1.
         22    1    1    2    0    0 -0.14453326875E+02 -0.65369238494E+01 -0.71206100128E+02  0.72951619081E+02  0.00000000000E+00 0.  1.
</event>
<event>
 6    1  0.1383644E-005  0.1107906E+03  0.7818608E-02  0.1335664E+00
          2   -1    0    0  502    0  0.00000000000E+00  0.00000000000E+00  0.69477853942E+03  0.69477853942E+03  0.00000000000E+00 0. -1.
          1   -1    0    0  501    0 -0.00000000000E+00 -0.00000000000E+00 -0.31569356720E+02  0.31569356720E+02  0.00000000000E+00 0. -1.
          2    1    1    2  501    0 -0.45766385621E+02 -0.18781876134E+02  0.20488604399E+03  0.21077384075E+03  0.00000000000E+00 0. -1.
          1    1    1    2  502    0  0.88902291753E+02  0.42990861757E+02  0.16489399962E+03  0.19220266071E+03  0.00000000000E+00 0. -1.
         22    1    1    2    0    0 -0.11298918095E+01  0.26799100127E+02  0.47675515005E+01  0.27243310563E+02  0.00000000000E+00 0. -1.
         22    1    1    2    0    0 -0.42006014322E+02 -0.51008085750E+02  0.28866158758E+03  0.29612808411E+03  0.00000000000E+00 0.  1.
</event>
<event>
 6    1  0.1383644E-005  0.6076578E+02  0.7818608E-02  0.1502445E+00
          2   -1    0    0  502    0  0.00000000000E+00  0.00000000000E+00  0.10862741686E+03  0.10862741686E+03  0.00000000000E+00 0.  1.
          1   -1    0    0  501    0 -0.00000000000E+00 -0.00000000000E+00 -0.12566284177E+03  0.12566284177E+03  0.00000000000E+00 0. -1.
          2    1    1    2  501    0 -0.29318545967E+02  0.10701576412E+02  0.29020305652E+02  0.42617825091E+02  0.00000000000E+00 0.  1.
          1    1    1    2  502    0  0.50585506711E+02 -0.27566284041E+01 -0.30516779814E+02  0.59141916942E+02  0.00000000000E+00 0. -1.
         22    1    1    2    0    0  0.75372484618E+01 -0.97748098264E+01 -0.69900575729E+02  0.70982022434E+02  0.00000000000E+00 0. -1.
         22    1    1    2    0    0 -0.28804209205E+02  0.18298618186E+01  0.54361624982E+02  0.61548494156E+02  0.00000000000E+00 0.  1.
</event>
<event>
 6    1  0.1383644E-005  0.6186339E+02  0.7818608E-02  0.1390959E+00
          2   -1    0    0  502    0  0.00000000000E+00  0.00000000000E+00  0.17995242837E+03  0.17995242837E+03  0.00000000000E+00 0. -1.
          1   -1    0    0  501    0 -0.00000000000E+00 -0.00000000000E+00 -0.21987700893E+03  0.21987700893E+03  0.00000000000E+00 0. -1.
          2    1    1    2  501    0 -0.99598577966E+01 -0.44455395663E+02  0.13178029484E+03  0.13943287661E+03  0.00000000000E+00 0. -1.
          1    1    1    2  502    0  0.99255308317E+01  0.40547193164E+02 -0.11676970312E+03  0.12400707481E+03  0.00000000000E+00 0. -1.
         22    1    1    2    0    0  0.13199898897E+02  0.11932142835E+02 -0.93331866790E+02  0.95012897661E+02  0.00000000000E+00 0. -1.
         22    1    1    2    0    0 -0.13165571932E+02 -0.80239403364E+01  0.38396694514E+02  0.41376588216E+02  0.00000000000E+00 0. -1.
</event>
<event>
 6    1  0.1383644E-005  0.4115589E+02  0.7818608E-02  0.1563216E+00
          2   -1    0    0  502    0  0.00000000000E+00  0.00000000000E+00  0.19417246139E+03  0.19417246139E+03  0.00000000000E+00 0.  1.
          1   -1    0    0  501    0 -0.00000000000E+00 -0.00000000000E+00 -0.77413572947E+02  0.77413572947E+02  0.00000000000E+00 0. -1.
          2    1    1    2  501    0 -0.21510965450E+02 -0.93010612255E+00  0.10190222335E+03  0.10415205161E+03  0.00000000000E+00 0.  1.
          1    1    1    2  502    0  0.82669631078E+01 -0.30349058802E+02  0.14211720824E+02  0.34516388252E+02  0.00000000000E+00 0. -1.
         22    1    1    2    0    0  0.88315464705E-01  0.19188434815E+02  0.64143947644E+02  0.66952594047E+02  0.00000000000E+00 0.  1.
         22    1    1    2    0    0  0.13155686877E+02  0.12090730110E+02 -0.63499003372E+02  0.65965000425E+02  0.00000000000E+00 0. -1.
</event>
<event>
 6    1  0.1383644E-005  0.6990017E+02  0.7818608E-02  0.1363635E+00
          2   -1    0    0  502    0  0.00000000000E+00  0.00000000000E+00  0.31308592523E+03  0.31308592523E+03  0.00000000000E+00 0. -1.
          1   -1    0    0  501    0 -0.00000000000E+00 -0.00000000000E+00 -0.99437090395E+02  0.99437090395E+02  0.00000000000E+00 0. -1.
          2    1    1    2  501    0 -0.58433007551E+01 -0.40211047080E+02  0.20415990418E+03  0.20816421150E+03  0.00000000000E+00 0. -1.
          1    1    1    2  502    0  0.39776866833E+01  0.49033059117E+02 -0.42616415730E+02  0.65086264046E+02  0.00000000000E+00 0. -1.
         22    1    1    2    0    0 -0.16119909084E+01  0.15874205319E+02 -0.40414500401E+02  0.43450210032E+02  0.00000000000E+00 0.  1.
         22    1    1    2    0    0  0.34776049801E+01 -0.24696217357E+02  0.92519846776E+02  0.95822330047E+02  0.00000000000E+00 0.  1.
</event>
<event>
 6    1  0.1383644E-005  0.3761873E+02  0.7818608E-02  0.1582364E+00
          2   -1    0    0  502    0  0.00000000000E+00  0.00000000000E+00  0.10791514149E+04  0.10791514149E+04  0.00000000000E+00 0.  1.
          1   -1    0    0  501    0 -0.00000000000E+00 -0.00000000000E+00 -0.10551985804E+03  0.10551985804E+03  0.00000000000E+00 0.  1.
          2    1    1    2  501    0  0.31069732035E+02  0.36572699525E+02  0.94098366932E+03  0.94220653602E+03  0.00000000000E+00 0.  1.
          1    1    1    2  502    0 -0.31732518733E+02 -0.68016696061E+02 -0.47515792455E+02  0.88831155688E+02  0.00000000000E+00 0.  1.
         22    1    1    2    0    0  0.44077071622E+01  0.98573095706E+01 -0.34884719042E+02  0.36517640355E+02  0.00000000000E+00 0. -1.
         22    1    1    2    0    0 -0.37449204641E+01  0.21586686966E+02  0.11504839902E+03  0.11711594085E+03  0.00000000000E+00 0.  1.
</event>
<event>
 6    1  0.1383644E-005  0.1105382E+03  0.7818608E-02  0.1303113E+00
          2   -1    0    0  502    0  0.00000000000E+00  0.00000000000E+00  0.44201008158E+03  0.44201008158E+03  0.00000000000E+00 0. -1.
          1   -1    0    0  501    0 -0.00000000000E+00 -0.00000000000E+00 -0.11686157939E+03  0.11686157939E+03  0.00000000000E+00 0. -1.
          2    1    1    2  501    0 -0.39656382810E+02  0.10096725540E+03  0.30440030544E+03  0.32315098841E+03  0.00000000000E+00 0. -1.
          1    1    1    2  502    0 -0.37557134343E+00 -0.87233383473E+02  0.46570818964E+02  0.98887033654E+02  0.00000000000E+00 0. -1.
         22    1    1    2    0    0  0.41417445297E+02 -0.24936935515E+02 -0.73424609192E+02  0.87911482542E+02  0.00000000000E+00 0. -1.
         22    1    1    2    0    0 -0.13854911440E+01  0.11203063583E+02  0.47601986980E+02  0.48922156369E+02  0.00000000000E+00 0. -1.
</event>
<event>
 6    1  0.1383644E-005  0.3234197E+02  0.7818608E-02  0.1647279E+00
          2   -1    0    0  502    0  0.00000000000E+00  0.00000000000E+00  0.14581532494E+03  0.14581532494E+03  0.00000000000E+00 0.  1.
          1   -1    0    0  501    0 -0.00000000000E+00 -0.00000000000E+00 -0.15272396138E+03  0.15272396138E+03  0.00000000000E+00 0.  1.
          2    1    1    2  501    0 -0.52924026114E+02  0.15147214980E+02  0.18334849190E+02  0.58022041989E+02  0.00000000000E+00 0.  1.
          1    1    1    2  502    0  0.22430242421E+02 -0.65483380370E+01 -0.89446938110E+02  0.92448641111E+02  0.00000000000E+00 0.  1.
         22    1    1    2    0    0  0.29929393885E+02  0.48609085598E+01  0.10280527098E+03  0.10718358453E+03  0.00000000000E+00 0.  1.
         22    1    1    2    0    0  0.56438980853E+00 -0.13459785502E+02 -0.38601818504E+02  0.40885018692E+02  0.00000000000E+00 0.  1.
</event>
<event>
 6    1  0.1383644E-005  0.1803694E+03  0.7818608E-02  0.1223591E+00
          2   -1    0    0  502    0  0.00000000000E+00  0.00000000000E+00  0.29221909181E+03  0.29221909181E+03  0.00000000000E+00 0. -1.
          1   -1    0    0  501    0 -0.00000000000E+00 -0.00000000000E+00 -0.18766865776E+03  0.18766865776E+03  0.00000000000E+00 0. -1.
          2    1    1    2  501    0 -0.44269143826E+02  0.11666863042E+03  0.99804012392E+02  0.15978788223E+03  0.00000000000E+00 0. -1.
          1    1    1    2  502    0  0.30592474153E+02 -0.34703751882E+02 -0.11580641524E+03  0.12470515498E+03  0.00000000000E+00 0. -1.
         22    1    1    2    0    0  0.15941409223E+02 -0.29265418879E+02  0.13632487830E+03  0.14033910971E+03  0.00000000000E+00 0.  1.
         22    1    1    2    0    0 -0.22647395493E+01 -0.52699459654E+02 -0.15772041405E+02  0.55055602650E+02  0.00000000000E+00 0. -1.
</event>
<event>
 6    1  0.1383644E-005  0.3079603E+02  0.7818608E-02  0.1607726E+00
          2   -1    0    0  502    0  0.00000000000E+00  0.00000000000E+00  0.25222830739E+03  0.25222830739E+03  0.00000000000E+00 0.  1.
          1   -1    0    0  501    0 -0.00000000000E+00 -0.00000000000E+00 -0.51896381689E+02  0.51896381689E+02  0.00000000000E+00 0.  1.
          2    1    1    2  501    0 -0.73209655051E+01  0.51102096485E+02  0.49276672553E+02  0.71366737763E+02  0.00000000000E+00 0.  1.
          1    1    1    2  502    0 -0.25907505989E+02 -0.24418741034E+02  0.25460688408E+01  0.35692523682E+02  0.00000000000E+00 0.  1.
         22    1    1    2    0    0  0.85274513916E+01 -0.27242543652E+02  0.16494096680E+03  0.16739293934E+03  0.00000000000E+00 0.  1.
         22    1    1    2    0    0  0.24701020103E+02  0.55918820100E+00 -0.16431782494E+02  0.29672488293E+02  0.00000000000E+00 0.  1.
</event>
<event>
 6    1  0.1383644E-005  0.1210309E+03  0.7818608E-02  0.1266028E+00
          2   -1    0    0  502    0  0.00000000000E+00  0.00000000000E+00  0.27407555966E+03  0.27407555966E+03  0.00000000000E+00 0.  1.
          1   -1    0    0  501    0 -0.00000000000E+00 -0.00000000000E+00 -0.38157977767E+03  0.38157977767E+03  0.00000000000E+00 0.  1.
          2    1    1    2  501    0  0.15299300743E+03  0.68528580104E+02  0.14306752496E+03  0.22038907258E+03  0.00000000000E+00 0.  1.
          1    1    1    2  502    0 -0.20896626783E+03 -0.45747824583E+02 -0.15481502137E+03  0.26405956788E+03  0.00000000000E+00 0.  1.
         22    1    1    2    0    0  0.16480564654E+02  0.43211462349E+02  0.26371916481E+01  0.46322718718E+02  0.00000000000E+00 0.  1.
         22    1    1    2    0    0  0.39492695752E+02 -0.65992217870E+02 -0.98393913252E+02  0.12488397817E+03  0.00000000000E+00 0. -1.
</event>
<event>
 6    1  0.1383644E-005  0.8122152E+02  0.7818608E-02  0.1390392E+00
          2   -1    0    0  502    0  0.00000000000E+00  0.00000000000E+00  0.46061764472E+03  0.46061764472E+03  0.00000000000E+00 0. -1.
          1   -1    0    0  501    0 -0.00000000000E+00 -0.00000000000E+00 -0.38544734832E+02  0.38544734832E+02  0.00000000000E+00 0. -1.
          2    1    1    2  501    0 -0.37305709074E+02 -0.31771142923E+02  0.21889932306E+03  0.22431681856E+03  0.00000000000E+00 0. -1.
          1    1    1    2  502    0  0.32983505014E+02  0.47698897864E+02  0.53412461096E+02  0.78841533856E+02  0.00000000000E+00 0. -1.
         22    1    1    2    0    0 -0.12001913106E+02 -0.37734035733E+02  0.16154342505E+03  0.16632552885E+03  0.00000000000E+00 0. -1.
         22    1    1    2    0    0  0.16324117166E+02  0.21806280792E+02 -0.11782299319E+02  0.29678498285E+02  0.00000000000E+00 0. -1.
</event>
<event>
 6    1  0.1383644E-005  0.3899204E+02  0.7818608E-02  0.1538741E+00
          2   -1    0    0  502    0  0.00000000000E+00  0.00000000000E+00  0.25728918567E+03  0.25728918567E+03  0.00000000000E+00 0. -1.
          1   -1    0    0  501    0 -0.00000000000E+00 -0.00000000000E+00 -0.12887469226E+03  0.12887469226E+03  0.00000000000E+00 0. -1.
          2    1    1    2  501    0 -0.45552227920E+02 -0.33486264184E+01  0.17654582431E+03  0.18235856670E+03  0.00000000000E+00 0. -1.
          1    1    1    2  502    0  0.29520096867E+02  0.52495704982E+02 -0.37975190485E+02  0.71199369751E+02  0.00000000000E+00 0. -1.
         22    1    1    2    0    0  0.14016736345E+02 -0.26724456879E+02 -0.65903674503E+02  0.72484203839E+02  0.00000000000E+00 0. -1.
         22    1    1    2    0    0  0.20153947078E+01 -0.22422621685E+02  0.55747534093E+02  0.60121737637E+02  0.00000000000E+00 0.  1.
</event>
<event>
 6    1  0.1383644E-005  0.3338413E+02  0.7818608E-02  0.1641112E+00
          2   -1    0    0  502    0  0.00000000000E+00  0.00000000000E+00  0.20849154462E+03  0.20849154462E+03  0.00000000000E+00 0.  1.
          1   -1    0    0  501    0 -0.00000000000E+00 -0.00000000000E+00 -0.34767704730E+03  0.34767704730E+03  0.00000000000E+00 0.  1.
          2    1    1    2  501    0 -0.13643796473E+02 -0.15471600852E+02  0.18052327983E+03  0.18169804120E+03  0.00000000000E+00 0.  1.
          1    1    1    2  502    0  0.16752487522E+01  0.49399187235E+02 -0.17533902596E+03  0.18217261096E+03  0.00000000000E+00 0.  1.
         22    1    1    2    0    0  0.11675918564E+02 -0.60258611108E+01  0.20901207905E+02  0.24688024796E+02  0.00000000000E+00 0.  1.
         22    1    1    2    0    0  0.29262915617E+00 -0.27901725272E+02 -0.16527096445E+03  0.16760991496E+03  0.00000000000E+00 0.  1.
</event>
<event>
 6    1  0.1383644E-005  0.1342077E+03  0.7818608E-02  0.1320858E+00
          2   -1    0    0  502    0  0.00000000000E+00  0.00000000000E+00  0.21335529811E+03  0.21335529811E+03  0.00000000000E+00 0. -1.
          1   -1    0    0  501    0 -0.00000000000E+00 -0.00000000000E+00 -0.31915304542E+03  0.31915304542E+03  0.00000000000E+00 0. -1.
          2    1    1    2  501    0 -0.52258132770E+02 -0.58990079228E+02  0.13301048639E+03  0.15460443518E+03  0.00000000000E+00 0. -1.
          1    1    1    2  502    0  0.10127707815E+03  0.68577489113E+02 -0.20716355806E+03  0.24057568114E+03  0.00000000000E+00 0. -1.
         22    1    1    2    0    0 -0.67223551445E+01  0.18404521275E+02 -0.70667430411E+02  0.73333499732E+02  0.00000000000E+00 0.  1.
         22    1    1    2    0    0 -0.42296590233E+02 -0.27991931160E+02  0.39022754763E+02  0.63994727476E+02  0.00000000000E+00 0. -1.
</event>
<event>
 6    1  0.1383644E-005  0.7213722E+02  0.7818608E-02  0.1364629E+00
          2   -1    0    0  502    0  0.00000000000E+00  0.00000000000E+00  0.11378563836E+03  0.11378563836E+03  0.00000000000E+00 0. -1.
          1   -1    0    0  501    0 -0.00000000000E+00 -0.00000000000E+00 -0.31394389517E+03  0.31394389517E+03  0.00000000000E+00 0. -1.
          2    1    1    2  501    0  0.87991368655E+02  0.67835708535E+01  0.14924530040E+02  0.89505527138E+02  0.00000000000E+00 0. -1.
          1    1    1    2  502    0 -0.52626065898E+02  0.16413355115E+02  0.28769317372E+02  0.62181787205E+02  0.00000000000E+00 0. -1.
         22    1    1    2    0    0  0.12081571945E+02  0.12344547136E+02  0.67340698768E+01  0.18539145659E+02  0.00000000000E+00 0.  1.
         22    1    1    2    0    0 -0.47446874702E+02 -0.35541473105E+02 -0.25058617410E+03  0.25750307353E+03  0.00000000000E+00 0. -1.
</event>
<event>
 6    1  0.1383644E-005  0.1926393E+03  0.7818608E-02  0.1271970E+00
          2   -1    0    0  502    0  0.00000000000E+00  0.00000000000E+00  0.77681266532E+03  0.77681266532E+03  0.00000000000E+00 0.  1.
          1   -1    0    0  501    0 -0.00000000000E+00 -0.00000000000E+00 -0.63736860125E+02  0.63736860125E+02  0.00000000000E+00 0.  1.
          2    1    1    2  501    0 -0.12163061250E+03  0.27233969776E+02  0.29671377147E+03  0.32183032360E+03  0.00000000000E+00 0.  1.
          1    1    1    2  502    0  0.15921651815E+03 -0.66694233572E+02  0.19545654862E+03  0.26077055593E+03  0.00000000000E+00 0.  1.
         22    1    1    2    0    0  0.76873041574E+01 -0.14493794938E+02 -0.81428918488E+01  0.18315879028E+02  0.00000000000E+00 0.  1.
         22    1    1    2    0    0 -0.45273209806E+02  0.53954058734E+02  0.22904837696E+03  0.23963276689E+03  0.00000000000E+00 0.  1.
</event>
<event>
 6    1  0.1383644E-005  0.1735896E+03  0.7818608E-02  0.1313828E+00
          2   -1    0    0  502    0  0.00000000000E+00  0.00000000000E+00  0.10086623215E+04  0.10086623215E+04  0.00000000000E+00 0.  1.
          1   -1    0    0  501    0 -0.00000000000E+00 -0.00000000000E+00 -0.48574078790E+02  0.48574078790E+02  0.00000000000E+00 0.  1.
          2    1    1    2  501    0 -0.45459344971E+02  0.33332155136E+02  0.41788047220E+02  0.70169975785E+02  0.00000000000E+00 0.  1.
          1    1    1    2  502    0  0.66165018856E+02 -0.13473588608E+03  0.68675038349E+03  0.70296348265E+03  0.00000000000E+00 0.  1.
         22    1    1    2    0    0  0.55673139081E+01  0.86325655848E+01 -0.15675149197E+02  0.18741037193E+02  0.00000000000E+00 0.  1.
         22    1    1    2    0    0 -0.26272987793E+02  0.92771165355E+02  0.24722496125E+03  0.26536190471E+03  0.00000000000E+00 0.  1.
</event>
<event>
 6    1  0.1383644E-005  0.4687912E+02  0.7818608E-02  0.1557241E+00
          2   -1    0    0  502    0  0.00000000000E+00  0.00000000000E+00  0.18634148229E+03  0.18634148229E+03  0.00000000000E+00 0. -1.
          1   -1    0    0  501    0 -0.00000000000E+00 -0.00000000000E+00 -0.15713812652E+03  0.15713812652E+03  0.00000000000E+00 0.  1.
          2    1    1    2  501    0 -0.19528349346E+02  0.25434662376E+02  0.10512281793E+03  0.10990489219E+03  0.00000000000E+00 0. -1.
          1    1    1    2  502    0  0.31827563930E+02 -0.21651369830E+02 -0.96625426927E+02  0.10401081083E+03  0.00000000000E+00 0.  1.
         22    1    1    2    0    0 -0.16619986578E+01 -0.12934810490E+02 -0.52976062297E+02  0.54557627683E+02  0.00000000000E+00 0.  1.
         22    1    1    2    0    0 -0.10637215926E+02  0.91515179439E+01  0.73682027068E+02  0.75006278112E+02  0.00000000000E+00 0.  1.
</event>
<event>
 6    1  0.1383644E-005  0.1239351E+03  0.7818608E-02  0.1306451E+00
          2   -1    0    0  502    0  0.00000000000E+00  0.00000000000E+00  0.10952607863E+04  0.10952607863E+04  0.00000000000E+00 0.  1.
          1   -1    0    0  501    0 -0.00000000000E+00 -0.00000000000E+00 -0.18833939959E+02  0.18833939959E+02  0.00000000000E+00 0.  1.
          2    1    1    2  501    0  0.23524123637E+02 -0.15905840680E+02  0.52724542905E+02  0.59885370377E+02  0.00000000000E+00 0.  1.
          1    1    1    2  502    0 -0.57533122854E+02 -0.57542381273E+02  0.60934129118E+03  0.61475035178E+03  0.00000000000E+00 0.  1.
         22    1    1    2    0    0  0.52603139183E+02  0.99820824438E+02  0.34446152021E+03  0.36247072454E+03  0.00000000000E+00 0.  1.
         22    1    1    2    0    0 -0.18594139965E+02 -0.26372602485E+02  0.69899492063E+02  0.76988279585E+02  0.00000000000E+00 0. -1.
</event>
<event>
 6    1  0.1383644E-005  0.5813842E+02  0.7818608E-02  0.1493500E+00
          2   -1    0    0  502    0  0.00000000000E+00  0.00000000000E+00  0.10446360685E+03  0.10446360685E+03  0.00000000000E+00 0. -1.
          1   -1    0    0  501    0 -0.00000000000E+00 -0.00000000000E+00 -0.15645510573E+03  0.15645510573E+03  0.00000000000E+00 0.  1.
          2    1    1    2  501    0  0.55614984343E+00 -0.32582375305E+02  0.40055924697E+02  0.51637172526E+02  0.00000000000E+00 0. -1.
          1    1    1    2  502    0  0.23072136841E+02  0.44034521927E+02 -0.50164615044E+02  0.70624721042E+02  0.00000000000E+00 0.  1.
         22    1    1    2    0    0 -0.11029250020E+02  0.11511363383E+02 -0.85937532331E+02  0.87403748810E+02  0.00000000000E+00 0.  1.
         22    1    1    2    0    0 -0.12599036664E+02 -0.22963510004E+02  0.44054723791E+02  0.51253070200E+02  0.00000000000E+00 0. -1.
</event>
<event>
 6    1  0.1383644E-005  0.7040761E+02  0.7818608E-02  0.1456382E+00
          2   -1    0    0  502    0  0.00000000000E+00  0.00000000000E+00  0.32614122825E+03  0.32614122825E+03  0.00000000000E+00 0.  1.
          1   -1    0    0  501    0 -0.00000000000E+00 -0.00000000000E+00 -0.35655047779E+03  0.35655047779E+03  0.00000000000E+00 0.  1.
          2    1    1    2  501    0  0.61541601528E+02  0.44763117329E+02  0.27384251301E+03  0.28421968145E+03  0.00000000000E+00 0.  1.
          1    1    1    2  502    0 -0.31292977255E+02 -0.87005513528E+02 -0.22327358519E+03  0.24166154773E+03  0.00000000000E+00 0.  1.
         22    1    1    2    0    0 -0.37257313788E+02  0.54582213939E+02 -0.10781233686E+03  0.12645483576E+03  0.00000000000E+00 0.  1.
         22    1    1    2    0    0  0.70086895148E+01 -0.12339817740E+02  0.26834159489E+02  0.30355641091E+02  0.00000000000E+00 0.  1.
</event>
<event>
 6    1  0.1383644E-005  0.3560244E+03  0.7818608E-02  0.1190226E+00
          2   -1    0    0  502    0  0.00000000000E+00  0.00000000000E+00  0.67550317056E+02  0.67550317056E+02  0.00000000000E+00 0. -1.
          1   -1    0    0  501    0 -0.00000000000E+00 -0.00000000000E+00 -0.11922744232E+04  0.11922744232E+04  0.00000000000E+00 0. -1.
          2    1    1    2  501    0  0.52349878639E+02 -0.52639995869E+02 -0.44802438933E+03  0.45413360632E+03  0.00000000000E+00 0. -1.
          1    1    1    2  502    0 -0.55334158939E+02 -0.57883974661E+02 -0.62963907046E+03  0.63471078667E+03  0.00000000000E+00 0. -1.
         22    1    1    2    0    0 -0.10583277327E+02  0.92250446487E+01 -0.65620294535E+02  0.67105366869E+02  0.00000000000E+00 0.  1.
         22    1    1    2    0    0  0.13567557627E+02  0.10129892588E+03  0.18559648204E+02  0.10387498037E+03  0.00000000000E+00 0. -1.
</event>
<event>
 6    1  0.1383644E-005  0.2570290E+02  0.7818608E-02  0.1667693E+00
          2   -1    0    0  502    0  0.00000000000E+00  0.00000000000E+00  0.52657192546E+02  0.52657192546E+02  0.00000000000E+00 0.  1.
          1   -1    0    0  501    0 -0.00000000000E+00 -0.00000000000E+00 -0.24634199112E+03  0.24634199112E+03  0.00000000000E+00 0.  1.
          2    1    1    2  501    0  0.10106792384E+02  0.34156457094E+02 -0.50553632076E+02  0.61842384573E+02  0.00000000000E+00 0.  1.
          1    1    1    2  502    0  0.19068749445E+02 -0.31037295274E+02 -0.93013197950E+02  0.99891871022E+02  0.00000000000E+00 0.  1.
         22    1    1    2    0    0 -0.17525144219E+02  0.79277614930E+01  0.40711863755E+02  0.45027057784E+02  0.00000000000E+00 0.  1.
         22    1    1    2    0    0 -0.11650397610E+02 -0.11046923314E+02 -0.90829832307E+02  0.92237870292E+02  0.00000000000E+00 0.  1.
</event>
<event>
 6    1  0.1383644E-005  0.6354764E+02  0.7818608E-02  0.1436108E+00
          2   -1    0    0  502    0  0.00000000000E+00  0.00000000000E+00  0.19768681297E+03  0.19768681297E+03  0.00000000000E+00 0. -1.
          1   -1    0    0  501    0 -0.00000000000E+00 -0.00000000000E+00 -0.19072617458E+03  0.19072617458E+03  0.00000000000E+00 0. -1.
          2    1    1    2  501    0 -0.52872178285E+02  0.17208433201E+02  0.65283792631E+02  0.85752964905E+02  0.00000000000E+00 0. -1.
          1    1    1    2  502    0  0.51948434580E+02  0.20728699619E+01 -0.14365557806E+03  0.15277389094E+03  0.00000000000E+00 0. -1.
         22    1    1    2    0    0  0.10056901453E+02  0.71392540709E+01 -0.29355163164E+02  0.31840788619E+02  0.00000000000E+00 0. -1.
         22    1    1    2    0    0 -0.91331577490E+01 -0.26420557233E+02  0.11468758699E+03  0.11804534308E+03  0.00000000000E+00 0. -1.
</event>
<event>
 6    1  0.1383644E-005  0.6363450E+02  0.7818608E-02  0.1442179E+00
          2   -1    0    0  502    0  0.00000000000E+00  0.00000000000E+00  0.26971615505E+03  0.26971615505E+03  0.00000000000E+00 0.  1.
          1   -1    0    0  501    0 -0.00000000000E+00 -0.00000000000E+00 -0.61753379892E+02  0.61753379892E+02  0.00000000000E+00 0.  1.
          2    1    1    2  501    0  0.24061697303E+01 -0.30271250866E+02  0.30261546064E+02  0.42870729548E+02  0.00000000000E+00 0.  1.
          1    1    1    2  502    0  0.36541965091E+02  0.71869882572E+02  0.33685077406E+02  0.87380087397E+02  0.00000000000E+00 0.  1.
         22    1    1    2    0    0 -0.56192344809E+02 -0.22918777826E+02  0.61149949929E+01  0.60993796044E+02  0.00000000000E+00 0.  1.
         22    1    1    2    0    0  0.17244209988E+02 -0.18679853880E+02  0.13790115670E+03  0.14022492196E+03  0.00000000000E+00 0.  1.
</event>
<event>
 6    1  0.1383644E-005  0.3567951E+02  0.7818608E-02  0.1624610E+00
          2   -1    0    0  502    0  0.00000000000E+00  0.00000000000E+00  0.36060903804E+03  0.36060903804E+03  0.00000000000E+00 0.  1.
          1   -1    0    0  501    0 -0.00000000000E+00 -0.00000000000E+00 -0.13713041615E+03  0.13713041615E+03  0.00000000000E+00 0.  1.
          2    1    1    2  501    0 -0.52296771897E+02  0.21243007895E+02  0.18972824521E+03  0.19794702515E+03  0.00000000000E+00 0.  1.
          1    1    1    2  502    0  0.10573442675E+02 -0.30121577330E+02 -0.10224558221E+03  0.10711333340E+03  0.00000000000E+00 0.  1.
         22    1    1    2    0    0  0.11545455809E+02 -0.26021686779E+01 -0.25433498350E+02  0.28052302401E+02  0.00000000000E+00 0. -1.
         22    1    1    2    0    0  0.30177873412E+02  0.11480738113E+02  0.16142945723E+03  0.16462679324E+03  0.00000000000E+00 0.  1.
</event>
<event>
 6    1  0.1383644E-005  0.3280469E+03  0.7818608E-02  0.1145896E+00
          2   -1    0    0  502    0  0.00000000000E+00  0.00000000000E+00  0.11511583723E+04  0.11511583723E+04  0.00000000000E+00 0. -1.
          1   -1    0    0  501    0 -0.00000000000E+00 -0.00000000000E+00 -0.83448917398E+02  0.83448917398E+02  0.00000000000E+00 0.  1.
          2    1    1    2  501    0  0.13625052358E+03  0.96934871480E+02  0.83247690140E+03  0.84910444931E+03  0.00000000000E+00 0. -1.
          1    1    1    2  502    0 -0.13561315982E+03 -0.20712169079E+01  0.15435477322E+03  0.20547655601E+03  0.00000000000E+00 0.  1.
         22    1    1    2    0    0  0.48189761091E+02 -0.85801195086E+02  0.85215812540E+02  0.13017616087E+03  0.00000000000E+00 0.  1.
         22    1    1    2    0    0 -0.48827124852E+02 -0.90624594864E+01 -0.43380322175E+01  0.49850123538E+02  0.00000000000E+00 0.  1.
</event>
<event>
 6    1  0.1383644E-005  0.2494168E+03  0.7818608E-02  0.1204436E+00
          2   -1    0    0  502    0  0.00000000000E+00  0.00000000000E+00  0.89309186661E+03  0.89309186661E+03  0.00000000000E+00 0. -1.
          1   -1    0    0  501    0 -0.00000000000E+00 -0.00000000000E+00 -0.82939377068E+02  0.82939377068E+02  0.00000000000E+00 0. -1.
          2    1    1    2  501    0 -0.10808077228E+03 -0.75294231458E+01  0.16476704011E+03  0.19719615375E+03  0.00000000000E+00 0. -1.
          1    1    1    2  502    0  0.19043907304E+03  0.13512389577E+03  0.28198004703E+03  0.36611235253E+03  0.00000000000E+00 0. -1.
         22    1    1    2    0    0 -0.90448573941E+01 -0.28549305606E+02  0.10266515952E+01  0.29965418558E+02  0.00000000000E+00 0. -1.
         22    1    1    2    0    0 -0.73313443372E+02 -0.99045167018E+02  0.36237875081E+03  0.38275731884E+03  0.00000000000E+00 0. -1.
</event>
<event>
 6    1  0.1383644E-005  0.1581783E+03  0.7818608E-02  0.1248062E+00
          2   -1    0    0  502    0  0.00000000000E+00  0.00000000000E+00  0.91914504126E+03  0.91914504126E+03  0.00000000000E+00 0. -1.
          1   -1    0    0  501    0 -0.00000000000E+00 -0.00000000000E+00 -0.94835809354E+02  0.94835809354E+02  0.00000000000E+00 0. -1.
          2    1    1    2  501    0  0.84983398149E+02 -0.97582877690E+02  0.13398357150E+03  0.18626914240E+03  0.00000000000E+00 0. -1.
          1    1    1    2  502    0 -0.54184576995E+02  0.14206343063E+03  0.67837906584E+03  0.69520942433E+03  0.00000000000E+00 0. -1.
         22    1    1    2    0    0 -0.39735361059E+02 -0.25865171893E+02 -0.48981818618E+02  0.68169821701E+02  0.00000000000E+00 0. -1.
         22    1    1    2    0    0  0.89365399046E+01 -0.18615381050E+02  0.60928413188E+02  0.64332462184E+02  0.00000000000E+00 0. -1.
</event>
<event>
 6    1  0.1383644E-005  0.8472566E+02  0.7818608E-02  0.1391369E+00
          2   -1    0    0  502    0  0.00000000000E+00  0.00000000000E+00  0.37772517552E+03  0.37772517552E+03  0.00000000000E+00 0. -1.
          1   -1    0    0  501    0 -0.00000000000E+00 -0.00000000000E+00 -0.36021019572E+02  0.36021019572E+02  0.00000000000E+00 0.  1.
          2    1    1    2  501    0  0.89824895304E+01 -0.37549739944E+02  0.64661579817E+02  0.75311274006E+02  0.00000000000E+00 0. -1.
          1    1    1    2  502    0 -0.17749943392E+01  0.65237429839E+02  0.11986566596E+03  0.13648022103E+03  0.00000000000E+00 0.  1.
         22    1    1    2    0    0 -0.22708167155E+02 -0.45515859009E+02  0.16831727366E+03  0.17583531752E+03  0.00000000000E+00 0.  1.
         22    1    1    2    0    0  0.15500671963E+02  0.17828169113E+02 -0.11140363486E+02  0.26119382532E+02  0.00000000000E+00 0.  1.
</event>
<event>
 6    1  0.1383644E-005  0.8801771E+02  0.7818608E-02  0.1415026E+00
          2   -1    0    0  502    0  0.00000000000E+00  0.00000000000E+00  0.11236966577E+03  0.11236966577E+03  0.00000000000E+00 0. -1.
          1   -1    0    0  501    0 -0.00000000000E+00 -0.00000000000E+00 -0.13206330889E+03  0.13206330889E+03  0.00000000000E+00 0. -1.
          2    1    1    2  501    0  0.26560491252E+01 -0.21717452338E+02  0.18078246259E+02  0.28381777971E+02  0.00000000000E+00 0. -1.
          1    1    1    2  502    0 -0.66466198061E+02  0.22376449890E+02 -0.93413652829E+01  0.70751127904E+02  0.00000000000E+00 0. -1.
         22    1    1    2    0    0 -0.33417236396E+01  0.14122595592E+02 -0.65566278607E+02  0.67153195855E+02  0.00000000000E+00 0. -1.
         22    1    1    2    0    0  0.67151872575E+02 -0.14781593144E+02  0.37135754503E+02  0.78146872930E+02  0.00000000000E+00 0. -1.
</event>
<event>
 6    1  0.1383644E-005  0.4301565E+02  0.7818608E-02  0.1516112E+00
          2   -1    0    0  502    0  0.00000000000E+00  0.00000000000E+00  0.20479400411E+03  0.20479400411E+03  0.00000000000E+00 0.  1.
          1   -1    0    0  501    0 -0.00000000000E+00 -0.00000000000E+00 -0.88093218562E+02  0.88093218562E+02  0.00000000000E+00 0.  1.
          2    1    1    2  501    0  0.24204972654E+02  0.67645261996E+02  0.32221923973E+01  0.71917624373E+02  0.00000000000E+00 0.  1.
          1    1    1    2  502    0 -0.29297642949E+02 -0.54448834316E+02  0.18138529304E+02  0.64436276166E+02  0.00000000000E+00 0.  1.
         22    1    1    2    0    0  0.67630313044E+01  0.19491461328E+02  0.11600481692E+03  0.11782518070E+03  0.00000000000E+00 0.  1.
         22    1    1    2    0    0 -0.16703610088E+01 -0.32687889008E+02 -0.20664753076E+02  0.38708141435E+02  0.00000000000E+00 0. -1.
</event>
<event>
 6    1  0.1383644E-005  0.1053126E+03  0.7818608E-02  0.1328225E+00
          2   -1    0    0  502    0  0.00000000000E+00  0.00000000000E+00  0.13384634049E+03  0.13384634049E+03  0.00000000000E+00 0.  1.
          1   -1    0    0  501    0 -0.00000000000E+00 -0.00000000000E+00 -0.78089986190E+03  0.78089986190E+03  0.00000000000E+00 0.  1.
          2    1    1    2  501    0  0.21750446553E+02 -0.84057780833E+02  0.86981580173E+02  0.12290072308E+03  0.00000000000E+00 0.  1.
          1    1    1    2  502    0 -0.19451209652E+02  0.13111298304E+03 -0.55281903158E+03  0.56848733104E+03  0.00000000000E+00 0.  1.
         22    1    1    2    0    0 -0.12838530580E+02 -0.33186501485E+02 -0.19679670551E+03  0.19998778725E+03  0.00000000000E+00 0.  1.
         22    1    1    2    0    0  0.10539293679E+02 -0.13868700723E+02  0.15580635520E+02  0.23370361019E+02  0.00000000000E+00 0. -1.
</event>
<event>
 6    1  0.1383644E-005  0.5707689E+02  0.7818608E-02  0.1423009E+00
          2   -1    0    0  502    0  0.00000000000E+00  0.00000000000E+00  0.22104569525E+03  0.22104569525E+03  0.00000000000E+00 0. -1.
          1   -1    0    0  501    0 -0.00000000000E+00 -0.00000000000E+00 -0.61033226951E+02  0.61033226951E+02  0.00000000000E+00 0. -1.
          2    1    1    2  501    0 -0.24115803419E+02 -0.16729772518E+02  0.46424483971E+02  0.54924402363E+02  0.00000000000E+00 0. -1.
          1    1    1    2  502    0 -0.19316641338E+02  0.34307298967E+02  0.73813365134E+02  0.83657254721E+02  0.00000000000E+00 0. -1.
         22    1    1    2    0    0  0.48108869065E+01 -0.44471227991E+02  0.73191216860E+02  0.85777555207E+02  0.00000000000E+00 0. -1.
         22    1    1    2    0    0  0.38621557850E+02  0.26893701542E+02 -0.33416597661E+02  0.57719709914E+02  0.00000000000E+00 0. -1.
</event>
<event>
 6    1  0.4169916E-005  0.1451480E+03  0.7818608E-02  0.1295384E+00
          2   -1    0    0  502    0  0.00000000000E+00  0.00000000000E+00  0.10246468999E+03  0.10246468999E+03  0.00000000000E+00 0. -1.
          1   -1    0    0  501    0 -0.00000000000E+00 -0.00000000000E+00 -0.16512756173E+04  0.16512756173E+04  0.00000000000E+00 0.  1.
          2    1    1    2  501    0 -0.71544455626E+02 -0.11634913997E+02 -0.28058288760E+02  0.77725465085E+02  0.00000000000E+00 0. -1.
          1    1    1    2  502    0  0.10018385789E+03  0.91140444660E+00 -0.15394064225E+04  0.15426632068E+04  0.00000000000E+00 0.  1.
         22    1    1    2    0    0 -0.17544509396E+02  0.17282192979E+02 -0.54112424458E+02  0.59452825709E+02  0.00000000000E+00 0.  1.
         22    1    1    2    0    0 -0.11094892873E+02 -0.65586834283E+01  0.72766208443E+02  0.73898809648E+02  0.00000000000E+00 0. -1.
</event>
<event>
 6    1  0.1383644E-005  0.8070921E+02  0.7818608E-02  0.1376649E+00
          2   -1    0    0  502    0  0.00000000000E+00  0.00000000000E+00  0.29115590633E+03  0.29115590633E+03  0.00000000000E+00 0. -1.
          1   -1    0    0  501    0 -0.00000000000E+00 -0.00000000000E+00 -0.53749562528E+02  0.53749562528E+02  0.00000000000E+00 0.  1.
          2    1    1    2  501    0  0.24301612709E+02  0.39705369090E+02  0.11844837322E+03  0.12726783503E+03  0.00000000000E+00 0. -1.
          1    1    1    2  502    0 -0.15808956980E+02 -0.22388758850E+02 -0.19280090291E+02  0.33509722847E+02  0.00000000000E+00 0.  1.
         22    1    1    2    0    0 -0.34340801834E+02  0.58295175047E+01  0.14470098091E+03  0.14883429652E+03  0.00000000000E+00 0. -1.
         22    1    1    2    0    0  0.25848146105E+02 -0.23146127744E+02 -0.64629200318E+01  0.35293614464E+02  0.00000000000E+00 0.  1.
</event>
<event>
 6    1  0.1383644E-005  0.7327653E+02  0.7818608E-02  0.1352922E+00
          2   -1    0    0  502    0  0.00000000000E+00  0.00000000000E+00  0.36319560529E+03  0.36319560529E+03  0.00000000000E+00 0.  1.
          1   -1    0    0  501    0 -0.00000000000E+00 -0.00000000000E+00 -0.23579636291E+03  0.23579636291E+03  0.00000000000E+00 0. -1.
          2    1    1    2  501    0  0.42730737909E+02  0.26805349491E+02  0.24620918857E+03  0.25132331221E+03  0.00000000000E+00 0.  1.
          1    1    1    2  502    0 -0.35958927666E+02 -0.39662650342E+02 -0.19115307516E+03  0.19850861053E+03  0.00000000000E+00 0. -1.
         22    1    1    2    0    0  0.10914150832E+02  0.14558992292E+02  0.10789341994E+03  0.10941696857E+03  0.00000000000E+00 0. -1.
         22    1    1    2    0    0 -0.17685961075E+02 -0.17016914402E+01 -0.35550290963E+02  0.39743076887E+02  0.00000000000E+00 0.  1.
</event>
<event>
 6    1  0.1383644E-005  0.8424026E+02  0.7818608E-02  0.1445164E+00
          2   -1    0    0  502    0  0.00000000000E+00  0.00000000000E+00  0.15223129071E+03  0.15223129071E+03  0.00000000000E+00 0.  1.
          1   -1    0    0  501    0 -0.00000000000E+00 -0.00000000000E+00 -0.14268301955E+03  0.14268301955E+03  0.00000000000E+00 0.  1.
          2    1    1    2  501    0  0.34440268246E+02 -0.62410875564E+02 -0.13963221030E+02  0.72637600505E+02  0.00000000000E+00 0.  1.
          1    1    1    2  502    0  0.50790473661E+02  0.10136992543E+02 -0.19835536828E+02  0.55460610831E+02  0.00000000000E+00 0.  1.
         22    1    1    2    0    0 -0.75006592846E+02  0.54586619321E+02  0.83808872156E+02  0.12501845876E+03  0.00000000000E+00 0.  1.
         22    1    1    2    0    0 -0.10224149062E+02 -0.23127363005E+01 -0.40461843136E+02  0.41797640163E+02  0.00000000000E+00 0.  1.
</event>
<event>
 6    1  0.1383644E-005  0.2069584E+03  0.7818608E-02  0.1146687E+00
          2   -1    0    0  502    0  0.00000000000E+00  0.00000000000E+00  0.42110784010E+03  0.42110784010E+03  0.00000000000E+00 0. -1.
          1   -1    0    0  501    0 -0.00000000000E+00 -0.00000000000E+00 -0.31463141463E+03  0.31463141463E+03  0.00000000000E+00 0.  1.
          2    1    1    2  501    0  0.21740134483E+03 -0.68679314862E+01  0.19591150449E+03  0.29273167032E+03  0.00000000000E+00 0. -1.
          1    1    1    2  502    0 -0.12100169042E+03  0.16953037907E+03 -0.32480359194E+02  0.21080069318E+03  0.00000000000E+00 0.  1.
         22    1    1    2    0    0  0.12120166977E+02 -0.17601894452E+01  0.19981337524E+02  0.23436095316E+02  0.00000000000E+00 0. -1.
         22    1    1    2    0    0 -0.10851982138E+03 -0.16090225814E+03 -0.76936057348E+02  0.20877079591E+03  0.00000000000E+00 0. -1.
</event>
<event>
 6    1  0.1383644E-005  0.3619911E+02  0.7818608E-02  0.1569301E+00
          2   -1    0    0  502    0  0.00000000000E+00  0.00000000000E+00  0.19378627933E+03  0.19378627933E+03  0.00000000000E+00 0. -1.
          1   -1    0    0  501    0 -0.00000000000E+00 -0.00000000000E+00 -0.12914173108E+03  0.12914173108E+03  0.00000000000E+00 0. -1.
          2    1    1    2  501    0  0.22360737514E+02  0.25546727481E+01  0.14416035542E+03  0.14590660372E+03  0.00000000000E+00 0. -1.
          1    1    1    2  502    0 -0.18971753493E+02  0.90292242462E+01 -0.38002289255E+02  0.43423821915E+02  0.00000000000E+00 0. -1.
         22    1    1    2    0    0 -0.11702291622E+02 -0.21324877568E+02 -0.84923259658E+02  0.88338293302E+02  0.00000000000E+00 0. -1.
         22    1    1    2    0    0  0.83133076015E+01  0.97409805734E+01  0.43409741751E+02  0.45259291474E+02  0.00000000000E+00 0.  1.
</event>
<event>
 6    1  0.1383644E-005  0.3181036E+02  0.7818608E-02  0.1664819E+00
          2   -1    0    0  502    0  0.00000000000E+00  0.00000000000E+00  0.12155422423E+03  0.12155422423E+03  0.00000000000E+00 0.  1.
          1   -1    0    0  501    0 -0.00000000000E+00 -0.00000000000E+00 -0.10721066447E+04  0.10721066447E+04  0.00000000000E+00 0.  1.
          2    1    1    2  501    0  0.22955277451E+02  0.27044110664E+00  0.94201368756E+02  0.96958319791E+02  0.00000000000E+00 0.  1.
          1    1    1    2  502    0 -0.39135269089E+02 -0.38975317325E+02 -0.89941223201E+03  0.90110654627E+03  0.00000000000E+00 0.  1.
         22    1    1    2    0    0  0.80394057729E+01  0.83085536017E+01  0.22250743377E+02  0.25075081036E+02  0.00000000000E+00 0. -1.
         22    1    1    2    0    0  0.81405858644E+01  0.30396322616E+02 -0.16759230055E+03  0.17052092179E+03  0.00000000000E+00 0. -1.
</event>
<event>
 6    1  0.1383644E-005  0.6885411E+02  0.7818608E-02  0.1442053E+00
          2   -1    0    0  502    0  0.00000000000E+00  0.00000000000E+00  0.57761860497E+03  0.57761860497E+03  0.00000000000E+00 0.  1.
          1   -1    0    0  501    0 -0.00000000000E+00 -0.00000000000E+00 -0.54450182950E+02  0.54450182950E+02  0.00000000000E+00 0.  1.
          2    1    1    2  501    0 -0.20725860358E+02  0.61235048465E+02  0.27946098282E+03  0.28684095482E+03  0.00000000000E+00 0.  1.
          1    1    1    2  502    0 -0.36113283756E+02 -0.97904445537E+02  0.99302639997E+02  0.14405021357E+03  0.00000000000E+00 0.  1.
         22    1    1    2    0    0  0.53398205684E+01  0.15827496513E+02 -0.20918215308E+02  0.26769293253E+02  0.00000000000E+00 0.  1.
         22    1    1    2    0    0  0.51499323546E+02  0.20841900558E+02  0.16532301452E+03  0.17440832627E+03  0.00000000000E+00 0.  1.
</event>
<event>
 6    1  0.1383644E-005  0.1053430E+03  0.7818608E-02  0.1329036E+00
          2   -1    0    0  502    0  0.00000000000E+00  0.00000000000E+00  0.47968319635E+02  0.47968319635E+02  0.00000000000E+00 0.  1.
          1   -1    0    0  501    0 -0.00000000000E+00 -0.00000000000E+00 -0.34884259709E+03  0.34884259709E+03  0.00000000000E+00 0. -1.
          2    1    1    2  501    0 -0.28856877470E+01  0.20627730328E+02 -0.36029083692E+02  0.41616406908E+02  0.00000000000E+00 0.  1.
          1    1    1    2  502    0  0.55377431141E+02 -0.24669747797E+02 -0.19231193858E+03  0.20164111202E+03  0.00000000000E+00 0. -1.
         22    1    1    2    0    0 -0.71505218886E+02  0.33484107814E+02 -0.70374707659E+01  0.79269841673E+02  0.00000000000E+00 0.  1.
         22    1    1    2    0    0  0.19013475492E+02 -0.29442090345E+02 -0.65495784416E+02  0.74283556124E+02  0.00000000000E+00 0. -1.
</event>
<event>
 6    1  0.1383644E-005  0.4652344E+02  0.7818608E-02  0.1467894E+00
          2   -1    0    0  502    0  0.00000000000E+00  0.00000000000E+00  0.11683318782E+03  0.11683318782E+03  0.00000000000E+00 0.  1.
          1   -1    0    0  501    0 -0.00000000000E+00 -0.00000000000E+00 -0.15911033545E+03  0.15911033545E+03  0.00000000000E+00 0.  1.
          2    1    1    2  501    0  0.28954042323E+02 -0.14484120090E+02  0.62055387397E+02  0.69992838252E+02  0.00000000000E+00 0.  1.
          1    1    1    2  502    0  0.15849245474E+02  0.36190577093E+02 -0.85152339591E+01  0.40416155951E+02  0.00000000000E+00 0.  1.
         22    1    1    2    0    0 -0.52143990607E+02 -0.12015923988E+02 -0.12388471843E+03  0.13494740326E+03  0.00000000000E+00 0.  1.
         22    1    1    2    0    0  0.73407028102E+01 -0.96905330154E+01  0.28067417361E+02  0.30587125808E+02  0.00000000000E+00 0. -1.
</event>
<event>
 6    1  0.1383644E-005  0.1297263E+03  0.7818608E-02  0.1236971E+00
          2   -1    0    0  502    0  0.00000000000E+00  0.00000000000E+00  0.14336825753E+03  0.14336825753E+03  0.00000000000E+00 0. -1.
          1   -1    0    0  501    0 -0.00000000000E+00 -0.00000000000E+00 -0.27031446706E+03  0.27031446706E+03  0.00000000000E+00 0. -1.
          2    1    1    2  501    0 -0.15438416545E+02  0.54901579379E+02 -0.44761720859E+02  0.72499239844E+02  0.00000000000E+00 0. -1.
          1    1    1    2  502    0  0.12557220470E+03 -0.85029733256E+02  0.32832609277E+01  0.15168788328E+03  0.00000000000E+00 0. -1.
         22    1    1    2    0    0 -0.10363220925E+03 -0.28823089394E+02 -0.69535220167E+02  0.12808416030E+03  0.00000000000E+00 0. -1.
         22    1    1    2    0    0 -0.65015788991E+01  0.58951243271E+02 -0.15932529438E+02  0.61411441163E+02  0.00000000000E+00 0. -1.
</event>
<event>
 6    1  0.1383644E-005  0.1452471E+03  0.7818608E-02  0.1297641E+00
          2   -1    0    0  502    0  0.00000000000E+00  0.00000000000E+00  0.10965675645E+04  0.10965675645E+04  0.00000000000E+00 0.  1.
          1   -1    0    0  501    0 -0.00000000000E+00 -0.00000000000E+00 -0.83468759799E+02  0.83468759799E+02  0.00000000000E+00 0.  1.
          2    1    1    2  501    0 -0.15737365856E+03  0.11056583326E+03  0.34717626584E+03  0.39689120859E+03  0.00000000000E+00 0.  1.
          1    1    1    2  502    0  0.23946655377E+03 -0.33767902100E+02  0.37527083107E+03  0.44644450745E+03  0.00000000000E+00 0.  1.
         22    1    1    2    0    0 -0.78023239113E+02 -0.60998042487E+02  0.30133892946E+03  0.31719637046E+03  0.00000000000E+00 0. -1.
         22    1    1    2    0    0 -0.40696560954E+01 -0.15799888676E+02 -0.10687221696E+02  0.19504237757E+02  0.00000000000E+00 0.  1.
</event>
<event>
 6    1  0.1383644E-005  0.7395996E+02  0.7818608E-02  0.1387508E+00
          2   -1    0    0  502    0  0.00000000000E+00  0.00000000000E+00  0.53139051957E+03  0.53139051957E+03  0.00000000000E+00 0. -1.
          1   -1    0    0  501    0 -0.00000000000E+00 -0.00000000000E+00 -0.40040588920E+02  0.40040588920E+02  0.00000000000E+00 0. -1.
          2    1    1    2  501    0 -0.10746140965E+02  0.21583091778E+02  0.21503705137E+03  0.21638447925E+03  0.00000000000E+00 0. -1.
          1    1    1    2  502    0 -0.56356809923E+02 -0.26047227265E+02  0.30457543445E+02  0.69153525041E+02  0.00000000000E+00 0. -1.
         22    1    1    2    0    0  0.38273577018E+02  0.28897439822E+02  0.24333812913E+03  0.24801889810E+03  0.00000000000E+00 0.  1.
         22    1    1    2    0    0  0.28829373870E+02 -0.24433304335E+02  0.25172067044E+01  0.37874206104E+02  0.00000000000E+00 0. -1.
</event>
<event>
 6    1  0.1383644E-005  0.4107509E+02  0.7818608E-02  0.1609168E+00
          2   -1    0    0  502    0  0.00000000000E+00  0.00000000000E+00  0.24474644453E+03  0.24474644453E+03  0.00000000000E+00 0. -1.
          1   -1    0    0  501    0 -0.00000000000E+00 -0.00000000000E+00 -0.59440505877E+02  0.59440505877E+02  0.00000000000E+00 0. -1.
          2    1    1    2  501    0  0.17077858865E+02 -0.19439455540E+02  0.13404180504E+03  0.13651648689E+03  0.00000000000E+00 0. -1.
          1    1    1    2  502    0 -0.82054436534E+01  0.32548756165E+02 -0.19880179943E+01  0.33625928225E+02  0.00000000000E+00 0. -1.
         22    1    1    2    0    0  0.10265802685E+01 -0.15713550282E+02  0.92322395896E+02  0.93655722268E+02  0.00000000000E+00 0. -1.
         22    1    1    2    0    0 -0.98989954805E+01  0.26042496571E+01 -0.39070244294E+02  0.40388813018E+02  0.00000000000E+00 0. -1.
</event>
<event>
 6    1  0.1383644E-005  0.1253802E+03  0.7818608E-02  0.1271373E+00
          2   -1    0    0  502    0  0.00000000000E+00  0.00000000000E+00  0.34497470425E+04  0.34497470425E+04  0.00000000000E+00 0. -1.
          1   -1    0    0  501    0 -0.00000000000E+00 -0.00000000000E+00 -0.14430714744E+03  0.14430714744E+03  0.00000000000E+00 0.  1.
          2    1    1    2  501    0  0.82597812966E+02  0.26318361777E+03  0.31535592775E+04  0.31656001219E+04  0.00000000000E+00 0. -1.
          1    1    1    2  502    0  0.43296337000E+00 -0.23689144154E+03  0.39866048082E+02  0.24022290549E+03  0.00000000000E+00 0.  1.
         22    1    1    2    0    0 -0.54592756190E+02 -0.23309102715E+02 -0.12341523285E+02  0.60629996659E+02  0.00000000000E+00 0.  1.
         22    1    1    2    0    0 -0.28438020146E+02 -0.29830735200E+01  0.12435609281E+03  0.12760116589E+03  0.00000000000E+00 0. -1.
</event>
<event>
 6    1  0.1383644E-005  0.1305256E+03  0.7818608E-02  0.1328437E+00
          2   -1    0    0  502    0  0.00000000000E+00  0.00000000000E+00  0.51224728290E+03  0.51224728290E+03  0.00000000000E+00 0.  1.
          1   -1    0    0  501    0 -0.00000000000E+00 -0.00000000000E+00 -0.43200249479E+02  0.43200249479E+02  0.00000000000E+00 0. -1.
          2    1    1    2  501    0 -0.16624079705E+02 -0.41918302111E+02  0.21264853026E+03  0.21737732517E+03  0.00000000000E+00 0.  1.
          1    1    1    2  502    0  0.65183863750E+02 -0.22957111472E+01  0.29566773337E+02  0.71612851281E+02  0.00000000000E+00 0. -1.
         22    1    1    2    0    0 -0.60995442449E+02  0.58072196579E+02  0.23226388245E+03  0.24706139946E+03  0.00000000000E+00 0.  1.
         22    1    1    2    0    0  0.12435658403E+02 -0.13858183320E+02 -0.54321526241E+01  0.19395956460E+02  0.00000000000E+00 0.  1.
</event>
<event>
 6    1  0.1383644E-005  0.7672159E+02  0.7818608E-02  0.1408039E+00
          2   -1    0    0  502    0  0.00000000000E+00  0.00000000000E+00  0.39093134687E+02  0.39093134687E+02  0.00000000000E+00 0.  1.
          1   -1    0    0  501    0 -0.00000000000E+00 -0.00000000000E+00 -0.30483498965E+03  0.30483498965E+03  0.00000000000E+00 0.  1.
          2    1    1    2  501    0 -0.20637889928E+02  0.93850601873E+01 -0.17419342182E+02  0.28590826106E+02  0.00000000000E+00 0.  1.
          1    1    1    2  502    0  0.42457788484E+02 -0.39491094234E+02 -0.92582369586E+02  0.10924150074E+03  0.00000000000E+00 0.  1.
         22    1    1    2    0    0  0.19219812713E+02 -0.15083206990E+02 -0.14126136681E+03  0.14335856475E+03  0.00000000000E+00 0.  1.
         22    1    1    2    0    0 -0.41039711269E+02  0.45189241037E+02 -0.14478776393E+02  0.62737232744E+02  0.00000000000E+00 0.  1.
</event>
<event>
 6    1  0.1383644E-005  0.1850115E+03  0.7818608E-02  0.1294792E+00
          2   -1    0    0  502    0  0.00000000000E+00  0.00000000000E+00  0.18572531166E+03  0.18572531166E+03  0.00000000000E+00 0. -1.
          1   -1    0    0  501    0 -0.00000000000E+00 -0.00000000000E+00 -0.30704284229E+03  0.30704284229E+03  0.00000000000E+00 0.  1.
          2    1    1    2  501    0  0.80769790028E+02 -0.29285049940E+02  0.44345252365E+02  0.96684406904E+02  0.00000000000E+00 0. -1.
          1    1    1    2  502    0 -0.18625814829E+03  0.22638043207E+02 -0.12587408236E+03  0.22593995533E+03  0.00000000000E+00 0.  1.
         22    1    1    2    0    0  0.10798601345E+02 -0.52868301539E+01 -0.69230610976E+02  0.70266904445E+02  0.00000000000E+00 0.  1.
         22    1    1    2    0    0  0.94689756920E+02  0.11933836888E+02  0.29441910337E+02  0.99876887280E+02  0.00000000000E+00 0.  1.
</event>
<event>
 6    1  0.1383644E-005  0.3351121E+03  0.7818608E-02  0.1092532E+00
          2   -1    0    0  502    0  0.00000000000E+00  0.00000000000E+00  0.22048557284E+04  0.22048557284E+04  0.00000000000E+00 0. -1.
          1   -1    0    0  501    0 -0.00000000000E+00 -0.00000000000E+00 -0.94217010235E+02  0.94217010235E+02  0.00000000000E+00 0. -1.
          2    1    1    2  501    0 -0.89303473736E+02 -0.17221973605E+03  0.21833278868E+03  0.29206840726E+03  0.00000000000E+00 0. -1.
          1    1    1    2  502    0  0.20505811517E+03  0.35684357705E+03  0.10468421498E+04  0.11248398356E+04  0.00000000000E+00 0. -1.
         22    1    1    2    0    0 -0.72829552337E+02 -0.16179325533E+03  0.78384036806E+03  0.80367090514E+03  0.00000000000E+00 0. -1.
         22    1    1    2    0    0 -0.42925089098E+02 -0.22830585672E+02  0.61623411600E+02  0.78493590652E+02  0.00000000000E+00 0. -1.
</event>
<event>
 6    1  0.1383644E-005  0.2099145E+03  0.7818608E-02  0.1145387E+00
          2   -1    0    0  502    0  0.00000000000E+00  0.00000000000E+00  0.15398711748E+03  0.15398711748E+03  0.00000000000E+00 0.  1.
          1   -1    0    0  501    0 -0.00000000000E+00 -0.00000000000E+00 -0.81438609726E+03  0.81438609726E+03  0.00000000000E+00 0.  1.
          2    1    1    2  501    0 -0.99533002088E+02 -0.75658052496E+02 -0.36817369232E+03  0.38882235934E+03  0.00000000000E+00 0.  1.
          1    1    1    2  502    0 -0.23976562772E+02 -0.14595644546E+03 -0.25472545899E+03  0.29455596920E+03  0.00000000000E+00 0.  1.
         22    1    1    2    0    0  0.38241062171E+02  0.49749647177E+02 -0.65961774201E+02  0.91040440937E+02  0.00000000000E+00 0.  1.
         22    1    1    2    0    0  0.85268502689E+02  0.17186485078E+03  0.28461945725E+02  0.19395444526E+03  0.00000000000E+00 0.  1.
</event>
<event>
 6    1  0.1383644E-005  0.5443659E+02  0.7818608E-02  0.1482440E+00
          2   -1    0    0  502    0  0.00000000000E+00  0.00000000000E+00  0.49973731722E+03  0.49973731722E+03  0.00000000000E+00 0.  1.
          1   -1    0    0  501    0 -0.00000000000E+00 -0.00000000000E+00 -0.13604926853E+03  0.13604926853E+03  0.00000000000E+00 0.  1.
          2    1    1    2  501    0  0.11642763778E+03 -0.13028095346E+02  0.40098778477E+03  0.41775151663E+03  0.00000000000E+00 0.  1.
          1    1    1    2  502    0 -0.86323475636E+02 -0.75763743204E+01 -0.23150809243E+02  0.89694502966E+02  0.00000000000E+00 0.  1.
         22    1    1    2    0    0 -0.11798291339E+02 -0.11400094978E+01  0.53587125910E+02  0.54882413973E+02  0.00000000000E+00 0.  1.
         22    1    1    2    0    0 -0.18305870802E+02  0.21744479165E+02 -0.67736052749E+02  0.73458152181E+02  0.00000000000E+00 0.  1.
</event>
<event>
 6    1  0.1383644E-005  0.1376041E+03  0.7818608E-02  0.1320144E+00
          2   -1    0    0  502    0  0.00000000000E+00  0.00000000000E+00  0.73700541128E+03  0.73700541128E+03  0.00000000000E+00 0.  1.
          1   -1    0    0  501    0 -0.00000000000E+00 -0.00000000000E+00 -0.66401804702E+02  0.66401804702E+02  0.00000000000E+00 0.  1.
          2    1    1    2  501    0  0.11319475263E+03 -0.46824823489E+02  0.37663818253E+03  0.39605799659E+03  0.00000000000E+00 0.  1.
          1    1    1    2  502    0  0.58586383621E+02 -0.16349768445E+02  0.69627361688E+02  0.92453495173E+02  0.00000000000E+00 0.  1.
         22    1    1    2    0    0  0.42488681318E+01 -0.17914675379E+02 -0.29419141571E-01  0.18411663146E+02  0.00000000000E+00 0. -1.
         22    1    1    2    0    0 -0.17603000439E+03  0.81089267312E+02  0.22436748150E+03  0.29648406108E+03  0.00000000000E+00 0.  1.
</event>
<event>
 6    1  0.1383644E-005  0.4664434E+02  0.7818608E-02  0.1516163E+00
          2   -1    0    0  502    0  0.00000000000E+00  0.00000000000E+00  0.14941151103E+03  0.14941151103E+03  0.00000000000E+00 0. -1.
          1   -1    0    0  501    0 -0.00000000000E+00 -0.00000000000E+00 -0.16120271359E+03  0.16120271359E+03  0.00000000000E+00 0.  1.
          2    1    1    2  501    0  0.16818939105E+02  0.15221965676E+02  0.74721031876E+02  0.78088523845E+02  0.00000000000E+00 0. -1.
          1    1    1    2  502    0 -0.58762236717E+01 -0.29809352620E+02 -0.99279155233E+02  0.10382426581E+03  0.00000000000E+00 0.  1.
         22    1    1    2    0    0 -0.21378946709E+02 -0.74966133952E+01 -0.53487671547E+02  0.58087774809E+02  0.00000000000E+00 0. -1.
         22    1    1    2    0    0  0.10436231275E+02  0.22084000339E+02  0.66254592341E+02  0.70613660155E+02  0.00000000000E+00 0. -1.
</event>
<event>
 6    1  0.1383644E-005  0.4290717E+02  0.7818608E-02  0.1506633E+00
          2   -1    0    0  502    0  0.00000000000E+00  0.00000000000E+00  0.15831286237E+03  0.15831286237E+03  0.00000000000E+00 0. -1.
          1   -1    0    0  501    0 -0.00000000000E+00 -0.00000000000E+00 -0.86880071213E+02  0.86880071213E+02  0.00000000000E+00 0.  1.
          2    1    1    2  501    0  0.61801684398E+01  0.19328933382E+02  0.40408129859E+02  0.45217464616E+02  0.00000000000E+00 0. -1.
          1    1    1    2  502    0 -0.35635545591E+02  0.46951451297E+01 -0.35186219255E+02  0.50299170200E+02  0.00000000000E+00 0.  1.
         22    1    1    2    0    0  0.10442364059E+01  0.27653354391E+02  0.83707392705E+02  0.88163065011E+02  0.00000000000E+00 0. -1.
         22    1    1    2    0    0  0.28411140745E+02 -0.51677432904E+02 -0.17496512150E+02  0.61513233758E+02  0.00000000000E+00 0.  1.
</event>
<event>
 6    1  0.1383644E-005  0.1154036E+03  0.7818608E-02  0.1294908E+00
          2   -1    0    0  502    0  0.00000000000E+00  0.00000000000E+00  0.11990601890E+04  0.11990601890E+04  0.00000000000E+00 0.  1.
          1   -1    0    0  501    0 -0.00000000000E+00 -0.00000000000E+00 -0.33370815757E+02  0.33370815757E+02  0.00000000000E+00 0. -1.
          2    1    1    2  501    0  0.54984401714E+02  0.74741300572E+02  0.25305347027E+03  0.26952848692E+03  0.00000000000E+00 0.  1.
          1    1    1    2  502    0 -0.85279176800E+02 -0.44628579017E+02  0.73694201350E+03  0.74320103560E+03  0.00000000000E+00 0. -1.
         22    1    1    2    0    0 -0.23875701629E+02 -0.43285921039E+02  0.18277366797E+02  0.52704669864E+02  0.00000000000E+00 0. -1.
         22    1    1    2    0    0  0.54170476715E+02  0.13173199485E+02  0.15741652270E+03  0.16699681240E+03  0.00000000000E+00 0. -1.
</event>
<event>
 6    1  0.1383644E-005  0.8693587E+02  0.7818608E-02  0.1361419E+00
          2   -1    0    0  502    0  0.00000000000E+00  0.00000000000E+00  0.81986389924E+03  0.81986389924E+03  0.00000000000E+00 0.  1.
          1   -1    0    0  501    0 -0.00000000000E+00 -0.00000000000E+00 -0.98836198210E+02  0.98836198210E+02  0.00000000000E+00 0. -1.
          2    1    1    2  501    0  0.55790491582E+02 -0.85990225985E+02  0.31673398881E+03  0.33290737088E+03  0.00000000000E+00 0.  1.
          1    1    1    2  502    0 -0.89694935509E+02 -0.23548125527E+02 -0.47695920639E+02  0.10428133350E+03  0.00000000000E+00 0. -1.
         22    1    1    2    0    0  0.73519824009E+01  0.85618355033E+02  0.43219981714E+03  0.44066000080E+03  0.00000000000E+00 0.  1.
         22    1    1    2    0    0  0.26552461526E+02  0.23919996480E+02  0.19789815719E+02  0.40851392276E+02  0.00000000000E+00 0.  1.
</event>
<event>
 6    1  0.1383644E-005  0.6589115E+02  0.7818608E-02  0.1375101E+00
          2   -1    0    0  502    0  0.00000000000E+00  0.00000000000E+00  0.27031440946E+03  0.27031440946E+03  0.00000000000E+00 0.  1.
          1   -1    0    0  501    0 -0.00000000000E+00 -0.00000000000E+00 -0.12145721062E+03  0.12145721062E+03  0.00000000000E+00 0. -1.
          2    1    1    2  501    0  0.24462106796E+02  0.88328417610E+01  0.10725391468E+03  0.11036220357E+03  0.00000000000E+00 0.  1.
          1    1    1    2  502    0 -0.47785874245E+02 -0.26756300992E+02 -0.86068668091E+02  0.10201570981E+03  0.00000000000E+00 0. -1.
         22    1    1    2    0    0 -0.44409248246E+01 -0.99599633717E+01 -0.22043559708E+02  0.24593519639E+02  0.00000000000E+00 0. -1.
         22    1    1    2    0    0  0.27764692274E+02  0.27883422603E+02  0.14971551196E+03  0.15480018706E+03  0.00000000000E+00 0.  1.
</event>
<event>
 6    1  0.1383644E-005  0.5111830E+02  0.7818608E-02  0.1540891E+00
          2   -1    0    0  502    0  0.00000000000E+00  0.00000000000E+00  0.12296488307E+04  0.12296488307E+04  0.00000000000E+00 0.  1.
          1   -1    0    0  501    0 -0.00000000000E+00 -0.00000000000E+00 -0.22241025517E+03  0.22241025517E+03  0.00000000000E+00 0.  1.
          2    1    1    2  501    0 -0.56384592248E+01 -0.45017425176E+02  0.10400742839E+04  0.10410633395E+04  0.00000000000E+00 0.  1.
          1    1    1    2  502    0  0.40438694322E+02  0.66486666582E+02  0.16124275554E+03  0.17903907687E+03  0.00000000000E+00 0.  1.
         22    1    1    2    0    0 -0.47044782558E+02 -0.19434996519E+02 -0.20751371648E+03  0.21366532986E+03  0.00000000000E+00 0.  1.
         22    1    1    2    0    0  0.12244547461E+02 -0.20342448862E+01  0.13435252615E+02  0.18291339689E+02  0.00000000000E+00 0.  1.
</event>
<event>
 6    1  0.1383644E-005  0.7943835E+02  0.7818608E-02  0.1395485E+00
          2   -1    0    0  502    0  0.00000000000E+00  0.00000000000E+00  0.11740210790E+03  0.11740210790E+03  0.00000000000E+00 0. -1.
          1   -1    0    0  501    0 -0.00000000000E+00 -0.00000000000E+00 -0.14076110876E+03  0.14076110876E+03  0.00000000000E+00 0.  1.
          2    1    1    2  501    0  0.10082121052E+02  0.18624766245E+02  0.24388210239E+02  0.32300400636E+02  0.00000000000E+00 0. -1.
          1    1    1    2  502    0  0.12622423236E+02 -0.73486779244E+02 -0.44766974005E+02  0.86969616841E+02  0.00000000000E+00 0.  1.
         22    1    1    2    0    0  0.37241219571E+01  0.59524579545E+02  0.51088405750E+02  0.78530693721E+02  0.00000000000E+00 0.  1.
         22    1    1    2    0    0 -0.26428666244E+02 -0.46625665453E+01 -0.54068642842E+02  0.60362505457E+02  0.00000000000E+00 0.  1.
</event>
<event>
 6    1  0.1383644E-005  0.1206080E+03  0.7818608E-02  0.1369619E+00
          2   -1    0    0  502    0  0.00000000000E+00  0.00000000000E+00  0.62437509386E+03  0.62437509386E+03  0.00000000000E+00 0. -1.
          1   -1    0    0  501    0 -0.00000000000E+00 -0.00000000000E+00 -0.12064355278E+03  0.12064355278E+03  0.00000000000E+00 0. -1.
          2    1    1    2  501    0  0.17674857416E+02 -0.31303997429E+02  0.12715249096E+03  0.13213665955E+03  0.00000000000E+00 0. -1.
          1    1    1    2  502    0 -0.92067167929E+02  0.30869397939E+02 -0.85332204256E+02  0.12927052341E+03  0.00000000000E+00 0. -1.
         22    1    1    2    0    0 -0.77763257516E+01  0.87076544307E+01 -0.24793730585E+01  0.11934897513E+02  0.00000000000E+00 0.  1.
         22    1    1    2    0    0  0.82168636265E+02 -0.82730549406E+01  0.46439062743E+03  0.47167656616E+03  0.00000000000E+00 0. -1.
</event>
<event>
 6    1  0.1383644E-005  0.7432406E+02  0.7818608E-02  0.1434482E+00
          2   -1    0    0  502    0  0.00000000000E+00  0.00000000000E+00  0.14470599058E+03  0.14470599058E+03  0.00000000000E+00 0. -1.
          1   -1    0    0  501    0 -0.00000000000E+00 -0.00000000000E+00 -0.10666197227E+03  0.10666197227E+03  0.00000000000E+00 0. -1.
          2    1    1    2  501    0  0.19393716382E+02 -0.12643613737E+02  0.53728672913E+02  0.58504251952E+02  0.00000000000E+00 0. -1.
          1    1    1    2  502    0 -0.52861965181E+02  0.18186045281E+02 -0.35992261360E+02  0.66487310696E+02  0.00000000000E+00 0. -1.
         22    1    1    2    0    0 -0.17343863614E+02  0.44494310045E+01 -0.41822722861E+02  0.45494474267E+02  0.00000000000E+00 0. -1.
         22    1    1    2    0    0  0.50812112413E+02 -0.99918625486E+01  0.62130329612E+02  0.80881925934E+02  0.00000000000E+00 0. -1.
</event>
<event>
 6    1  0.1383644E-005  0.9305451E+02  0.7818608E-02  0.1417563E+00
          2   -1    0    0  502    0  0.00000000000E+00  0.00000000000E+00  0.60641447900E+03  0.60641447900E+03  0.00000000000E+00 0. -1.
          1   -1    0    0  501    0 -0.00000000000E+00 -0.00000000000E+00 -0.54686394092E+02  0.54686394092E+02  0.00000000000E+00 0.  1.
          2    1    1    2  501    0  0.27344740884E+02 -0.58851915125E+01  0.21968087216E+03  0.22145441049E+03  0.00000000000E+00 0. -1.
          1    1    1    2  502    0 -0.91435327944E+02 -0.61844242397E+00  0.14561405544E+02  0.92589611721E+02  0.00000000000E+00 0.  1.
         22    1    1    2    0    0  0.88630209810E+00  0.11775533367E+02 -0.87599977385E+01  0.14703274393E+02  0.00000000000E+00 0.  1.
         22    1    1    2    0    0  0.63204284962E+02 -0.52718994308E+01  0.32624580494E+03  0.33235357648E+03  0.00000000000E+00 0. -1.
</event>
<event>
 6    1  0.1383644E-005  0.5721525E+02  0.7818608E-02  0.1469563E+00
          2   -1    0    0  502    0  0.00000000000E+00  0.00000000000E+00  0.67750614591E+02  0.67750614591E+02  0.00000000000E+00 0.  1.
          1   -1    0    0  501    0 -0.00000000000E+00 -0.00000000000E+00 -0.18089297806E+03  0.18089297806E+03  0.00000000000E+00 0.  1.
          2    1    1    2  501    0 -0.33786956241E+02 -0.11286158553E+01 -0.18738685834E+02  0.38651914992E+02  0.00000000000E+00 0.  1.
          1    1    1    2  502    0  0.33813801333E+02 -0.78105416160E+00  0.21209653954E+02  0.39922833404E+02  0.00000000000E+00 0.  1.
         22    1    1    2    0    0  0.20311317425E+02  0.11700504345E+02 -0.13698992645E+03  0.13898090288E+03  0.00000000000E+00 0.  1.
         22    1    1    2    0    0 -0.20338162517E+02 -0.97908343281E+01  0.21376594856E+02  0.31087941377E+02  0.00000000000E+00 0.  1.
</event>
<event>
 6    1  0.1383644E-005  0.7646247E+02  0.7818608E-02  0.1420971E+00
          2   -1    0    0  502    0  0.00000000000E+00  0.00000000000E+00  0.66465484364E+02  0.66465484364E+02  0.00000000000E+00 0.  1.
          1   -1    0    0  501    0 -0.00000000000E+00 -0.00000000000E+00 -0.23264122362E+03  0.23264122362E+03  0.00000000000E+00 0.  1.
          2    1    1    2  501    0 -0.22837470989E+02 -0.22723672452E+02  0.90543883666E+01  0.33464866944E+02  0.00000000000E+00 0.  1.
          1    1    1    2  502    0  0.46267886303E+02  0.80459395955E+01 -0.11083288894E+03  0.12037185600E+03  0.00000000000E+00 0.  1.
         22    1    1    2    0    0  0.20061578072E+02 -0.23330257067E+01 -0.89844426731E+02  0.92086540484E+02  0.00000000000E+00 0.  1.
         22    1    1    2    0    0 -0.43491993385E+02  0.17010758563E+02  0.25447188044E+02  0.53183444556E+02  0.00000000000E+00 0.  1.
</event>
<event>
 6    1  0.1383644E-005  0.9647566E+02  0.7818608E-02  0.1365973E+00
          2   -1    0    0  502    0  0.00000000000E+00  0.00000000000E+00  0.28059344840E+03  0.28059344840E+03  0.00000000000E+00 0. -1.
          1   -1    0    0  501    0 -0.00000000000E+00 -0.00000000000E+00 -0.20243150098E+03  0.20243150098E+03  0.00000000000E+00 0.  1.
          2    1    1    2  501    0  0.37710983094E+02  0.62944523699E+02  0.17625133153E+03  0.19091532986E+03  0.00000000000E+00 0. -1.
          1    1    1    2  502    0 -0.59090323277E+02 -0.64372414519E+02 -0.13167346910E+03  0.15802966975E+03  0.00000000000E+00 0.  1.
         22    1    1    2    0    0  0.75385150118E+01  0.21320025401E+02  0.79233282352E+02  0.82397122062E+02  0.00000000000E+00 0.  1.
         22    1    1    2    0    0  0.13840825171E+02 -0.19892134581E+02 -0.45649197362E+02  0.51682827703E+02  0.00000000000E+00 0.  1.
</event>
<event>
 6    1  0.1383644E-005  0.2313955E+03  0.7818608E-02  0.1260363E+00
          2   -1    0    0  502    0  0.00000000000E+00  0.00000000000E+00  0.12983658226E+04  0.12983658226E+04  0.00000000000E+00 0.  1.
          1   -1    0    0  501    0 -0.00000000000E+00 -0.00000000000E+00 -0.45792311659E+02  0.45792311659E+02  0.00000000000E+00 0. -1.
          2    1    1    2  501    0 -0.53434913978E+01  0.46599677722E+02  0.13218867006E+03  0.14026377778E+03  0.00000000000E+00 0.  1.
          1    1    1    2  502    0  0.16885016661E+03 -0.13333598171E+03  0.47007466230E+03  0.51697103489E+03  0.00000000000E+00 0. -1.
         22    1    1    2    0    0 -0.66791907627E+01 -0.98065769519E+01  0.89279875955E+00  0.11898639854E+02  0.00000000000E+00 0. -1.
         22    1    1    2    0    0 -0.15682748445E+03  0.96542880937E+02  0.64941737981E+03  0.67502468172E+03  0.00000000000E+00 0.  1.
</event>
<event>
 6    1  0.1383644E-005  0.3911795E+02  0.7818608E-02  0.1515524E+00
          2   -1    0    0  502    0  0.00000000000E+00  0.00000000000E+00  0.26238113964E+02  0.26238113964E+02  0.00000000000E+00 0.  1.
          1   -1    0    0  501    0 -0.00000000000E+00 -0.00000000000E+00 -0.36524660279E+03  0.36524660279E+03  0.00000000000E+00 0.  1.
          2    1    1    2  501    0 -0.42724149897E+01  0.20100871387E+02 -0.63892171123E+01  0.21520238281E+02  0.00000000000E+00 0.  1.
          1    1    1    2  502    0 -0.12477117957E+02  0.24068597601E+02 -0.88646174010E+02  0.92699083219E+02  0.00000000000E+00 0.  1.
         22    1    1    2    0    0  0.33835388424E+01  0.15485544544E+02  0.81590769754E+01  0.17827533818E+02  0.00000000000E+00 0. -1.
         22    1    1    2    0    0  0.13365994104E+02 -0.59655013532E+02 -0.25213217468E+03  0.25943786143E+03  0.00000000000E+00 0.  1.
</event>
<event>
 6    1  0.1383644E-005  0.2132032E+03  0.7818608E-02  0.1202243E+00
          2   -1    0    0  502    0  0.00000000000E+00  0.00000000000E+00  0.13381100828E+04  0.13381100828E+04  0.00000000000E+00 0. -1.
          1   -1    0    0  501    0 -0.00000000000E+00 -0.00000000000E+00 -0.81311640286E+02  0.81311640286E+02  0.00000000000E+00 0. -1.
          2    1    1    2  501    0  0.23168212289E+02  0.14010614424E+03  0.82799606862E+02  0.16438452668E+03  0.00000000000E+00 0. -1.
          1    1    1    2  502    0 -0.25720804825E+02 -0.17813845035E+03  0.10681907751E+04  0.10832480784E+04  0.00000000000E+00 0. -1.
         22    1    1    2    0    0  0.50255373674E+02  0.22166468822E+02  0.10832428009E+03  0.12145412542E+03  0.00000000000E+00 0. -1.
         22    1    1    2    0    0 -0.47702781139E+02  0.15865837284E+02 -0.25162195371E+01  0.50334992618E+02  0.00000000000E+00 0. -1.
</event>
<event>
 6    1  0.1383644E-005  0.7751437E+02  0.7818608E-02  0.1341429E+00
          2   -1    0    0  502    0  0.00000000000E+00  0.00000000000E+00  0.35879956604E+03  0.35879956604E+03  0.00000000000E+00 0.  1.
          1   -1    0    0  501    0 -0.00000000000E+00 -0.00000000000E+00 -0.12525871734E+03  0.12525871734E+03  0.00000000000E+00 0. -1.
          2    1    1    2  501    0 -0.11336879394E+01 -0.57478640626E+02  0.28357374312E+03  0.28934261207E+03  0.00000000000E+00 0.  1.
          1    1    1    2  502    0 -0.97668829511E+01  0.46620372094E+02 -0.45720065018E+02  0.66024051996E+02  0.00000000000E+00 0. -1.
         22    1    1    2    0    0  0.48348879378E+01 -0.12406094948E+02  0.59253241957E+02  0.60730832496E+02  0.00000000000E+00 0.  1.
         22    1    1    2    0    0  0.60656829527E+01  0.23264363480E+02 -0.63566071353E+02  0.67960786819E+02  0.00000000000E+00 0. -1.
</event>
<event>
 6    1  0.1383644E-005  0.1891299E+02  0.7818608E-02  0.1769896E+00
          2   -1    0    0  502    0  0.00000000000E+00  0.00000000000E+00  0.13918757057E+03  0.13918757057E+03  0.00000000000E+00 0. -1.
          1   -1    0    0  501    0 -0.00000000000E+00 -0.00000000000E+00 -0.10037758293E+03  0.10037758293E+03  0.00000000000E+00 0. -1.
          2    1    1    2  501    0 -0.25004872249E+02 -0.13784454522E+02  0.36140103193E+02  0.46058244446E+02  0.00000000000E+00 0. -1.
          1    1    1    2  502    0  0.15866187929E+02  0.21340371161E+02  0.49394519970E+02  0.56097824946E+02  0.00000000000E+00 0. -1.
         22    1    1    2    0    0 -0.26869743116E+01 -0.16820118585E+02  0.43096425192E+02  0.46340458398E+02  0.00000000000E+00 0. -1.
         22    1    1    2    0    0  0.11825658632E+02  0.92642019458E+01 -0.89821060719E+02  0.91068625708E+02  0.00000000000E+00 0. -1.
</event>
<event>
 6    1  0.1383644E-005  0.4737631E+02  0.7818608E-02  0.1569582E+00
          2   -1    0    0  502    0  0.00000000000E+00  0.00000000000E+00  0.31715152276E+03  0.31715152276E+03  0.00000000000E+00 0.  1.
          1   -1    0    0  501    0 -0.00000000000E+00 -0.00000000000E+00 -0.75535066302E+02  0.75535066302E+02  0.00000000000E+00 0. -1.
          2    1    1    2  501    0 -0.42868553315E+01  0.20542388601E+02  0.17888102590E+03  0.18010771301E+03  0.00000000000E+00 0.  1.
          1    1    1    2  502    0  0.96192088509E+01 -0.36278889067E+02 -0.34276759514E+02  0.50828960383E+02  0.00000000000E+00 0. -1.
         22    1    1    2    0    0  0.99265895460E+01 -0.42867666296E+01 -0.30196546008E+02  0.32074053984E+02  0.00000000000E+00 0. -1.
         22    1    1    2    0    0 -0.15258943065E+02  0.20023267095E+02  0.12720873608E+03  0.12967586168E+03  0.00000000000E+00 0.  1.
</event>
<event>
 6    1  0.1383644E-005  0.1187811E+03  0.7818608E-02  0.1301214E+00
          2   -1    0    0  502    0  0.00000000000E+00  0.00000000000E+00  0.10039525882E+03  0.10039525882E+03  0.00000000000E+00 0. -1.
          1   -1    0    0  501    0 -0.00000000000E+00 -0.00000000000E+00 -0.50663308852E+03  0.50663308852E+03  0.00000000000E+00 0. -1.
          2    1    1    2  501    0  0.22755663831E+02  0.10045260588E+02 -0.66776547417E+01  0.25754971744E+02  0.00000000000E+00 0. -1.
          1    1    1    2  502    0 -0.13060997460E+03 -0.68306398953E+02 -0.37810741310E+03  0.40582009000E+03  0.00000000000E+00 0. -1.
         22    1    1    2    0    0  0.39276394693E+02  0.92288041193E+01 -0.68062984077E+02  0.79122536657E+02  0.00000000000E+00 0. -1.
         22    1    1    2    0    0  0.68577916076E+02  0.49032334246E+02  0.46610222221E+02  0.96330748935E+02  0.00000000000E+00 0. -1.
</event>
<event>
 6    1  0.1383644E-005  0.9537515E+02  0.7818608E-02  0.1366126E+00
          2   -1    0    0  502    0  0.00000000000E+00  0.00000000000E+00  0.24844157274E+03  0.24844157274E+03  0.00000000000E+00 0. -1.
          1   -1    0    0  501    0 -0.00000000000E+00 -0.00000000000E+00 -0.12685949716E+03  0.12685949716E+03  0.00000000000E+00 0. -1.
          2    1    1    2  501    0 -0.22097068896E+02  0.45200215634E+02  0.74492486990E+02  0.89891437662E+02  0.00000000000E+00 0. -1.
          1    1    1    2  502    0  0.64104484970E+02 -0.67774889134E+02 -0.64926075286E+02  0.11365832940E+03  0.00000000000E+00 0. -1.
         22    1    1    2    0    0 -0.19256555463E+02  0.32982293596E+02  0.13344940443E+03  0.13880702490E+03  0.00000000000E+00 0. -1.
         22    1    1    2    0    0 -0.22750860612E+02 -0.10407620096E+02 -0.21433740546E+02  0.32944277932E+02  0.00000000000E+00 0.  1.
</event>
<event>
 6    1  0.1383644E-005  0.9113368E+02  0.7818608E-02  0.1309261E+00
          2   -1    0    0  502    0  0.00000000000E+00  0.00000000000E+00  0.20280019290E+03  0.20280019290E+03  0.00000000000E+00 0.  1.
          1   -1    0    0  501    0 -0.00000000000E+00 -0.00000000000E+00 -0.13404887065E+03  0.13404887065E+03  0.00000000000E+00 0.  1.
          2    1    1    2  501    0  0.89372998727E+02 -0.27716723773E+02  0.93399116596E+02  0.13220871628E+03  0.00000000000E+00 0.  1.
          1    1    1    2  502    0 -0.57517938300E+02 -0.25963391512E+02 -0.66965560691E+00  0.63109899094E+02  0.00000000000E+00 0.  1.
         22    1    1    2    0    0 -0.49905913128E+02  0.58781021175E+02 -0.62124586982E+02  0.99021578068E+02  0.00000000000E+00 0.  1.
         22    1    1    2    0    0  0.18050852701E+02 -0.51009058895E+01  0.38146448245E+02  0.42508870107E+02  0.00000000000E+00 0. -1.
</event>
<event>
 6    1  0.1383644E-005  0.5810961E+02  0.7818608E-02  0.1412907E+00
          2   -1    0    0  502    0  0.00000000000E+00  0.00000000000E+00  0.26565069046E+03  0.26565069046E+03  0.00000000000E+00 0. -1.
          1   -1    0    0  501    0 -0.00000000000E+00 -0.00000000000E+00 -0.42363097791E+02  0.42363097791E+02  0.00000000000E+00 0. -1.
          2    1    1    2  501    0 -0.90447927771E+01  0.54321231991E+02  0.74530325890E+02  0.92668085114E+02  0.00000000000E+00 0. -1.
          1    1    1    2  502    0  0.11759465315E+02 -0.16259068994E+02  0.43639122869E+02  0.48031400082E+02  0.00000000000E+00 0. -1.
         22    1    1    2    0    0  0.24637966618E+02 -0.56194759792E+02  0.45498666813E+01  0.61527081143E+02  0.00000000000E+00 0. -1.
         22    1    1    2    0    0 -0.27352639156E+02  0.18132596795E+02  0.10056827723E+03  0.10578722191E+03  0.00000000000E+00 0.  1.
</event>
<event>
 6    1  0.1383644E-005  0.1501427E+03  0.7818608E-02  0.1249193E+00
          2   -1    0    0  502    0  0.00000000000E+00  0.00000000000E+00  0.10860013218E+04  0.10860013218E+04  0.00000000000E+00 0.  1.
          1   -1    0    0  501    0 -0.00000000000E+00 -0.00000000000E+00 -0.27539418420E+02  0.27539418420E+02  0.00000000000E+00 0.  1.
          2    1    1    2  501    0 -0.61326927370E+02 -0.25243934989E+02  0.23072592138E+03  0.24006811340E+03  0.00000000000E+00 0.  1.
          1    1    1    2  502    0  0.10796180216E+03  0.70642213698E+02  0.49660226144E+03  0.51308856852E+03  0.00000000000E+00 0.  1.
         22    1    1    2    0    0 -0.35986437322E+02  0.40527189513E+02  0.10333664694E+03  0.11668735733E+03  0.00000000000E+00 0.  1.
         22    1    1    2    0    0 -0.10648437468E+02 -0.85925468222E+02  0.22779707362E+03  0.24369670096E+03  0.00000000000E+00 0. -1.
</event>
<event>
 6    1  0.1383644E-005  0.2031478E+03  0.7818608E-02  0.1239373E+00
          2   -1    0    0  502    0  0.00000000000E+00  0.00000000000E+00  0.41211013293E+03  0.41211013293E+03  0.00000000000E+00 0. -1.
          1   -1    0    0  501    0 -0.00000000000E+00 -0.00000000000E+00 -0.13737078107E+03  0.13737078107E+03  0.00000000000E+00 0. -1.
          2    1    1    2  501    0  0.36947224042E+02  0.10835620601E+01 -0.42082006419E+02  0.56010416311E+02  0.00000000000E+00 0. -1.
          1    1    1    2  502    0 -0.14749002366E+03 -0.67418916875E+02  0.25827982982E+03  0.30497063452E+03  0.00000000000E+00 0. -1.
         22    1    1    2    0    0 -0.10758448188E+02 -0.24406862774E+02  0.17932677649E+01  0.26733031387E+02  0.00000000000E+00 0. -1.
         22    1    1    2    0    0  0.12130124780E+03  0.90742217588E+02  0.56748260704E+02  0.16176683178E+03  0.00000000000E+00 0.  1.
</event>
<event>
 6    1  0.1383644E-005  0.3354124E+03  0.7818608E-02  0.1174553E+00
          2   -1    0    0  502    0  0.00000000000E+00  0.00000000000E+00  0.58901418870E+03  0.58901418870E+03  0.00000000000E+00 0.  1.
          1   -1    0    0  501    0 -0.00000000000E+00 -0.00000000000E+00 -0.35936508351E+03  0.35936508351E+03  0.00000000000E+00 0.  1.
          2    1    1    2  501    0  0.28472285149E+03  0.68081526331E+02  0.33864109127E+03  0.44763823014E+03  0.00000000000E+00 0.  1.
          1    1    1    2  502    0 -0.33355579052E+03 -0.44404290491E+02 -0.13597851755E+03  0.36293437924E+03  0.00000000000E+00 0.  1.
         22    1    1    2    0    0  0.38035105014E+02 -0.24145372047E+01  0.75038715278E+02  0.84162390614E+02  0.00000000000E+00 0.  1.
         22    1    1    2    0    0  0.10797834017E+02 -0.21262698636E+02 -0.48052183804E+02  0.53644272212E+02  0.00000000000E+00 0.  1.
</event>
<event>
 6    1  0.1383644E-005  0.4679345E+03  0.7818608E-02  0.1101950E+00
          2   -1    0    0  502    0  0.00000000000E+00  0.00000000000E+00  0.91771650409E+03  0.91771650409E+03  0.00000000000E+00 0. -1.
          1   -1    0    0  501    0 -0.00000000000E+00 -0.00000000000E+00 -0.43305433187E+03  0.43305433187E+03  0.00000000000E+00 0. -1.
          2    1    1    2  501    0  0.29514384943E+03 -0.22473018971E+03  0.43191601655E+03  0.56935489404E+03  0.00000000000E+00 0. -1.
          1    1    1    2  502    0 -0.40378151859E+03  0.23621901159E+03 -0.17601348674E+03  0.49981965118E+03  0.00000000000E+00 0. -1.
         22    1    1    2    0    0  0.61520421994E+02 -0.30946516478E+02  0.21915806335E+03  0.22972310710E+03  0.00000000000E+00 0. -1.
         22    1    1    2    0    0  0.47117247169E+02  0.19457694596E+02  0.96015790507E+01  0.51873183631E+02  0.00000000000E+00 0.  1.
</event>
<event>
 6    1  0.1383644E-005  0.4023999E+02  0.7818608E-02  0.1548434E+00
          2   -1    0    0  502    0  0.00000000000E+00  0.00000000000E+00  0.29972030128E+03  0.29972030128E+03  0.00000000000E+00 0.  1.
          1   -1    0    0  501    0 -0.00000000000E+00 -0.00000000000E+00 -0.97832874048E+02  0.97832874048E+02  0.00000000000E+00 0. -1.
          2    1    1    2  501    0  0.49760890977E+02 -0.10731407613E+01  0.17555864279E+03  0.18247776566E+03  0.00000000000E+00 0.  1.
          1    1    1    2  502    0 -0.61740463049E+02  0.35592783089E+02  0.49726884576E+02  0.86899332765E+02  0.00000000000E+00 0. -1.
         22    1    1    2    0    0 -0.24100500236E+01 -0.14609184440E+02 -0.72113099596E+02  0.73617496185E+02  0.00000000000E+00 0. -1.
         22    1    1    2    0    0  0.14389622095E+02 -0.19910457888E+02  0.48714999464E+02  0.54558580720E+02  0.00000000000E+00 0.  1.
</event>
<event>
 6    1  0.1383644E-005  0.7149500E+02  0.7818608E-02  0.1445520E+00
          2   -1    0    0  502    0  0.00000000000E+00  0.00000000000E+00  0.62016116258E+03  0.62016116258E+03  0.00000000000E+00 0.  1.
          1   -1    0    0  501    0 -0.00000000000E+00 -0.00000000000E+00 -0.44673980350E+02  0.44673980350E+02  0.00000000000E+00 0.  1.
          2    1    1    2  501    0  0.26895994570E+02 -0.25226707939E+00  0.10494744099E+03  0.10833939050E+03  0.00000000000E+00 0.  1.
          1    1    1    2  502    0 -0.11733955792E+02  0.30934649508E+02  0.40771391383E+03  0.40905412086E+03  0.00000000000E+00 0.  1.
         22    1    1    2    0    0 -0.13369477880E+02 -0.47644973951E+02  0.97198019322E+02  0.10906989246E+03  0.00000000000E+00 0.  1.
         22    1    1    2    0    0 -0.17925608974E+01  0.16962591522E+02 -0.34372191914E+02  0.38371739115E+02  0.00000000000E+00 0.  1.
</event>
<event>
 6    1  0.2426741E-005  0.4337429E+02  0.7818608E-02  0.1580526E+00
          2   -1    0    0  502    0  0.00000000000E+00  0.00000000000E+00  0.16076085361E+03  0.16076085361E+03  0.00000000000E+00 0. -1.
          1   -1    0    0  501    0 -0.00000000000E+00 -0.00000000000E+00 -0.42988143211E+03  0.42988143211E+03  0.00000000000E+00 0. -1.
          2    1    1    2  501    0  0.30783531628E+02 -0.23351506460E+02 -0.18158394257E+03  0.18564925767E+03  0.00000000000E+00 0. -1.
          1    1    1    2  502    0  0.19449576296E+02  0.39741466998E+02 -0.21262074302E+03  0.21717562151E+03  0.00000000000E+00 0. -1.
         22    1    1    2    0    0 -0.43185528923E+02 -0.63112659520E+01  0.15204445424E+03  0.15818450636E+03  0.00000000000E+00 0. -1.
         22    1    1    2    0    0 -0.70475790006E+01 -0.10078694585E+02 -0.26960347158E+02  0.29632900182E+02  0.00000000000E+00 0. -1.
</event>
<event>
 6    1  0.1383644E-005  0.6161809E+02  0.7818608E-02  0.1487555E+00
          2   -1    0    0  502    0  0.00000000000E+00  0.00000000000E+00  0.14943377312E+03  0.14943377312E+03  0.00000000000E+00 0.  1.
          1   -1    0    0  501    0 -0.00000000000E+00 -0.00000000000E+00 -0.14548280717E+03  0.14548280717E+03  0.00000000000E+00 0.  1.
          2    1    1    2  501    0  0.20205200107E+02  0.24836424007E+01  0.55973470511E+02  0.59560456613E+02  0.00000000000E+00 0.  1.
          1    1    1    2  502    0 -0.63176145452E+02 -0.25408454980E+01 -0.77291016473E+02  0.99857811299E+02  0.00000000000E+00 0.  1.
         22    1    1    2    0    0  0.51063420082E+01 -0.13620908143E+02 -0.48948899581E+02  0.51064651547E+02  0.00000000000E+00 0. -1.
         22    1    1    2    0    0  0.37864603337E+02  0.13678111240E+02  0.74217411488E+02  0.84433660829E+02  0.00000000000E+00 0.  1.
</event>
<event>
 6    1  0.1383644E-005  0.6778161E+02  0.7818608E-02  0.1395009E+00
          2   -1    0    0  502    0  0.00000000000E+00  0.00000000000E+00  0.73543502795E+03  0.73543502795E+03  0.00000000000E+00 0. -1.
          1   -1    0    0  501    0 -0.00000000000E+00 -0.00000000000E+00 -0.22556113011E+03  0.22556113011E+03  0.00000000000E+00 0.  1.
          2    1    1    2  501    0  0.59091317914E+02 -0.13989676484E+03  0.61361144189E+03  0.63212490086E+03  0.00000000000E+00 0. -1.
          1    1    1    2  502    0 -0.73732870977E+02  0.89552854987E+02 -0.14763961066E+03  0.18775969944E+03  0.00000000000E+00 0.  1.
         22    1    1    2    0    0 -0.63991525620E+01  0.21897724446E+02  0.84344994961E+02  0.87375841424E+02  0.00000000000E+00 0.  1.
         22    1    1    2    0    0  0.21040705624E+02  0.28446185402E+02 -0.40442928343E+02  0.53735716335E+02  0.00000000000E+00 0.  1.
</event>
<event>
 6    1  0.1383644E-005  0.1367810E+03  0.7818608E-02  0.1327370E+00
          2   -1    0    0  502    0  0.00000000000E+00  0.00000000000E+00  0.43152190806E+03  0.43152190806E+03  0.00000000000E+00 0.  1.
          1   -1    0    0  501    0 -0.00000000000E+00 -0.00000000000E+00 -0.50329287065E+02  0.50329287065E+02  0.00000000000E+00 0.  1.
          2    1    1    2  501    0  0.11368771428E+02  0.30473525964E+02  0.14838183331E+02  0.35749915147E+02  0.00000000000E+00 0.  1.
          1    1    1    2  502    0 -0.42809175348E+02 -0.93846245686E+02  0.10502121882E+03  0.14720461856E+03  0.00000000000E+00 0.  1.
         22    1    1    2    0    0 -0.16448479806E+02 -0.11399884896E+01 -0.76458226586E+01  0.18174450908E+02  0.00000000000E+00 0. -1.
         22    1    1    2    0    0  0.47888883726E+02  0.64512708211E+02  0.26897904150E+03  0.28072221051E+03  0.00000000000E+00 0.  1.
</event>
<event>
 6    1  0.1383644E-005  0.9869963E+02  0.7818608E-02  0.1385826E+00
          2   -1    0    0  502    0  0.00000000000E+00  0.00000000000E+00  0.10727103940E+03  0.10727103940E+03  0.00000000000E+00 0.  1.
          1   -1    0    0  501    0 -0.00000000000E+00 -0.00000000000E+00 -0.69632859516E+03  0.69632859516E+03  0.00000000000E+00 0. -1.
          2    1    1    2  501    0 -0.67273177104E+02 -0.42381104102E+01  0.33327758471E+02  0.75195621031E+02  0.00000000000E+00 0.  1.
          1    1    1    2  502    0  0.10286970211E+03 -0.21878744284E+00 -0.58005322360E+03  0.58910437589E+03  0.00000000000E+00 0. -1.
         22    1    1    2    0    0 -0.22286611083E+02 -0.50200402862E+01  0.44992254052E+02  0.50459852980E+02  0.00000000000E+00 0.  1.
         22    1    1    2    0    0 -0.13309913927E+02  0.94769381393E+01 -0.87324344675E+02  0.88839784658E+02  0.00000000000E+00 0. -1.
</event>
<event>
 6    1  0.1383644E-005  0.1041157E+03  0.7818608E-02  0.1343098E+00
          2   -1    0    0  502    0  0.00000000000E+00  0.00000000000E+00  0.45941495814E+03  0.45941495814E+03  0.00000000000E+00 0. -1.
          1   -1    0    0  501    0 -0.00000000000E+00 -0.00000000000E+00 -0.89044406071E+02  0.89044406071E+02  0.00000000000E+00 0. -1.
          2    1    1    2  501    0 -0.76953141800E+02  0.37755473210E+02  0.26195759084E+03  0.27562481962E+03  0.00000000000E+00 0. -1.
          1    1    1    2  502    0  0.10665703922E+03 -0.12770098653E+02  0.92113611103E+02  0.14150518290E+03  0.00000000000E+00 0. -1.
         22    1    1    2    0    0 -0.12511613019E+02 -0.25507327818E+02 -0.52888100549E+02  0.60035950999E+02  0.00000000000E+00 0. -1.
         22    1    1    2    0    0 -0.17192284406E+02  0.52195326105E+00  0.69187450674E+02  0.71293410699E+02  0.00000000000E+00 0. -1.
</event>
<event>
 6    1  0.1383644E-005  0.5498482E+02  0.7818608E-02  0.1479180E+00
          2   -1    0    0  502    0  0.00000000000E+00  0.00000000000E+00  0.58311918860E+03  0.58311918860E+03  0.00000000000E+00 0. -1.
          1   -1    0    0  501    0 -0.00000000000E+00 -0.00000000000E+00 -0.38981517386E+02  0.38981517386E+02  0.00000000000E+00 0. -1.
          2    1    1    2  501    0 -0.23082723416E+02 -0.25004030494E+02  0.43511138709E+03  0.43644006787E+03  0.00000000000E+00 0. -1.
          1    1    1    2  502    0  0.28981845285E+01  0.20043406888E+02  0.50083695410E+00  0.20258047065E+02  0.00000000000E+00 0. -1.
         22    1    1    2    0    0  0.19353090511E+02  0.27976216702E+02 -0.16826981889E+02  0.37952050442E+02  0.00000000000E+00 0. -1.
         22    1    1    2    0    0  0.83144837719E+00 -0.23015593097E+02  0.12535242906E+03  0.12745054061E+03  0.00000000000E+00 0. -1.
</event>
<event>
 6    1  0.1383644E-005  0.4591913E+02  0.7818608E-02  0.1565798E+00
          2   -1    0    0  502    0  0.00000000000E+00  0.00000000000E+00  0.18029940331E+03  0.18029940331E+03  0.00000000000E+00 0. -1.
          1   -1    0    0  501    0 -0.00000000000E+00 -0.00000000000E+00 -0.89790910004E+02  0.89790910004E+02  0.00000000000E+00 0. -1.
          2    1    1    2  501    0  0.25230276381E+02 -0.11263561808E+02  0.98749407206E+02  0.10254208938E+03  0.00000000000E+00 0. -1.
          1    1    1    2  502    0 -0.35627175585E+02  0.21423146179E+01 -0.19461969668E+02  0.40652840189E+02  0.00000000000E+00 0. -1.
         22    1    1    2    0    0  0.19298042838E+02  0.41299180962E+00  0.67009440345E+02  0.69734138806E+02  0.00000000000E+00 0.  1.
         22    1    1    2    0    0 -0.89011436344E+01  0.87082553802E+01 -0.55788384575E+02  0.57161244941E+02  0.00000000000E+00 0. -1.
</event>
<event>
 6    1  0.1383644E-005  0.8059460E+02  0.7818608E-02  0.1421216E+00
          2   -1    0    0  502    0  0.00000000000E+00  0.00000000000E+00  0.10417026060E+03  0.10417026060E+03  0.00000000000E+00 0.  1.
          1   -1    0    0  501    0 -0.00000000000E+00 -0.00000000000E+00 -0.21330958945E+03  0.21330958945E+03  0.00000000000E+00 0. -1.
          2    1    1    2  501    0 -0.10221983110E+02 -0.18815050688E+02  0.45500705205E+02  0.50287267228E+02  0.00000000000E+00 0.  1.
          1    1    1    2  502    0  0.74937190190E+02  0.52855376557E+01 -0.84325330246E+02  0.11293485159E+03  0.00000000000E+00 0. -1.
         22    1    1    2    0    0 -0.47555126340E+02  0.14397769431E+02  0.26237309733E+02  0.56188808742E+02  0.00000000000E+00 0. -1.
         22    1    1    2    0    0 -0.17160080739E+02 -0.86825639909E+00 -0.96552013545E+02  0.98068922498E+02  0.00000000000E+00 0. -1.
</event>
<event>
 6    1  0.1383644E-005  0.8649083E+02  0.7818608E-02  0.1330736E+00
          2   -1    0    0  502    0  0.00000000000E+00  0.00000000000E+00  0.38692783266E+03  0.38692783266E+03  0.00000000000E+00 0. -1.
          1   -1    0    0  501    0 -0.00000000000E+00 -0.00000000000E+00 -0.77038921795E+02  0.77038921795E+02  0.00000000000E+00 0.  1.
          2    1    1    2  501    0  0.31895295845E+02 -0.24864814313E+02  0.93528801706E+02  0.10189801586E+03  0.00000000000E+00 0. -1.
          1    1    1    2  502    0 -0.89599064042E+02  0.10470171956E+01 -0.15953278700E+02  0.91014260551E+02  0.00000000000E+00 0.  1.
         22    1    1    2    0    0  0.30189165615E+02 -0.31136659126E+02  0.19364917827E+03  0.19844616778E+03  0.00000000000E+00 0.  1.
         22    1    1    2    0    0  0.27514602583E+02  0.54954456243E+02  0.38664209590E+02  0.72608310265E+02  0.00000000000E+00 0.  1.
</event>
<event>
 6    1  0.1383644E-005  0.1547680E+03  0.7818608E-02  0.1328702E+00
          2   -1    0    0  502    0  0.00000000000E+00  0.00000000000E+00  0.81054076889E+03  0.81054076889E+03  0.00000000000E+00 0.  1.
          1   -1    0    0  501    0 -0.00000000000E+00 -0.00000000000E+00 -0.37723530879E+02  0.37723530879E+02  0.00000000000E+00 0.  1.
          2    1    1    2  501    0 -0.40439395226E+02  0.81622207320E+01  0.82208688645E+02  0.91979535889E+02  0.00000000000E+00 0.  1.
          1    1    1    2  502    0  0.14265236473E+03  0.72852708981E+01  0.29298932949E+03  0.32595324746E+03  0.00000000000E+00 0.  1.
         22    1    1    2    0    0 -0.10996208751E+03 -0.23418662080E+02  0.40270634191E+03  0.41810583856E+03  0.00000000000E+00 0.  1.
         22    1    1    2    0    0  0.77491180107E+01  0.79711704502E+01 -0.50871220424E+01  0.12225677853E+02  0.00000000000E+00 0.  1.
</event>
<event>
 6    1  0.1383644E-005  0.6584883E+02  0.7818608E-02  0.1374882E+00
          2   -1    0    0  502    0  0.00000000000E+00  0.00000000000E+00  0.35944078504E+03  0.35944078504E+03  0.00000000000E+00 0.  1.
          1   -1    0    0  501    0 -0.00000000000E+00 -0.00000000000E+00 -0.64967750709E+02  0.64967750709E+02  0.00000000000E+00 0.  1.
          2    1    1    2  501    0 -0.21315842542E+02  0.48084117774E+01  0.91837694618E+02  0.94401526047E+02  0.00000000000E+00 0.  1.
          1    1    1    2  502    0  0.47739379998E+02  0.19204320158E+02 -0.33477732854E+02  0.61389029251E+02  0.00000000000E+00 0.  1.
         22    1    1    2    0    0  0.12976307795E+02 -0.59290641350E+01 -0.10821737995E+02  0.17906657385E+02  0.00000000000E+00 0.  1.
         22    1    1    2    0    0 -0.39399845250E+02 -0.18083667801E+02  0.24693481056E+03  0.25071132307E+03  0.00000000000E+00 0.  1.
</event>
<event>
 6    1  0.1383644E-005  0.2067795E+03  0.7818608E-02  0.1275522E+00
          2   -1    0    0  502    0  0.00000000000E+00  0.00000000000E+00  0.23014104251E+03  0.23014104251E+03  0.00000000000E+00 0.  1.
          1   -1    0    0  501    0 -0.00000000000E+00 -0.00000000000E+00 -0.30470559376E+03  0.30470559376E+03  0.00000000000E+00 0. -1.
          2    1    1    2  501    0  0.10424455351E+03 -0.88608370503E+02  0.54327497908E+02  0.14720681808E+03  0.00000000000E+00 0.  1.
          1    1    1    2  502    0 -0.15555298009E+03  0.10948469759E+03 -0.15417034410E+03  0.24485122753E+03  0.00000000000E+00 0. -1.
         22    1    1    2    0    0  0.58364384339E+02 -0.31060652745E+02  0.70056462854E+02  0.96327947637E+02  0.00000000000E+00 0. -1.
         22    1    1    2    0    0 -0.70559577607E+01  0.10184325663E+02 -0.44778167906E+02  0.46460643023E+02  0.00000000000E+00 0. -1.
</event>
<event>
 6    1  0.1383644E-005  0.4643100E+02  0.7818608E-02  0.1516644E+00
          2   -1    0    0  502    0  0.00000000000E+00  0.00000000000E+00  0.25053001771E+03  0.25053001771E+03  0.00000000000E+00 0.  1.
          1   -1    0    0  501    0 -0.00000000000E+00 -0.00000000000E+00 -0.74191311512E+02  0.74191311512E+02  0.00000000000E+00 0. -1.
          2    1    1    2  501    0  0.47924324695E+02 -0.19212575522E+00  0.86514456940E+02  0.98901613078E+02  0.00000000000E+00 0.  1.
          1    1    1    2  502    0 -0.56026582108E+02  0.27044360585E+02 -0.10708277184E+02  0.63127193367E+02  0.00000000000E+00 0. -1.
         22    1    1    2    0    0 -0.60606309485E+01 -0.40204845422E+02  0.12498876142E+03  0.13143573078E+03  0.00000000000E+00 0.  1.
         22    1    1    2    0    0  0.14162888361E+02  0.13352610592E+02 -0.24456234984E+02  0.31256791997E+02  0.00000000000E+00 0. -1.
</event>
<event>
 6    1  0.1383644E-005  0.2391600E+03  0.7818608E-02  0.1201085E+00
          2   -1    0    0  502    0  0.00000000000E+00  0.00000000000E+00  0.16158799441E+03  0.16158799441E+03  0.00000000000E+00 0.  1.
          1   -1    0    0  501    0 -0.00000000000E+00 -0.00000000000E+00 -0.66772094936E+03  0.66772094936E+03  0.00000000000E+00 0.  1.
          2    1    1    2  501    0  0.96679619079E+02 -0.13542951936E+03 -0.32100193841E+03  0.36156651936E+03  0.00000000000E+00 0.  1.
          1    1    1    2  502    0 -0.14891030043E+03  0.15342165484E+03  0.26492964553E+02  0.21543991951E+03  0.00000000000E+00 0.  1.
         22    1    1    2    0    0 -0.35322249316E+02  0.92782642135E+01 -0.10760390949E+03  0.11363251657E+03  0.00000000000E+00 0.  1.
         22    1    1    2    0    0  0.87552930667E+02 -0.27270399702E+02 -0.10402007160E+03  0.13866998833E+03  0.00000000000E+00 0.  1.
</event>
<event>
 6    1  0.1383644E-005  0.6552698E+02  0.7818608E-02  0.1451310E+00
          2   -1    0    0  502    0  0.00000000000E+00  0.00000000000E+00  0.16971670428E+02  0.16971670428E+02  0.00000000000E+00 0.  1.
          1   -1    0    0  501    0 -0.00000000000E+00 -0.00000000000E+00 -0.84106167792E+03  0.84106167792E+03  0.00000000000E+00 0.  1.
          2    1    1    2  501    0 -0.87711382607E+01 -0.25360823843E+02 -0.34481995675E+02  0.43693389410E+02  0.00000000000E+00 0.  1.
          1    1    1    2  502    0 -0.38198323488E+02 -0.36659906182E+02 -0.26766771932E+03  0.27285356623E+03  0.00000000000E+00 0.  1.
         22    1    1    2    0    0  0.12058268021E+02 -0.16379458474E+02 -0.10489086194E+02  0.22884698310E+02  0.00000000000E+00 0.  1.
         22    1    1    2    0    0  0.34911193728E+02  0.78400188499E+02 -0.51145120630E+03  0.51860169440E+03  0.00000000000E+00 0.  1.
</event>
<event>
 6    1  0.1383644E-005  0.4411195E+02  0.7818608E-02  0.1485580E+00
          2   -1    0    0  502    0  0.00000000000E+00  0.00000000000E+00  0.14353667590E+03  0.14353667590E+03  0.00000000000E+00 0. -1.
          1   -1    0    0  501    0 -0.00000000000E+00 -0.00000000000E+00 -0.56947306491E+02  0.56947306491E+02  0.00000000000E+00 0.  1.
          2    1    1    2  501    0  0.17678471434E+02 -0.21877923052E+02  0.16165327241E+02  0.32442097253E+02  0.00000000000E+00 0. -1.
          1    1    1    2  502    0 -0.20981415330E+02 -0.11116018709E+01  0.29821761541E+02  0.36480034394E+02  0.00000000000E+00 0.  1.
         22    1    1    2    0    0  0.25762855196E+02 -0.17029037036E+02  0.70379582972E+02  0.76857000394E+02  0.00000000000E+00 0. -1.
         22    1    1    2    0    0 -0.22459911300E+02  0.40018561959E+02 -0.29777302346E+02  0.54704850351E+02  0.00000000000E+00 0.  1.
</event>
<event>
 6    1  0.1383644E-005  0.1004284E+03  0.7818608E-02  0.1390064E+00
          2   -1    0    0  502    0  0.00000000000E+00  0.00000000000E+00  0.59621894323E+03  0.59621894323E+03  0.00000000000E+00 0. -1.
          1   -1    0    0  501    0 -0.00000000000E+00 -0.00000000000E+00 -0.15606484212E+03  0.15606484212E+03  0.00000000000E+00 0. -1.
          2    1    1    2  501    0  0.48141235781E+02  0.11998851850E+02  0.34970575428E+03  0.35320768056E+03  0.00000000000E+00 0. -1.
          1    1    1    2  502    0 -0.80848252709E+02 -0.41673065415E+02 -0.11941134597E+03  0.15010714138E+03  0.00000000000E+00 0. -1.
         22    1    1    2    0    0  0.44170471213E+02  0.20818872002E+02  0.22368013791E+03  0.22894816019E+03  0.00000000000E+00 0. -1.
         22    1    1    2    0    0 -0.11463454285E+02  0.88553415629E+01 -0.13820445110E+02  0.20020803215E+02  0.00000000000E+00 0. -1.
</event>
<event>
 6    1  0.1383644E-005  0.4865875E+02  0.7818608E-02  0.1541451E+00
          2   -1    0    0  502    0  0.00000000000E+00  0.00000000000E+00  0.20946780653E+03  0.20946780653E+03  0.00000000000E+00 0.  1.
          1   -1    0    0  501    0 -0.00000000000E+00 -0.00000000000E+00 -0.11957502124E+03  0.11957502124E+03  0.00000000000E+00 0. -1.
          2    1    1    2  501    0 -0.19740554070E+02  0.64875049351E+01  0.98338151964E+02  0.10050954844E+03  0.00000000000E+00 0.  1.
          1    1    1    2  502    0  0.56792268813E+02  0.15766833478E+01 -0.67520277477E+02  0.88243048439E+02  0.00000000000E+00 0. -1.
         22    1    1    2    0    0 -0.23663779578E+02 -0.13052217926E+02  0.96509564063E+02  0.10022190785E+03  0.00000000000E+00 0.  1.
         22    1    1    2    0    0 -0.13387935165E+02  0.49880296431E+01 -0.37434653260E+02  0.40068323054E+02  0.00000000000E+00 0. -1.
</event>
<event>
 6    1  0.1383644E-005  0.5481151E+02  0.7818608E-02  0.1464886E+00
          2   -1    0    0  502    0  0.00000000000E+00  0.00000000000E+00  0.72815187546E+02  0.72815187546E+02  0.00000000000E+00 0. -1.
          1   -1    0    0  501    0 -0.00000000000E+00 -0.00000000000E+00 -0.19415358085E+03  0.19415358085E+03  0.00000000000E+00 0. -1.
          2    1    1    2  501    0 -0.52616268919E+01  0.34829307641E+02  0.31969982083E+02  0.47569371897E+02  0.00000000000E+00 0. -1.
          1    1    1    2  502    0  0.22111260667E+02  0.18394776904E+01 -0.43210776428E+01  0.22604495978E+02  0.00000000000E+00 0. -1.
         22    1    1    2    0    0 -0.23900833346E+02 -0.90379957633E+01  0.15478609265E+02  0.29875115846E+02  0.00000000000E+00 0.  1.
         22    1    1    2    0    0  0.70511995713E+01 -0.27630789568E+02 -0.16446590701E+03  0.16691978467E+03  0.00000000000E+00 0. -1.
</event>
<event>
 6    1  0.1383644E-005  0.5583919E+02  0.7818608E-02  0.1521862E+00
          2   -1    0    0  502    0  0.00000000000E+00  0.00000000000E+00  0.19781666794E+03  0.19781666794E+03  0.00000000000E+00 0.  1.
          1   -1    0    0  501    0 -0.00000000000E+00 -0.00000000000E+00 -0.76411976917E+02  0.76411976917E+02  0.00000000000E+00 0. -1.
          2    1    1    2  501    0  0.11964353216E+02  0.26004696839E+02  0.64582110250E+02  0.70641623494E+02  0.00000000000E+00 0.  1.
          1    1    1    2  502    0 -0.26978903158E+02 -0.33005539766E+02 -0.28477918125E+02  0.51266155420E+02  0.00000000000E+00 0. -1.
         22    1    1    2    0    0  0.16051987679E+02  0.19191799459E+02  0.11631750057E+03  0.11897794928E+03  0.00000000000E+00 0.  1.
         22    1    1    2    0    0 -0.10374377370E+01 -0.12190956532E+02 -0.31017001679E+02  0.33342916660E+02  0.00000000000E+00 0. -1.
</event>
<event>
 6    1  0.1383644E-005  0.3061466E+03  0.7818608E-02  0.1111371E+00
          2   -1    0    0  502    0  0.00000000000E+00  0.00000000000E+00  0.54441857735E+03  0.54441857735E+03  0.00000000000E+00 0.  1.
          1   -1    0    0  501    0 -0.00000000000E+00 -0.00000000000E+00 -0.42710284167E+03  0.42710284167E+03  0.00000000000E+00 0.  1.
          2    1    1    2  501    0  0.13418347463E+03 -0.10403394504E+03  0.98065535653E+02  0.19607426110E+03  0.00000000000E+00 0.  1.
          1    1    1    2  502    0 -0.31216359038E+03 -0.58371547101E+01  0.27866570259E+03  0.41849104331E+03  0.00000000000E+00 0.  1.
         22    1    1    2    0    0  0.13055356709E+03  0.58296104248E+02 -0.24757703396E+03  0.28589693491E+03  0.00000000000E+00 0.  1.
         22    1    1    2    0    0  0.47426548663E+02  0.51574995505E+02 -0.11838468602E+02  0.71059179690E+02  0.00000000000E+00 0.  1.
</event>
<event>
 6    1  0.1383644E-005  0.9167520E+02  0.7818608E-02  0.1385175E+00
          2   -1    0    0  502    0  0.00000000000E+00  0.00000000000E+00  0.21123604035E+03  0.21123604035E+03  0.00000000000E+00 0.  1.
          1   -1    0    0  501    0 -0.00000000000E+00 -0.00000000000E+00 -0.46513144064E+03  0.46513144064E+03  0.00000000000E+00 0.  1.
          2    1    1    2  501    0  0.76809872049E+02 -0.83930575445E+02  0.16173688698E+03  0.19774457907E+03  0.00000000000E+00 0.  1.
          1    1    1    2  502    0 -0.18945122395E+02  0.94235788163E+02 -0.13122595994E+03  0.16266392961E+03  0.00000000000E+00 0.  1.
         22    1    1    2    0    0  0.14923784987E+02  0.76331010387E+01  0.46046612614E+01  0.17383512164E+02  0.00000000000E+00 0. -1.
         22    1    1    2    0    0 -0.72788534642E+02 -0.17938313756E+02 -0.28901098859E+03  0.29857546015E+03  0.00000000000E+00 0.  1.
</event>
<event>
 6    1  0.1383644E-005  0.6422760E+02  0.7818608E-02  0.1394187E+00
          2   -1    0    0  502    0  0.00000000000E+00  0.00000000000E+00  0.57127646077E+02  0.57127646077E+02  0.00000000000E+00 0.  1.
          1   -1    0    0  501    0 -0.00000000000E+00 -0.00000000000E+00 -0.45071822633E+03  0.45071822633E+03  0.00000000000E+00 0.  1.
          2    1    1    2  501    0 -0.36727406016E+02 -0.18053994289E+02  0.21178688777E+02  0.46080211813E+02  0.00000000000E+00 0.  1.
          1    1    1    2  502    0 -0.37950166178E+02  0.34458812110E+02 -0.13281698383E+03  0.14236564206E+03  0.00000000000E+00 0.  1.
         22    1    1    2    0    0 -0.10244640177E+02  0.11013240557E+01  0.10292425514E+02  0.14563639312E+02  0.00000000000E+00 0.  1.
         22    1    1    2    0    0  0.84922212371E+02 -0.17506141877E+02 -0.29224471072E+03  0.30483637922E+03  0.00000000000E+00 0.  1.
</event>
<event>
 6    1  0.1383644E-005  0.1118814E+03  0.7818608E-02  0.1337661E+00
          2   -1    0    0  502    0  0.00000000000E+00  0.00000000000E+00  0.21555159530E+04  0.21555159530E+04  0.00000000000E+00 0. -1.
          1   -1    0    0  501    0 -0.00000000000E+00 -0.00000000000E+00 -0.93748228357E+02  0.93748228357E+02  0.00000000000E+00 0.  1.
          2    1    1    2  501    0 -0.71947413534E+02  0.22253207723E+02  0.19192979820E+04  0.19207749424E+04  0.00000000000E+00 0. -1.
          1    1    1    2  502    0  0.86025158720E+02 -0.27853234110E+02  0.17491731959E+03  0.19690657499E+03  0.00000000000E+00 0.  1.
         22    1    1    2    0    0 -0.25155810447E+02  0.10570313692E+00 -0.79264284778E+02  0.83160404122E+02  0.00000000000E+00 0.  1.
         22    1    1    2    0    0  0.11078065260E+02  0.54943232503E+01  0.46816707855E+02  0.48422259884E+02  0.00000000000E+00 0.  1.
</event>
<event>
 6    1  0.1383644E-005  0.2320619E+02  0.7818608E-02  0.1700695E+00
          2   -1    0    0  502    0  0.00000000000E+00  0.00000000000E+00  0.40672278267E+03  0.40672278267E+03  0.00000000000E+00 0.  1.
          1   -1    0    0  501    0 -0.00000000000E+00 -0.00000000000E+00 -0.48105856915E+02  0.48105856915E+02  0.00000000000E+00 0.  1.
          2    1    1    2  501    0  0.13950654806E+02 -0.24470041106E+02  0.23991064889E+03  0.24155852942E+03  0.00000000000E+00 0.  1.
          1    1    1    2  502    0 -0.39429511774E+02  0.92165403489E+01  0.68250955657E+02  0.79358830403E+02  0.00000000000E+00 0.  1.
         22    1    1    2    0    0  0.13817630360E+02  0.65779842981E+01  0.90253706336E+02  0.91541948273E+02  0.00000000000E+00 0.  1.
         22    1    1    2    0    0  0.11661226608E+02  0.86755164593E+01 -0.39798385134E+02  0.42369331492E+02  0.00000000000E+00 0.  1.
</event>
<event>
 6    1  0.1383644E-005  0.1320109E+03  0.7818608E-02  0.1310580E+00
          2   -1    0    0  502    0  0.00000000000E+00  0.00000000000E+00  0.33921318954E+03  0.33921318954E+03  0.00000000000E+00 0.  1.
          1   -1    0    0  501    0 -0.00000000000E+00 -0.00000000000E+00 -0.13491680612E+03  0.13491680612E+03  0.00000000000E+00 0. -1.
          2    1    1    2  501    0 -0.30112838079E+02  0.30548015571E+02  0.77193355272E+02  0.88310692278E+02  0.00000000000E+00 0.  1.
          1    1    1    2  502    0 -0.16497125701E+01  0.12426952307E+03 -0.31474970863E+02  0.12820417195E+03  0.00000000000E+00 0. -1.
         22    1    1    2    0    0 -0.24286254660E+02 -0.48674911076E+01  0.70882815594E+02  0.75085872051E+02  0.00000000000E+00 0. -1.
         22    1    1    2    0    0  0.56048805309E+02 -0.14995004753E+03  0.87695183417E+02  0.18252925937E+03  0.00000000000E+00 0.  1.
</event>
<event>
 6    1  0.1383644E-005  0.3986019E+02  0.7818608E-02  0.1530657E+00
          2   -1    0    0  502    0  0.00000000000E+00  0.00000000000E+00  0.17895801473E+03  0.17895801473E+03  0.00000000000E+00 0.  1.
          1   -1    0    0  501    0 -0.00000000000E+00 -0.00000000000E+00 -0.10480325674E+03  0.10480325674E+03  0.00000000000E+00 0.  1.
          2    1    1    2  501    0 -0.42961766330E+02  0.14001017839E+02  0.76805262708E+02  0.89111111801E+02  0.00000000000E+00 0.  1.
          1    1    1    2  502    0  0.17515280306E+02 -0.59199428217E+02 -0.13767589552E+02  0.63252698500E+02  0.00000000000E+00 0.  1.
         22    1    1    2    0    0  0.16190739914E+02  0.16917444146E+02 -0.54516715489E+02  0.59333061973E+02  0.00000000000E+00 0. -1.
         22    1    1    2    0    0  0.92557461096E+01  0.28280966233E+02  0.65633800323E+02  0.72064399199E+02  0.00000000000E+00 0. -1.
</event>
<event>
 6    1  0.1383644E-005  0.4137609E+02  0.7818608E-02  0.1545210E+00
          2   -1    0    0  502    0  0.00000000000E+00  0.00000000000E+00  0.38755175916E+03  0.38755175916E+03  0.00000000000E+00 0.  1.
          1   -1    0    0  501    0 -0.00000000000E+00 -0.00000000000E+00 -0.57397052945E+02  0.57397052945E+02  0.00000000000E+00 0. -1.
          2    1    1    2  501    0 -0.55658060346E+02 -0.38232028108E+01  0.22758395263E+03  0.23432219711E+03  0.00000000000E+00 0.  1.
          1    1    1    2  502    0  0.49314814501E+02  0.20484112280E+02  0.56231711935E+02  0.77547116079E+02  0.00000000000E+00 0. -1.
         22    1    1    2    0    0  0.64122914264E+01 -0.33071485071E+02  0.84809455084E+02  0.91255050697E+02  0.00000000000E+00 0.  1.
         22    1    1    2    0    0 -0.69045580813E-01  0.16410575602E+02 -0.38470413438E+02  0.41824448220E+02  0.00000000000E+00 0. -1.
</event>
<event>
 6    1  0.1383644E-005  0.8753311E+02  0.7818608E-02  0.1353172E+00
          2   -1    0    0  502    0  0.00000000000E+00  0.00000000000E+00  0.10113591730E+03  0.10113591730E+03  0.00000000000E+00 0.  1.
          1   -1    0    0  501    0 -0.00000000000E+00 -0.00000000000E+00 -0.30525281443E+03  0.30525281443E+03  0.00000000000E+00 0. -1.
          2    1    1    2  501    0 -0.43942147487E+02 -0.40662485994E+02  0.32354764285E+02  0.68052779994E+02  0.00000000000E+00 0.  1.
          1    1    1    2  502    0  0.71175374020E+01  0.81894049096E+02 -0.16066149623E+03  0.18046997254E+03  0.00000000000E+00 0. -1.
         22    1    1    2    0    0 -0.20423868143E+00 -0.25482369542E+02  0.33092357269E+02  0.41767175875E+02  0.00000000000E+00 0.  1.
         22    1    1    2    0    0  0.37028848766E+02 -0.15749193560E+02 -0.10890252245E+03  0.11609880333E+03  0.00000000000E+00 0.  1.
</event>
<event>
 6    1  0.1383644E-005  0.2707988E+03  0.7818608E-02  0.1168441E+00
          2   -1    0    0  502    0  0.00000000000E+00  0.00000000000E+00  0.53906053857E+03  0.53906053857E+03  0.00000000000E+00 0.  1.
          1   -1    0    0  501    0 -0.00000000000E+00 -0.00000000000E+00 -0.75871523106E+02  0.75871523106E+02  0.00000000000E+00 0.  1.
          2    1    1    2  501    0  0.48360918459E+02 -0.16264069550E+03  0.20184490120E+03  0.26368947345E+03  0.00000000000E+00 0.  1.
          1    1    1    2  502    0  0.24628354918E+02  0.30742704143E+02  0.35281166882E+02  0.52881286487E+02  0.00000000000E+00 0.  1.
         22    1    1    2    0    0 -0.16632556612E+02  0.49368259489E+02  0.99568330209E+00  0.52104302794E+02  0.00000000000E+00 0.  1.
         22    1    1    2    0    0 -0.56356716765E+02  0.82529731872E+02  0.22506726408E+03  0.24625699895E+03  0.00000000000E+00 0.  1.
</event>
<event>
 6    1  0.1383644E-005  0.6223357E+02  0.7818608E-02  0.1468097E+00
          2   -1    0    0  502    0  0.00000000000E+00  0.00000000000E+00  0.25787328246E+03  0.25787328246E+03  0.00000000000E+00 0.  1.
          1   -1    0    0  501    0 -0.00000000000E+00 -0.00000000000E+00 -0.10200059812E+03  0.10200059812E+03  0.00000000000E+00 0.  1.
          2    1    1    2  501    0  0.23949716129E+02  0.42766248173E+02  0.13535550501E+03  0.14395712424E+03  0.00000000000E+00 0.  1.
          1    1    1    2  502    0 -0.11662354628E+02 -0.43418863959E+02 -0.53085078777E+02  0.69564602003E+02  0.00000000000E+00 0.  1.
         22    1    1    2    0    0 -0.73615308329E+01  0.17083553617E+02  0.10710767286E+03  0.10871105521E+03  0.00000000000E+00 0.  1.
         22    1    1    2    0    0 -0.49258306683E+01 -0.16430937831E+02 -0.33505414748E+02  0.37641099124E+02  0.00000000000E+00 0. -1.
</event>
<event>
 6    1  0.1383644E-005  0.1892178E+03  0.7818608E-02  0.1238123E+00
          2   -1    0    0  502    0  0.00000000000E+00  0.00000000000E+00  0.37864571294E+03  0.37864571294E+03  0.00000000000E+00 0.  1.
          1   -1    0    0  501    0 -0.00000000000E+00 -0.00000000000E+00 -0.14745599873E+03  0.14745599873E+03  0.00000000000E+00 0.  1.
          2    1    1    2  501    0  0.13140770757E+03  0.94980745349E+02  0.12425574511E+03  0.20427632704E+03  0.00000000000E+00 0.  1.
          1    1    1    2  502    0 -0.13583042146E+03 -0.99964358550E+02  0.10961575957E+03  0.20114271332E+03  0.00000000000E+00 0.  1.
         22    1    1    2    0    0 -0.33419800969E+02  0.54317617293E+01 -0.49817367054E+02  0.60234186244E+02  0.00000000000E+00 0.  1.
         22    1    1    2    0    0  0.37842514854E+02 -0.44814852809E+00  0.47135576581E+02  0.60448485069E+02  0.00000000000E+00 0.  1.
</event>
<event>
 6    1  0.1383644E-005  0.1080570E+03  0.7818608E-02  0.1265934E+00
          2   -1    0    0  502    0  0.00000000000E+00  0.00000000000E+00  0.17976811610E+03  0.17976811610E+03  0.00000000000E+00 0. -1.
          1   -1    0    0  501    0 -0.00000000000E+00 -0.00000000000E+00 -0.11990415629E+03  0.11990415629E+03  0.00000000000E+00 0.  1.
          2    1    1    2  501    0  0.63810299728E+01 -0.39172255026E+02  0.57643447238E+02  0.69985356446E+02  0.00000000000E+00 0. -1.
          1    1    1    2  502    0 -0.31723288384E+02  0.76051171981E+02 -0.42894621429E+02  0.92898311788E+02  0.00000000000E+00 0.  1.
         22    1    1    2    0    0  0.46096616531E+02 -0.45025285899E+02  0.75398949156E+02  0.99182538583E+02  0.00000000000E+00 0. -1.
         22    1    1    2    0    0 -0.20754358120E+02  0.81463689441E+01 -0.30283815155E+02  0.37606065578E+02  0.00000000000E+00 0. -1.
</event>
<event>
 6    1  0.1383644E-005  0.1273697E+03  0.7818608E-02  0.1231448E+00
          2   -1    0    0  502    0  0.00000000000E+00  0.00000000000E+00  0.30382604530E+03  0.30382604530E+03  0.00000000000E+00 0. -1.
          1   -1    0    0  501    0 -0.00000000000E+00 -0.00000000000E+00 -0.45307306391E+03  0.45307306391E+03  0.00000000000E+00 0. -1.
          2    1    1    2  501    0 -0.11155206500E+03 -0.27989586392E+02  0.23836101002E+03  0.26465685567E+03  0.00000000000E+00 0. -1.
          1    1    1    2  502    0  0.93267997149E+02  0.35421593681E+02 -0.34071269254E+03  0.35501936208E+03  0.00000000000E+00 0. -1.
         22    1    1    2    0    0 -0.91296741623E+01 -0.44543339662E+01  0.42486571141E+02  0.43684102014E+02  0.00000000000E+00 0.  1.
         22    1    1    2    0    0  0.27413742015E+02 -0.29776733225E+01 -0.89381907236E+02  0.93538789445E+02  0.00000000000E+00 0. -1.
</event>
<event>
 6    1  0.1383644E-005  0.7244029E+02  0.7818608E-02  0.1414835E+00
          2   -1    0    0  502    0  0.00000000000E+00  0.00000000000E+00  0.54213821698E+02  0.54213821698E+02  0.00000000000E+00 0.  1.
          1   -1    0    0  501    0 -0.00000000000E+00 -0.00000000000E+00 -0.64631513216E+03  0.64631513216E+03  0.00000000000E+00 0.  1.
          2    1    1    2  501    0 -0.75308706374E+01 -0.20632176446E+02 -0.11970542650E+02  0.25013888318E+02  0.00000000000E+00 0.  1.
          1    1    1    2  502    0 -0.10305817478E+02  0.35971504260E+02 -0.54286575871E+03  0.54415383025E+03  0.00000000000E+00 0.  1.
         22    1    1    2    0    0  0.14774000330E+02  0.21527592014E+02 -0.74457917168E+02  0.78903040073E+02  0.00000000000E+00 0. -1.
         22    1    1    2    0    0  0.30626877854E+01 -0.36866919829E+02  0.37192908074E+02  0.52458195214E+02  0.00000000000E+00 0.  1.
</event>
<event>
 6    1  0.1383644E-005  0.8558171E+02  0.7818608E-02  0.1441033E+00
          2   -1    0    0  502    0  0.00000000000E+00  0.00000000000E+00  0.34340171778E+03  0.34340171778E+03  0.00000000000E+00 0. -1.
          1   -1    0    0  501    0 -0.00000000000E+00 -0.00000000000E+00 -0.23223085460E+03  0.23223085460E+03  0.00000000000E+00 0.  1.
          2    1    1    2  501    0  0.35590996541E+02 -0.30453664750E+02  0.15800449943E+03  0.16480159760E+03  0.00000000000E+00 0. -1.
          1    1    1    2  502    0 -0.74131634902E+02  0.46159630467E+02 -0.19476453202E+03  0.21344655938E+03  0.00000000000E+00 0.  1.
         22    1    1    2    0    0  0.10783245933E+01 -0.10576163678E+02 -0.21393585403E+02  0.23889401802E+02  0.00000000000E+00 0. -1.
         22    1    1    2    0    0  0.37462313768E+02 -0.51298020387E+01  0.16932448117E+03  0.17349501361E+03  0.00000000000E+00 0. -1.
</event>
<event>
 6    1  0.1383644E-005  0.1805014E+03  0.7818608E-02  0.1204005E+00
          2   -1    0    0  502    0  0.00000000000E+00  0.00000000000E+00  0.93238012307E+03  0.93238012307E+03  0.00000000000E+00 0.  1.
          1   -1    0    0  501    0 -0.00000000000E+00 -0.00000000000E+00 -0.71703841401E+02  0.71703841401E+02  0.00000000000E+00 0. -1.
          2    1    1    2  501    0 -0.86553403599E+01  0.41019183257E+02  0.22241664622E+03  0.22633305731E+03  0.00000000000E+00 0.  1.
          1    1    1    2  502    0 -0.18429296672E+03 -0.15015136737E+02  0.15571767434E+03  0.24173817658E+03  0.00000000000E+00 0. -1.
         22    1    1    2    0    0  0.19956178727E+02  0.31855868405E+02  0.17024058913E+03  0.17434134222E+03  0.00000000000E+00 0.  1.
         22    1    1    2    0    0  0.17299212835E+03 -0.57859914925E+02  0.31230137197E+03  0.36167138836E+03  0.00000000000E+00 0. -1.
</event>
<event>
 6    1  0.1383644E-005  0.1720479E+03  0.7818608E-02  0.1242680E+00
          2   -1    0    0  502    0  0.00000000000E+00  0.00000000000E+00  0.10269528072E+03  0.10269528072E+03  0.00000000000E+00 0.  1.
          1   -1    0    0  501    0 -0.00000000000E+00 -0.00000000000E+00 -0.47852354446E+03  0.47852354446E+03  0.00000000000E+00 0. -1.
          2    1    1    2  501    0  0.29292417143E+02 -0.13917997128E+03 -0.56938923868E+02  0.15320297372E+03  0.00000000000E+00 0.  1.
          1    1    1    2  502    0 -0.62332463582E+02  0.13711802233E+03 -0.14835976572E+03  0.21141737901E+03  0.00000000000E+00 0. -1.
         22    1    1    2    0    0  0.16107057849E+02  0.37770884426E+02 -0.17221465114E+03  0.17704226357E+03  0.00000000000E+00 0. -1.
         22    1    1    2    0    0  0.16932988589E+02 -0.35708935483E+02  0.16850769856E+01  0.39556208873E+02  0.00000000000E+00 0.  1.
</event>
<event>
 6    1  0.1383644E-005  0.4020248E+02  0.7818608E-02  0.1562116E+00
          2   -1    0    0  502    0  0.00000000000E+00  0.00000000000E+00  0.21168188736E+03  0.21168188736E+03  0.00000000000E+00 0.  1.
          1   -1    0    0  501    0 -0.00000000000E+00 -0.00000000000E+00 -0.10882950467E+03  0.10882950467E+03  0.00000000000E+00 0. -1.
          2    1    1    2  501    0  0.47050569307E+02 -0.27663499079E+02  0.14156876435E+03  0.15172587220E+03  0.00000000000E+00 0.  1.
          1    1    1    2  502    0 -0.40318202923E+02  0.13354434657E+02 -0.15164574162E+02  0.45098367171E+02  0.00000000000E+00 0. -1.
         22    1    1    2    0    0 -0.60010510654E+01  0.28046350079E+02 -0.69785881970E+02  0.75449848834E+02  0.00000000000E+00 0.  1.
         22    1    1    2    0    0 -0.73131531934E+00 -0.13737285658E+02  0.46234074463E+02  0.48237303830E+02  0.00000000000E+00 0.  1.
</event>
<event>
 6    1  0.1383644E-005  0.6811027E+02  0.7818608E-02  0.1435168E+00
          2   -1    0    0  502    0  0.00000000000E+00  0.00000000000E+00  0.24361935816E+03  0.24361935816E+03  0.00000000000E+00 0. -1.
          1   -1    0    0  501    0 -0.00000000000E+00 -0.00000000000E+00 -0.47919696084E+02  0.47919696084E+02  0.00000000000E+00 0. -1.
          2    1    1    2  501    0  0.70513505491E+01 -0.25279532396E+02  0.27752870811E+02  0.38196834175E+02  0.00000000000E+00 0. -1.
          1    1    1    2  502    0 -0.31550399940E+02  0.45666757848E+02  0.75033054613E+02  0.93331879834E+02  0.00000000000E+00 0. -1.
         22    1    1    2    0    0  0.15036085413E+02 -0.41380986187E+02  0.11800660256E+03  0.12595248362E+03  0.00000000000E+00 0. -1.
         22    1    1    2    0    0  0.94629639780E+01  0.20993760735E+02 -0.25092865914E+02  0.34057856609E+02  0.00000000000E+00 0. -1.
</event>
<event>
 6    1  0.1383644E-005  0.3041250E+02  0.7818608E-02  0.1604430E+00
          2   -1    0    0  502    0  0.00000000000E+00  0.00000000000E+00  0.19757533786E+03  0.19757533786E+03  0.00000000000E+00 0. -1.
          1   -1    0    0  501    0 -0.00000000000E+00 -0.00000000000E+00 -0.83978975971E+02  0.83978975971E+02  0.00000000000E+00 0. -1.
          2    1    1    2  501    0 -0.21626894065E+02  0.17833752483E+02  0.41157424782E+02  0.49796575075E+02  0.00000000000E+00 0. -1.
          1    1    1    2  502    0  0.33180228337E+02 -0.31000771682E+02  0.90981769100E+02  0.10168410744E+03  0.00000000000E+00 0. -1.
         22    1    1    2    0    0 -0.19408708884E+02 -0.11787761675E+02  0.50970570691E+02  0.55800075111E+02  0.00000000000E+00 0.  1.
         22    1    1    2    0    0  0.78553746119E+01  0.24954780874E+02 -0.69513402683E+02  0.74273556205E+02  0.00000000000E+00 0. -1.
</event>
<event>
 6    1  0.1383644E-005  0.7696661E+02  0.7818608E-02  0.1340081E+00
          2   -1    0    0  502    0  0.00000000000E+00  0.00000000000E+00  0.88807415127E+02  0.88807415127E+02  0.00000000000E+00 0.  1.
          1   -1    0    0  501    0 -0.00000000000E+00 -0.00000000000E+00 -0.29985695458E+03  0.29985695458E+03  0.00000000000E+00 0.  1.
          2    1    1    2  501    0 -0.46849079612E+02 -0.34334532820E+01  0.48631279126E+02  0.67613801634E+02  0.00000000000E+00 0.  1.
          1    1    1    2  502    0  0.49211389924E+02  0.40761240715E+01 -0.14232834229E+03  0.15065102955E+03  0.00000000000E+00 0.  1.
         22    1    1    2    0    0  0.22121211781E+02  0.96603719177E+01 -0.13588382105E+03  0.13801117208E+03  0.00000000000E+00 0. -1.
         22    1    1    2    0    0 -0.24483522093E+02 -0.10303042707E+02  0.18531344750E+02  0.32388366451E+02  0.00000000000E+00 0.  1.
</event>
<event>
 6    1  0.1383644E-005  0.2469488E+02  0.7818608E-02  0.1682314E+00
          2   -1    0    0  502    0  0.00000000000E+00  0.00000000000E+00  0.72908063586E+02  0.72908063586E+02  0.00000000000E+00 0. -1.
          1   -1    0    0  501    0 -0.00000000000E+00 -0.00000000000E+00 -0.20435980236E+03  0.20435980236E+03  0.00000000000E+00 0. -1.
          2    1    1    2  501    0  0.25063311141E+02  0.80961930834E-01  0.22938457555E+02  0.33975711253E+02  0.00000000000E+00 0. -1.
          1    1    1    2  502    0 -0.34501876756E+02  0.10279903847E+02 -0.10143091278E+03  0.10763032096E+03  0.00000000000E+00 0. -1.
         22    1    1    2    0    0 -0.30562069121E+01 -0.16918733637E+02 -0.92289261019E+02  0.93877002764E+02  0.00000000000E+00 0. -1.
         22    1    1    2    0    0  0.12494772528E+02  0.65578678591E+01  0.39329977469E+02  0.41784830968E+02  0.00000000000E+00 0. -1.
</event>
<event>
 6    1  0.1383644E-005  0.1022412E+03  0.7818608E-02  0.1321226E+00
          2   -1    0    0  502    0  0.00000000000E+00  0.00000000000E+00  0.11649926920E+03  0.11649926920E+03  0.00000000000E+00 0.  1.
          1   -1    0    0  501    0 -0.00000000000E+00 -0.00000000000E+00 -0.23045008624E+03  0.23045008624E+03  0.00000000000E+00 0.  1.
          2    1    1    2  501    0  0.47933868383E+02 -0.51205121205E+02  0.25913669122E+02  0.74773915393E+02  0.00000000000E+00 0.  1.
          1    1    1    2  502    0 -0.58956709390E+02  0.40720084549E+02  0.15899825809E+02  0.73394981630E+02  0.00000000000E+00 0.  1.
         22    1    1    2    0    0  0.40494033601E+02  0.17281536554E+02 -0.16202004808E+03  0.16789554563E+03  0.00000000000E+00 0.  1.
         22    1    1    2    0    0 -0.29471192594E+02 -0.67964998973E+01  0.62557361118E+01  0.30884912790E+02  0.00000000000E+00 0. -1.
</event>
<event>
 6    1  0.1383644E-005  0.9722218E+02  0.7818608E-02  0.1362047E+00
          2   -1    0    0  502    0  0.00000000000E+00  0.00000000000E+00  0.18524470236E+03  0.18524470236E+03  0.00000000000E+00 0. -1.
          1   -1    0    0  501    0 -0.00000000000E+00 -0.00000000000E+00 -0.35111534722E+03  0.35111534722E+03  0.00000000000E+00 0.  1.
          2    1    1    2  501    0 -0.11002462768E+02  0.78126284833E+02  0.11547559004E+03  0.13985486214E+03  0.00000000000E+00 0. -1.
          1    1    1    2  502    0  0.35966782612E+02 -0.70545756354E+02 -0.25630825576E+03  0.26826150518E+03  0.00000000000E+00 0.  1.
         22    1    1    2    0    0 -0.14812227304E+02 -0.20491842383E+02 -0.73154616581E+02  0.77401005220E+02  0.00000000000E+00 0.  1.
         22    1    1    2    0    0 -0.10152092541E+02  0.12911313904E+02  0.48116637445E+02  0.50842677041E+02  0.00000000000E+00 0. -1.
</event>
<event>
 6    1  0.1383644E-005  0.7193966E+02  0.7818608E-02  0.1355160E+00
          2   -1    0    0  502    0  0.00000000000E+00  0.00000000000E+00  0.12891273959E+03  0.12891273959E+03  0.00000000000E+00 0. -1.
          1   -1    0    0  501    0 -0.00000000000E+00 -0.00000000000E+00 -0.16294388306E+03  0.16294388306E+03  0.00000000000E+00 0. -1.
          2    1    1    2  501    0  0.72119469122E+02  0.88076213143E+01  0.61737692864E+02  0.95343246955E+02  0.00000000000E+00 0. -1.
          1    1    1    2  502    0 -0.22066665239E+02  0.24914202708E+02 -0.33798006406E+02  0.47433747990E+02  0.00000000000E+00 0. -1.
         22    1    1    2    0    0  0.16504022989E+02 -0.40145151644E+01  0.28331486838E+02  0.33032896532E+02  0.00000000000E+00 0. -1.
         22    1    1    2    0    0 -0.66556826873E+02 -0.29707308858E+02 -0.90302316765E+02  0.11604673117E+03  0.00000000000E+00 0. -1.
</event>
<event>
 6    1  0.1383644E-005  0.4823016E+02  0.7818608E-02  0.1517348E+00
          2   -1    0    0  502    0  0.00000000000E+00  0.00000000000E+00  0.24050163303E+03  0.24050163303E+03  0.00000000000E+00 0.  1.
          1   -1    0    0  501    0 -0.00000000000E+00 -0.00000000000E+00 -0.28763712437E+03  0.28763712437E+03  0.00000000000E+00 0. -1.
          2    1    1    2  501    0 -0.38453394045E+02  0.15177171297E+02  0.13510351989E+03  0.14128683990E+03  0.00000000000E+00 0.  1.
          1    1    1    2  502    0  0.80959379299E+02  0.83583935423E+01 -0.23220196674E+03  0.24605291544E+03  0.00000000000E+00 0. -1.
         22    1    1    2    0    0 -0.27833631910E+02 -0.21584272455E+02  0.90784039357E+02  0.97377274991E+02  0.00000000000E+00 0. -1.
         22    1    1    2    0    0 -0.14672353344E+02 -0.19512923838E+01 -0.40821083852E+02  0.43421727067E+02  0.00000000000E+00 0. -1.
</event>
<event>
 6    1  0.1383644E-005  0.4601653E+02  0.7818608E-02  0.1539234E+00
          2   -1    0    0  502    0  0.00000000000E+00  0.00000000000E+00  0.25086094099E+03  0.25086094099E+03  0.00000000000E+00 0.  1.
          1   -1    0    0  501    0 -0.00000000000E+00 -0.00000000000E+00 -0.54556942591E+02  0.54556942591E+02  0.00000000000E+00 0.  1.
          2    1    1    2  501    0  0.18475713724E+02  0.96013798421E+01  0.13255193904E+03  0.13417732683E+03  0.00000000000E+00 0.  1.
          1    1    1    2  502    0 -0.25649111371E+02 -0.16182689926E+02  0.13635966903E+02  0.33252006868E+02  0.00000000000E+00 0.  1.
         22    1    1    2    0    0 -0.16553831587E+02 -0.53157733218E+01 -0.40228872553E+02  0.43825209333E+02  0.00000000000E+00 0.  1.
         22    1    1    2    0    0  0.23727229234E+02  0.11897083406E+02  0.90344965010E+02  0.94163340549E+02  0.00000000000E+00 0.  1.
</event>
<event>
 6    1  0.1383644E-005  0.2514693E+03  0.7818608E-02  0.1232385E+00
          2   -1    0    0  502    0  0.00000000000E+00  0.00000000000E+00  0.20760373710E+03  0.20760373710E+03  0.00000000000E+00 0.  1.
          1   -1    0    0  501    0 -0.00000000000E+00 -0.00000000000E+00 -0.48980694751E+03  0.48980694751E+03  0.00000000000E+00 0.  1.
          2    1    1    2  501    0  0.47753586816E+02 -0.68783768391E+02 -0.11171242769E+02  0.84477266248E+02  0.00000000000E+00 0.  1.
          1    1    1    2  502    0  0.78534197838E+02  0.10840771870E+03 -0.37830895008E+03  0.40129479864E+03  0.00000000000E+00 0.  1.
         22    1    1    2    0    0  0.16207637862E+02 -0.68496866660E+00 -0.13282900593E+02  0.20966453093E+02  0.00000000000E+00 0.  1.
         22    1    1    2    0    0 -0.14249542252E+03 -0.38938981641E+02  0.12055988304E+03  0.19067216663E+03  0.00000000000E+00 0.  1.
</event>
<event>
 6    1  0.1383644E-005  0.9246016E+02  0.7818608E-02  0.1384281E+00
          2   -1    0    0  502    0  0.00000000000E+00  0.00000000000E+00  0.85275605648E+02  0.85275605648E+02  0.00000000000E+00 0. -1.
          1   -1    0    0  501    0 -0.00000000000E+00 -0.00000000000E+00 -0.24783140573E+03  0.24783140573E+03  0.00000000000E+00 0. -1.
          2    1    1    2  501    0 -0.44314302064E+02  0.13039661798E+02  0.32038642135E+02  0.56216231971E+02  0.00000000000E+00 0. -1.
          1    1    1    2  502    0  0.67347641914E+02  0.57923460704E+01 -0.97307256230E+02  0.11848189001E+03  0.00000000000E+00 0. -1.
         22    1    1    2    0    0 -0.43284556399E+02 -0.21104291724E+02  0.10017494520E+02  0.49186320743E+02  0.00000000000E+00 0. -1.
         22    1    1    2    0    0  0.20251216549E+02  0.22722838555E+01 -0.10730468051E+03  0.10922256866E+03  0.00000000000E+00 0. -1.
</event>
<event>
 6    1  0.1383644E-005  0.1228509E+03  0.7818608E-02  0.1238569E+00
          2   -1    0    0  502    0  0.00000000000E+00  0.00000000000E+00  0.36219545969E+03  0.36219545969E+03  0.00000000000E+00 0.  1.
          1   -1    0    0  501    0 -0.00000000000E+00 -0.00000000000E+00 -0.21787785972E+03  0.21787785972E+03  0.00000000000E+00 0. -1.
          2    1    1    2  501    0  0.52628579277E+02 -0.74440051664E+02  0.25963956676E+03  0.27517956551E+03  0.00000000000E+00 0.  1.
          1    1    1    2  502    0 -0.67981937849E+02  0.80131564209E+02 -0.14549350179E+03  0.17947415000E+03  0.00000000000E+00 0. -1.
         22    1    1    2    0    0  0.27978978517E+02 -0.13525955212E+02  0.73400488149E+02  0.79708257814E+02  0.00000000000E+00 0.  1.
         22    1    1    2    0    0 -0.12625619945E+02  0.78344426661E+01 -0.43228953142E+02  0.45711346082E+02  0.00000000000E+00 0. -1.
</event>
<event>
 6    1  0.1383644E-005  0.8943746E+02  0.7818608E-02  0.1387017E+00
          2   -1    0    0  502    0  0.00000000000E+00  0.00000000000E+00  0.16918773373E+04  0.16918773373E+04  0.00000000000E+00 0. -1.
          1   -1    0    0  501    0 -0.00000000000E+00 -0.00000000000E+00 -0.19367545998E+03  0.19367545998E+03  0.00000000000E+00 0.  1.
          2    1    1    2  501    0  0.79353029157E+02  0.15601642799E+03  0.15679601830E+04  0.15776999602E+04  0.00000000000E+00 0. -1.
          1    1    1    2  502    0 -0.81968127223E+02 -0.12154771217E+03  0.21049904944E+02  0.14810711905E+03  0.00000000000E+00 0.  1.
         22    1    1    2    0    0 -0.44248821515E+01  0.98550514212E+01  0.29459194729E+02  0.31377472407E+02  0.00000000000E+00 0. -1.
         22    1    1    2    0    0  0.70399802181E+01 -0.44323767233E+02 -0.12026740540E+03  0.12836824554E+03  0.00000000000E+00 0.  1.
</event>
<event>
 6    1  0.1383644E-005  0.1776216E+03  0.7818608E-02  0.1285681E+00
          2   -1    0    0  502    0  0.00000000000E+00  0.00000000000E+00  0.36422208123E+03  0.36422208123E+03  0.00000000000E+00 0.  1.
          1   -1    0    0  501    0 -0.00000000000E+00 -0.00000000000E+00 -0.76243487318E+02  0.76243487318E+02  0.00000000000E+00 0.  1.
          2    1    1    2  501    0  0.22036196498E+02  0.54308496604E+01 -0.13927796809E+02  0.26628398526E+02  0.00000000000E+00 0.  1.
          1    1    1    2  502    0 -0.10437765467E+03  0.49663096712E+02  0.81298686582E+02  0.14131735353E+03  0.00000000000E+00 0.  1.
         22    1    1    2    0    0 -0.13039193916E+02  0.94686006687E+01 -0.68915982217E+01  0.17526240402E+02  0.00000000000E+00 0.  1.
         22    1    1    2    0    0  0.95380652083E+02 -0.64562547041E+02  0.22749930237E+03  0.25499357609E+03  0.00000000000E+00 0.  1.
</event>
<event>
 6    1  0.1383644E-005  0.4428600E+02  0.7818608E-02  0.1531667E+00
          2   -1    0    0  502    0  0.00000000000E+00  0.00000000000E+00  0.26846882486E+03  0.26846882486E+03  0.00000000000E+00 0. -1.
          1   -1    0    0  501    0 -0.00000000000E+00 -0.00000000000E+00 -0.80329426907E+02  0.80329426907E+02  0.00000000000E+00 0. -1.
          2    1    1    2  501    0 -0.55430052977E+02 -0.90803034531E+01  0.14242493044E+03  0.15310063192E+03  0.00000000000E+00 0. -1.
          1    1    1    2  502    0  0.56163309780E+02 -0.27610289954E+02  0.48089335357E+01  0.62767597680E+02  0.00000000000E+00 0. -1.
         22    1    1    2    0    0  0.11762602764E+02  0.90884318204E+01 -0.42057653408E+02  0.44607226174E+02  0.00000000000E+00 0. -1.
         22    1    1    2    0    0 -0.12495859566E+02  0.27602161587E+02  0.82963187387E+02  0.88322795992E+02  0.00000000000E+00 0. -1.
</event>
<event>
 6    1  0.1383644E-005  0.1919927E+03  0.7818608E-02  0.1261330E+00
          2   -1    0    0  502    0  0.00000000000E+00  0.00000000000E+00  0.14230571998E+04  0.14230571998E+04  0.00000000000E+00 0.  1.
          1   -1    0    0  501    0 -0.00000000000E+00 -0.00000000000E+00 -0.69200637253E+02  0.69200637253E+02  0.00000000000E+00 0.  1.
          2    1    1    2  501    0  0.70036737549E+02  0.13294182618E+03  0.10505451644E+04  0.10612369274E+04  0.00000000000E+00 0.  1.
          1    1    1    2  502    0 -0.65997582625E+02 -0.15846994480E+03  0.12571825278E+03  0.21277566449E+03  0.00000000000E+00 0.  1.
         22    1    1    2    0    0  0.98221226695E+01  0.40470603122E+02  0.18991562149E+03  0.19442810264E+03  0.00000000000E+00 0.  1.
         22    1    1    2    0    0 -0.13861277593E+02 -0.14942484509E+02 -0.12322476089E+02  0.23817142499E+02  0.00000000000E+00 0. -1.
</event>
<event>
 6    1  0.1383644E-005  0.6535225E+02  0.7818608E-02  0.1417799E+00
          2   -1    0    0  502    0  0.00000000000E+00  0.00000000000E+00  0.96547596427E+02  0.96547596427E+02  0.00000000000E+00 0. -1.
          1   -1    0    0  501    0 -0.00000000000E+00 -0.00000000000E+00 -0.62098230649E+03  0.62098230649E+03  0.00000000000E+00 0.  1.
          2    1    1    2  501    0 -0.36811802776E+02 -0.38254850682E+02  0.59273210832E+02  0.79572959896E+02  0.00000000000E+00 0. -1.
          1    1    1    2  502    0  0.10203920807E+02  0.57076334934E+02 -0.45370861968E+03  0.45739844729E+03  0.00000000000E+00 0.  1.
         22    1    1    2    0    0 -0.61987976588E+01 -0.10019382837E+02  0.21921350840E+02  0.24886919205E+02  0.00000000000E+00 0. -1.
         22    1    1    2    0    0  0.32806679627E+02 -0.88021014146E+01 -0.15192065205E+03  0.15567157652E+03  0.00000000000E+00 0.  1.
</event>
<event>
 6    1  0.1383644E-005  0.6535588E+02  0.7818608E-02  0.1423279E+00
          2   -1    0    0  502    0  0.00000000000E+00  0.00000000000E+00  0.37417729702E+03  0.37417729702E+03  0.00000000000E+00 0.  1.
          1   -1    0    0  501    0 -0.00000000000E+00 -0.00000000000E+00 -0.73394809816E+02  0.73394809816E+02  0.00000000000E+00 0.  1.
          2    1    1    2  501    0 -0.20956534328E+02 -0.43481576325E+02  0.19345350370E+03  0.19938425691E+03  0.00000000000E+00 0.  1.
          1    1    1    2  502    0  0.13819682057E+02  0.82892627601E+02  0.73292222851E+02  0.11150749416E+03  0.00000000000E+00 0.  1.
         22    1    1    2    0    0  0.13851440064E+02 -0.27976587552E+02 -0.45977865702E+02  0.55574418372E+02  0.00000000000E+00 0.  1.
         22    1    1    2    0    0 -0.67145877935E+01 -0.11434463724E+02  0.80014626350E+02  0.81105937390E+02  0.00000000000E+00 0.  1.
</event>
<event>
 6    1  0.1383644E-005  0.8541681E+02  0.7818608E-02  0.1394925E+00
          2   -1    0    0  502    0  0.00000000000E+00  0.00000000000E+00  0.17189181857E+03  0.17189181857E+03  0.00000000000E+00 0.  1.
          1   -1    0    0  501    0 -0.00000000000E+00 -0.00000000000E+00 -0.92405320950E+02  0.92405320950E+02  0.00000000000E+00 0.  1.
          2    1    1    2  501    0 -0.10243710581E+02 -0.21512273986E+02  0.15998528261E+02  0.28699554788E+02  0.00000000000E+00 0.  1.
          1    1    1    2  502    0  0.45712071942E+02  0.70317746088E+02  0.35399456167E+02  0.91034611182E+02  0.00000000000E+00 0.  1.
         22    1    1    2    0    0 -0.16369655698E+02 -0.59276490663E+02  0.72518091665E+02  0.95081762667E+02  0.00000000000E+00 0.  1.
         22    1    1    2    0    0 -0.19098705663E+02  0.10471018561E+02 -0.44429578471E+02  0.49481210886E+02  0.00000000000E+00 0. -1.
</event>
<event>
 6    1  0.1383644E-005  0.4634952E+02  0.7818608E-02  0.1527981E+00
          2   -1    0    0  502    0  0.00000000000E+00  0.00000000000E+00  0.20836277485E+03  0.20836277485E+03  0.00000000000E+00 0. -1.
          1   -1    0    0  501    0 -0.00000000000E+00 -0.00000000000E+00 -0.10041643060E+03  0.10041643060E+03  0.00000000000E+00 0. -1.
          2    1    1    2  501    0 -0.34076045515E+02  0.69547018074E+01  0.13070085995E+03  0.13524888002E+03  0.00000000000E+00 0. -1.
          1    1    1    2  502    0  0.38675153261E+02 -0.23192444305E+02 -0.32489928340E+01  0.45212972774E+02  0.00000000000E+00 0. -1.
         22    1    1    2    0    0  0.71997735828E+01  0.18362530721E+02 -0.71906476870E+02  0.74562461667E+02  0.00000000000E+00 0. -1.
         22    1    1    2    0    0 -0.11798881330E+02 -0.21247882233E+01  0.52400954002E+02  0.53754890996E+02  0.00000000000E+00 0. -1.
</event>
<event>
 6    1  0.1383644E-005  0.2448236E+02  0.7818608E-02  0.1680941E+00
          2   -1    0    0  502    0  0.00000000000E+00  0.00000000000E+00  0.45645153544E+03  0.45645153544E+03  0.00000000000E+00 0. -1.
          1   -1    0    0  501    0 -0.00000000000E+00 -0.00000000000E+00 -0.84236572401E+02  0.84236572401E+02  0.00000000000E+00 0.  1.
          2    1    1    2  501    0  0.36823770738E+02 -0.14663145963E+02  0.36937357629E+03  0.37149406025E+03  0.00000000000E+00 0. -1.
          1    1    1    2  502    0 -0.34731188696E+02 -0.89849755753E+01  0.16706844985E+02  0.39574030925E+02  0.00000000000E+00 0.  1.
         22    1    1    2    0    0 -0.75094032396E+01  0.10448989812E+02 -0.70270302748E+02  0.71438700810E+02  0.00000000000E+00 0.  1.
         22    1    1    2    0    0  0.54168211973E+01  0.13199131726E+02  0.56404844508E+02  0.58181315851E+02  0.00000000000E+00 0.  1.
</event>
<event>
 6    1  0.1383644E-005  0.8124942E+02  0.7818608E-02  0.1352506E+00
          2   -1    0    0  502    0  0.00000000000E+00  0.00000000000E+00  0.49087953142E+03  0.49087953142E+03  0.00000000000E+00 0.  1.
          1   -1    0    0  501    0 -0.00000000000E+00 -0.00000000000E+00 -0.10427531645E+03  0.10427531645E+03  0.00000000000E+00 0.  1.
          2    1    1    2  501    0 -0.44685541304E+02 -0.44763093112E+02  0.25185716905E+03  0.25967781136E+03  0.00000000000E+00 0.  1.
          1    1    1    2  502    0  0.68609607390E+02  0.14571384794E+02 -0.67121518980E+02  0.97081933392E+02  0.00000000000E+00 0.  1.
         22    1    1    2    0    0  0.11233160218E+02 -0.65991388916E+01 -0.12508568787E+02  0.18060919569E+02  0.00000000000E+00 0.  1.
         22    1    1    2    0    0 -0.35157226305E+02  0.36790847209E+02  0.21437713368E+03  0.22033418356E+03  0.00000000000E+00 0.  1.
</event>
<event>
 6    1  0.1383644E-005  0.8749613E+02  0.7818608E-02  0.1368968E+00
          2   -1    0    0  502    0  0.00000000000E+00  0.00000000000E+00  0.24135285740E+03  0.24135285740E+03  0.00000000000E+00 0. -1.
          1   -1    0    0  501    0 -0.00000000000E+00 -0.00000000000E+00 -0.57199231952E+02  0.57199231952E+02  0.00000000000E+00 0.  1.
          2    1    1    2  501    0  0.13160640901E+01  0.21215811990E+02  0.18308225845E+02  0.28054123345E+02  0.00000000000E+00 0. -1.
          1    1    1    2  502    0  0.27801651566E+01 -0.76213475355E+02  0.35880674358E+02  0.84283129607E+02  0.00000000000E+00 0.  1.
         22    1    1    2    0    0  0.30908659770E+02 -0.16960299128E+00 -0.93901291439E+01  0.32304001908E+02  0.00000000000E+00 0.  1.
         22    1    1    2    0    0 -0.35004889017E+02  0.55167266356E+02  0.13935485439E+03  0.15391083450E+03  0.00000000000E+00 0. -1.
</event>
<event>
 6    1  0.1383644E-005  0.1174288E+03  0.7818608E-02  0.1368983E+00
          2   -1    0    0  502    0  0.00000000000E+00  0.00000000000E+00  0.93075421676E+03  0.93075421676E+03  0.00000000000E+00 0. -1.
          1   -1    0    0  501    0 -0.00000000000E+00 -0.00000000000E+00 -0.72504224327E+02  0.72504224327E+02  0.00000000000E+00 0. -1.
          2    1    1    2  501    0  0.22144738622E+02  0.13055516543E+03  0.71610292446E+03  0.72824339276E+03  0.00000000000E+00 0. -1.
          1    1    1    2  502    0  0.40356439475E+02 -0.56449177699E+02  0.75008562031E+02  0.10218334624E+03  0.00000000000E+00 0. -1.
         22    1    1    2    0    0 -0.12012873464E+02 -0.43689027219E+01 -0.36163579298E+02  0.38356236878E+02  0.00000000000E+00 0. -1.
         22    1    1    2    0    0 -0.50488304633E+02 -0.69737085013E+02  0.10330208524E+03  0.13447546522E+03  0.00000000000E+00 0. -1.
</event>
<event>
 6    1  0.1383644E-005  0.6312227E+02  0.7818608E-02  0.1503521E+00
          2   -1    0    0  502    0  0.00000000000E+00  0.00000000000E+00  0.22935869414E+03  0.22935869414E+03  0.00000000000E+00 0. -1.
          1   -1    0    0  501    0 -0.00000000000E+00 -0.00000000000E+00 -0.61126267606E+02  0.61126267606E+02  0.00000000000E+00 0.  1.
          2    1    1    2  501    0  0.24749442045E+02 -0.46054404777E+01  0.68266176690E+02  0.72759987929E+02  0.00000000000E+00 0. -1.
          1    1    1    2  502    0 -0.57761197978E+02 -0.10548257618E+02  0.29228867866E+02  0.65589240332E+02  0.00000000000E+00 0.  1.
         22    1    1    2    0    0  0.47354847084E+01 -0.97628993590E+01 -0.36704898672E+02  0.38275169573E+02  0.00000000000E+00 0.  1.
         22    1    1    2    0    0  0.28276271224E+02  0.24916597455E+02  0.10744228065E+03  0.11386056391E+03  0.00000000000E+00 0. -1.
</event>
<event>
 6    1  0.1383644E-005  0.5071951E+03  0.7818608E-02  0.1147682E+00
          2   -1    0    0  502    0  0.00000000000E+00  0.00000000000E+00  0.20083948097E+04  0.20083948097E+04  0.00000000000E+00 0. -1.
          1   -1    0    0  501    0 -0.00000000000E+00 -0.00000000000E+00 -0.21211097856E+03  0.21211097856E+03  0.00000000000E+00 0. -1.
          2    1    1    2  501    0  0.19601373205E+03  0.40343791172E+03  0.13358077057E+04  0.14091010462E+04  0.00000000000E+00 0. -1.
          1    1    1    2  502    0 -0.23060704723E+03 -0.43351659814E+03  0.22672264111E+03  0.54085063288E+03  0.00000000000E+00 0. -1.
         22    1    1    2    0    0 -0.12826044150E+02 -0.11435278393E+01 -0.12436686972E+02  0.17902129686E+02  0.00000000000E+00 0.  1.
         22    1    1    2    0    0  0.47419359329E+02  0.31222214258E+02  0.24619017136E+03  0.25265197957E+03  0.00000000000E+00 0.  1.
</event>
<event>
 6    1  0.1383644E-005  0.7901805E+02  0.7818608E-02  0.1387918E+00
          2   -1    0    0  502    0  0.00000000000E+00  0.00000000000E+00  0.11112948064E+03  0.11112948064E+03  0.00000000000E+00 0. -1.
          1   -1    0    0  501    0 -0.00000000000E+00 -0.00000000000E+00 -0.26666196712E+03  0.26666196712E+03  0.00000000000E+00 0.  1.
          2    1    1    2  501    0  0.35333675560E+02 -0.36546831271E+02  0.25543589469E+02  0.56891251238E+02  0.00000000000E+00 0. -1.
          1    1    1    2  502    0 -0.59781146182E+02  0.15078167705E+02 -0.18348549610E+03  0.19356669099E+03  0.00000000000E+00 0.  1.
         22    1    1    2    0    0 -0.62862512582E+01  0.19706575433E+02 -0.56882283056E+02  0.60526524730E+02  0.00000000000E+00 0.  1.
         22    1    1    2    0    0  0.30733721880E+02  0.17620881326E+01  0.59291703213E+02  0.66806980811E+02  0.00000000000E+00 0. -1.
</event>
<event>
 6    1  0.1383644E-005  0.6083656E+02  0.7818608E-02  0.1410575E+00
          2   -1    0    0  502    0  0.00000000000E+00  0.00000000000E+00  0.77133961646E+03  0.77133961646E+03  0.00000000000E+00 0.  1.
          1   -1    0    0  501    0 -0.00000000000E+00 -0.00000000000E+00 -0.88643872475E+02  0.88643872475E+02  0.00000000000E+00 0.  1.
          2    1    1    2  501    0 -0.23365311082E+02  0.16376485273E+03  0.43109208470E+03  0.46174154052E+03  0.00000000000E+00 0.  1.
          1    1    1    2  502    0 -0.16220966937E+02 -0.15089010491E+03  0.21851738891E+03  0.26604659890E+03  0.00000000000E+00 0.  1.
         22    1    1    2    0    0  0.17367974423E+02 -0.54326988111E+01  0.78774407685E+02  0.80849044880E+02  0.00000000000E+00 0. -1.
         22    1    1    2    0    0  0.22218303597E+02 -0.74420490074E+01 -0.45688137313E+02  0.51346304632E+02  0.00000000000E+00 0.  1.
</event>
<event>
 6    1  0.1383644E-005  0.8159906E+02  0.7818608E-02  0.1358859E+00
          2   -1    0    0  502    0  0.00000000000E+00  0.00000000000E+00  0.79362095088E+02  0.79362095088E+02  0.00000000000E+00 0. -1.
          1   -1    0    0  501    0 -0.00000000000E+00 -0.00000000000E+00 -0.24149570230E+03  0.24149570230E+03  0.00000000000E+00 0. -1.
          2    1    1    2  501    0  0.38414195183E+02 -0.67591597611E+02 -0.40901571954E+02  0.87847669562E+02  0.00000000000E+00 0. -1.
          1    1    1    2  502    0 -0.51881280746E+02 -0.12948227831E+02 -0.28680195400E+02  0.60678476448E+02  0.00000000000E+00 0. -1.
         22    1    1    2    0    0  0.67446126377E+01 -0.29399999976E+02 -0.28817052893E+01  0.30301056477E+02  0.00000000000E+00 0. -1.
         22    1    1    2    0    0  0.67224729253E+01  0.10993982542E+03 -0.89670134572E+02  0.14203059491E+03  0.00000000000E+00 0. -1.
</event>
<event>
 6    1  0.1383644E-005  0.4684455E+02  0.7818608E-02  0.1541307E+00
          2   -1    0    0  502    0  0.00000000000E+00  0.00000000000E+00  0.13925287231E+03  0.13925287231E+03  0.00000000000E+00 0. -1.
          1   -1    0    0  501    0 -0.00000000000E+00 -0.00000000000E+00 -0.10916963293E+03  0.10916963293E+03  0.00000000000E+00 0.  1.
          2    1    1    2  501    0  0.15616780405E+02 -0.15542788886E+02  0.78082319609E+02  0.81131441206E+02  0.00000000000E+00 0. -1.
          1    1    1    2  502    0 -0.22257719209E+02  0.85927349967E+01 -0.34950641425E+02  0.42317709002E+02  0.00000000000E+00 0.  1.
         22    1    1    2    0    0  0.22281953298E+02  0.10514397200E+02  0.52231662022E+02  0.57751056344E+02  0.00000000000E+00 0. -1.
         22    1    1    2    0    0 -0.15641014495E+02 -0.35643433104E+01 -0.65280100821E+02  0.67222298688E+02  0.00000000000E+00 0.  1.
</event>
<event>
 6    1  0.1383644E-005  0.1326491E+03  0.7818608E-02  0.1349610E+00
          2   -1    0    0  502    0  0.00000000000E+00  0.00000000000E+00  0.15767361561E+03  0.15767361561E+03  0.00000000000E+00 0. -1.
          1   -1    0    0  501    0 -0.00000000000E+00 -0.00000000000E+00 -0.14996689460E+03  0.14996689460E+03  0.00000000000E+00 0. -1.
          2    1    1    2  501    0 -0.25056717023E+02 -0.37709050575E+01 -0.39231376376E+01  0.25640783955E+02  0.00000000000E+00 0. -1.
          1    1    1    2  502    0  0.11427523515E+03  0.36311688987E+02 -0.20465275757E+02  0.12163961377E+03  0.00000000000E+00 0. -1.
         22    1    1    2    0    0 -0.95849560136E+02 -0.42882959532E+02  0.66185672088E+02  0.12412344495E+03  0.00000000000E+00 0. -1.
         22    1    1    2    0    0  0.66310420051E+01  0.10342175602E+02 -0.34090537688E+02  0.36236667537E+02  0.00000000000E+00 0. -1.
</event>
<event>
 6    1  0.1383644E-005  0.1128733E+03  0.7818608E-02  0.1328177E+00
          2   -1    0    0  502    0  0.00000000000E+00  0.00000000000E+00  0.87539001436E+02  0.87539001436E+02  0.00000000000E+00 0. -1.
          1   -1    0    0  501    0 -0.00000000000E+00 -0.00000000000E+00 -0.24483461521E+03  0.24483461521E+03  0.00000000000E+00 0. -1.
          2    1    1    2  501    0 -0.17008870216E+02 -0.49880871952E+02 -0.63447206329E+02  0.82480003902E+02  0.00000000000E+00 0. -1.
          1    1    1    2  502    0  0.57692945186E+02  0.66795578685E+02  0.48435436890E+01  0.88394486092E+02  0.00000000000E+00 0. -1.
         22    1    1    2    0    0 -0.39005218292E+02 -0.45791568757E+02 -0.15821563717E+01  0.60172901227E+02  0.00000000000E+00 0.  1.
         22    1    1    2    0    0 -0.16788566778E+01  0.28876862024E+02 -0.97109794765E+02  0.10132622543E+03  0.00000000000E+00 0. -1.
</event>
<event>
 6    1  0.1383644E-005  0.2401371E+03  0.7818608E-02  0.1188704E+00
          2   -1    0    0  502    0  0.00000000000E+00  0.00000000000E+00  0.11781480849E+03  0.11781480849E+03  0.00000000000E+00 0.  1.
          1   -1    0    0  501    0 -0.00000000000E+00 -0.00000000000E+00 -0.41587313556E+03  0.41587313556E+03  0.00000000000E+00 0. -1.
          2    1    1    2  501    0  0.38023144108E+02 -0.57117104087E+02 -0.81405623928E+02  0.10646595077E+03  0.00000000000E+00 0.  1.
          1    1    1    2  502    0 -0.43619653915E+02 -0.97169010070E+02 -0.20248874501E+03  0.22879288141E+03  0.00000000000E+00 0. -1.
         22    1    1    2    0    0 -0.34051583874E+02  0.12845844734E+03  0.27118358561E+02  0.13563365522E+03  0.00000000000E+00 0.  1.
         22    1    1    2    0    0  0.39648093680E+02  0.25827666817E+02 -0.41282316692E+02  0.62795456660E+02  0.00000000000E+00 0.  1.
</event>
<event>
 6    1  0.1383644E-005  0.5572735E+02  0.7818608E-02  0.1419360E+00
          2   -1    0    0  502    0  0.00000000000E+00  0.00000000000E+00  0.80010240359E+02  0.80010240359E+02  0.00000000000E+00 0. -1.
          1   -1    0    0  501    0 -0.00000000000E+00 -0.00000000000E+00 -0.20315925932E+03  0.20315925932E+03  0.00000000000E+00 0. -1.
          2    1    1    2  501    0  0.27214324341E+02 -0.29122806177E+02  0.16624148239E+02  0.43187030386E+02  0.00000000000E+00 0. -1.
          1    1    1    2  502    0  0.21608108993E+02  0.51820149196E+02 -0.28717395371E+02  0.63062881585E+02  0.00000000000E+00 0. -1.
         22    1    1    2    0    0 -0.56252273828E+02 -0.84736595070E+01 -0.13590990424E+03  0.14733507147E+03  0.00000000000E+00 0. -1.
         22    1    1    2    0    0  0.74298404947E+01 -0.14223683512E+02  0.24854132413E+02  0.29584516228E+02  0.00000000000E+00 0. -1.
</event>
