<event>
 6    1  0.2406404E-005  0.7242719E+02  0.7818608E-02  0.1354720E+00
          2   -1    0    0  502    0  0.00000000000E+00  0.00000000000E+00  0.43438804575E+03  0.43438804575E+03  0.00000000000E+00 0.  1.
          1   -1    0    0  501    0 -0.00000000000E+00 -0.00000000000E+00 -0.18502057832E+03  0.18502057832E+03  0.00000000000E+00 0.  1.
          2    1    1    2  501    0 -0.18060244700E+02 -0.43722835544E+02  0.33233606441E+03  0.33568604155E+03  0.00000000000E+00 0.  1.
          1    1    1    2  502    0  0.26327209632E+02  0.52202367500E+02 -0.13337498515E+03  0.14562656284E+03  0.00000000000E+00 0.  1.
         22    1    1    2    0    0 -0.18820200914E+01 -0.20407177942E+02  0.92053176638E+02  0.94306851503E+02  0.00000000000E+00 0.  1.
         22    1    1    2    0    0 -0.63849448406E+01  0.11927645985E+02 -0.41646788468E+02  0.43789168171E+02  0.00000000000E+00 0. -1.
</event>
<event>
 6    1  0.2406404E-005  0.6003845E+02  0.7818608E-02  0.1466668E+00
          2   -1    0    0  502    0  0.00000000000E+00  0.00000000000E+00  0.28609759456E+03  0.28609759456E+03  0.00000000000E+00 0. -1.
          1   -1    0    0  501    0 -0.00000000000E+00 -0.00000000000E+00 -0.46487486355E+02  0.46487486355E+02  0.00000000000E+00 0.  1.
          2    1    1    2  501    0  0.21210710222E+02 -0.98573917380E+01  0.76446970654E+02  0.79944991851E+02  0.00000000000E+00 0. -1.
          1    1    1    2  502    0 -0.29597383059E+02  0.38928032191E+02  0.92916238338E+01  0.49776812349E+02  0.00000000000E+00 0.  1.
         22    1    1    2    0    0  0.29093842728E+02 -0.24774586060E+02  0.17126806113E+03  0.17547928813E+03  0.00000000000E+00 0. -1.
         22    1    1    2    0    0 -0.20707169892E+02 -0.42960543930E+01 -0.17396547420E+02  0.27383988577E+02  0.00000000000E+00 0.  1.
</event>
<event>
 6    1  0.2406404E-005  0.7388914E+02  0.7818608E-02  0.1373384E+00
          2   -1    0    0  502    0  0.00000000000E+00  0.00000000000E+00  0.26849550807E+03  0.26849550807E+03  0.00000000000E+00 0.  1.
          1   -1    0    0  501    0 -0.00000000000E+00 -0.00000000000E+00 -0.18119253453E+03  0.18119253453E+03  0.00000000000E+00 0. -1.
          2    1    1    2  501    0  0.15848094986E+02  0.57414050632E+02  0.16627143756E+02  0.61838476971E+02  0.00000000000E+00 0.  1.
          1    1    1    2  502    0  0.32097595207E+02 -0.61598629374E+02 -0.12885250884E+03  0.14638174679E+03  0.00000000000E+00 0. -1.
         22    1    1    2    0    0 -0.45611770060E+02  0.13995532914E+02  0.21651702344E+03  0.22171136630E+03  0.00000000000E+00 0.  1.
         22    1    1    2    0    0 -0.23339201328E+01 -0.98109541722E+01 -0.16988684813E+02  0.19756452531E+02  0.00000000000E+00 0. -1.
</event>
<event>
 6    1  0.2406404E-005  0.6868545E+02  0.7818608E-02  0.1409445E+00
          2   -1    0    0  502    0  0.00000000000E+00  0.00000000000E+00  0.10741583864E+03  0.10741583864E+03  0.00000000000E+00 0.  1.
          1   -1    0    0  501    0 -0.00000000000E+00 -0.00000000000E+00 -0.19139104839E+03  0.19139104839E+03  0.00000000000E+00 0.  1.
          2    1    1    2  501    0  0.24115279058E+02 -0.53064786925E+02  0.47908014583E+02  0.75449295270E+02  0.00000000000E+00 0.  1.
          1    1    1    2  502    0 -0.23689562668E+02  0.39878344538E+02 -0.12580232338E+02  0.48059754350E+02  0.00000000000E+00 0.  1.
         22    1    1    2    0    0  0.56895657052E+01  0.32819994967E+02 -0.14130742080E+03  0.14518026864E+03  0.00000000000E+00 0.  1.
         22    1    1    2    0    0 -0.61152820951E+01 -0.19633552580E+02  0.22004428807E+02  0.30117568779E+02  0.00000000000E+00 0.  1.
</event>
<event>
 6    1  0.2406404E-005  0.6130200E+02  0.7818608E-02  0.1427495E+00
          2   -1    0    0  502    0  0.00000000000E+00  0.00000000000E+00  0.20491147992E+03  0.20491147992E+03  0.00000000000E+00 0.  1.
          1   -1    0    0  501    0 -0.00000000000E+00 -0.00000000000E+00 -0.14755423497E+03  0.14755423497E+03  0.00000000000E+00 0. -1.
          2    1    1    2  501    0 -0.42234180447E+02  0.28414450793E+02  0.74482509507E+02  0.90215027763E+02  0.00000000000E+00 0.  1.
          1    1    1    2  502    0  0.80355618538E+02 -0.65701160682E+02 -0.64572139067E+02  0.12224250116E+03  0.00000000000E+00 0. -1.
         22    1    1    2    0    0 -0.25419078241E+02 -0.22229219788E+02  0.67878177935E+02  0.75813684720E+02  0.00000000000E+00 0.  1.
         22    1    1    2    0    0 -0.12702359850E+02  0.59515929677E+02 -0.20431303425E+02  0.64194501250E+02  0.00000000000E+00 0.  1.
</event>
<event>
 6    1  0.2406404E-005  0.5598572E+02  0.7818608E-02  0.1513229E+00
          2   -1    0    0  502    0  0.00000000000E+00  0.00000000000E+00  0.11867602330E+03  0.11867602330E+03  0.00000000000E+00 0.  1.
          1   -1    0    0  501    0 -0.00000000000E+00 -0.00000000000E+00 -0.13921407722E+03  0.13921407722E+03  0.00000000000E+00 0.  1.
          2    1    1    2  501    0  0.33040526156E+02 -0.25726574268E+02  0.57957299405E+02  0.71502318469E+02  0.00000000000E+00 0.  1.
          1    1    1    2  502    0 -0.33310499411E+02  0.22519912210E+02 -0.45298963272E+02  0.60570057706E+02  0.00000000000E+00 0.  1.
         22    1    1    2    0    0 -0.79630563079E+01  0.11061937064E+02 -0.78209626740E+02  0.79388427571E+02  0.00000000000E+00 0.  1.
         22    1    1    2    0    0  0.82330295635E+01 -0.78552750064E+01  0.45013236696E+02  0.46429296775E+02  0.00000000000E+00 0.  1.
</event>
<event>
 6    1  0.2406404E-005  0.4920828E+02  0.7818608E-02  0.1507594E+00
          2   -1    0    0  502    0  0.00000000000E+00  0.00000000000E+00  0.17933688070E+02  0.17933688070E+02  0.00000000000E+00 0.  1.
          1   -1    0    0  501    0 -0.00000000000E+00 -0.00000000000E+00 -0.85303521419E+03  0.85303521419E+03  0.00000000000E+00 0.  1.
          2    1    1    2  501    0  0.15677159688E+01 -0.24985808472E+02 -0.34586240598E+02  0.42696093463E+02  0.00000000000E+00 0.  1.
          1    1    1    2  502    0 -0.42360145755E+02  0.31560888860E+02 -0.47925129427E+03  0.48215378741E+03  0.00000000000E+00 0.  1.
         22    1    1    2    0    0  0.53819966377E+02  0.10736424963E+02 -0.31972258274E+03  0.32439850418E+03  0.00000000000E+00 0. -1.
         22    1    1    2    0    0 -0.13027536591E+02 -0.17311505351E+02 -0.15414085050E+01  0.21720517197E+02  0.00000000000E+00 0.  1.
</event>
<event>
 6    1  0.2406404E-005  0.6260515E+02  0.7818608E-02  0.1427040E+00
          2   -1    0    0  502    0  0.00000000000E+00  0.00000000000E+00  0.38792418446E+02  0.38792418446E+02  0.00000000000E+00 0. -1.
          1   -1    0    0  501    0 -0.00000000000E+00 -0.00000000000E+00 -0.36626539771E+03  0.36626539771E+03  0.00000000000E+00 0. -1.
          2    1    1    2  501    0 -0.26179509075E+02  0.30061672028E+02 -0.20722835178E+02  0.44927794497E+02  0.00000000000E+00 0. -1.
          1    1    1    2  502    0  0.37147254999E+02 -0.11017341989E+02 -0.16274776103E+03  0.16729654538E+03  0.00000000000E+00 0. -1.
         22    1    1    2    0    0  0.22539045935E+02 -0.20412410119E+02 -0.15467940407E+03  0.15764007461E+03  0.00000000000E+00 0. -1.
         22    1    1    2    0    0 -0.33506791859E+02  0.13680800803E+01  0.10677021006E+02  0.35193401673E+02  0.00000000000E+00 0. -1.
</event>
<event>
 6    1  0.2406404E-005  0.8283533E+02  0.7818608E-02  0.1354353E+00
          2   -1    0    0  502    0  0.00000000000E+00  0.00000000000E+00  0.94678020199E+02  0.94678020199E+02  0.00000000000E+00 0.  1.
          1   -1    0    0  501    0 -0.00000000000E+00 -0.00000000000E+00 -0.16413449994E+03  0.16413449994E+03  0.00000000000E+00 0.  1.
          2    1    1    2  501    0 -0.22377629458E+02  0.10694538629E+02  0.36252921411E+02  0.43925001622E+02  0.00000000000E+00 0.  1.
          1    1    1    2  502    0 -0.18504016204E+02 -0.79697881081E+01 -0.78496300071E+02  0.81040639577E+02  0.00000000000E+00 0.  1.
         22    1    1    2    0    0 -0.91798561235E+01  0.19359211081E+02  0.41083854784E+02  0.46334996882E+02  0.00000000000E+00 0.  1.
         22    1    1    2    0    0  0.50061501786E+02 -0.22083961603E+02 -0.68296955867E+02  0.87511882060E+02  0.00000000000E+00 0.  1.
</event>
<event>
 6    1  0.2406404E-005  0.2377445E+03  0.7818608E-02  0.1123025E+00
          2   -1    0    0  502    0  0.00000000000E+00  0.00000000000E+00  0.29356958859E+03  0.29356958859E+03  0.00000000000E+00 0.  1.
          1   -1    0    0  501    0 -0.00000000000E+00 -0.00000000000E+00 -0.19489325405E+03  0.19489325405E+03  0.00000000000E+00 0.  1.
          2    1    1    2  501    0 -0.11465971192E+03 -0.12186079104E+03  0.55050437405E+01  0.16741328334E+03  0.00000000000E+00 0.  1.
          1    1    1    2  502    0  0.10488523278E+03  0.12861880098E+03  0.97122204545E+02  0.19229256521E+03  0.00000000000E+00 0.  1.
         22    1    1    2    0    0  0.67315154908E+02  0.61970710984E+01  0.94932039756E+01  0.68263128351E+02  0.00000000000E+00 0.  1.
         22    1    1    2    0    0 -0.57540675764E+02 -0.12955081039E+02 -0.13444117723E+02  0.60493865750E+02  0.00000000000E+00 0. -1.
</event>
<event>
 6    1  0.2406404E-005  0.6878653E+02  0.7818608E-02  0.1463752E+00
          2   -1    0    0  502    0  0.00000000000E+00  0.00000000000E+00  0.12450888185E+03  0.12450888185E+03  0.00000000000E+00 0.  1.
          1   -1    0    0  501    0 -0.00000000000E+00 -0.00000000000E+00 -0.12302714247E+03  0.12302714247E+03  0.00000000000E+00 0.  1.
          2    1    1    2  501    0  0.34036980201E+02  0.69706608095E+01  0.44812280594E+02  0.56703144758E+02  0.00000000000E+00 0.  1.
          1    1    1    2  502    0 -0.51784742215E+02  0.56679561635E+01 -0.34381113016E+02  0.62416713992E+02  0.00000000000E+00 0.  1.
         22    1    1    2    0    0  0.25225684930E+02 -0.25254900598E+02  0.53473922607E+02  0.64293122365E+02  0.00000000000E+00 0.  1.
         22    1    1    2    0    0 -0.74779229165E+01  0.12616283625E+02 -0.62423350811E+02  0.64123043207E+02  0.00000000000E+00 0.  1.
</event>
<event>
 6    1  0.2406404E-005  0.7106887E+02  0.7818608E-02  0.1356651E+00
          2   -1    0    0  502    0  0.00000000000E+00  0.00000000000E+00  0.13313461776E+03  0.13313461776E+03  0.00000000000E+00 0. -1.
          1   -1    0    0  501    0 -0.00000000000E+00 -0.00000000000E+00 -0.61948363381E+02  0.61948363381E+02  0.00000000000E+00 0. -1.
          2    1    1    2  501    0  0.13197515936E+02  0.17269639622E+02  0.14357686316E+01  0.21782477157E+02  0.00000000000E+00 0. -1.
          1    1    1    2  502    0 -0.51106285144E+00 -0.26812938070E+02  0.24395067491E+01  0.26928535541E+02  0.00000000000E+00 0. -1.
         22    1    1    2    0    0 -0.35186098998E+02  0.18135906999E+02 -0.27727011093E+02  0.48329699249E+02  0.00000000000E+00 0. -1.
         22    1    1    2    0    0  0.22499645913E+02 -0.85926085500E+01  0.95037990096E+02  0.98042269197E+02  0.00000000000E+00 0. -1.
</event>
<event>
 6    1  0.2406404E-005  0.8121266E+02  0.7818608E-02  0.1380095E+00
          2   -1    0    0  502    0  0.00000000000E+00  0.00000000000E+00  0.82601082391E+02  0.82601082391E+02  0.00000000000E+00 0.  1.
          1   -1    0    0  501    0 -0.00000000000E+00 -0.00000000000E+00 -0.15321712903E+03  0.15321712903E+03  0.00000000000E+00 0.  1.
          2    1    1    2  501    0  0.15505308210E+02  0.16933031008E+02 -0.54551277516E+01  0.23598740233E+02  0.00000000000E+00 0.  1.
          1    1    1    2  502    0 -0.15996936469E+02  0.12393393962E+02 -0.84671044192E+02  0.87055636893E+02  0.00000000000E+00 0.  1.
         22    1    1    2    0    0  0.25134698140E+01 -0.41085825892E+02  0.65660344917E+02  0.77496087090E+02  0.00000000000E+00 0.  1.
         22    1    1    2    0    0 -0.20218415555E+01  0.11759400921E+02 -0.46150219612E+02  0.47667747204E+02  0.00000000000E+00 0. -1.
</event>
<event>
 6    1  0.2406404E-005  0.8623327E+02  0.7818608E-02  0.1360788E+00
          2   -1    0    0  502    0  0.00000000000E+00  0.00000000000E+00  0.65862389236E+02  0.65862389236E+02  0.00000000000E+00 0. -1.
          1   -1    0    0  501    0 -0.00000000000E+00 -0.00000000000E+00 -0.41151203086E+03  0.41151203086E+03  0.00000000000E+00 0.  1.
          2    1    1    2  501    0  0.24266292447E+02  0.60942847024E+00  0.35258907598E+02  0.42806715796E+02  0.00000000000E+00 0. -1.
          1    1    1    2  502    0  0.75185185099E+01  0.22983215928E+02 -0.23301528876E+03  0.23426668805E+03  0.00000000000E+00 0.  1.
         22    1    1    2    0    0 -0.42910208304E+02 -0.29725521608E+02 -0.16832971335E+03  0.17623786486E+03  0.00000000000E+00 0.  1.
         22    1    1    2    0    0  0.11125397347E+02  0.61328772101E+01  0.20436452881E+02  0.24063151402E+02  0.00000000000E+00 0. -1.
</event>
<event>
 6    1  0.2406404E-005  0.2397671E+03  0.7818608E-02  0.1232081E+00
          2   -1    0    0  502    0  0.00000000000E+00  0.00000000000E+00  0.30236233300E+03  0.30236233300E+03  0.00000000000E+00 0.  1.
          1   -1    0    0  501    0 -0.00000000000E+00 -0.00000000000E+00 -0.58249430223E+03  0.58249430223E+03  0.00000000000E+00 0.  1.
          2    1    1    2  501    0  0.14218308039E+02  0.17228326752E+03  0.13631935031E+03  0.22015142475E+03  0.00000000000E+00 0.  1.
          1    1    1    2  502    0 -0.52184274235E+02 -0.22724143127E+03 -0.45953294620E+03  0.51529835552E+03  0.00000000000E+00 0.  1.
         22    1    1    2    0    0  0.17802710559E+02 -0.61430888186E+01 -0.40066034967E+02  0.44271449055E+02  0.00000000000E+00 0. -1.
         22    1    1    2    0    0  0.20163255636E+02  0.61101252567E+02  0.83147661620E+02  0.10513540591E+03  0.00000000000E+00 0.  1.
</event>
<event>
 6    1  0.2406404E-005  0.1303804E+03  0.7818608E-02  0.1236834E+00
          2   -1    0    0  502    0  0.00000000000E+00  0.00000000000E+00  0.38605716894E+02  0.38605716894E+02  0.00000000000E+00 0. -1.
          1   -1    0    0  501    0 -0.00000000000E+00 -0.00000000000E+00 -0.70293726889E+03  0.70293726889E+03  0.00000000000E+00 0. -1.
          2    1    1    2  501    0 -0.26666495867E+02 -0.22275122065E+02 -0.33283073236E+03  0.33463947685E+03  0.00000000000E+00 0. -1.
          1    1    1    2  502    0 -0.83305245110E+01  0.69521702620E+02 -0.28429643039E+02  0.75570558931E+02  0.00000000000E+00 0. -1.
         22    1    1    2    0    0  0.21580080942E+02 -0.79234700144E+02 -0.27410170822E+03  0.28613909912E+03  0.00000000000E+00 0. -1.
         22    1    1    2    0    0  0.13416939436E+02  0.31988119589E+02 -0.28969468380E+02  0.45193850875E+02  0.00000000000E+00 0.  1.
</event>
<event>
 6    1  0.2406404E-005  0.3572774E+02  0.7818608E-02  0.1582420E+00
          2   -1    0    0  502    0  0.00000000000E+00  0.00000000000E+00  0.22868187907E+03  0.22868187907E+03  0.00000000000E+00 0. -1.
          1   -1    0    0  501    0 -0.00000000000E+00 -0.00000000000E+00 -0.13748834667E+03  0.13748834667E+03  0.00000000000E+00 0. -1.
          2    1    1    2  501    0  0.38861571671E+02  0.16832637795E+02 -0.78395182519E+02  0.89103109318E+02  0.00000000000E+00 0. -1.
          1    1    1    2  502    0 -0.21662336894E+02 -0.13702971764E+02  0.14151931083E+03  0.14382191632E+03  0.00000000000E+00 0. -1.
         22    1    1    2    0    0  0.17337898125E+02 -0.12709856194E+02 -0.46102127699E+02  0.50867959800E+02  0.00000000000E+00 0. -1.
         22    1    1    2    0    0 -0.34537132902E+02  0.95801901627E+01  0.74171531782E+02  0.82377240301E+02  0.00000000000E+00 0. -1.
</event>
<event>
 6    1  0.2406404E-005  0.9981328E+02  0.7818608E-02  0.1392820E+00
          2   -1    0    0  502    0  0.00000000000E+00  0.00000000000E+00  0.79263747117E+02  0.79263747117E+02  0.00000000000E+00 0.  1.
          1   -1    0    0  501    0 -0.00000000000E+00 -0.00000000000E+00 -0.42027890021E+03  0.42027890021E+03  0.00000000000E+00 0.  1.
          2    1    1    2  501    0 -0.10387086998E+02  0.93949463158E+02 -0.77248801316E+02  0.12207280823E+03  0.00000000000E+00 0.  1.
          1    1    1    2  502    0  0.23075668514E+02 -0.20624753964E+01 -0.21515859019E+03  0.21640230871E+03  0.00000000000E+00 0.  1.
         22    1    1    2    0    0  0.10214375180E+02  0.97446228144E+01 -0.54911103035E+02  0.56696740388E+02  0.00000000000E+00 0.  1.
         22    1    1    2    0    0 -0.22902956697E+02 -0.10163161058E+03  0.63033414408E+01  0.10437079001E+03  0.00000000000E+00 0.  1.
</event>
<event>
 6    1  0.2406404E-005  0.1210113E+03  0.7818608E-02  0.1258473E+00
          2   -1    0    0  502    0  0.00000000000E+00  0.00000000000E+00  0.39472592759E+03  0.39472592759E+03  0.00000000000E+00 0.  1.
          1   -1    0    0  501    0 -0.00000000000E+00 -0.00000000000E+00 -0.78754830038E+02  0.78754830038E+02  0.00000000000E+00 0. -1.
          2    1    1    2  501    0 -0.59336789627E+02  0.17870425993E+02  0.29341444533E+03  0.29988705116E+03  0.00000000000E+00 0.  1.
          1    1    1    2  502    0  0.18062639132E+02 -0.30579990829E+02  0.40424746202E+01  0.35745438486E+02  0.00000000000E+00 0. -1.
         22    1    1    2    0    0  0.15036323644E+02  0.41053709412E+02  0.64420040817E+02  0.77855248661E+02  0.00000000000E+00 0. -1.
         22    1    1    2    0    0  0.26237826852E+02 -0.28344144577E+02 -0.45905863212E+02  0.59993019318E+02  0.00000000000E+00 0. -1.
</event>
<event>
 6    1  0.2406404E-005  0.6384069E+02  0.7818608E-02  0.1453302E+00
          2   -1    0    0  502    0  0.00000000000E+00  0.00000000000E+00  0.12420086291E+03  0.12420086291E+03  0.00000000000E+00 0. -1.
          1   -1    0    0  501    0 -0.00000000000E+00 -0.00000000000E+00 -0.18091377441E+03  0.18091377441E+03  0.00000000000E+00 0.  1.
          2    1    1    2  501    0 -0.61203523820E+02 -0.66636768603E+01  0.76117994847E+02  0.97899055444E+02  0.00000000000E+00 0. -1.
          1    1    1    2  502    0  0.26383477284E+02 -0.20282635294E+01 -0.39981567013E+02  0.47945045910E+02  0.00000000000E+00 0.  1.
         22    1    1    2    0    0  0.30052877399E+02 -0.12129179729E+02 -0.12024285295E+03  0.12453367467E+03  0.00000000000E+00 0.  1.
         22    1    1    2    0    0  0.47671691369E+01  0.20821120119E+02  0.27393513614E+02  0.34736861296E+02  0.00000000000E+00 0.  1.
</event>
<event>
 6    1  0.2406404E-005  0.1326491E+03  0.7818608E-02  0.1224465E+00
          2   -1    0    0  502    0  0.00000000000E+00  0.00000000000E+00  0.75893445326E+02  0.75893445326E+02  0.00000000000E+00 0.  1.
          1   -1    0    0  501    0 -0.00000000000E+00 -0.00000000000E+00 -0.64373892231E+03  0.64373892231E+03  0.00000000000E+00 0. -1.
          2    1    1    2  501    0 -0.32862079574E+02 -0.29516344475E+02  0.13296870938E+01  0.44191616092E+02  0.00000000000E+00 0.  1.
          1    1    1    2  502    0  0.10347026700E+03  0.41619630613E+02 -0.50924110956E+03  0.52131065352E+03  0.00000000000E+00 0. -1.
         22    1    1    2    0    0 -0.88157322312E+02 -0.75160458295E+01  0.31067195476E+01  0.88531667376E+02  0.00000000000E+00 0.  1.
         22    1    1    2    0    0  0.17549134888E+02 -0.45872403093E+01 -0.63040774064E+02  0.65598430649E+02  0.00000000000E+00 0.  1.
</event>
<event>
 6    1  0.2406404E-005  0.7331204E+02  0.7818608E-02  0.1363826E+00
          2   -1    0    0  502    0  0.00000000000E+00  0.00000000000E+00  0.24036053373E+03  0.24036053373E+03  0.00000000000E+00 0.  1.
          1   -1    0    0  501    0 -0.00000000000E+00 -0.00000000000E+00 -0.57848015537E+02  0.57848015537E+02  0.00000000000E+00 0. -1.
          2    1    1    2  501    0  0.23182850404E+02 -0.11632216875E+02  0.10682082868E+03  0.10992471270E+03  0.00000000000E+00 0.  1.
          1    1    1    2  502    0 -0.66716282911E+01  0.19115415024E+02 -0.21531551700E+02  0.29555328355E+02  0.00000000000E+00 0. -1.
         22    1    1    2    0    0  0.30669453378E+02  0.48083713573E+01  0.10487769348E+03  0.10937580352E+03  0.00000000000E+00 0.  1.
         22    1    1    2    0    0 -0.47180675491E+02 -0.12291569506E+02 -0.76544522703E+01  0.49352704691E+02  0.00000000000E+00 0.  1.
</event>
<event>
 6    1  0.2406404E-005  0.1150590E+03  0.7818608E-02  0.1261364E+00
          2   -1    0    0  502    0  0.00000000000E+00  0.00000000000E+00  0.59768353755E+02  0.59768353755E+02  0.00000000000E+00 0. -1.
          1   -1    0    0  501    0 -0.00000000000E+00 -0.00000000000E+00 -0.32970178276E+03  0.32970178276E+03  0.00000000000E+00 0.  1.
          2    1    1    2  501    0 -0.44482673828E+01  0.29041087698E+02 -0.12978508471E+02  0.32118741251E+02  0.00000000000E+00 0. -1.
          1    1    1    2  502    0 -0.93633124055E+01 -0.82438594260E+02 -0.19304600686E+03  0.21012033268E+03  0.00000000000E+00 0.  1.
         22    1    1    2    0    0  0.43843172258E+02  0.42157317949E+02  0.14492164533E+02  0.62525882985E+02  0.00000000000E+00 0. -1.
         22    1    1    2    0    0 -0.30031592469E+02  0.11240188613E+02 -0.78401078210E+02  0.84705179599E+02  0.00000000000E+00 0.  1.
</event>
<event>
 6    1  0.2406404E-005  0.4526708E+02  0.7818608E-02  0.1538912E+00
          2   -1    0    0  502    0  0.00000000000E+00  0.00000000000E+00  0.11378835040E+03  0.11378835040E+03  0.00000000000E+00 0.  1.
          1   -1    0    0  501    0 -0.00000000000E+00 -0.00000000000E+00 -0.11308525577E+04  0.11308525577E+04  0.00000000000E+00 0. -1.
          2    1    1    2  501    0 -0.30302340800E+02 -0.93822657185E+02 -0.32075369098E+01  0.98646901382E+02  0.00000000000E+00 0.  1.
          1    1    1    2  502    0  0.18793823795E+02  0.69431173772E+02 -0.10123947990E+04  0.10149468581E+04  0.00000000000E+00 0. -1.
         22    1    1    2    0    0  0.19772757265E+02  0.17570117883E+02  0.61622199982E+02  0.67059425160E+02  0.00000000000E+00 0. -1.
         22    1    1    2    0    0 -0.82642402600E+01  0.68213655305E+01 -0.63084071350E+02  0.63987723455E+02  0.00000000000E+00 0.  1.
</event>
<event>
 6    1  0.2406404E-005  0.4485227E+02  0.7818608E-02  0.1475588E+00
          2   -1    0    0  502    0  0.00000000000E+00  0.00000000000E+00  0.21075362249E+03  0.21075362249E+03  0.00000000000E+00 0.  1.
          1   -1    0    0  501    0 -0.00000000000E+00 -0.00000000000E+00 -0.27336341763E+03  0.27336341763E+03  0.00000000000E+00 0.  1.
          2    1    1    2  501    0 -0.26303708683E+02  0.16612495121E+02  0.13668185542E+03  0.14017770752E+03  0.00000000000E+00 0.  1.
          1    1    1    2  502    0  0.26500486651E+02 -0.18445067467E+02 -0.21134138067E+03  0.21379353472E+03  0.00000000000E+00 0.  1.
         22    1    1    2    0    0 -0.67316061749E+01  0.11857677973E+02  0.69825170414E+02  0.71144033284E+02  0.00000000000E+00 0.  1.
         22    1    1    2    0    0  0.65348282073E+01 -0.10025105627E+02 -0.57775440299E+02  0.59001764587E+02  0.00000000000E+00 0.  1.
</event>
<event>
 6    1  0.2406404E-005  0.9332704E+02  0.7818608E-02  0.1315807E+00
          2   -1    0    0  502    0  0.00000000000E+00  0.00000000000E+00  0.10235714390E+03  0.10235714390E+03  0.00000000000E+00 0. -1.
          1   -1    0    0  501    0 -0.00000000000E+00 -0.00000000000E+00 -0.14759847685E+03  0.14759847685E+03  0.00000000000E+00 0. -1.
          2    1    1    2  501    0 -0.37865624606E+02  0.67180062188E+01  0.47501210550E+02  0.61117118208E+02  0.00000000000E+00 0. -1.
          1    1    1    2  502    0  0.23524963182E+02  0.21397876989E+02 -0.10322953720E+02  0.33434359659E+02  0.00000000000E+00 0. -1.
         22    1    1    2    0    0 -0.24669456701E+02 -0.53435124502E+01  0.27040050270E+02  0.36990533084E+02  0.00000000000E+00 0. -1.
         22    1    1    2    0    0  0.39010118126E+02 -0.22772370757E+02 -0.10945964005E+03  0.11841360980E+03  0.00000000000E+00 0. -1.
</event>
<event>
 6    1  0.2406404E-005  0.1132856E+03  0.7818608E-02  0.1255594E+00
          2   -1    0    0  502    0  0.00000000000E+00  0.00000000000E+00  0.52634304117E+02  0.52634304117E+02  0.00000000000E+00 0. -1.
          1   -1    0    0  501    0 -0.00000000000E+00 -0.00000000000E+00 -0.74501330701E+03  0.74501330701E+03  0.00000000000E+00 0.  1.
          2    1    1    2  501    0 -0.86380473046E+02 -0.26642490271E+01 -0.14450900888E+02  0.87621417946E+02  0.00000000000E+00 0. -1.
          1    1    1    2  502    0  0.43347407303E+02 -0.48731684415E+01 -0.38515868828E+03  0.38762089811E+03  0.00000000000E+00 0.  1.
         22    1    1    2    0    0  0.63771763564E+02 -0.56821942219E+01 -0.29076453497E+03  0.29772997826E+03  0.00000000000E+00 0.  1.
         22    1    1    2    0    0 -0.20738697821E+02  0.13219611691E+02 -0.20048787448E+01  0.24675316804E+02  0.00000000000E+00 0. -1.
</event>
<event>
 6    1  0.2406404E-005  0.9805808E+02  0.7818608E-02  0.1285553E+00
          2   -1    0    0  502    0  0.00000000000E+00  0.00000000000E+00  0.60736793154E+03  0.60736793154E+03  0.00000000000E+00 0. -1.
          1   -1    0    0  501    0 -0.00000000000E+00 -0.00000000000E+00 -0.39545183736E+02  0.39545183736E+02  0.00000000000E+00 0. -1.
          2    1    1    2  501    0  0.26898563564E+02  0.21498414169E+02  0.19906280695E+03  0.20201909722E+03  0.00000000000E+00 0. -1.
          1    1    1    2  502    0 -0.75578730097E+02 -0.17622885733E+02  0.33206902238E+02  0.84412137166E+02  0.00000000000E+00 0. -1.
         22    1    1    2    0    0  0.60551039860E+02  0.10971177366E+02  0.33587946528E+03  0.34147007242E+03  0.00000000000E+00 0. -1.
         22    1    1    2    0    0 -0.11870873327E+02 -0.14846705802E+02 -0.32642666430E+00  0.19011808464E+02  0.00000000000E+00 0.  1.
</event>
<event>
 6    1  0.2406404E-005  0.2178942E+03  0.7818608E-02  0.1210100E+00
          2   -1    0    0  502    0  0.00000000000E+00  0.00000000000E+00  0.83203287700E+03  0.83203287700E+03  0.00000000000E+00 0.  1.
          1   -1    0    0  501    0 -0.00000000000E+00 -0.00000000000E+00 -0.73915831159E+02  0.73915831159E+02  0.00000000000E+00 0. -1.
          2    1    1    2  501    0 -0.14343934725E+03  0.13241132627E+03  0.48421313673E+03  0.52208233780E+03  0.00000000000E+00 0.  1.
          1    1    1    2  502    0  0.77429822898E+02 -0.37605649464E+02  0.43144300600E+02  0.96285995969E+02  0.00000000000E+00 0. -1.
         22    1    1    2    0    0 -0.37095590764E+02 -0.14357669554E+02  0.68129094930E+02  0.78891058461E+02  0.00000000000E+00 0.  1.
         22    1    1    2    0    0  0.10310511512E+03 -0.80448007249E+02  0.16263051359E+03  0.20868931593E+03  0.00000000000E+00 0. -1.
</event>
<event>
 6    1  0.2406404E-005  0.9246798E+02  0.7818608E-02  0.1298598E+00
          2   -1    0    0  502    0  0.00000000000E+00  0.00000000000E+00  0.48053136083E+03  0.48053136083E+03  0.00000000000E+00 0.  1.
          1   -1    0    0  501    0 -0.00000000000E+00 -0.00000000000E+00 -0.19670792829E+03  0.19670792829E+03  0.00000000000E+00 0. -1.
          2    1    1    2  501    0 -0.40924695041E+02  0.68134015383E+02  0.40860201386E+03  0.41626035176E+03  0.00000000000E+00 0.  1.
          1    1    1    2  502    0  0.30189536007E+02 -0.61837761028E+02 -0.11380291743E+03  0.13299030336E+03  0.00000000000E+00 0. -1.
         22    1    1    2    0    0  0.12169533737E+02 -0.16439815790E+02 -0.67506436249E+02  0.70537111010E+02  0.00000000000E+00 0. -1.
         22    1    1    2    0    0 -0.14343747032E+01  0.10143561434E+02  0.56530772369E+02  0.57451522991E+02  0.00000000000E+00 0. -1.
</event>
<event>
 6    1  0.2406404E-005  0.9035324E+02  0.7818608E-02  0.1309551E+00
          2   -1    0    0  502    0  0.00000000000E+00  0.00000000000E+00  0.10590463351E+04  0.10590463351E+04  0.00000000000E+00 0. -1.
          1   -1    0    0  501    0 -0.00000000000E+00 -0.00000000000E+00 -0.76535643149E+02  0.76535643149E+02  0.00000000000E+00 0. -1.
          2    1    1    2  501    0 -0.15867329817E+02 -0.62132045302E+02  0.96940042311E+03  0.97151909067E+03  0.00000000000E+00 0. -1.
          1    1    1    2  502    0  0.28873573529E+02  0.43065976616E+01  0.50438078328E+01  0.29625496269E+02  0.00000000000E+00 0. -1.
         22    1    1    2    0    0 -0.70992753143E+01  0.49249413538E+02 -0.52878706552E+02  0.72608966736E+02  0.00000000000E+00 0. -1.
         22    1    1    2    0    0 -0.59069683971E+01  0.85760341015E+01  0.60945167594E+02  0.61828424609E+02  0.00000000000E+00 0.  1.
</event>
<event>
 6    1  0.2406404E-005  0.8593865E+02  0.7818608E-02  0.1316647E+00
          2   -1    0    0  502    0  0.00000000000E+00  0.00000000000E+00  0.34508217543E+03  0.34508217543E+03  0.00000000000E+00 0. -1.
          1   -1    0    0  501    0 -0.00000000000E+00 -0.00000000000E+00 -0.68214246536E+02  0.68214246536E+02  0.00000000000E+00 0.  1.
          2    1    1    2  501    0  0.55021999940E+02 -0.98969375119E+01  0.19172282469E+03  0.19970731423E+03  0.00000000000E+00 0. -1.
          1    1    1    2  502    0 -0.58058938242E+02  0.11154825332E+02 -0.83047463127E+01  0.59701249981E+02  0.00000000000E+00 0.  1.
         22    1    1    2    0    0 -0.20292942238E+02 -0.18188459265E+01 -0.25517332026E+02  0.32653421550E+02  0.00000000000E+00 0.  1.
         22    1    1    2    0    0  0.23329880541E+02  0.56095810601E+00  0.11896718254E+03  0.12123443621E+03  0.00000000000E+00 0. -1.
</event>
<event>
 6    1  0.2406404E-005  0.4219662E+02  0.7818608E-02  0.1521329E+00
          2   -1    0    0  502    0  0.00000000000E+00  0.00000000000E+00  0.53933372086E+03  0.53933372086E+03  0.00000000000E+00 0. -1.
          1   -1    0    0  501    0 -0.00000000000E+00 -0.00000000000E+00 -0.45138532147E+03  0.45138532147E+03  0.00000000000E+00 0.  1.
          2    1    1    2  501    0  0.43975818775E+02  0.75299420654E+02  0.47544936128E+03  0.48337973740E+03  0.00000000000E+00 0. -1.
          1    1    1    2  502    0 -0.42303860340E+02 -0.63663572104E+02 -0.36947944079E+03  0.37730322577E+03  0.00000000000E+00 0.  1.
         22    1    1    2    0    0 -0.13050305333E+02  0.81049758002E+01 -0.70853681734E+02  0.72499967706E+02  0.00000000000E+00 0. -1.
         22    1    1    2    0    0  0.11378346899E+02 -0.19740824350E+02  0.52832160637E+02  0.57536111458E+02  0.00000000000E+00 0.  1.
</event>
<event>
 6    1  0.2406404E-005  0.4492374E+02  0.7818608E-02  0.1562571E+00
          2   -1    0    0  502    0  0.00000000000E+00  0.00000000000E+00  0.55910147628E+03  0.55910147628E+03  0.00000000000E+00 0.  1.
          1   -1    0    0  501    0 -0.00000000000E+00 -0.00000000000E+00 -0.78435185210E+02  0.78435185210E+02  0.00000000000E+00 0.  1.
          2    1    1    2  501    0  0.36832727201E+02 -0.36652380473E+02  0.45150466328E+03  0.45448488177E+03  0.00000000000E+00 0.  1.
          1    1    1    2  502    0 -0.23022670115E+02  0.95137032954E+01 -0.29894480081E+02  0.38913157530E+02  0.00000000000E+00 0.  1.
         22    1    1    2    0    0 -0.10639837926E+02 -0.88680663963E+01 -0.38066360459E+02  0.40507981328E+02  0.00000000000E+00 0.  1.
         22    1    1    2    0    0 -0.31702191611E+01  0.36006743574E+02  0.97122468323E+02  0.10363064086E+03  0.00000000000E+00 0. -1.
</event>
<event>
 6    1  0.2406404E-005  0.1729707E+03  0.7818608E-02  0.1195986E+00
          2   -1    0    0  502    0  0.00000000000E+00  0.00000000000E+00  0.44851864990E+02  0.44851864990E+02  0.00000000000E+00 0.  1.
          1   -1    0    0  501    0 -0.00000000000E+00 -0.00000000000E+00 -0.89031902572E+03  0.89031902572E+03  0.00000000000E+00 0. -1.
          2    1    1    2  501    0  0.60702502615E+02  0.42500043647E+02 -0.76352849466E+01  0.74493926665E+02  0.00000000000E+00 0.  1.
          1    1    1    2  502    0 -0.49955053781E+02 -0.18956334757E+02 -0.41976606974E+03  0.42315293137E+03  0.00000000000E+00 0. -1.
         22    1    1    2    0    0  0.29449826936E+02 -0.57434948796E+02 -0.13524546843E+03  0.14985794067E+03  0.00000000000E+00 0.  1.
         22    1    1    2    0    0 -0.40197275770E+02  0.33891239905E+02 -0.28282033761E+03  0.28766609200E+03  0.00000000000E+00 0.  1.
</event>
<event>
 6    1  0.2406404E-005  0.1965377E+03  0.7818608E-02  0.1179328E+00
          2   -1    0    0  502    0  0.00000000000E+00  0.00000000000E+00  0.18500707128E+04  0.18500707128E+04  0.00000000000E+00 0. -1.
          1   -1    0    0  501    0 -0.00000000000E+00 -0.00000000000E+00 -0.35881951352E+02  0.35881951352E+02  0.00000000000E+00 0. -1.
          2    1    1    2  501    0 -0.26078738277E+02  0.19923053821E+03  0.57701174133E+03  0.61099546445E+03  0.00000000000E+00 0. -1.
          1    1    1    2  502    0 -0.69324099375E+02 -0.99539515908E+02  0.47792534061E+03  0.49307867240E+03  0.00000000000E+00 0. -1.
         22    1    1    2    0    0 -0.81982790069E+01 -0.75413955303E+02  0.23511235951E+03  0.24704715750E+03  0.00000000000E+00 0.  1.
         22    1    1    2    0    0  0.10360111666E+03 -0.24277067002E+02  0.52413932003E+03  0.53483136984E+03  0.00000000000E+00 0. -1.
</event>
<event>
 6    1  0.2406404E-005  0.6110677E+02  0.7818608E-02  0.1508803E+00
          2   -1    0    0  502    0  0.00000000000E+00  0.00000000000E+00  0.47144659616E+03  0.47144659616E+03  0.00000000000E+00 0.  1.
          1   -1    0    0  501    0 -0.00000000000E+00 -0.00000000000E+00 -0.16157499625E+03  0.16157499625E+03  0.00000000000E+00 0. -1.
          2    1    1    2  501    0 -0.48133979360E+02  0.20279096948E+02  0.43499660325E+03  0.43812117796E+03  0.00000000000E+00 0.  1.
          1    1    1    2  502    0  0.19482982283E+02 -0.59441050427E+01 -0.30860212451E+02  0.36976637163E+02  0.00000000000E+00 0. -1.
         22    1    1    2    0    0  0.36977170015E+02 -0.69494753511E+01 -0.12219577420E+03  0.12785700427E+03  0.00000000000E+00 0. -1.
         22    1    1    2    0    0 -0.83261729376E+01 -0.73855165545E+01  0.27930983313E+02  0.30066773012E+02  0.00000000000E+00 0.  1.
</event>
<event>
 6    1  0.2406404E-005  0.1223523E+03  0.7818608E-02  0.1291069E+00
          2   -1    0    0  502    0  0.00000000000E+00  0.00000000000E+00  0.31822480379E+03  0.31822480379E+03  0.00000000000E+00 0.  1.
          1   -1    0    0  501    0 -0.00000000000E+00 -0.00000000000E+00 -0.50062303633E+03  0.50062303633E+03  0.00000000000E+00 0.  1.
          2    1    1    2  501    0 -0.19829044556E+02  0.78909782883E+02  0.24751059521E+03  0.26054066781E+03  0.00000000000E+00 0.  1.
          1    1    1    2  502    0  0.11178351129E+00 -0.10609045882E+03 -0.41697445081E+03  0.43025909703E+03  0.00000000000E+00 0.  1.
         22    1    1    2    0    0  0.12175517037E+02  0.42862326526E+02  0.47517937001E+02  0.65141204987E+02  0.00000000000E+00 0.  1.
         22    1    1    2    0    0  0.75417440082E+01 -0.15681650589E+02 -0.60452313944E+02  0.62906870285E+02  0.00000000000E+00 0. -1.
</event>
<event>
 6    1  0.2406404E-005  0.1575443E+03  0.7818608E-02  0.1221263E+00
          2   -1    0    0  502    0  0.00000000000E+00  0.00000000000E+00  0.37491115771E+03  0.37491115771E+03  0.00000000000E+00 0.  1.
          1   -1    0    0  501    0 -0.00000000000E+00 -0.00000000000E+00 -0.44361782612E+02  0.44361782612E+02  0.00000000000E+00 0.  1.
          2    1    1    2  501    0  0.74664950702E+01 -0.21232155319E+02 -0.36268194413E+01  0.22797078483E+02  0.00000000000E+00 0.  1.
          1    1    1    2  502    0  0.36759915888E+02 -0.32774392317E+02  0.24859647980E+02  0.55167511322E+02  0.00000000000E+00 0.  1.
         22    1    1    2    0    0 -0.77585051531E+02  0.50332792535E+02  0.28563592109E+03  0.30023442448E+03  0.00000000000E+00 0.  1.
         22    1    1    2    0    0  0.33358640573E+02  0.36737551009E+01  0.23680625468E+02  0.41073926036E+02  0.00000000000E+00 0. -1.
</event>
<event>
 6    1  0.2406404E-005  0.7572285E+02  0.7818608E-02  0.1446467E+00
          2   -1    0    0  502    0  0.00000000000E+00  0.00000000000E+00  0.33041376208E+03  0.33041376208E+03  0.00000000000E+00 0. -1.
          1   -1    0    0  501    0 -0.00000000000E+00 -0.00000000000E+00 -0.19332354438E+03  0.19332354438E+03  0.00000000000E+00 0. -1.
          2    1    1    2  501    0 -0.62461289509E+02 -0.42562691775E+02  0.26435480575E+03  0.27494810191E+03  0.00000000000E+00 0. -1.
          1    1    1    2  502    0  0.49486263898E+02  0.20581610104E+02 -0.11213429701E+03  0.12428432546E+03  0.00000000000E+00 0. -1.
         22    1    1    2    0    0 -0.58630060398E+01  0.12885393757E+02  0.52155314491E+02  0.54042437415E+02  0.00000000000E+00 0. -1.
         22    1    1    2    0    0  0.18838031651E+02  0.90956879135E+01 -0.67285605530E+02  0.70462441674E+02  0.00000000000E+00 0.  1.
</event>
<event>
 6    1  0.2406404E-005  0.7339953E+02  0.7818608E-02  0.1368798E+00
          2   -1    0    0  502    0  0.00000000000E+00  0.00000000000E+00  0.10760249548E+03  0.10760249548E+03  0.00000000000E+00 0. -1.
          1   -1    0    0  501    0 -0.00000000000E+00 -0.00000000000E+00 -0.18604042177E+03  0.18604042177E+03  0.00000000000E+00 0. -1.
          2    1    1    2  501    0  0.57007212691E+02  0.33782809080E+02 -0.11193371517E+03  0.13007788851E+03  0.00000000000E+00 0. -1.
          1    1    1    2  502    0 -0.17726673056E+02 -0.19917533322E+02  0.18861068710E+02  0.32660113045E+02  0.00000000000E+00 0. -1.
         22    1    1    2    0    0  0.11673448298E+00  0.52504349708E+02  0.91195383595E+00  0.52512398774E+02  0.00000000000E+00 0.  1.
         22    1    1    2    0    0 -0.39397274119E+02 -0.66369625466E+02  0.13722766338E+02  0.78392516917E+02  0.00000000000E+00 0. -1.
</event>
<event>
 6    1  0.2406404E-005  0.1059877E+03  0.7818608E-02  0.1282903E+00
          2   -1    0    0  502    0  0.00000000000E+00  0.00000000000E+00  0.84231409228E+03  0.84231409228E+03  0.00000000000E+00 0.  1.
          1   -1    0    0  501    0 -0.00000000000E+00 -0.00000000000E+00 -0.56794793765E+02  0.56794793765E+02  0.00000000000E+00 0.  1.
          2    1    1    2  501    0 -0.72211993193E+01  0.86086945456E+02  0.22219312105E+02  0.89200928963E+02  0.00000000000E+00 0.  1.
          1    1    1    2  502    0  0.45456810691E+01 -0.13055633126E+03  0.30656707711E+03  0.33324014106E+03  0.00000000000E+00 0.  1.
         22    1    1    2    0    0  0.15588952132E+02  0.78401065099E+02  0.40877482195E+03  0.41651722353E+03  0.00000000000E+00 0.  1.
         22    1    1    2    0    0 -0.12913433882E+02 -0.33931679298E+02  0.47958087352E+02  0.60150592492E+02  0.00000000000E+00 0.  1.
</event>
<event>
 6    1  0.2406404E-005  0.6438458E+02  0.7818608E-02  0.1384385E+00
          2   -1    0    0  502    0  0.00000000000E+00  0.00000000000E+00  0.56077593401E+02  0.56077593401E+02  0.00000000000E+00 0. -1.
          1   -1    0    0  501    0 -0.00000000000E+00 -0.00000000000E+00 -0.17085135787E+03  0.17085135787E+03  0.00000000000E+00 0. -1.
          2    1    1    2  501    0 -0.79956410495E+01  0.19373635063E+02  0.15227052579E+02  0.25906198903E+02  0.00000000000E+00 0. -1.
          1    1    1    2  502    0 -0.17632727483E+02 -0.20131955134E+02 -0.39593714078E+02  0.47789861796E+02  0.00000000000E+00 0. -1.
         22    1    1    2    0    0  0.31150049916E+02  0.29011995221E+02  0.14092882628E+02  0.44840058176E+02  0.00000000000E+00 0. -1.
         22    1    1    2    0    0 -0.55216813839E+01 -0.28253675150E+02 -0.10449998560E+03  0.10839283240E+03  0.00000000000E+00 0. -1.
</event>
<event>
 6    1  0.2406404E-005  0.5881772E+02  0.7818608E-02  0.1407293E+00
          2   -1    0    0  502    0  0.00000000000E+00  0.00000000000E+00  0.13857380196E+03  0.13857380196E+03  0.00000000000E+00 0. -1.
          1   -1    0    0  501    0 -0.00000000000E+00 -0.00000000000E+00 -0.15412707765E+03  0.15412707765E+03  0.00000000000E+00 0.  1.
          2    1    1    2  501    0  0.39176420145E+01 -0.19793872172E+02  0.71886231403E+02  0.74664419638E+02  0.00000000000E+00 0. -1.
          1    1    1    2  502    0 -0.30496762747E+02 -0.16253003081E+01 -0.78611870232E+02  0.84335759204E+02  0.00000000000E+00 0.  1.
         22    1    1    2    0    0  0.34984025645E+02 -0.13996729032E+01  0.55111985644E+02  0.65292971262E+02  0.00000000000E+00 0.  1.
         22    1    1    2    0    0 -0.84049049128E+01  0.22818845383E+02 -0.63939622501E+02  0.68407729511E+02  0.00000000000E+00 0. -1.
</event>
<event>
 6    1  0.2406404E-005  0.7330984E+02  0.7818608E-02  0.1422469E+00
          2   -1    0    0  502    0  0.00000000000E+00  0.00000000000E+00  0.20874221471E+03  0.20874221471E+03  0.00000000000E+00 0. -1.
          1   -1    0    0  501    0 -0.00000000000E+00 -0.00000000000E+00 -0.22066322291E+03  0.22066322291E+03  0.00000000000E+00 0.  1.
          2    1    1    2  501    0  0.50686219680E+02  0.23466582651E+02  0.91381469284E+02  0.10709970259E+03  0.00000000000E+00 0. -1.
          1    1    1    2  502    0 -0.52127278036E+02 -0.33347219616E+02 -0.16912472278E+03  0.18009014972E+03  0.00000000000E+00 0.  1.
         22    1    1    2    0    0 -0.32747303245E+01 -0.12012728293E+02 -0.35930858135E+02  0.38027043877E+02  0.00000000000E+00 0.  1.
         22    1    1    2    0    0  0.47157886805E+01  0.21893365258E+02  0.10175310343E+03  0.10418854142E+03  0.00000000000E+00 0. -1.
</event>
<event>
 6    1  0.2406404E-005  0.7070886E+02  0.7818608E-02  0.1366421E+00
          2   -1    0    0  502    0  0.00000000000E+00  0.00000000000E+00  0.18602691291E+03  0.18602691291E+03  0.00000000000E+00 0. -1.
          1   -1    0    0  501    0 -0.00000000000E+00 -0.00000000000E+00 -0.12764004194E+03  0.12764004194E+03  0.00000000000E+00 0.  1.
          2    1    1    2  501    0  0.24699557114E+02 -0.20578466635E+02  0.89502653396E+02  0.95101347917E+02  0.00000000000E+00 0. -1.
          1    1    1    2  502    0 -0.32752494371E+01  0.34132654548E+02 -0.74506647838E+02  0.82018326838E+02  0.00000000000E+00 0.  1.
         22    1    1    2    0    0 -0.11627304502E+02  0.23222457814E+02 -0.38386935344E+02  0.46346882981E+02  0.00000000000E+00 0.  1.
         22    1    1    2    0    0 -0.97970031748E+01 -0.36776645727E+02  0.81777800763E+02  0.90200397116E+02  0.00000000000E+00 0. -1.
</event>
<event>
 6    1  0.2406404E-005  0.5145272E+02  0.7818608E-02  0.1449557E+00
          2   -1    0    0  502    0  0.00000000000E+00  0.00000000000E+00  0.12955434691E+03  0.12955434691E+03  0.00000000000E+00 0. -1.
          1   -1    0    0  501    0 -0.00000000000E+00 -0.00000000000E+00 -0.11975692607E+03  0.11975692607E+03  0.00000000000E+00 0. -1.
          2    1    1    2  501    0  0.35812469744E+01  0.48874145445E+02 -0.37386513410E+02  0.61638127874E+02  0.00000000000E+00 0. -1.
          1    1    1    2  502    0 -0.31742531382E+02 -0.33949469403E+02  0.32259269539E+02  0.56575747830E+02  0.00000000000E+00 0. -1.
         22    1    1    2    0    0  0.62504157587E+02 -0.40983243676E+02 -0.17968288802E+02  0.76871681264E+02  0.00000000000E+00 0. -1.
         22    1    1    2    0    0 -0.34342873180E+02  0.26058567634E+02  0.32892953517E+02  0.54225716007E+02  0.00000000000E+00 0. -1.
</event>
<event>
 6    1  0.2406404E-005  0.1567860E+03  0.7818608E-02  0.1197717E+00
          2   -1    0    0  502    0  0.00000000000E+00  0.00000000000E+00  0.17976852456E+03  0.17976852456E+03  0.00000000000E+00 0. -1.
          1   -1    0    0  501    0 -0.00000000000E+00 -0.00000000000E+00 -0.13083372651E+03  0.13083372651E+03  0.00000000000E+00 0. -1.
          2    1    1    2  501    0 -0.22655783700E+02  0.64291553471E+01 -0.17081605495E+02  0.29092951378E+02  0.00000000000E+00 0. -1.
          1    1    1    2  502    0  0.11280772904E+03 -0.20574065529E+02 -0.49147001847E+01  0.11477382184E+03  0.00000000000E+00 0. -1.
         22    1    1    2    0    0 -0.11253892980E+03  0.17907002161E+02  0.83045536130E+02  0.14100437056E+03  0.00000000000E+00 0. -1.
         22    1    1    2    0    0  0.22386984466E+02 -0.37620919791E+01 -0.12114432396E+02  0.25731107279E+02  0.00000000000E+00 0.  1.
</event>
<event>
 6    1  0.2406404E-005  0.1241720E+03  0.7818608E-02  0.1237461E+00
          2   -1    0    0  502    0  0.00000000000E+00  0.00000000000E+00  0.24774842287E+03  0.24774842287E+03  0.00000000000E+00 0. -1.
          1   -1    0    0  501    0 -0.00000000000E+00 -0.00000000000E+00 -0.17224805997E+03  0.17224805997E+03  0.00000000000E+00 0.  1.
          2    1    1    2  501    0 -0.91824580559E+02  0.21688944762E+02  0.17707184777E+03  0.20064048244E+03  0.00000000000E+00 0. -1.
          1    1    1    2  502    0  0.45509720388E+02 -0.29239015277E+02 -0.44070845118E+02  0.69773161413E+02  0.00000000000E+00 0.  1.
         22    1    1    2    0    0 -0.17745950965E+02  0.21147960386E+02  0.29687048427E+02  0.40539805728E+02  0.00000000000E+00 0.  1.
         22    1    1    2    0    0  0.64060811135E+02 -0.13597889872E+02 -0.87187688180E+02  0.10904303326E+03  0.00000000000E+00 0.  1.
</event>
<event>
 6    1  0.2406404E-005  0.1362634E+03  0.7818608E-02  0.1234481E+00
          2   -1    0    0  502    0  0.00000000000E+00  0.00000000000E+00  0.60603063671E+02  0.60603063671E+02  0.00000000000E+00 0. -1.
          1   -1    0    0  501    0 -0.00000000000E+00 -0.00000000000E+00 -0.85570531474E+03  0.85570531474E+03  0.00000000000E+00 0. -1.
          2    1    1    2  501    0 -0.78913477116E+02  0.15152165485E+03 -0.31116248324E+03  0.35497639321E+03  0.00000000000E+00 0. -1.
          1    1    1    2  502    0  0.48378835660E+02 -0.99701819589E+02 -0.85442143013E+02  0.13993328543E+03  0.00000000000E+00 0. -1.
         22    1    1    2    0    0 -0.29535733181E+02  0.25186557359E+02 -0.97050618636E+02  0.10452533082E+03  0.00000000000E+00 0. -1.
         22    1    1    2    0    0  0.60070374637E+02 -0.77006392620E+02 -0.30144700618E+03  0.31687336895E+03  0.00000000000E+00 0. -1.
</event>
<event>
 6    1  0.2406404E-005  0.4284323E+03  0.7818608E-02  0.1037958E+00
          2   -1    0    0  502    0  0.00000000000E+00  0.00000000000E+00  0.59796903825E+03  0.59796903825E+03  0.00000000000E+00 0.  1.
          1   -1    0    0  501    0 -0.00000000000E+00 -0.00000000000E+00 -0.60472786883E+03  0.60472786883E+03  0.00000000000E+00 0. -1.
          2    1    1    2  501    0  0.15873426407E+03  0.33800050443E+03  0.42730430825E+03  0.56747676554E+03  0.00000000000E+00 0.  1.
          1    1    1    2  502    0 -0.18564782529E+03 -0.19221680432E+03 -0.29891135468E+03  0.40094938939E+03  0.00000000000E+00 0. -1.
         22    1    1    2    0    0  0.27845997462E+02 -0.15776645509E+03 -0.14697554779E+03  0.21741082211E+03  0.00000000000E+00 0. -1.
         22    1    1    2    0    0 -0.93243623838E+00  0.11982754977E+02  0.11823763632E+02  0.16859930030E+02  0.00000000000E+00 0.  1.
</event>
<event>
 6    1  0.2406404E-005  0.4333166E+02  0.7818608E-02  0.1525691E+00
          2   -1    0    0  502    0  0.00000000000E+00  0.00000000000E+00  0.33502368158E+02  0.33502368158E+02  0.00000000000E+00 0.  1.
          1   -1    0    0  501    0 -0.00000000000E+00 -0.00000000000E+00 -0.79213563155E+03  0.79213563155E+03  0.00000000000E+00 0.  1.
          2    1    1    2  501    0  0.52818802529E+01  0.28937643131E+02 -0.11335719351E+02  0.31524339521E+02  0.00000000000E+00 0.  1.
          1    1    1    2  502    0 -0.43676777417E+02 -0.31974412386E+01 -0.57794761582E+03  0.57960446095E+03  0.00000000000E+00 0.  1.
         22    1    1    2    0    0  0.42130891448E+02 -0.11405066708E+01 -0.18184570479E+03  0.18666593990E+03  0.00000000000E+00 0.  1.
         22    1    1    2    0    0 -0.37359942839E+01 -0.24599695222E+02  0.12495776571E+02  0.27843259335E+02  0.00000000000E+00 0. -1.
</event>
<event>
 6    1  0.2406404E-005  0.1274303E+03  0.7818608E-02  0.1231983E+00
          2   -1    0    0  502    0  0.00000000000E+00  0.00000000000E+00  0.58394926119E+03  0.58394926119E+03  0.00000000000E+00 0.  1.
          1   -1    0    0  501    0 -0.00000000000E+00 -0.00000000000E+00 -0.17001125054E+03  0.17001125054E+03  0.00000000000E+00 0. -1.
          2    1    1    2  501    0 -0.39271268082E+02 -0.38798238695E+02  0.32044035924E+03  0.32516082122E+03  0.00000000000E+00 0.  1.
          1    1    1    2  502    0  0.53250039449E+02  0.92150073414E+02 -0.12927961096E+03  0.16745274122E+03  0.00000000000E+00 0. -1.
         22    1    1    2    0    0  0.15225798976E+02  0.81584855933E+01 -0.92082602582E+01  0.19574930361E+02  0.00000000000E+00 0.  1.
         22    1    1    2    0    0 -0.29204570344E+02 -0.61510320312E+02  0.23198552262E+03  0.24177201893E+03  0.00000000000E+00 0.  1.
</event>
<event>
 6    1  0.2406404E-005  0.1256131E+03  0.7818608E-02  0.1310082E+00
          2   -1    0    0  502    0  0.00000000000E+00  0.00000000000E+00  0.51752507310E+02  0.51752507310E+02  0.00000000000E+00 0.  1.
          1   -1    0    0  501    0 -0.00000000000E+00 -0.00000000000E+00 -0.52420966547E+03  0.52420966547E+03  0.00000000000E+00 0. -1.
          2    1    1    2  501    0  0.43406989141E+02  0.68067013905E+02 -0.63200605312E+02  0.10252610204E+03  0.00000000000E+00 0.  1.
          1    1    1    2  502    0 -0.36173014254E+02 -0.99414735117E+02 -0.24818923191E+03  0.26979561033E+03  0.00000000000E+00 0. -1.
         22    1    1    2    0    0  0.19671160013E+02  0.42199333358E+02 -0.72607107624E+01  0.47121716786E+02  0.00000000000E+00 0.  1.
         22    1    1    2    0    0 -0.26905134900E+02 -0.10851612145E+02 -0.15380661018E+03  0.15651874362E+03  0.00000000000E+00 0. -1.
</event>
<event>
 6    1  0.2406404E-005  0.4916835E+02  0.7818608E-02  0.1525239E+00
          2   -1    0    0  502    0  0.00000000000E+00  0.00000000000E+00  0.15663099418E+03  0.15663099418E+03  0.00000000000E+00 0.  1.
          1   -1    0    0  501    0 -0.00000000000E+00 -0.00000000000E+00 -0.95749069782E+02  0.95749069782E+02  0.00000000000E+00 0.  1.
          2    1    1    2  501    0 -0.32545219397E+02  0.29044819267E+00  0.73817152398E+02  0.80673711046E+02  0.00000000000E+00 0.  1.
          1    1    1    2  502    0  0.33119422259E+02  0.64019054669E+01 -0.32911034006E+02  0.47127663677E+02  0.00000000000E+00 0.  1.
         22    1    1    2    0    0  0.15329180396E+02 -0.76534921039E+01 -0.49978076093E+02  0.52833396663E+02  0.00000000000E+00 0.  1.
         22    1    1    2    0    0 -0.15903383257E+02  0.96113844441E+00  0.69953882096E+02  0.71745292573E+02  0.00000000000E+00 0.  1.
</event>
<event>
 6    1  0.2406404E-005  0.8211804E+02  0.7818608E-02  0.1444003E+00
          2   -1    0    0  502    0  0.00000000000E+00  0.00000000000E+00  0.29853237635E+03  0.29853237635E+03  0.00000000000E+00 0.  1.
          1   -1    0    0  501    0 -0.00000000000E+00 -0.00000000000E+00 -0.17776709033E+03  0.17776709033E+03  0.00000000000E+00 0. -1.
          2    1    1    2  501    0  0.59092569646E+00 -0.75061019713E+02  0.22498959953E+03  0.23718099791E+03  0.00000000000E+00 0.  1.
          1    1    1    2  502    0  0.93099679112E+00  0.56035177080E+02 -0.93964145912E+02  0.10940780842E+03  0.00000000000E+00 0. -1.
         22    1    1    2    0    0 -0.12889651597E+02  0.20849831326E+02 -0.67245538212E+02  0.71573884860E+02  0.00000000000E+00 0.  1.
         22    1    1    2    0    0  0.11367729109E+02 -0.18239886929E+01  0.56985370625E+02  0.58136775497E+02  0.00000000000E+00 0.  1.
</event>
<event>
 6    1  0.2406404E-005  0.2038791E+03  0.7818608E-02  0.1147348E+00
          2   -1    0    0  502    0  0.00000000000E+00  0.00000000000E+00  0.15361041122E+04  0.15361041122E+04  0.00000000000E+00 0. -1.
          1   -1    0    0  501    0 -0.00000000000E+00 -0.00000000000E+00 -0.72320165722E+02  0.72320165722E+02  0.00000000000E+00 0. -1.
          2    1    1    2  501    0  0.17098842977E+03 -0.31054969420E+02  0.12259045609E+04  0.12381613169E+04  0.00000000000E+00 0. -1.
          1    1    1    2  502    0 -0.14289917196E+03  0.41142057120E+02  0.96385537683E+02  0.17720895600E+03  0.00000000000E+00 0. -1.
         22    1    1    2    0    0  0.18928927159E+02 -0.17067252061E+02  0.14323864661E+03  0.14548850559E+03  0.00000000000E+00 0.  1.
         22    1    1    2    0    0 -0.47018184970E+02  0.69801643620E+01 -0.17447987286E+01  0.47565499419E+02  0.00000000000E+00 0. -1.
</event>
<event>
 6    1  0.2406404E-005  0.1406436E+03  0.7818608E-02  0.1222887E+00
          2   -1    0    0  502    0  0.00000000000E+00  0.00000000000E+00  0.44987269959E+02  0.44987269959E+02  0.00000000000E+00 0.  1.
          1   -1    0    0  501    0 -0.00000000000E+00 -0.00000000000E+00 -0.60728156357E+03  0.60728156357E+03  0.00000000000E+00 0.  1.
          2    1    1    2  501    0 -0.26536204242E+02 -0.16490575778E+02 -0.70035336359E+02  0.76688053593E+02  0.00000000000E+00 0.  1.
          1    1    1    2  502    0  0.84830419644E+02 -0.32705934168E+02 -0.38124878572E+03  0.39193942751E+03  0.00000000000E+00 0.  1.
         22    1    1    2    0    0 -0.78467734569E+02  0.40456841172E+02 -0.20678474820E+02  0.90672711920E+02  0.00000000000E+00 0.  1.
         22    1    1    2    0    0  0.20173519167E+02  0.87396687739E+01 -0.90331696717E+02  0.92968640506E+02  0.00000000000E+00 0. -1.
</event>
<event>
 6    1  0.2406404E-005  0.5485977E+02  0.7818608E-02  0.1420803E+00
          2   -1    0    0  502    0  0.00000000000E+00  0.00000000000E+00  0.13407652198E+03  0.13407652198E+03  0.00000000000E+00 0.  1.
          1   -1    0    0  501    0 -0.00000000000E+00 -0.00000000000E+00 -0.13430740941E+03  0.13430740941E+03  0.00000000000E+00 0.  1.
          2    1    1    2  501    0 -0.21791803050E+02 -0.22710527026E+02  0.54461537937E+02  0.62902383361E+02  0.00000000000E+00 0.  1.
          1    1    1    2  502    0  0.27763869940E+02  0.26467549271E+02 -0.70531835810E+02  0.80287629815E+02  0.00000000000E+00 0.  1.
         22    1    1    2    0    0 -0.16227700989E+02 -0.13890116412E+02  0.67896483691E+02  0.71177286482E+02  0.00000000000E+00 0.  1.
         22    1    1    2    0    0  0.10255634098E+02  0.10133094167E+02 -0.52057073254E+02  0.54016631734E+02  0.00000000000E+00 0.  1.
</event>
<event>
 6    1  0.2406404E-005  0.1089720E+03  0.7818608E-02  0.1302582E+00
          2   -1    0    0  502    0  0.00000000000E+00  0.00000000000E+00  0.32075465871E+03  0.32075465871E+03  0.00000000000E+00 0. -1.
          1   -1    0    0  501    0 -0.00000000000E+00 -0.00000000000E+00 -0.90330101087E+02  0.90330101087E+02  0.00000000000E+00 0.  1.
          2    1    1    2  501    0  0.13368863760E+02  0.36844639834E+02  0.23867376546E+03  0.24187066859E+03  0.00000000000E+00 0. -1.
          1    1    1    2  502    0 -0.35572646090E+02  0.11665838665E+02  0.17803205236E+01  0.37478987217E+02  0.00000000000E+00 0.  1.
         22    1    1    2    0    0  0.18314272757E+01  0.10983978006E+02  0.46110508182E+02  0.47436071333E+02  0.00000000000E+00 0. -1.
         22    1    1    2    0    0  0.20372355054E+02 -0.59494456505E+02 -0.56140036541E+02  0.84299032664E+02  0.00000000000E+00 0.  1.
</event>
<event>
 6    1  0.2406404E-005  0.2203628E+03  0.7818608E-02  0.1134077E+00
          2   -1    0    0  502    0  0.00000000000E+00  0.00000000000E+00  0.88503223009E+03  0.88503223009E+03  0.00000000000E+00 0.  1.
          1   -1    0    0  501    0 -0.00000000000E+00 -0.00000000000E+00 -0.13474196773E+03  0.13474196773E+03  0.00000000000E+00 0. -1.
          2    1    1    2  501    0  0.10305999000E+03 -0.33544672438E+02  0.46441379354E+03  0.47689283725E+03  0.00000000000E+00 0.  1.
          1    1    1    2  502    0 -0.20135635533E+03  0.41250233915E+02 -0.12273128745E+02  0.20590433050E+03  0.00000000000E+00 0. -1.
         22    1    1    2    0    0 -0.85611781122E+01  0.59994347675E+01 -0.75200557862E+01  0.12877819195E+02  0.00000000000E+00 0. -1.
         22    1    1    2    0    0  0.10685754344E+03 -0.13704996245E+02  0.30566965335E+03  0.32409921088E+03  0.00000000000E+00 0.  1.
</event>
<event>
 6    1  0.2406404E-005  0.3948937E+02  0.7818608E-02  0.1552624E+00
          2   -1    0    0  502    0  0.00000000000E+00  0.00000000000E+00  0.13603353802E+03  0.13603353802E+03  0.00000000000E+00 0. -1.
          1   -1    0    0  501    0 -0.00000000000E+00 -0.00000000000E+00 -0.21764064521E+03  0.21764064521E+03  0.00000000000E+00 0. -1.
          2    1    1    2  501    0 -0.29428287490E+02 -0.20096629183E+02  0.93638685607E+02  0.10019032913E+03  0.00000000000E+00 0. -1.
          1    1    1    2  502    0  0.52974912695E-01  0.22442633265E+02 -0.11268296150E+03  0.11489614618E+03  0.00000000000E+00 0. -1.
         22    1    1    2    0    0  0.17709913288E+02 -0.14897069888E+02  0.33661713958E+02  0.40849415008E+02  0.00000000000E+00 0.  1.
         22    1    1    2    0    0  0.11665399290E+02  0.12551065807E+02 -0.96224545254E+02  0.97738292920E+02  0.00000000000E+00 0.  1.
</event>
<event>
 6    1  0.2406404E-005  0.6956230E+02  0.7818608E-02  0.1439926E+00
          2   -1    0    0  502    0  0.00000000000E+00  0.00000000000E+00  0.14665579589E+03  0.14665579589E+03  0.00000000000E+00 0. -1.
          1   -1    0    0  501    0 -0.00000000000E+00 -0.00000000000E+00 -0.19156945096E+03  0.19156945096E+03  0.00000000000E+00 0. -1.
          2    1    1    2  501    0 -0.41588819739E+02  0.71576311258E+02  0.77318843316E+02  0.11327401199E+03  0.00000000000E+00 0. -1.
          1    1    1    2  502    0  0.13293617414E+02 -0.19443442131E+02 -0.78580975490E+02  0.82034976777E+02  0.00000000000E+00 0. -1.
         22    1    1    2    0    0 -0.75718479506E+00 -0.20112653485E+02  0.42221341740E+02  0.46773217308E+02  0.00000000000E+00 0. -1.
         22    1    1    2    0    0  0.29052387120E+02 -0.32020215642E+02 -0.85872864640E+02  0.96143040771E+02  0.00000000000E+00 0. -1.
</event>
<event>
 6    1  0.2406404E-005  0.1918558E+03  0.7818608E-02  0.1165665E+00
          2   -1    0    0  502    0  0.00000000000E+00  0.00000000000E+00  0.27324312607E+03  0.27324312607E+03  0.00000000000E+00 0. -1.
          1   -1    0    0  501    0 -0.00000000000E+00 -0.00000000000E+00 -0.14898742194E+03  0.14898742194E+03  0.00000000000E+00 0. -1.
          2    1    1    2  501    0 -0.26664865293E+02 -0.49654092802E+01 -0.76951042856E+00  0.27134157012E+02  0.00000000000E+00 0. -1.
          1    1    1    2  502    0  0.35109946569E+02 -0.13723556313E+03 -0.34615122663E+02  0.14582357441E+03  0.00000000000E+00 0. -1.
         22    1    1    2    0    0  0.37482275273E+01 -0.97775946956E+01 -0.14457067523E+02  0.17850976695E+02  0.00000000000E+00 0.  1.
         22    1    1    2    0    0 -0.12193308802E+02  0.15197856710E+03  0.17409740474E+03  0.23142183989E+03  0.00000000000E+00 0. -1.
</event>
<event>
 6    1  0.2406404E-005  0.1138222E+03  0.7818608E-02  0.1294845E+00
          2   -1    0    0  502    0  0.00000000000E+00  0.00000000000E+00  0.16599628710E+03  0.16599628710E+03  0.00000000000E+00 0. -1.
          1   -1    0    0  501    0 -0.00000000000E+00 -0.00000000000E+00 -0.95528431018E+02  0.95528431018E+02  0.00000000000E+00 0. -1.
          2    1    1    2  501    0  0.17464460618E+02  0.26102850341E+02  0.69611354522E+02  0.76368232002E+02  0.00000000000E+00 0. -1.
          1    1    1    2  502    0  0.26011494729E+02  0.17979287971E+02 -0.30479657605E+02  0.43918813528E+02  0.00000000000E+00 0. -1.
         22    1    1    2    0    0  0.25974651036E+01  0.19732003545E+02  0.55453869010E+02  0.58917148413E+02  0.00000000000E+00 0. -1.
         22    1    1    2    0    0 -0.46073420450E+02 -0.63814141857E+02 -0.24117709843E+02  0.82320524179E+02  0.00000000000E+00 0. -1.
</event>
<event>
 6    1  0.2406404E-005  0.6316884E+02  0.7818608E-02  0.1471414E+00
          2   -1    0    0  502    0  0.00000000000E+00  0.00000000000E+00  0.48508148824E+03  0.48508148824E+03  0.00000000000E+00 0. -1.
          1   -1    0    0  501    0 -0.00000000000E+00 -0.00000000000E+00 -0.17430199452E+03  0.17430199452E+03  0.00000000000E+00 0. -1.
          2    1    1    2  501    0 -0.45430059365E+02 -0.23932399159E+02  0.43675044203E+03  0.43975856857E+03  0.00000000000E+00 0. -1.
          1    1    1    2  502    0  0.22080131808E+02  0.26103068094E+02 -0.72799971958E+02  0.80428466986E+02  0.00000000000E+00 0. -1.
         22    1    1    2    0    0  0.23530629441E+02  0.14790620909E+02 -0.92382862630E+02  0.96473034038E+02  0.00000000000E+00 0. -1.
         22    1    1    2    0    0 -0.18070188434E+00 -0.16961289844E+02  0.39211886281E+02  0.42723413160E+02  0.00000000000E+00 0. -1.
</event>
<event>
 6    1  0.2406404E-005  0.2469154E+03  0.7818608E-02  0.1132644E+00
          2   -1    0    0  502    0  0.00000000000E+00  0.00000000000E+00  0.28545103851E+03  0.28545103851E+03  0.00000000000E+00 0. -1.
          1   -1    0    0  501    0 -0.00000000000E+00 -0.00000000000E+00 -0.42710474218E+03  0.42710474218E+03  0.00000000000E+00 0.  1.
          2    1    1    2  501    0  0.17442980540E+03 -0.32698247670E+02  0.21991954358E+03  0.28259429941E+03  0.00000000000E+00 0. -1.
          1    1    1    2  502    0 -0.19370182114E+02 -0.18463635775E+02 -0.22885220555E+02  0.35211406121E+02  0.00000000000E+00 0.  1.
         22    1    1    2    0    0 -0.12033852906E+03  0.28542071589E+02 -0.32999362038E+03  0.35240857101E+03  0.00000000000E+00 0.  1.
         22    1    1    2    0    0 -0.34721094219E+02  0.22619811856E+02 -0.86944063135E+01  0.42341504146E+02  0.00000000000E+00 0.  1.
</event>
<event>
 6    1  0.2406404E-005  0.6674909E+02  0.7818608E-02  0.1424930E+00
          2   -1    0    0  502    0  0.00000000000E+00  0.00000000000E+00  0.98499175695E+03  0.98499175695E+03  0.00000000000E+00 0. -1.
          1   -1    0    0  501    0 -0.00000000000E+00 -0.00000000000E+00 -0.35991624025E+03  0.35991624025E+03  0.00000000000E+00 0.  1.
          2    1    1    2  501    0 -0.73897627871E+02 -0.53738055169E+02  0.91161662596E+03  0.91618421221E+03  0.00000000000E+00 0. -1.
          1    1    1    2  502    0  0.58782194848E+02 -0.33783931417E+01 -0.28835431856E+03  0.29430421846E+03  0.00000000000E+00 0.  1.
         22    1    1    2    0    0  0.26719414030E+02  0.40046622976E+02 -0.55519145382E+02  0.73484927718E+02  0.00000000000E+00 0.  1.
         22    1    1    2    0    0 -0.11603981007E+02  0.17069825335E+02  0.57332354683E+02  0.60934638800E+02  0.00000000000E+00 0. -1.
</event>
<event>
 6    1  0.2406404E-005  0.1193232E+03  0.7818608E-02  0.1298284E+00
          2   -1    0    0  502    0  0.00000000000E+00  0.00000000000E+00  0.72499999353E+03  0.72499999353E+03  0.00000000000E+00 0. -1.
          1   -1    0    0  501    0 -0.00000000000E+00 -0.00000000000E+00 -0.33238071701E+02  0.33238071701E+02  0.00000000000E+00 0. -1.
          2    1    1    2  501    0  0.11847626004E+03  0.15478875773E+01  0.31403458797E+03  0.33564377335E+03  0.00000000000E+00 0. -1.
          1    1    1    2  502    0 -0.13908288307E+02  0.18961819452E+02  0.36580662060E+02  0.43487192566E+02  0.00000000000E+00 0. -1.
         22    1    1    2    0    0 -0.93621699137E+02  0.20046992874E+02  0.11759429866E+03  0.15164209030E+03  0.00000000000E+00 0. -1.
         22    1    1    2    0    0 -0.10946272591E+02 -0.40556699903E+02  0.22355237314E+03  0.22746500901E+03  0.00000000000E+00 0. -1.
</event>
<event>
 6    1  0.2406404E-005  0.1386993E+03  0.7818608E-02  0.1217114E+00
          2   -1    0    0  502    0  0.00000000000E+00  0.00000000000E+00  0.57981779818E+03  0.57981779818E+03  0.00000000000E+00 0.  1.
          1   -1    0    0  501    0 -0.00000000000E+00 -0.00000000000E+00 -0.68427998607E+02  0.68427998607E+02  0.00000000000E+00 0. -1.
          2    1    1    2  501    0 -0.90093824700E+02  0.74344729271E+02  0.40487717193E+03  0.42139003354E+03  0.00000000000E+00 0.  1.
          1    1    1    2  502    0  0.35625106109E+02  0.70178062027E+01  0.30690000760E+02  0.47542338351E+02  0.00000000000E+00 0. -1.
         22    1    1    2    0    0 -0.68932011055E+01 -0.12460135849E+02  0.85375818917E+02  0.86555194313E+02  0.00000000000E+00 0.  1.
         22    1    1    2    0    0  0.61361919696E+02 -0.68902399625E+02 -0.95531920304E+01  0.92758230583E+02  0.00000000000E+00 0. -1.
</event>
<event>
 6    1  0.2406404E-005  0.3154546E+02  0.7818608E-02  0.1636005E+00
          2   -1    0    0  502    0  0.00000000000E+00  0.00000000000E+00  0.95206932016E+02  0.95206932016E+02  0.00000000000E+00 0.  1.
          1   -1    0    0  501    0 -0.00000000000E+00 -0.00000000000E+00 -0.15462360678E+03  0.15462360678E+03  0.00000000000E+00 0.  1.
          2    1    1    2  501    0  0.21649687184E+02  0.23015523966E+02  0.94595954141E+01  0.32983438935E+02  0.00000000000E+00 0.  1.
          1    1    1    2  502    0 -0.18867765262E+02 -0.91939488552E+01 -0.88627308286E+02  0.91078653018E+02  0.00000000000E+00 0.  1.
         22    1    1    2    0    0 -0.10729974463E+02  0.65104913398E+00 -0.51509896306E+02  0.52619631645E+02  0.00000000000E+00 0. -1.
         22    1    1    2    0    0  0.79480525417E+01 -0.14472624245E+02  0.71260934413E+02  0.73148815199E+02  0.00000000000E+00 0.  1.
</event>
<event>
 6    1  0.2406404E-005  0.6090592E+02  0.7818608E-02  0.1395144E+00
          2   -1    0    0  502    0  0.00000000000E+00  0.00000000000E+00  0.15792561464E+03  0.15792561464E+03  0.00000000000E+00 0. -1.
          1   -1    0    0  501    0 -0.00000000000E+00 -0.00000000000E+00 -0.95181406240E+02  0.95181406240E+02  0.00000000000E+00 0. -1.
          2    1    1    2  501    0 -0.12407031131E+02  0.35203976884E+02  0.84649561084E+02  0.92513796818E+02  0.00000000000E+00 0. -1.
          1    1    1    2  502    0  0.14127208022E+02 -0.25965259769E+02 -0.24202777630E+02  0.38204020290E+02  0.00000000000E+00 0. -1.
         22    1    1    2    0    0 -0.17672382591E+02  0.13883017535E+02  0.56794051865E+02  0.61078765619E+02  0.00000000000E+00 0. -1.
         22    1    1    2    0    0  0.15952205701E+02 -0.23121734650E+02 -0.54496626923E+02  0.61310438148E+02  0.00000000000E+00 0. -1.
</event>
<event>
 6    1  0.2406404E-005  0.1113397E+03  0.7818608E-02  0.1329700E+00
          2   -1    0    0  502    0  0.00000000000E+00  0.00000000000E+00  0.72089718068E+03  0.72089718068E+03  0.00000000000E+00 0. -1.
          1   -1    0    0  501    0 -0.00000000000E+00 -0.00000000000E+00 -0.57968338718E+02  0.57968338718E+02  0.00000000000E+00 0. -1.
          2    1    1    2  501    0 -0.17330864253E+02  0.88294167756E+02  0.50938046897E+03  0.51726654743E+03  0.00000000000E+00 0. -1.
          1    1    1    2  502    0  0.12822872537E+02 -0.81840484466E+02  0.41315668311E+02  0.92570380824E+02  0.00000000000E+00 0. -1.
         22    1    1    2    0    0 -0.98766845241E+01 -0.27627096188E+02 -0.19241178560E+02  0.35086012788E+02  0.00000000000E+00 0. -1.
         22    1    1    2    0    0  0.14384676240E+02  0.21173412897E+02  0.13147388323E+03  0.13394257836E+03  0.00000000000E+00 0. -1.
</event>
<event>
 6    1  0.2406404E-005  0.2113583E+03  0.7818608E-02  0.1161961E+00
          2   -1    0    0  502    0  0.00000000000E+00  0.00000000000E+00  0.52399091447E+03  0.52399091447E+03  0.00000000000E+00 0. -1.
          1   -1    0    0  501    0 -0.00000000000E+00 -0.00000000000E+00 -0.83762794357E+02  0.83762794357E+02  0.00000000000E+00 0. -1.
          2    1    1    2  501    0  0.11151453937E+03 -0.94035222063E+02  0.45625204433E+02  0.15283904854E+03  0.00000000000E+00 0. -1.
          1    1    1    2  502    0 -0.59909897482E+02  0.46346292509E+02  0.19838597032E+03  0.21235387415E+03  0.00000000000E+00 0. -1.
         22    1    1    2    0    0 -0.48175781630E+02 -0.16730931345E+02  0.16137593685E+03  0.16924249759E+03  0.00000000000E+00 0. -1.
         22    1    1    2    0    0 -0.34288602593E+01  0.64419860898E+02  0.34841008519E+02  0.73318288547E+02  0.00000000000E+00 0. -1.
</event>
<event>
 6    1  0.2406404E-005  0.6218776E+02  0.7818608E-02  0.1423817E+00
          2   -1    0    0  502    0  0.00000000000E+00  0.00000000000E+00  0.63128104559E+02  0.63128104559E+02  0.00000000000E+00 0. -1.
          1   -1    0    0  501    0 -0.00000000000E+00 -0.00000000000E+00 -0.18863458702E+03  0.18863458702E+03  0.00000000000E+00 0. -1.
          2    1    1    2  501    0 -0.43410888357E+02  0.85751311383E+01 -0.16134182386E+00  0.44250018453E+02  0.00000000000E+00 0. -1.
          1    1    1    2  502    0  0.26896297848E+02 -0.23611169696E+02 -0.53472420949E+02  0.64344370185E+02  0.00000000000E+00 0. -1.
         22    1    1    2    0    0  0.17751528905E+02 -0.20881938125E+02 -0.96030058784E+02  0.99864629917E+02  0.00000000000E+00 0. -1.
         22    1    1    2    0    0 -0.12369383969E+01  0.35917976683E+02  0.24157339093E+02  0.43303673027E+02  0.00000000000E+00 0. -1.
</event>
<event>
 6    1  0.2406404E-005  0.1330107E+03  0.7818608E-02  0.1223688E+00
          2   -1    0    0  502    0  0.00000000000E+00  0.00000000000E+00  0.32508784906E+03  0.32508784906E+03  0.00000000000E+00 0. -1.
          1   -1    0    0  501    0 -0.00000000000E+00 -0.00000000000E+00 -0.22989571801E+03  0.22989571801E+03  0.00000000000E+00 0.  1.
          2    1    1    2  501    0 -0.37923395691E+02 -0.29259873678E+02  0.11284361125E+03  0.12258876274E+03  0.00000000000E+00 0. -1.
          1    1    1    2  502    0  0.10790804780E+03  0.38169825398E+02 -0.18030005733E+03  0.21356308910E+03  0.00000000000E+00 0.  1.
         22    1    1    2    0    0 -0.83063192433E+02 -0.17724130874E+02  0.17774807408E+03  0.19699750402E+03  0.00000000000E+00 0. -1.
         22    1    1    2    0    0  0.13078540320E+02  0.88141791542E+01 -0.15099496950E+02  0.21834211211E+02  0.00000000000E+00 0.  1.
</event>
<event>
 6    1  0.2406404E-005  0.4091123E+02  0.7818608E-02  0.1547094E+00
          2   -1    0    0  502    0  0.00000000000E+00  0.00000000000E+00  0.19720637046E+03  0.19720637046E+03  0.00000000000E+00 0.  1.
          1   -1    0    0  501    0 -0.00000000000E+00 -0.00000000000E+00 -0.79304644831E+02  0.79304644831E+02  0.00000000000E+00 0.  1.
          2    1    1    2  501    0 -0.20424821015E+02 -0.17278630100E+02  0.10680998102E+03  0.11010947469E+03  0.00000000000E+00 0.  1.
          1    1    1    2  502    0  0.56775239763E+01  0.29988408575E+02 -0.23959752529E+02  0.38802173504E+02  0.00000000000E+00 0.  1.
         22    1    1    2    0    0 -0.75974450723E+01 -0.12752176274E+02  0.77885533170E+02  0.79287423016E+02  0.00000000000E+00 0.  1.
         22    1    1    2    0    0  0.22344742111E+02  0.42397799480E-01 -0.42834036034E+02  0.48311944077E+02  0.00000000000E+00 0.  1.
</event>
<event>
 6    1  0.2406404E-005  0.6409912E+02  0.7818608E-02  0.1383257E+00
          2   -1    0    0  502    0  0.00000000000E+00  0.00000000000E+00  0.21291532153E+03  0.21291532153E+03  0.00000000000E+00 0.  1.
          1   -1    0    0  501    0 -0.00000000000E+00 -0.00000000000E+00 -0.39479462630E+03  0.39479462630E+03  0.00000000000E+00 0. -1.
          2    1    1    2  501    0  0.40065932753E+02  0.12606431471E+02  0.15454576474E+03  0.16015178575E+03  0.00000000000E+00 0.  1.
          1    1    1    2  502    0 -0.43961431597E+02 -0.15993795132E+02 -0.32018783959E+03  0.32358717770E+03  0.00000000000E+00 0. -1.
         22    1    1    2    0    0 -0.15596922657E+02  0.34069993513E+01 -0.67376855078E+02  0.69242416488E+02  0.00000000000E+00 0. -1.
         22    1    1    2    0    0  0.19492421500E+02 -0.19635690659E-01  0.51139625159E+02  0.54728567887E+02  0.00000000000E+00 0.  1.
</event>
<event>
 6    1  0.2406404E-005  0.2432809E+03  0.7818608E-02  0.1145538E+00
          2   -1    0    0  502    0  0.00000000000E+00  0.00000000000E+00  0.79078162722E+03  0.79078162722E+03  0.00000000000E+00 0. -1.
          1   -1    0    0  501    0 -0.00000000000E+00 -0.00000000000E+00 -0.14677196052E+03  0.14677196052E+03  0.00000000000E+00 0.  1.
          2    1    1    2  501    0  0.56674846512E+02  0.36196581470E+02  0.73501705278E+03  0.73808691807E+03  0.00000000000E+00 0. -1.
          1    1    1    2  502    0 -0.36756499254E+02  0.88003263897E+01  0.23526101344E-01  0.37795324254E+02  0.00000000000E+00 0.  1.
         22    1    1    2    0    0  0.40039709856E+02 -0.12652838847E+02  0.67172033219E+01  0.42525210366E+02  0.00000000000E+00 0. -1.
         22    1    1    2    0    0 -0.59958057114E+02 -0.32344069013E+02 -0.97748115505E+02  0.11914613505E+03  0.00000000000E+00 0.  1.
</event>
<event>
 6    1  0.2406404E-005  0.5204033E+02  0.7818608E-02  0.1437622E+00
          2   -1    0    0  502    0  0.00000000000E+00  0.00000000000E+00  0.95203388333E+02  0.95203388333E+02  0.00000000000E+00 0.  1.
          1   -1    0    0  501    0 -0.00000000000E+00 -0.00000000000E+00 -0.22953367301E+03  0.22953367301E+03  0.00000000000E+00 0. -1.
          2    1    1    2  501    0 -0.23588853793E+02 -0.12347622591E+02  0.28748480530E+02  0.39183835183E+02  0.00000000000E+00 0.  1.
          1    1    1    2  502    0  0.33386471664E+02  0.18912167005E+02 -0.15749395210E+03  0.16210080660E+03  0.00000000000E+00 0. -1.
         22    1    1    2    0    0 -0.20652791918E+02 -0.81480951821E+01  0.56343467446E+02  0.60560016454E+02  0.00000000000E+00 0. -1.
         22    1    1    2    0    0  0.10855174047E+02  0.15835507678E+01 -0.61928280554E+02  0.62892403111E+02  0.00000000000E+00 0.  1.
</event>
<event>
 6    1  0.2406404E-005  0.4534330E+02  0.7818608E-02  0.1563459E+00
          2   -1    0    0  502    0  0.00000000000E+00  0.00000000000E+00  0.48257227433E+03  0.48257227433E+03  0.00000000000E+00 0.  1.
          1   -1    0    0  501    0 -0.00000000000E+00 -0.00000000000E+00 -0.16346023882E+03  0.16346023882E+03  0.00000000000E+00 0.  1.
          2    1    1    2  501    0  0.29207943740E+02 -0.24485938831E+02  0.37774410796E+03  0.37966205536E+03  0.00000000000E+00 0.  1.
          1    1    1    2  502    0 -0.25009839796E+02  0.48727098796E+02 -0.11342189497E+03  0.12595375541E+03  0.00000000000E+00 0.  1.
         22    1    1    2    0    0 -0.86919254718E+01 -0.33180486008E+02  0.93941136710E+02  0.10000715668E+03  0.00000000000E+00 0. -1.
         22    1    1    2    0    0  0.44938215279E+01  0.89393260431E+01 -0.39151314190E+02  0.40409545715E+02  0.00000000000E+00 0. -1.
</event>
<event>
 6    1  0.2406404E-005  0.1610893E+03  0.7818608E-02  0.1214518E+00
          2   -1    0    0  502    0  0.00000000000E+00  0.00000000000E+00  0.73386023135E+02  0.73386023135E+02  0.00000000000E+00 0.  1.
          1   -1    0    0  501    0 -0.00000000000E+00 -0.00000000000E+00 -0.37340616176E+03  0.37340616176E+03  0.00000000000E+00 0.  1.
          2    1    1    2  501    0  0.16221626551E+01  0.10061494852E+03 -0.18784433501E+03  0.21309972659E+03  0.00000000000E+00 0.  1.
          1    1    1    2  502    0 -0.21313372269E+02 -0.29342299888E+02  0.19109740336E+02  0.40992835665E+02  0.00000000000E+00 0.  1.
         22    1    1    2    0    0  0.50937199757E+02 -0.32023117735E+02 -0.12916010094E+03  0.14248652590E+03  0.00000000000E+00 0.  1.
         22    1    1    2    0    0 -0.31245990144E+02 -0.39249530894E+02 -0.21254430035E+01  0.50213096732E+02  0.00000000000E+00 0. -1.
</event>
<event>
 6    1  0.2406404E-005  0.5037012E+03  0.7818608E-02  0.1012877E+00
          2   -1    0    0  502    0  0.00000000000E+00  0.00000000000E+00  0.37873321450E+03  0.37873321450E+03  0.00000000000E+00 0. -1.
          1   -1    0    0  501    0 -0.00000000000E+00 -0.00000000000E+00 -0.73049077529E+03  0.73049077529E+03  0.00000000000E+00 0. -1.
          2    1    1    2  501    0  0.34055405934E+03  0.30919513087E+03  0.30400793735E+01  0.45998688935E+03  0.00000000000E+00 0. -1.
          1    1    1    2  502    0 -0.23525922948E+03 -0.30025224520E+03 -0.23438250211E+03  0.44769797084E+03  0.00000000000E+00 0. -1.
         22    1    1    2    0    0  0.38008825566E+01  0.40008753832E+02 -0.17736398764E+02  0.43928657304E+02  0.00000000000E+00 0.  1.
         22    1    1    2    0    0 -0.10909571242E+03 -0.48951639501E+02 -0.10267873929E+03  0.15761047231E+03  0.00000000000E+00 0.  1.
</event>
<event>
 6    1  0.2406404E-005  0.1042607E+03  0.7818608E-02  0.1272788E+00
          2   -1    0    0  502    0  0.00000000000E+00  0.00000000000E+00  0.28871707596E+03  0.28871707596E+03  0.00000000000E+00 0.  1.
          1   -1    0    0  501    0 -0.00000000000E+00 -0.00000000000E+00 -0.11737944842E+03  0.11737944842E+03  0.00000000000E+00 0. -1.
          2    1    1    2  501    0 -0.35128093819E+02  0.63400327287E+02  0.14912102090E+03  0.16580308607E+03  0.00000000000E+00 0.  1.
          1    1    1    2  502    0  0.31663628291E+02 -0.71335125700E+02 -0.51300519229E+02  0.93397156211E+02  0.00000000000E+00 0. -1.
         22    1    1    2    0    0  0.27262606244E+01 -0.20827388234E+02 -0.31582404638E+02  0.37929683368E+02  0.00000000000E+00 0. -1.
         22    1    1    2    0    0  0.73820490433E+00  0.28762186647E+02  0.10509953051E+03  0.10896659874E+03  0.00000000000E+00 0.  1.
</event>
<event>
 6    1  0.2406404E-005  0.1300462E+03  0.7818608E-02  0.1268632E+00
          2   -1    0    0  502    0  0.00000000000E+00  0.00000000000E+00  0.42656689152E+03  0.42656689152E+03  0.00000000000E+00 0. -1.
          1   -1    0    0  501    0 -0.00000000000E+00 -0.00000000000E+00 -0.82657174840E+02  0.82657174840E+02  0.00000000000E+00 0. -1.
          2    1    1    2  501    0  0.80689884186E+01  0.21359956886E+02  0.35705992910E+03  0.35778925264E+03  0.00000000000E+00 0. -1.
          1    1    1    2  502    0 -0.14047471472E+02  0.18255207219E+02 -0.25421635389E+01  0.23174266781E+02  0.00000000000E+00 0. -1.
         22    1    1    2    0    0  0.19627702562E+02 -0.43482736339E+02  0.48169025726E+02  0.67795649615E+02  0.00000000000E+00 0. -1.
         22    1    1    2    0    0 -0.13649219509E+02  0.38675722336E+01 -0.58777074613E+02  0.60464897323E+02  0.00000000000E+00 0. -1.
</event>
<event>
 6    1  0.2406404E-005  0.9575896E+02  0.7818608E-02  0.1386208E+00
          2   -1    0    0  502    0  0.00000000000E+00  0.00000000000E+00  0.36489797285E+03  0.36489797285E+03  0.00000000000E+00 0. -1.
          1   -1    0    0  501    0 -0.00000000000E+00 -0.00000000000E+00 -0.22864453698E+03  0.22864453698E+03  0.00000000000E+00 0. -1.
          2    1    1    2  501    0  0.58866164000E+01  0.24040759481E+02  0.10245781960E+03  0.10540500541E+03  0.00000000000E+00 0. -1.
          1    1    1    2  502    0  0.20125977653E+02 -0.79708602948E+02 -0.19885216019E+03  0.21517596978E+03  0.00000000000E+00 0. -1.
         22    1    1    2    0    0 -0.11170769123E+02 -0.13833614251E+02 -0.98067062087E+01  0.20305823123E+02  0.00000000000E+00 0.  1.
         22    1    1    2    0    0 -0.14841824930E+02  0.69501457717E+02  0.24245448267E+03  0.25265571151E+03  0.00000000000E+00 0. -1.
</event>
<event>
 6    1  0.2406404E-005  0.3628752E+02  0.7818608E-02  0.1608785E+00
          2   -1    0    0  502    0  0.00000000000E+00  0.00000000000E+00  0.28742171297E+03  0.28742171297E+03  0.00000000000E+00 0.  1.
          1   -1    0    0  501    0 -0.00000000000E+00 -0.00000000000E+00 -0.21206483630E+03  0.21206483630E+03  0.00000000000E+00 0.  1.
          2    1    1    2  501    0 -0.64328406460E+01  0.35597941131E+02  0.11467002581E+03  0.12024063237E+03  0.00000000000E+00 0.  1.
          1    1    1    2  502    0  0.30535673358E+02 -0.12584493473E+02 -0.18199093421E+03  0.18496350169E+03  0.00000000000E+00 0.  1.
         22    1    1    2    0    0 -0.16648978321E+02 -0.35929903398E+02  0.16374823811E+03  0.16846848940E+03  0.00000000000E+00 0.  1.
         22    1    1    2    0    0 -0.74538543914E+01  0.12916455740E+02 -0.21070453042E+02  0.25813925807E+02  0.00000000000E+00 0. -1.
</event>
<event>
 6    1  0.2406404E-005  0.1271617E+03  0.7818608E-02  0.1231873E+00
          2   -1    0    0  502    0  0.00000000000E+00  0.00000000000E+00  0.64226451225E+03  0.64226451225E+03  0.00000000000E+00 0. -1.
          1   -1    0    0  501    0 -0.00000000000E+00 -0.00000000000E+00 -0.46303244870E+02  0.46303244870E+02  0.00000000000E+00 0. -1.
          2    1    1    2  501    0  0.72388820554E+01 -0.68097975591E+02  0.42090497085E+03  0.42643959734E+03  0.00000000000E+00 0. -1.
          1    1    1    2  502    0 -0.33964146794E+02  0.48075658846E+02  0.94266884909E+02  0.11113540314E+03  0.00000000000E+00 0. -1.
         22    1    1    2    0    0 -0.10211398171E+02 -0.80522838019E+01 -0.29011272907E+02  0.31792544451E+02  0.00000000000E+00 0. -1.
         22    1    1    2    0    0  0.36936662909E+02  0.28074600547E+02  0.10980068453E+03  0.11920021219E+03  0.00000000000E+00 0. -1.
</event>
<event>
 6    1  0.2515972E-005  0.7762828E+02  0.7818608E-02  0.1438640E+00
          2   -1    0    0  502    0  0.00000000000E+00  0.00000000000E+00  0.81955410582E+03  0.81955410582E+03  0.00000000000E+00 0.  1.
          1   -1    0    0  501    0 -0.00000000000E+00 -0.00000000000E+00 -0.29583933535E+03  0.29583933535E+03  0.00000000000E+00 0.  1.
          2    1    1    2  501    0 -0.46655580684E+02 -0.57713547982E+02  0.74066179705E+03  0.74437053572E+03  0.00000000000E+00 0.  1.
          1    1    1    2  502    0  0.26408731245E+02  0.58639252404E+02 -0.23149087635E+03  0.24025821285E+03  0.00000000000E+00 0.  1.
         22    1    1    2    0    0  0.94731202835E+01  0.91684807041E+01 -0.56594907954E+02  0.58110108008E+02  0.00000000000E+00 0. -1.
         22    1    1    2    0    0  0.10773729155E+02 -0.10094185127E+02  0.71138757719E+02  0.72654584598E+02  0.00000000000E+00 0. -1.
</event>
<event>
 6    1  0.2406404E-005  0.8938792E+02  0.7818608E-02  0.1305683E+00
          2   -1    0    0  502    0  0.00000000000E+00  0.00000000000E+00  0.10786817338E+03  0.10786817338E+03  0.00000000000E+00 0. -1.
          1   -1    0    0  501    0 -0.00000000000E+00 -0.00000000000E+00 -0.24467853177E+03  0.24467853177E+03  0.00000000000E+00 0.  1.
          2    1    1    2  501    0 -0.57827330359E+01 -0.69064998290E+02  0.62202023773E+02  0.93126289261E+02  0.00000000000E+00 0. -1.
          1    1    1    2  502    0 -0.68537516695E+01  0.29963764375E+02 -0.71071781092E+02  0.77433837274E+02  0.00000000000E+00 0.  1.
         22    1    1    2    0    0  0.22086180918E+02  0.54285603441E+02 -0.14553870835E+03  0.15689563970E+03  0.00000000000E+00 0.  1.
         22    1    1    2    0    0 -0.94496962125E+01 -0.15184369527E+02  0.17598107268E+02  0.25090938919E+02  0.00000000000E+00 0.  1.
</event>
<event>
 6    1  0.2406404E-005  0.5790795E+02  0.7818608E-02  0.1442727E+00
          2   -1    0    0  502    0  0.00000000000E+00  0.00000000000E+00  0.18554287415E+03  0.18554287415E+03  0.00000000000E+00 0. -1.
          1   -1    0    0  501    0 -0.00000000000E+00 -0.00000000000E+00 -0.74607596235E+02  0.74607596235E+02  0.00000000000E+00 0. -1.
          2    1    1    2  501    0  0.20780526734E+02 -0.37290998041E+02  0.37708122063E+02  0.56959207296E+02  0.00000000000E+00 0. -1.
          1    1    1    2  502    0 -0.37142838988E+02  0.15578647892E+02 -0.22414530395E+02  0.46094424077E+02  0.00000000000E+00 0. -1.
         22    1    1    2    0    0  0.32827397279E+02  0.64807999672E+01  0.11965022478E+03  0.12424095569E+03  0.00000000000E+00 0. -1.
         22    1    1    2    0    0 -0.16465085025E+02  0.15231550182E+02 -0.24008538539E+02  0.32855883318E+02  0.00000000000E+00 0. -1.
</event>
<event>
 6    1  0.2406404E-005  0.5237242E+02  0.7818608E-02  0.1435789E+00
          2   -1    0    0  502    0  0.00000000000E+00  0.00000000000E+00  0.23178352620E+03  0.23178352620E+03  0.00000000000E+00 0.  1.
          1   -1    0    0  501    0 -0.00000000000E+00 -0.00000000000E+00 -0.11731624036E+03  0.11731624036E+03  0.00000000000E+00 0.  1.
          2    1    1    2  501    0 -0.12347216440E+02 -0.32341651916E+02  0.15479570214E+03  0.15861949944E+03  0.00000000000E+00 0.  1.
          1    1    1    2  502    0  0.85533755267E+01  0.23623718945E+02 -0.55653356381E+02  0.61061742573E+02  0.00000000000E+00 0.  1.
         22    1    1    2    0    0  0.72391097640E+01 -0.16089054811E+02  0.68449330550E+02  0.70686443168E+02  0.00000000000E+00 0. -1.
         22    1    1    2    0    0 -0.34452688507E+01  0.24806987782E+02 -0.53124390471E+02  0.58732081380E+02  0.00000000000E+00 0.  1.
</event>
<event>
 6    1  0.2406404E-005  0.1076274E+03  0.7818608E-02  0.1269546E+00
          2   -1    0    0  502    0  0.00000000000E+00  0.00000000000E+00  0.71284350185E+03  0.71284350185E+03  0.00000000000E+00 0.  1.
          1   -1    0    0  501    0 -0.00000000000E+00 -0.00000000000E+00 -0.17146315279E+02  0.17146315279E+02  0.00000000000E+00 0.  1.
          2    1    1    2  501    0  0.28409051557E+02 -0.72514835151E+01  0.94451589073E+02  0.98897729508E+02  0.00000000000E+00 0.  1.
          1    1    1    2  502    0 -0.59789087940E+02  0.50212507883E+01  0.14607324546E+03  0.15791561365E+03  0.00000000000E+00 0.  1.
         22    1    1    2    0    0  0.53893747379E+02 -0.38591008753E+02  0.37173945471E+03  0.37760299807E+03  0.00000000000E+00 0.  1.
         22    1    1    2    0    0 -0.22513710996E+02  0.40821241479E+02  0.83432897326E+02  0.95573475896E+02  0.00000000000E+00 0.  1.
</event>
<event>
 6    1  0.2406404E-005  0.7479805E+02  0.7818608E-02  0.1429048E+00
          2   -1    0    0  502    0  0.00000000000E+00  0.00000000000E+00  0.19485449263E+03  0.19485449263E+03  0.00000000000E+00 0.  1.
          1   -1    0    0  501    0 -0.00000000000E+00 -0.00000000000E+00 -0.24473913768E+03  0.24473913768E+03  0.00000000000E+00 0.  1.
          2    1    1    2  501    0  0.55221081154E+02 -0.47241771299E+02  0.10041655322E+03  0.12395417266E+03  0.00000000000E+00 0.  1.
          1    1    1    2  502    0 -0.47599467262E+02  0.31058116667E+02 -0.18054884913E+03  0.18928339287E+03  0.00000000000E+00 0.  1.
         22    1    1    2    0    0 -0.17767554492E+02  0.34287285751E-01 -0.45183396289E+02  0.48551276692E+02  0.00000000000E+00 0.  1.
         22    1    1    2    0    0  0.10145940601E+02  0.16149367347E+02  0.75431047140E+02  0.77804788086E+02  0.00000000000E+00 0.  1.
</event>
<event>
 6    1  0.2406404E-005  0.1314647E+03  0.7818608E-02  0.1327762E+00
          2   -1    0    0  502    0  0.00000000000E+00  0.00000000000E+00  0.57913745705E+03  0.57913745705E+03  0.00000000000E+00 0. -1.
          1   -1    0    0  501    0 -0.00000000000E+00 -0.00000000000E+00 -0.12424501148E+03  0.12424501148E+03  0.00000000000E+00 0.  1.
          2    1    1    2  501    0 -0.87422941706E+02 -0.89568483486E+02  0.16783113457E+03  0.20936230248E+03  0.00000000000E+00 0. -1.
          1    1    1    2  502    0  0.18132849446E+03  0.40712630974E+02  0.27732991995E+02  0.18790066543E+03  0.00000000000E+00 0.  1.
         22    1    1    2    0    0 -0.10174757899E+03  0.35953450088E+02  0.26785757515E+03  0.28877829033E+03  0.00000000000E+00 0. -1.
         22    1    1    2    0    0  0.78420262280E+01  0.12902402425E+02 -0.85292561414E+01  0.17341210281E+02  0.00000000000E+00 0.  1.
</event>
<event>
 6    1  0.2406404E-005  0.5030328E+02  0.7818608E-02  0.1467710E+00
          2   -1    0    0  502    0  0.00000000000E+00  0.00000000000E+00  0.10338116355E+03  0.10338116355E+03  0.00000000000E+00 0.  1.
          1   -1    0    0  501    0 -0.00000000000E+00 -0.00000000000E+00 -0.17818207624E+03  0.17818207624E+03  0.00000000000E+00 0.  1.
          2    1    1    2  501    0 -0.22679547311E+02 -0.64132847867E+02  0.10755032893E+01  0.68033379669E+02  0.00000000000E+00 0.  1.
          1    1    1    2  502    0  0.50222478010E+02  0.43627852027E+02 -0.19236478146E+02  0.69251201155E+02  0.00000000000E+00 0.  1.
         22    1    1    2    0    0 -0.40394275100E+02 -0.37330479442E+01  0.31886786499E+02  0.51598452119E+02  0.00000000000E+00 0.  1.
         22    1    1    2    0    0  0.12851344400E+02  0.24238043785E+02 -0.88526724337E+02  0.92680206847E+02  0.00000000000E+00 0.  1.
</event>
<event>
 6    1  0.2406404E-005  0.5166497E+02  0.7818608E-02  0.1457957E+00
          2   -1    0    0  502    0  0.00000000000E+00  0.00000000000E+00  0.13116256597E+03  0.13116256597E+03  0.00000000000E+00 0. -1.
          1   -1    0    0  501    0 -0.00000000000E+00 -0.00000000000E+00 -0.84320586414E+02  0.84320586414E+02  0.00000000000E+00 0.  1.
          2    1    1    2  501    0 -0.15841394288E+02  0.14831361635E+02  0.55933499849E+02  0.59995628726E+02  0.00000000000E+00 0. -1.
          1    1    1    2  502    0  0.20709197148E+02  0.57584481525E+01 -0.12925946530E+02  0.25082078569E+02  0.00000000000E+00 0.  1.
         22    1    1    2    0    0  0.10003569755E+02 -0.20697390084E+02 -0.60318892385E+02  0.64550926737E+02  0.00000000000E+00 0.  1.
         22    1    1    2    0    0 -0.14871372615E+02  0.10758029652E+00  0.64153318622E+02  0.65854518351E+02  0.00000000000E+00 0. -1.
</event>
<event>
 6    1  0.2406404E-005  0.5965005E+02  0.7818608E-02  0.1442442E+00
          2   -1    0    0  502    0  0.00000000000E+00  0.00000000000E+00  0.30438509884E+03  0.30438509884E+03  0.00000000000E+00 0. -1.
          1   -1    0    0  501    0 -0.00000000000E+00 -0.00000000000E+00 -0.31696325468E+02  0.31696325468E+02  0.00000000000E+00 0. -1.
          2    1    1    2  501    0  0.17680094771E+02 -0.95246610956E+01  0.51526560272E+02  0.55301820346E+02  0.00000000000E+00 0. -1.
          1    1    1    2  502    0 -0.25045497349E+02  0.35764576593E+02  0.43675935857E+02  0.61757341663E+02  0.00000000000E+00 0. -1.
         22    1    1    2    0    0 -0.30665731888E+02  0.21955841697E+01 -0.43836726991E+01  0.31055181345E+02  0.00000000000E+00 0. -1.
         22    1    1    2    0    0  0.38031134465E+02 -0.28435499667E+02  0.18186994994E+03  0.18796708096E+03  0.00000000000E+00 0. -1.
</event>
<event>
 6    1  0.2406404E-005  0.1004504E+03  0.7818608E-02  0.1391732E+00
          2   -1    0    0  502    0  0.00000000000E+00  0.00000000000E+00  0.15770609256E+03  0.15770609256E+03  0.00000000000E+00 0. -1.
          1   -1    0    0  501    0 -0.00000000000E+00 -0.00000000000E+00 -0.75888774390E+03  0.75888774390E+03  0.00000000000E+00 0.  1.
          2    1    1    2  501    0  0.95458406291E+02 -0.21579116511E+02  0.42638236781E+02  0.10675197814E+03  0.00000000000E+00 0. -1.
          1    1    1    2  502    0 -0.11528845915E+03 -0.62213529796E+02 -0.64631467889E+03  0.65945781992E+03  0.00000000000E+00 0.  1.
         22    1    1    2    0    0  0.79132302528E+01  0.85018343105E+02  0.51648659976E+02  0.99791392187E+02  0.00000000000E+00 0. -1.
         22    1    1    2    0    0  0.11916822610E+02 -0.12256967980E+01 -0.49153869206E+02  0.50592646221E+02  0.00000000000E+00 0.  1.
</event>
<event>
 6    1  0.2406404E-005  0.1906128E+03  0.7818608E-02  0.1178359E+00
          2   -1    0    0  502    0  0.00000000000E+00  0.00000000000E+00  0.11840275648E+03  0.11840275648E+03  0.00000000000E+00 0.  1.
          1   -1    0    0  501    0 -0.00000000000E+00 -0.00000000000E+00 -0.28878816255E+03  0.28878816255E+03  0.00000000000E+00 0.  1.
          2    1    1    2  501    0  0.84737991906E+01  0.63589770979E+02 -0.16685067899E+02  0.66286165500E+02  0.00000000000E+00 0.  1.
          1    1    1    2  502    0  0.96181498179E+02 -0.33044901043E+02 -0.14384061565E+03  0.17616176880E+03  0.00000000000E+00 0.  1.
         22    1    1    2    0    0 -0.11940604040E+03 -0.23411528804E+02  0.26793187757E+02  0.12459445041E+03  0.00000000000E+00 0.  1.
         22    1    1    2    0    0  0.14750743026E+02 -0.71333411320E+01 -0.36652910280E+02  0.40148534313E+02  0.00000000000E+00 0.  1.
</event>
<event>
 6    1  0.2406404E-005  0.2619921E+03  0.7818608E-02  0.1111615E+00
          2   -1    0    0  502    0  0.00000000000E+00  0.00000000000E+00  0.28660349540E+03  0.28660349540E+03  0.00000000000E+00 0.  1.
          1   -1    0    0  501    0 -0.00000000000E+00 -0.00000000000E+00 -0.29279288008E+03  0.29279288008E+03  0.00000000000E+00 0.  1.
          2    1    1    2  501    0  0.16390400793E+03  0.11440995583E+03  0.14853110170E+03  0.24902941590E+03  0.00000000000E+00 0.  1.
          1    1    1    2  502    0 -0.10939981494E+03 -0.28328249584E+02 -0.12307683796E+02  0.11367624340E+03  0.00000000000E+00 0.  1.
         22    1    1    2    0    0 -0.62624586927E+02 -0.10848559042E+03 -0.14624116596E+03  0.19255503326E+03  0.00000000000E+00 0.  1.
         22    1    1    2    0    0  0.81203939352E+01  0.22403884172E+02  0.38283633704E+01  0.24135682915E+02  0.00000000000E+00 0. -1.
</event>
<event>
 6    1  0.2406404E-005  0.2554700E+02  0.7818608E-02  0.1677187E+00
          2   -1    0    0  502    0  0.00000000000E+00  0.00000000000E+00  0.88164266742E+02  0.88164266742E+02  0.00000000000E+00 0. -1.
          1   -1    0    0  501    0 -0.00000000000E+00 -0.00000000000E+00 -0.10153031466E+03  0.10153031466E+03  0.00000000000E+00 0. -1.
          2    1    1    2  501    0 -0.91812238604E+01  0.19619331727E+02  0.55254029734E+01  0.22354935182E+02  0.00000000000E+00 0. -1.
          1    1    1    2  502    0 -0.28975932897E+02  0.15431348153E+01 -0.66068379392E+01  0.29759641461E+02  0.00000000000E+00 0. -1.
         22    1    1    2    0    0  0.23810112722E+02 -0.78112892911E+01 -0.71205000126E+02  0.75485692360E+02  0.00000000000E+00 0. -1.
         22    1    1    2    0    0  0.14347044036E+02 -0.13351177251E+02  0.58920387177E+02  0.62094312394E+02  0.00000000000E+00 0. -1.
</event>
<event>
 6    1  0.2406404E-005  0.2611594E+03  0.7818608E-02  0.1109322E+00
          2   -1    0    0  502    0  0.00000000000E+00  0.00000000000E+00  0.42843600315E+03  0.42843600315E+03  0.00000000000E+00 0. -1.
          1   -1    0    0  501    0 -0.00000000000E+00 -0.00000000000E+00 -0.15504227837E+03  0.15504227837E+03  0.00000000000E+00 0. -1.
          2    1    1    2  501    0 -0.94949927389E+02 -0.19125000469E+03  0.52338186995E+02  0.21984389649E+03  0.00000000000E+00 0. -1.
          1    1    1    2  502    0  0.50388162512E+02  0.55604834115E+02  0.13562509218E+03  0.15500009718E+03  0.00000000000E+00 0. -1.
         22    1    1    2    0    0 -0.25132972787E+02 -0.11019604383E+02  0.17933752486E+02  0.32782883950E+02  0.00000000000E+00 0. -1.
         22    1    1    2    0    0  0.69694737663E+02  0.14666477496E+03  0.67496693130E+02  0.17585140390E+03  0.00000000000E+00 0. -1.
</event>
<event>
 6    1  0.2406404E-005  0.5435487E+02  0.7818608E-02  0.1433848E+00
          2   -1    0    0  502    0  0.00000000000E+00  0.00000000000E+00  0.47910784938E+02  0.47910784938E+02  0.00000000000E+00 0.  1.
          1   -1    0    0  501    0 -0.00000000000E+00 -0.00000000000E+00 -0.34147127301E+03  0.34147127301E+03  0.00000000000E+00 0. -1.
          2    1    1    2  501    0 -0.20996228538E+02  0.23647686021E+02  0.97268359698E+01  0.33085737183E+02  0.00000000000E+00 0.  1.
          1    1    1    2  502    0 -0.35485275506E+02 -0.39182783770E+02 -0.75960103302E+02  0.92544219783E+02  0.00000000000E+00 0. -1.
         22    1    1    2    0    0 -0.37923929083E+01  0.13087853578E+02  0.11247812092E+02  0.17668826562E+02  0.00000000000E+00 0.  1.
         22    1    1    2    0    0  0.60273896952E+02  0.24472441713E+01 -0.23857503283E+03  0.24608327442E+03  0.00000000000E+00 0. -1.
</event>
<event>
 6    1  0.2406404E-005  0.5615999E+02  0.7818608E-02  0.1419093E+00
          2   -1    0    0  502    0  0.00000000000E+00  0.00000000000E+00  0.18687531043E+03  0.18687531043E+03  0.00000000000E+00 0.  1.
          1   -1    0    0  501    0 -0.00000000000E+00 -0.00000000000E+00 -0.80526193195E+02  0.80526193195E+02  0.00000000000E+00 0. -1.
          2    1    1    2  501    0 -0.24211210734E+02 -0.56528549494E+01  0.68438565213E+02  0.72814659943E+02  0.00000000000E+00 0.  1.
          1    1    1    2  502    0  0.33894460950E+02 -0.33364035828E+01 -0.37946942467E+02  0.50989572606E+02  0.00000000000E+00 0. -1.
         22    1    1    2    0    0  0.14337950018E+02 -0.10658812844E+02 -0.29100724278E+02  0.34147316958E+02  0.00000000000E+00 0. -1.
         22    1    1    2    0    0 -0.24021200233E+02  0.19648071376E+02  0.10495821877E+03  0.10944995412E+03  0.00000000000E+00 0.  1.
</event>
<event>
 6    1  0.2406404E-005  0.4681233E+02  0.7818608E-02  0.1512891E+00
          2   -1    0    0  502    0  0.00000000000E+00  0.00000000000E+00  0.19006585213E+03  0.19006585213E+03  0.00000000000E+00 0.  1.
          1   -1    0    0  501    0 -0.00000000000E+00 -0.00000000000E+00 -0.13445749943E+03  0.13445749943E+03  0.00000000000E+00 0. -1.
          2    1    1    2  501    0 -0.27943234298E+02  0.19232493374E+02  0.14081056158E+03  0.14483897057E+03  0.00000000000E+00 0.  1.
          1    1    1    2  502    0  0.29858909263E+02 -0.69979584542E+01 -0.39758363883E+02  0.50212084039E+02  0.00000000000E+00 0. -1.
         22    1    1    2    0    0  0.71622160551E+01 -0.22300498755E+02 -0.84732981405E+02  0.87910680360E+02  0.00000000000E+00 0. -1.
         22    1    1    2    0    0 -0.90778910201E+01  0.10065963835E+02  0.39289136411E+02  0.41561616585E+02  0.00000000000E+00 0.  1.
</event>
<event>
 6    1  0.2406404E-005  0.7532337E+02  0.7818608E-02  0.1348053E+00
          2   -1    0    0  502    0  0.00000000000E+00  0.00000000000E+00  0.20840577706E+03  0.20840577706E+03  0.00000000000E+00 0. -1.
          1   -1    0    0  501    0 -0.00000000000E+00 -0.00000000000E+00 -0.69509550126E+02  0.69509550126E+02  0.00000000000E+00 0.  1.
          2    1    1    2  501    0 -0.23923090367E+02 -0.20072462233E+02  0.41330450576E+02  0.51801777360E+02  0.00000000000E+00 0. -1.
          1    1    1    2  502    0  0.46910943315E+02  0.19986486197E+02 -0.20444129492E+02  0.54936860703E+02  0.00000000000E+00 0.  1.
         22    1    1    2    0    0  0.12554657239E+02  0.51800057188E+01 -0.22429011829E+02  0.26220458601E+02  0.00000000000E+00 0. -1.
         22    1    1    2    0    0 -0.35542510187E+02 -0.50940296828E+01  0.14043891768E+03  0.14495623052E+03  0.00000000000E+00 0. -1.
</event>
<event>
 6    1  0.2406404E-005  0.1534860E+03  0.7818608E-02  0.1204299E+00
          2   -1    0    0  502    0  0.00000000000E+00  0.00000000000E+00  0.39972368740E+03  0.39972368740E+03  0.00000000000E+00 0.  1.
          1   -1    0    0  501    0 -0.00000000000E+00 -0.00000000000E+00 -0.26342506723E+03  0.26342506723E+03  0.00000000000E+00 0.  1.
          2    1    1    2  501    0  0.33348074419E+02  0.13884349114E+03  0.20139711806E+03  0.24688136475E+03  0.00000000000E+00 0.  1.
          1    1    1    2  502    0  0.11643147177E+03 -0.27532201202E+01 -0.12576019091E+03  0.17140447327E+03  0.00000000000E+00 0.  1.
         22    1    1    2    0    0  0.69308317535E+01  0.10311093233E+02 -0.13120485282E+02  0.18069372056E+02  0.00000000000E+00 0. -1.
         22    1    1    2    0    0 -0.15671037795E+03 -0.14640136425E+03  0.73782178306E+02  0.22679354454E+03  0.00000000000E+00 0.  1.
</event>
<event>
 6    1  0.2406404E-005  0.8324649E+02  0.7818608E-02  0.1320766E+00
          2   -1    0    0  502    0  0.00000000000E+00  0.00000000000E+00  0.55801808253E+03  0.55801808253E+03  0.00000000000E+00 0. -1.
          1   -1    0    0  501    0 -0.00000000000E+00 -0.00000000000E+00 -0.29936696026E+02  0.29936696026E+02  0.00000000000E+00 0.  1.
          2    1    1    2  501    0 -0.11946285454E+02 -0.22940219914E+02  0.19333719138E+03  0.19505957294E+03  0.00000000000E+00 0. -1.
          1    1    1    2  502    0  0.33988568199E+02  0.27778098801E+02  0.13262484787E+02  0.45855632631E+02  0.00000000000E+00 0.  1.
         22    1    1    2    0    0 -0.39470407647E+02 -0.38872177767E+02  0.29588366588E+03  0.30102508703E+03  0.00000000000E+00 0. -1.
         22    1    1    2    0    0  0.17428124902E+02  0.34034298879E+02  0.25598044455E+02  0.46014485955E+02  0.00000000000E+00 0.  1.
</event>
<event>
 6    1  0.2406404E-005  0.5690149E+02  0.7818608E-02  0.1520449E+00
          2   -1    0    0  502    0  0.00000000000E+00  0.00000000000E+00  0.21106513041E+03  0.21106513041E+03  0.00000000000E+00 0.  1.
          1   -1    0    0  501    0 -0.00000000000E+00 -0.00000000000E+00 -0.40078969441E+03  0.40078969441E+03  0.00000000000E+00 0. -1.
          2    1    1    2  501    0  0.43405208019E+02  0.74264483043E+01  0.13952021859E+03  0.14630466709E+03  0.00000000000E+00 0.  1.
          1    1    1    2  502    0 -0.55699160179E+02  0.71143920670E+00 -0.33774667489E+03  0.34230939074E+03  0.00000000000E+00 0. -1.
         22    1    1    2    0    0  0.10826738855E+02  0.35531133119E+01  0.64763648252E+02  0.65758444502E+02  0.00000000000E+00 0. -1.
         22    1    1    2    0    0  0.14672133051E+01 -0.11691000823E+02 -0.56261755959E+02  0.57482322489E+02  0.00000000000E+00 0.  1.
</event>
<event>
 6    1  0.2406404E-005  0.7807915E+02  0.7818608E-02  0.1372380E+00
          2   -1    0    0  502    0  0.00000000000E+00  0.00000000000E+00  0.16854706831E+02  0.16854706831E+02  0.00000000000E+00 0. -1.
          1   -1    0    0  501    0 -0.00000000000E+00 -0.00000000000E+00 -0.73921507201E+03  0.73921507201E+03  0.00000000000E+00 0. -1.
          2    1    1    2  501    0  0.25344341378E+02 -0.48863079656E+02 -0.23154696247E+03  0.23799985719E+03  0.00000000000E+00 0. -1.
          1    1    1    2  502    0 -0.10660365446E+02  0.37646150513E+02 -0.11768730999E+03  0.12402088119E+03  0.00000000000E+00 0. -1.
         22    1    1    2    0    0  0.23335743007E+02 -0.33844100218E+02 -0.46168766324E+02  0.61818565214E+02  0.00000000000E+00 0. -1.
         22    1    1    2    0    0 -0.38019718939E+02  0.45061029361E+02 -0.32695732640E+03  0.33223047524E+03  0.00000000000E+00 0. -1.
</event>
<event>
 6    1  0.2406404E-005  0.1116229E+03  0.7818608E-02  0.1258359E+00
          2   -1    0    0  502    0  0.00000000000E+00  0.00000000000E+00  0.16346121385E+03  0.16346121385E+03  0.00000000000E+00 0.  1.
          1   -1    0    0  501    0 -0.00000000000E+00 -0.00000000000E+00 -0.10814942544E+03  0.10814942544E+03  0.00000000000E+00 0. -1.
          2    1    1    2  501    0 -0.17929634108E+02  0.45164326363E+02  0.25576740956E+02  0.54913184510E+02  0.00000000000E+00 0.  1.
          1    1    1    2  502    0  0.26508625531E+02 -0.72660549069E+02 -0.21342575783E+02  0.80235703771E+02  0.00000000000E+00 0. -1.
         22    1    1    2    0    0 -0.16145988018E+02  0.56132215629E+02  0.77311968781E+02  0.96895093154E+02  0.00000000000E+00 0.  1.
         22    1    1    2    0    0  0.75669965946E+01 -0.28635992923E+02 -0.26234345536E+02  0.39566657855E+02  0.00000000000E+00 0.  1.
</event>
<event>
 6    1  0.2406404E-005  0.8599812E+02  0.7818608E-02  0.1344182E+00
          2   -1    0    0  502    0  0.00000000000E+00  0.00000000000E+00  0.62636106236E+03  0.62636106236E+03  0.00000000000E+00 0.  1.
          1   -1    0    0  501    0 -0.00000000000E+00 -0.00000000000E+00 -0.59283548021E+02  0.59283548021E+02  0.00000000000E+00 0.  1.
          2    1    1    2  501    0  0.62743122591E+02 -0.84100049927E+01  0.36270914599E+03  0.36819200454E+03  0.00000000000E+00 0.  1.
          1    1    1    2  502    0 -0.50971448094E+02  0.49518933323E+02 -0.42810676003E+01  0.71193685240E+02  0.00000000000E+00 0.  1.
         22    1    1    2    0    0 -0.11742094951E+02  0.83734804304E+01 -0.12839933513E+02  0.19309475938E+02  0.00000000000E+00 0. -1.
         22    1    1    2    0    0 -0.29579546599E-01 -0.49482408761E+02  0.22148936946E+03  0.22694944467E+03  0.00000000000E+00 0. -1.
</event>
<event>
 6    1  0.2406404E-005  0.1391253E+03  0.7818608E-02  0.1247087E+00
          2   -1    0    0  502    0  0.00000000000E+00  0.00000000000E+00  0.59836144471E+02  0.59836144471E+02  0.00000000000E+00 0. -1.
          1   -1    0    0  501    0 -0.00000000000E+00 -0.00000000000E+00 -0.60272139601E+03  0.60272139601E+03  0.00000000000E+00 0. -1.
          2    1    1    2  501    0 -0.29171976722E+01 -0.13052482294E+03 -0.12859494603E+03  0.18325364823E+03  0.00000000000E+00 0. -1.
          1    1    1    2  502    0  0.27422409803E+02  0.10262859582E+03 -0.12874870296E+03  0.16691568456E+03  0.00000000000E+00 0. -1.
         22    1    1    2    0    0 -0.52424215310E+02  0.47966039983E+02 -0.26005595769E+03  0.26958883596E+03  0.00000000000E+00 0. -1.
         22    1    1    2    0    0  0.27919003179E+02 -0.20069812862E+02 -0.25485644855E+02  0.42799371730E+02  0.00000000000E+00 0. -1.
</event>
<event>
 6    1  0.2406404E-005  0.5572208E+02  0.7818608E-02  0.1426373E+00
          2   -1    0    0  502    0  0.00000000000E+00  0.00000000000E+00  0.33936012375E+03  0.33936012375E+03  0.00000000000E+00 0. -1.
          1   -1    0    0  501    0 -0.00000000000E+00 -0.00000000000E+00 -0.12419028025E+03  0.12419028025E+03  0.00000000000E+00 0.  1.
          2    1    1    2  501    0 -0.20858678300E+02 -0.85882302385E+01  0.25451933522E+03  0.25551699388E+03  0.00000000000E+00 0. -1.
          1    1    1    2  502    0  0.34250885410E+02  0.58199429986E+01 -0.72401968308E+02  0.80305914494E+02  0.00000000000E+00 0.  1.
         22    1    1    2    0    0  0.10512255415E+02  0.56662863012E+01 -0.44733305006E+02  0.46299923230E+02  0.00000000000E+00 0.  1.
         22    1    1    2    0    0 -0.23904462524E+02 -0.28979990613E+01  0.77785781604E+02  0.81427572399E+02  0.00000000000E+00 0. -1.
</event>
<event>
 6    1  0.2406404E-005  0.6377031E+02  0.7818608E-02  0.1418039E+00
          2   -1    0    0  502    0  0.00000000000E+00  0.00000000000E+00  0.18211962679E+03  0.18211962679E+03  0.00000000000E+00 0.  1.
          1   -1    0    0  501    0 -0.00000000000E+00 -0.00000000000E+00 -0.65927229599E+02  0.65927229599E+02  0.00000000000E+00 0. -1.
          2    1    1    2  501    0 -0.23527304147E+00  0.36000737118E+02  0.32625331780E+02  0.48585190132E+02  0.00000000000E+00 0.  1.
          1    1    1    2  502    0  0.27480896030E+02 -0.44190110877E+02  0.45805069283E+02  0.69325824322E+02  0.00000000000E+00 0. -1.
         22    1    1    2    0    0 -0.13399220985E+01  0.33792401512E+02  0.72376933932E+02  0.79888311765E+02  0.00000000000E+00 0.  1.
         22    1    1    2    0    0 -0.25905700891E+02 -0.25603027754E+02 -0.34614937805E+02  0.50247530168E+02  0.00000000000E+00 0. -1.
</event>
<event>
 6    1  0.2406404E-005  0.3011061E+02  0.7818608E-02  0.1601613E+00
          2   -1    0    0  502    0  0.00000000000E+00  0.00000000000E+00  0.65924785839E+02  0.65924785839E+02  0.00000000000E+00 0. -1.
          1   -1    0    0  501    0 -0.00000000000E+00 -0.00000000000E+00 -0.16471322232E+03  0.16471322232E+03  0.00000000000E+00 0. -1.
          2    1    1    2  501    0 -0.27704007333E+02 -0.31196960532E+02 -0.19220966442E+02  0.45936999464E+02  0.00000000000E+00 0. -1.
          1    1    1    2  502    0  0.39085908547E+02  0.16067654090E+02 -0.13214833648E+02  0.44277642024E+02  0.00000000000E+00 0. -1.
         22    1    1    2    0    0  0.10977239121E+02  0.24129374707E+02 -0.97499999211E+02  0.10103947916E+03  0.00000000000E+00 0. -1.
         22    1    1    2    0    0 -0.22359140335E+02 -0.90000682653E+01  0.31147362817E+02  0.39383887514E+02  0.00000000000E+00 0. -1.
</event>
<event>
 6    1  0.2406404E-005  0.1010624E+03  0.7818608E-02  0.1304266E+00
          2   -1    0    0  502    0  0.00000000000E+00  0.00000000000E+00  0.55122699613E+02  0.55122699613E+02  0.00000000000E+00 0. -1.
          1   -1    0    0  501    0 -0.00000000000E+00 -0.00000000000E+00 -0.21700677474E+03  0.21700677474E+03  0.00000000000E+00 0. -1.
          2    1    1    2  501    0 -0.36457473357E+02 -0.41187320149E+01 -0.46446637046E+01  0.36982214886E+02  0.00000000000E+00 0. -1.
          1    1    1    2  502    0  0.18614677279E+02  0.40768573776E+02 -0.47650669708E+02  0.65415358606E+02  0.00000000000E+00 0. -1.
         22    1    1    2    0    0  0.32327045887E+02 -0.36124037382E+02 -0.13335615940E+03  0.14189379557E+03  0.00000000000E+00 0. -1.
         22    1    1    2    0    0 -0.14484249810E+02 -0.52580437932E+00  0.23767417683E+02  0.27838105289E+02  0.00000000000E+00 0.  1.
</event>
<event>
 6    1  0.2406404E-005  0.1944727E+03  0.7818608E-02  0.1156573E+00
          2   -1    0    0  502    0  0.00000000000E+00  0.00000000000E+00  0.89230241749E+03  0.89230241749E+03  0.00000000000E+00 0. -1.
          1   -1    0    0  501    0 -0.00000000000E+00 -0.00000000000E+00 -0.47494297657E+02  0.47494297657E+02  0.00000000000E+00 0. -1.
          2    1    1    2  501    0  0.15068499987E+03  0.26656953222E+02  0.44353755280E+03  0.46919305524E+03  0.00000000000E+00 0. -1.
          1    1    1    2  502    0 -0.72004626992E+02 -0.35322817925E+02  0.62212972430E+02  0.10150281628E+03  0.00000000000E+00 0. -1.
         22    1    1    2    0    0  0.24352148677E+02 -0.12890709250E+02  0.15184221898E+03  0.15432192649E+03  0.00000000000E+00 0. -1.
         22    1    1    2    0    0 -0.10303252155E+03  0.21556573953E+02  0.18721537562E+03  0.21477891714E+03  0.00000000000E+00 0. -1.
</event>
<event>
 6    1  0.2406404E-005  0.9794424E+02  0.7818608E-02  0.1289302E+00
          2   -1    0    0  502    0  0.00000000000E+00  0.00000000000E+00  0.62570421449E+03  0.62570421449E+03  0.00000000000E+00 0.  1.
          1   -1    0    0  501    0 -0.00000000000E+00 -0.00000000000E+00 -0.59360727079E+02  0.59360727079E+02  0.00000000000E+00 0. -1.
          2    1    1    2  501    0  0.30347879277E+02  0.14183191997E+02  0.30342841002E+03  0.30527193897E+03  0.00000000000E+00 0.  1.
          1    1    1    2  502    0 -0.75873878095E+02  0.51785503829E+00 -0.10184269699E+02  0.76556076834E+02  0.00000000000E+00 0. -1.
         22    1    1    2    0    0  0.57996072262E+02 -0.14974970106E+02  0.28175709849E+03  0.28805356563E+03  0.00000000000E+00 0.  1.
         22    1    1    2    0    0 -0.12470073444E+02  0.27392307077E+00 -0.86577514005E+01  0.15183360131E+02  0.00000000000E+00 0.  1.
</event>
<event>
 6    1  0.2406404E-005  0.4192055E+03  0.7818608E-02  0.1055130E+00
          2   -1    0    0  502    0  0.00000000000E+00  0.00000000000E+00  0.68161080804E+02  0.68161080804E+02  0.00000000000E+00 0.  1.
          1   -1    0    0  501    0 -0.00000000000E+00 -0.00000000000E+00 -0.19126421855E+04  0.19126421855E+04  0.00000000000E+00 0.  1.
          2    1    1    2  501    0  0.22516719980E+03  0.22093688446E+02 -0.10237649049E+04  0.10484669663E+04  0.00000000000E+00 0.  1.
          1    1    1    2  502    0 -0.15036295059E+03 -0.17160881112E+03 -0.34406019618E+03  0.41283897534E+03  0.00000000000E+00 0.  1.
         22    1    1    2    0    0  0.20453235015E+02 -0.83310228158E+01 -0.57068660213E+02  0.61192914151E+02  0.00000000000E+00 0.  1.
         22    1    1    2    0    0 -0.95257484220E+02  0.15784614549E+03 -0.41958734339E+03  0.45830441050E+03  0.00000000000E+00 0.  1.
</event>
<event>
 6    1  0.2406404E-005  0.6162889E+02  0.7818608E-02  0.1394088E+00
          2   -1    0    0  502    0  0.00000000000E+00  0.00000000000E+00  0.21507125866E+03  0.21507125866E+03  0.00000000000E+00 0. -1.
          1   -1    0    0  501    0 -0.00000000000E+00 -0.00000000000E+00 -0.14767113565E+03  0.14767113565E+03  0.00000000000E+00 0. -1.
          2    1    1    2  501    0 -0.15691215441E+02 -0.29116136156E+02  0.81892238820E+02  0.88319320681E+02  0.00000000000E+00 0. -1.
          1    1    1    2  502    0  0.71872974401E+01  0.40072601210E+02 -0.10820554233E+03  0.11561102890E+03  0.00000000000E+00 0. -1.
         22    1    1    2    0    0 -0.13473239651E+00 -0.25665603757E+02  0.12260382488E+03  0.12526148349E+03  0.00000000000E+00 0. -1.
         22    1    1    2    0    0  0.86386503978E+01  0.14709138703E+02 -0.28890398359E+02  0.33550561239E+02  0.00000000000E+00 0.  1.
</event>
<event>
 6    1  0.2406404E-005  0.1595837E+03  0.7818608E-02  0.1217965E+00
          2   -1    0    0  502    0  0.00000000000E+00  0.00000000000E+00  0.10217326448E+03  0.10217326448E+03  0.00000000000E+00 0. -1.
          1   -1    0    0  501    0 -0.00000000000E+00 -0.00000000000E+00 -0.72417919570E+03  0.72417919570E+03  0.00000000000E+00 0. -1.
          2    1    1    2  501    0 -0.36023874200E+02 -0.10332784980E+03 -0.53631835082E+03  0.54736800919E+03  0.00000000000E+00 0. -1.
          1    1    1    2  502    0  0.33524073661E+02  0.14585123165E+02  0.56686077512E+02  0.67452951872E+02  0.00000000000E+00 0. -1.
         22    1    1    2    0    0 -0.60425591943E+01  0.47419103768E+02 -0.15911048404E+03  0.16613617925E+03  0.00000000000E+00 0. -1.
         22    1    1    2    0    0  0.85423597328E+01  0.41323622870E+02  0.16736826124E+02  0.45395319864E+02  0.00000000000E+00 0. -1.
</event>
<event>
 6    1  0.2406404E-005  0.1695296E+03  0.7818608E-02  0.1179963E+00
          2   -1    0    0  502    0  0.00000000000E+00  0.00000000000E+00  0.34217547903E+03  0.34217547903E+03  0.00000000000E+00 0. -1.
          1   -1    0    0  501    0 -0.00000000000E+00 -0.00000000000E+00 -0.26836339003E+03  0.26836339003E+03  0.00000000000E+00 0. -1.
          2    1    1    2  501    0  0.14276680778E+03 -0.46585583396E+02  0.26571699454E+03  0.30521811737E+03  0.00000000000E+00 0. -1.
          1    1    1    2  502    0 -0.54059252739E+02  0.36860322116E+02 -0.12025511164E+03  0.13690280505E+03  0.00000000000E+00 0. -1.
         22    1    1    2    0    0  0.84626540877E+01 -0.10152053461E+02  0.26041353655E+02  0.29203301249E+02  0.00000000000E+00 0. -1.
         22    1    1    2    0    0 -0.97170209129E+02  0.19877314741E+02 -0.97691147543E+02  0.13921464539E+03  0.00000000000E+00 0. -1.
</event>
<event>
 6    1  0.2406404E-005  0.5028835E+02  0.7818608E-02  0.1478488E+00
          2   -1    0    0  502    0  0.00000000000E+00  0.00000000000E+00  0.93285335955E+02  0.93285335955E+02  0.00000000000E+00 0.  1.
          1   -1    0    0  501    0 -0.00000000000E+00 -0.00000000000E+00 -0.19697113529E+03  0.19697113529E+03  0.00000000000E+00 0. -1.
          2    1    1    2  501    0  0.23704030587E+02 -0.44724125901E+02  0.34113203659E+02  0.61039652420E+02  0.00000000000E+00 0.  1.
          1    1    1    2  502    0  0.14030705581E+02  0.16852020146E+02 -0.73762539668E+02  0.76952995656E+02  0.00000000000E+00 0. -1.
         22    1    1    2    0    0 -0.73353216278E+01  0.27611672267E+02 -0.10067791899E+03  0.10465302079E+03  0.00000000000E+00 0. -1.
         22    1    1    2    0    0 -0.30399414540E+02  0.26043348741E+00  0.36641455664E+02  0.47610802379E+02  0.00000000000E+00 0.  1.
</event>
<event>
 6    1  0.2406404E-005  0.1230695E+03  0.7818608E-02  0.1259807E+00
          2   -1    0    0  502    0  0.00000000000E+00  0.00000000000E+00  0.12528062643E+03  0.12528062643E+03  0.00000000000E+00 0.  1.
          1   -1    0    0  501    0 -0.00000000000E+00 -0.00000000000E+00 -0.15093847960E+03  0.15093847960E+03  0.00000000000E+00 0.  1.
          2    1    1    2  501    0 -0.55428638284E+02  0.20130081886E+02  0.41021343081E+02  0.71835261028E+02  0.00000000000E+00 0.  1.
          1    1    1    2  502    0 -0.10732550991E+02 -0.44882125031E+02 -0.31632882393E+02  0.55948476714E+02  0.00000000000E+00 0.  1.
         22    1    1    2    0    0 -0.84073341493E+01  0.91920955759E+01  0.39763362276E+02  0.41668967687E+02  0.00000000000E+00 0. -1.
         22    1    1    2    0    0  0.74568523425E+02  0.15559947569E+02 -0.74809676139E+02  0.10676640061E+03  0.00000000000E+00 0.  1.
</event>
<event>
 6    1  0.2406404E-005  0.7366217E+02  0.7818608E-02  0.1351834E+00
          2   -1    0    0  502    0  0.00000000000E+00  0.00000000000E+00  0.12216014516E+03  0.12216014516E+03  0.00000000000E+00 0.  1.
          1   -1    0    0  501    0 -0.00000000000E+00 -0.00000000000E+00 -0.12283476381E+03  0.12283476381E+03  0.00000000000E+00 0.  1.
          2    1    1    2  501    0 -0.30887827779E+02  0.23054941385E+02  0.42657026946E+02  0.57490957332E+02  0.00000000000E+00 0.  1.
          1    1    1    2  502    0  0.24953334549E+02 -0.30463315862E+02 -0.44650187774E+02  0.59534206862E+02  0.00000000000E+00 0.  1.
         22    1    1    2    0    0  0.83654236416E+01 -0.26678541241E+02 -0.55226307291E+02  0.61900483782E+02  0.00000000000E+00 0.  1.
         22    1    1    2    0    0 -0.24309304118E+01  0.34086915718E+02  0.56544849476E+02  0.66069260992E+02  0.00000000000E+00 0.  1.
</event>
<event>
 6    1  0.2406404E-005  0.3207111E+02  0.7818608E-02  0.1640826E+00
          2   -1    0    0  502    0  0.00000000000E+00  0.00000000000E+00  0.31024485797E+03  0.31024485797E+03  0.00000000000E+00 0.  1.
          1   -1    0    0  501    0 -0.00000000000E+00 -0.00000000000E+00 -0.17988195462E+03  0.17988195462E+03  0.00000000000E+00 0.  1.
          2    1    1    2  501    0 -0.31793566367E+02 -0.39989909138E+01  0.15527486159E+03  0.15854685564E+03  0.00000000000E+00 0.  1.
          1    1    1    2  502    0  0.34020088211E+02 -0.93453047510E+01 -0.14956794709E+03  0.15367261278E+03  0.00000000000E+00 0.  1.
         22    1    1    2    0    0 -0.42041980256E+01  0.24799131015E+02  0.14890586175E+03  0.15101532321E+03  0.00000000000E+00 0.  1.
         22    1    1    2    0    0  0.19776761808E+01 -0.11454835350E+02 -0.24249872900E+02  0.26892020966E+02  0.00000000000E+00 0.  1.
</event>
<event>
 6    1  0.2406404E-005  0.2235763E+03  0.7818608E-02  0.1169674E+00
          2   -1    0    0  502    0  0.00000000000E+00  0.00000000000E+00  0.40455363100E+03  0.40455363100E+03  0.00000000000E+00 0.  1.
          1   -1    0    0  501    0 -0.00000000000E+00 -0.00000000000E+00 -0.62099018412E+02  0.62099018412E+02  0.00000000000E+00 0.  1.
          2    1    1    2  501    0 -0.30490895001E+02  0.54074908619E+02  0.70608860383E+02  0.94018091794E+02  0.00000000000E+00 0.  1.
          1    1    1    2  502    0 -0.40481033644E+02 -0.14049610344E+02  0.19813988952E+03  0.20272030351E+03  0.00000000000E+00 0.  1.
         22    1    1    2    0    0 -0.15559587942E+02  0.18044287073E+02  0.60310746312E+02  0.64846612815E+02  0.00000000000E+00 0. -1.
         22    1    1    2    0    0  0.86531516587E+02 -0.58069585347E+02  0.13395116377E+02  0.10506764130E+03  0.00000000000E+00 0.  1.
</event>
<event>
 6    1  0.2406404E-005  0.9836906E+02  0.7818608E-02  0.1288953E+00
          2   -1    0    0  502    0  0.00000000000E+00  0.00000000000E+00  0.10187260037E+03  0.10187260037E+03  0.00000000000E+00 0. -1.
          1   -1    0    0  501    0 -0.00000000000E+00 -0.00000000000E+00 -0.88677651852E+02  0.88677651852E+02  0.00000000000E+00 0. -1.
          2    1    1    2  501    0  0.13590271518E+02  0.34969081735E+02  0.11974178727E+02  0.39381634216E+02  0.00000000000E+00 0. -1.
          1    1    1    2  502    0 -0.16110408806E+02 -0.16394314189E+02  0.69192091661E+01  0.24004046849E+02  0.00000000000E+00 0. -1.
         22    1    1    2    0    0  0.59953070927E+02  0.89176506790E+01  0.10372571416E+02  0.61493783791E+02  0.00000000000E+00 0. -1.
         22    1    1    2    0    0 -0.57432933639E+02 -0.27492418225E+02 -0.16071010786E+02  0.65670787371E+02  0.00000000000E+00 0. -1.
</event>
<event>
 6    1  0.2406404E-005  0.1024675E+03  0.7818608E-02  0.1279595E+00
          2   -1    0    0  502    0  0.00000000000E+00  0.00000000000E+00  0.28892599451E+02  0.28892599451E+02  0.00000000000E+00 0. -1.
          1   -1    0    0  501    0 -0.00000000000E+00 -0.00000000000E+00 -0.42633318733E+03  0.42633318733E+03  0.00000000000E+00 0. -1.
          2    1    1    2  501    0 -0.29047477898E+02  0.22897971661E+02 -0.26928524792E+02  0.45751705169E+02  0.00000000000E+00 0. -1.
          1    1    1    2  502    0  0.49203152530E+02 -0.20887324667E+01 -0.11988166056E+03  0.12960295352E+03  0.00000000000E+00 0. -1.
         22    1    1    2    0    0  0.41639817099E+02 -0.24940211526E+01 -0.17775091719E+03  0.18258007304E+03  0.00000000000E+00 0. -1.
         22    1    1    2    0    0 -0.61795491731E+02 -0.18315218041E+02 -0.72879485335E+02  0.97291055051E+02  0.00000000000E+00 0. -1.
</event>
<event>
 6    1  0.2406404E-005  0.2198580E+03  0.7818608E-02  0.1251033E+00
          2   -1    0    0  502    0  0.00000000000E+00  0.00000000000E+00  0.19471933885E+03  0.19471933885E+03  0.00000000000E+00 0. -1.
          1   -1    0    0  501    0 -0.00000000000E+00 -0.00000000000E+00 -0.56998554311E+03  0.56998554311E+03  0.00000000000E+00 0. -1.
          2    1    1    2  501    0  0.71693103688E+02 -0.11270971788E+03  0.48781435167E+02  0.14220763003E+03  0.00000000000E+00 0. -1.
          1    1    1    2  502    0 -0.15981465307E+03  0.12522195173E+03 -0.42632300424E+03  0.47219970825E+03  0.00000000000E+00 0. -1.
         22    1    1    2    0    0  0.81332198475E+02 -0.27702491083E+02  0.50238644684E+02  0.99530276502E+02  0.00000000000E+00 0. -1.
         22    1    1    2    0    0  0.67893509038E+01  0.15190257238E+02 -0.47963279868E+02  0.50767267175E+02  0.00000000000E+00 0.  1.
</event>
<event>
 6    1  0.2406404E-005  0.9270095E+02  0.7818608E-02  0.1333034E+00
          2   -1    0    0  502    0  0.00000000000E+00  0.00000000000E+00  0.27699801234E+02  0.27699801234E+02  0.00000000000E+00 0.  1.
          1   -1    0    0  501    0 -0.00000000000E+00 -0.00000000000E+00 -0.31271618107E+03  0.31271618107E+03  0.00000000000E+00 0.  1.
          2    1    1    2  501    0 -0.50248416760E+01  0.20815299042E+02 -0.12298375376E+02  0.24693637743E+02  0.00000000000E+00 0.  1.
          1    1    1    2  502    0 -0.24153900677E+02 -0.24155884350E+01 -0.31214779586E+02  0.39542489173E+02  0.00000000000E+00 0.  1.
         22    1    1    2    0    0 -0.20638666601E+02  0.11565549504E+02  0.39061636256E+01  0.23978628165E+02  0.00000000000E+00 0.  1.
         22    1    1    2    0    0  0.49817408954E+02 -0.29965260111E+02 -0.24540938850E+03  0.25220122722E+03  0.00000000000E+00 0.  1.
</event>
<event>
 6    1  0.2406404E-005  0.5275255E+02  0.7818608E-02  0.1433340E+00
          2   -1    0    0  502    0  0.00000000000E+00  0.00000000000E+00  0.32912831097E+03  0.32912831097E+03  0.00000000000E+00 0. -1.
          1   -1    0    0  501    0 -0.00000000000E+00 -0.00000000000E+00 -0.21546631929E+03  0.21546631929E+03  0.00000000000E+00 0.  1.
          2    1    1    2  501    0  0.37181118779E+02  0.12810230885E+02  0.28014631788E+03  0.28289308410E+03  0.00000000000E+00 0. -1.
          1    1    1    2  502    0 -0.31970841921E+02 -0.12056416810E+02 -0.12546912554E+03  0.13003843041E+03  0.00000000000E+00 0.  1.
         22    1    1    2    0    0  0.79825479106E+01  0.84725532090E+01  0.43806707703E+02  0.45326955212E+02  0.00000000000E+00 0.  1.
         22    1    1    2    0    0 -0.13192824769E+02 -0.92263672836E+01 -0.84821908364E+02  0.86336160542E+02  0.00000000000E+00 0. -1.
</event>
<event>
 6    1  0.2406404E-005  0.9548442E+02  0.7818608E-02  0.1290351E+00
          2   -1    0    0  502    0  0.00000000000E+00  0.00000000000E+00  0.62173327028E+03  0.62173327028E+03  0.00000000000E+00 0. -1.
          1   -1    0    0  501    0 -0.00000000000E+00 -0.00000000000E+00 -0.90462799759E+02  0.90462799759E+02  0.00000000000E+00 0. -1.
          2    1    1    2  501    0  0.67563350149E+02  0.18779010461E+02  0.51703316349E+03  0.52176694957E+03  0.00000000000E+00 0. -1.
          1    1    1    2  502    0 -0.56790866181E+02 -0.16207739734E+02 -0.21866102478E+02  0.62976342752E+02  0.00000000000E+00 0. -1.
         22    1    1    2    0    0  0.20271528863E+02  0.46955060784E+01  0.74611457211E+02  0.77458712918E+02  0.00000000000E+00 0.  1.
         22    1    1    2    0    0 -0.31044012831E+02 -0.72667768052E+01 -0.38508047698E+02  0.49994064800E+02  0.00000000000E+00 0. -1.
</event>
<event>
 6    1  0.2406404E-005  0.1418010E+03  0.7818608E-02  0.1211789E+00
          2   -1    0    0  502    0  0.00000000000E+00  0.00000000000E+00  0.55172747867E+02  0.55172747867E+02  0.00000000000E+00 0. -1.
          1   -1    0    0  501    0 -0.00000000000E+00 -0.00000000000E+00 -0.44656622718E+03  0.44656622718E+03  0.00000000000E+00 0. -1.
          2    1    1    2  501    0  0.92348372348E+02  0.36496722913E+02 -0.82331185822E+02  0.12899091758E+03  0.00000000000E+00 0. -1.
          1    1    1    2  502    0 -0.71997935352E+02 -0.34448930713E+02 -0.14515680979E+03  0.16565304389E+03  0.00000000000E+00 0. -1.
         22    1    1    2    0    0 -0.56639156138E+02  0.45938333383E+00 -0.16092016229E+03  0.17059749023E+03  0.00000000000E+00 0. -1.
         22    1    1    2    0    0  0.36288719142E+02 -0.25071755330E+01 -0.29853214034E+01  0.36497523341E+02  0.00000000000E+00 0.  1.
</event>
<event>
 6    1  0.2406404E-005  0.3917506E+02  0.7818608E-02  0.1581725E+00
          2   -1    0    0  502    0  0.00000000000E+00  0.00000000000E+00  0.10507066485E+03  0.10507066485E+03  0.00000000000E+00 0. -1.
          1   -1    0    0  501    0 -0.00000000000E+00 -0.00000000000E+00 -0.92744596486E+02  0.92744596486E+02  0.00000000000E+00 0. -1.
          2    1    1    2  501    0 -0.82931149314E+01  0.19626995933E+02  0.19857197615E+02  0.29125641997E+02  0.00000000000E+00 0. -1.
          1    1    1    2  502    0  0.37760971746E+01 -0.23112902109E+02 -0.33052350235E+02  0.40508307911E+02  0.00000000000E+00 0. -1.
         22    1    1    2    0    0  0.10664010288E+02 -0.11769453316E+02 -0.49185192536E+02  0.51685823120E+02  0.00000000000E+00 0.  1.
         22    1    1    2    0    0 -0.61469925316E+01  0.15255359492E+02  0.74706413519E+02  0.76495488307E+02  0.00000000000E+00 0. -1.
</event>
<event>
 6    1  0.2406404E-005  0.6897509E+02  0.7818608E-02  0.1395708E+00
          2   -1    0    0  502    0  0.00000000000E+00  0.00000000000E+00  0.33052406435E+03  0.33052406435E+03  0.00000000000E+00 0.  1.
          1   -1    0    0  501    0 -0.00000000000E+00 -0.00000000000E+00 -0.73171997342E+02  0.73171997342E+02  0.00000000000E+00 0.  1.
          2    1    1    2  501    0  0.72798272678E+01 -0.97792319659E+02  0.75423096259E+02  0.12371328594E+03  0.00000000000E+00 0.  1.
          1    1    1    2  502    0 -0.23452136087E+01  0.36041764226E+02 -0.13543393016E+02  0.38573725381E+02  0.00000000000E+00 0.  1.
         22    1    1    2    0    0 -0.16305322049E+02  0.37455778471E+02  0.20787896297E+03  0.21185481376E+03  0.00000000000E+00 0.  1.
         22    1    1    2    0    0  0.11370708389E+02  0.24294776962E+02 -0.12406599214E+02  0.29554236600E+02  0.00000000000E+00 0.  1.
</event>
<event>
 6    1  0.2406404E-005  0.1430017E+03  0.7818608E-02  0.1210669E+00
          2   -1    0    0  502    0  0.00000000000E+00  0.00000000000E+00  0.13214131962E+03  0.13214131962E+03  0.00000000000E+00 0.  1.
          1   -1    0    0  501    0 -0.00000000000E+00 -0.00000000000E+00 -0.41385224527E+03  0.41385224527E+03  0.00000000000E+00 0. -1.
          2    1    1    2  501    0  0.47651026302E+02  0.91889986083E+02  0.47910027157E+02  0.11406033733E+03  0.00000000000E+00 0.  1.
          1    1    1    2  502    0 -0.30091040470E+02 -0.11200675434E+03 -0.26229181928E+03  0.28678909009E+03  0.00000000000E+00 0. -1.
         22    1    1    2    0    0 -0.12514798863E+02  0.36672025564E+02  0.28286485806E+02  0.47974815568E+02  0.00000000000E+00 0.  1.
         22    1    1    2    0    0 -0.50451869688E+01 -0.16555257302E+02 -0.95615619336E+02  0.97169321892E+02  0.00000000000E+00 0. -1.
</event>
<event>
 6    1  0.2406404E-005  0.8081271E+02  0.7818608E-02  0.1328486E+00
          2   -1    0    0  502    0  0.00000000000E+00  0.00000000000E+00  0.22562706754E+03  0.22562706754E+03  0.00000000000E+00 0. -1.
          1   -1    0    0  501    0 -0.00000000000E+00 -0.00000000000E+00 -0.50738002761E+02  0.50738002761E+02  0.00000000000E+00 0. -1.
          2    1    1    2  501    0 -0.63589081579E+01  0.49035255709E+02  0.90864536307E+02  0.10344687513E+03  0.00000000000E+00 0. -1.
          1    1    1    2  502    0 -0.12425022959E+01 -0.23336282072E+02  0.17061507360E+02  0.28934769850E+02  0.00000000000E+00 0. -1.
         22    1    1    2    0    0 -0.80598373843E+01 -0.46771152317E+02 -0.21210194819E+02  0.51984363341E+02  0.00000000000E+00 0. -1.
         22    1    1    2    0    0  0.15661247838E+02  0.21072178679E+02  0.88173215935E+02  0.91999061987E+02  0.00000000000E+00 0. -1.
</event>
<event>
 6    1  0.2406404E-005  0.8768621E+02  0.7818608E-02  0.1318014E+00
          2   -1    0    0  502    0  0.00000000000E+00  0.00000000000E+00  0.50543814053E+02  0.50543814053E+02  0.00000000000E+00 0. -1.
          1   -1    0    0  501    0 -0.00000000000E+00 -0.00000000000E+00 -0.24646080812E+03  0.24646080812E+03  0.00000000000E+00 0. -1.
          2    1    1    2  501    0 -0.39985655385E+02  0.31782342091E+02 -0.14011526281E+02  0.52965014624E+02  0.00000000000E+00 0. -1.
          1    1    1    2  502    0  0.12880354583E+02 -0.30240699687E+02 -0.48667862923E+02  0.58727883779E+02  0.00000000000E+00 0. -1.
         22    1    1    2    0    0  0.15035162973E+02  0.28027516902E+02  0.13927175042E+02  0.34721233186E+02  0.00000000000E+00 0. -1.
         22    1    1    2    0    0  0.12070137829E+02 -0.29569159307E+02 -0.14716477990E+03  0.15059049058E+03  0.00000000000E+00 0. -1.
</event>
<event>
 6    1  0.2406404E-005  0.1183767E+03  0.7818608E-02  0.1246465E+00
          2   -1    0    0  502    0  0.00000000000E+00  0.00000000000E+00  0.51878096677E+03  0.51878096677E+03  0.00000000000E+00 0.  1.
          1   -1    0    0  501    0 -0.00000000000E+00 -0.00000000000E+00 -0.25006278173E+03  0.25006278173E+03  0.00000000000E+00 0.  1.
          2    1    1    2  501    0 -0.75813175001E+02 -0.58260047237E+02  0.41580782363E+03  0.42665913421E+03  0.00000000000E+00 0.  1.
          1    1    1    2  502    0  0.60629626368E+02  0.67880929799E+02 -0.18737193884E+03  0.20830750272E+03  0.00000000000E+00 0.  1.
         22    1    1    2    0    0 -0.10017003040E+02 -0.18552826642E+02  0.81811979511E+02  0.84485192299E+02  0.00000000000E+00 0. -1.
         22    1    1    2    0    0  0.25200551672E+02  0.89319440802E+01 -0.41529679264E+02  0.49391919272E+02  0.00000000000E+00 0. -1.
</event>
<event>
 6    1  0.2406404E-005  0.5056527E+02  0.7818608E-02  0.1442319E+00
          2   -1    0    0  502    0  0.00000000000E+00  0.00000000000E+00  0.11247094314E+03  0.11247094314E+03  0.00000000000E+00 0.  1.
          1   -1    0    0  501    0 -0.00000000000E+00 -0.00000000000E+00 -0.13237379187E+03  0.13237379187E+03  0.00000000000E+00 0.  1.
          2    1    1    2  501    0  0.22006899253E+02  0.43016893539E+01  0.56483520045E+02  0.60771672535E+02  0.00000000000E+00 0.  1.
          1    1    1    2  502    0 -0.26479861448E+02 -0.61872649258E+01 -0.53579848722E+02  0.60085484925E+02  0.00000000000E+00 0.  1.
         22    1    1    2    0    0  0.25216613051E+02  0.10344852808E+02  0.44980851965E+02  0.52594397010E+02  0.00000000000E+00 0.  1.
         22    1    1    2    0    0 -0.20743650855E+02 -0.84592772361E+01 -0.67787372018E+02  0.71393180538E+02  0.00000000000E+00 0. -1.
</event>
<event>
 6    1  0.2406404E-005  0.1157265E+03  0.7818608E-02  0.1264116E+00
          2   -1    0    0  502    0  0.00000000000E+00  0.00000000000E+00  0.19499671141E+03  0.19499671141E+03  0.00000000000E+00 0.  1.
          1   -1    0    0  501    0 -0.00000000000E+00 -0.00000000000E+00 -0.51078945155E+03  0.51078945155E+03  0.00000000000E+00 0. -1.
          2    1    1    2  501    0  0.20373153609E+02 -0.68975842568E+02  0.17239641083E+03  0.18679736270E+03  0.00000000000E+00 0.  1.
          1    1    1    2  502    0 -0.26476609152E+02 -0.52976930129E+01 -0.14762404505E+03  0.15007309906E+03  0.00000000000E+00 0. -1.
         22    1    1    2    0    0 -0.10501226574E+02  0.60214385487E+02 -0.34170494682E+03  0.34712867738E+03  0.00000000000E+00 0.  1.
         22    1    1    2    0    0  0.16604682117E+02  0.14059150094E+02  0.11398409083E+01  0.21787023818E+02  0.00000000000E+00 0. -1.
</event>
<event>
 6    1  0.2406404E-005  0.5312235E+02  0.7818608E-02  0.1512292E+00
          2   -1    0    0  502    0  0.00000000000E+00  0.00000000000E+00  0.72263969101E+02  0.72263969101E+02  0.00000000000E+00 0. -1.
          1   -1    0    0  501    0 -0.00000000000E+00 -0.00000000000E+00 -0.27248809001E+03  0.27248809001E+03  0.00000000000E+00 0. -1.
          2    1    1    2  501    0  0.24379485415E+02 -0.57595889444E+02  0.15109128763E+02  0.64342299943E+02  0.00000000000E+00 0. -1.
          1    1    1    2  502    0 -0.47154106253E+02  0.19339644489E+02 -0.58706613520E+02  0.77743154403E+02  0.00000000000E+00 0. -1.
         22    1    1    2    0    0  0.10703640005E+02  0.45763105103E+02 -0.17399051810E+03  0.18022633017E+03  0.00000000000E+00 0. -1.
         22    1    1    2    0    0  0.12070980833E+02 -0.75068601479E+01  0.17363881948E+02  0.22440274594E+02  0.00000000000E+00 0. -1.
</event>
<event>
 6    1  0.2406404E-005  0.6199417E+02  0.7818608E-02  0.1454059E+00
          2   -1    0    0  502    0  0.00000000000E+00  0.00000000000E+00  0.28011378822E+03  0.28011378822E+03  0.00000000000E+00 0. -1.
          1   -1    0    0  501    0 -0.00000000000E+00 -0.00000000000E+00 -0.58906454359E+03  0.58906454359E+03  0.00000000000E+00 0. -1.
          2    1    1    2  501    0  0.72519236205E+01 -0.31315212668E+02  0.20673754739E+03  0.20922152481E+03  0.00000000000E+00 0. -1.
          1    1    1    2  502    0 -0.28895378167E+02  0.73641366295E+02 -0.52442210830E+03  0.53035510875E+03  0.00000000000E+00 0. -1.
         22    1    1    2    0    0  0.10576438731E+02 -0.20501005738E+02 -0.55909556366E+02  0.60481656604E+02  0.00000000000E+00 0.  1.
         22    1    1    2    0    0  0.11067015816E+02 -0.21825147889E+02  0.64643361900E+02  0.69120041646E+02  0.00000000000E+00 0. -1.
</event>
<event>
 6    1  0.2406404E-005  0.5923275E+02  0.7818608E-02  0.1404283E+00
          2   -1    0    0  502    0  0.00000000000E+00  0.00000000000E+00  0.10705408122E+03  0.10705408122E+03  0.00000000000E+00 0. -1.
          1   -1    0    0  501    0 -0.00000000000E+00 -0.00000000000E+00 -0.15069501627E+03  0.15069501627E+03  0.00000000000E+00 0.  1.
          2    1    1    2  501    0 -0.23592128127E+02  0.29715961870E+02  0.62064752322E+02  0.72743799600E+02  0.00000000000E+00 0. -1.
          1    1    1    2  502    0  0.12972923266E+02 -0.18183801848E+02 -0.40002694105E+02  0.45816622785E+02  0.00000000000E+00 0.  1.
         22    1    1    2    0    0  0.51842482724E+01  0.20577565963E+02  0.30763974147E+02  0.37372914743E+02  0.00000000000E+00 0. -1.
         22    1    1    2    0    0  0.54349565884E+01 -0.32109725985E+02 -0.96466967411E+02  0.10181576036E+03  0.00000000000E+00 0.  1.
</event>
<event>
 6    1  0.2406404E-005  0.6497724E+02  0.7818608E-02  0.1419789E+00
          2   -1    0    0  502    0  0.00000000000E+00  0.00000000000E+00  0.86200516437E+02  0.86200516437E+02  0.00000000000E+00 0. -1.
          1   -1    0    0  501    0 -0.00000000000E+00 -0.00000000000E+00 -0.14047045971E+03  0.14047045971E+03  0.00000000000E+00 0. -1.
          2    1    1    2  501    0 -0.25180891904E+02 -0.22537645048E+02  0.16294828418E+02  0.37517251959E+02  0.00000000000E+00 0. -1.
          1    1    1    2  502    0  0.27114711546E+02  0.29534518858E+02 -0.44018175881E+02  0.59540701997E+02  0.00000000000E+00 0. -1.
         22    1    1    2    0    0 -0.34292104589E+02  0.17309256870E+01  0.41438808878E+02  0.53815605748E+02  0.00000000000E+00 0. -1.
         22    1    1    2    0    0  0.32358284947E+02 -0.87277994969E+01 -0.67985404691E+02  0.75797416445E+02  0.00000000000E+00 0. -1.
</event>
<event>
 6    1  0.2406404E-005  0.9492712E+02  0.7818608E-02  0.1323386E+00
          2   -1    0    0  502    0  0.00000000000E+00  0.00000000000E+00  0.18975505334E+03  0.18975505334E+03  0.00000000000E+00 0. -1.
          1   -1    0    0  501    0 -0.00000000000E+00 -0.00000000000E+00 -0.20089186539E+03  0.20089186539E+03  0.00000000000E+00 0. -1.
          2    1    1    2  501    0 -0.13726314613E+02 -0.98850761392E+02  0.11710447163E+03  0.15386143771E+03  0.00000000000E+00 0. -1.
          1    1    1    2  502    0  0.61543507825E+01  0.58678943698E+02 -0.12563142305E+02  0.60323519556E+02  0.00000000000E+00 0. -1.
         22    1    1    2    0    0  0.53301175325E+01  0.52664038338E+02 -0.13964573421E+03  0.14934136121E+03  0.00000000000E+00 0. -1.
         22    1    1    2    0    0  0.22418462976E+01 -0.12492220643E+02  0.23967592836E+02  0.27120600247E+02  0.00000000000E+00 0.  1.
</event>
<event>
 6    1  0.2406404E-005  0.4178554E+03  0.7818608E-02  0.1038944E+00
          2   -1    0    0  502    0  0.00000000000E+00  0.00000000000E+00  0.16202416310E+04  0.16202416310E+04  0.00000000000E+00 0.  1.
          1   -1    0    0  501    0 -0.00000000000E+00 -0.00000000000E+00 -0.17985027425E+03  0.17985027425E+03  0.00000000000E+00 0.  1.
          2    1    1    2  501    0  0.26452787568E+03 -0.95458524194E+01  0.72121774842E+03  0.76825852481E+03  0.00000000000E+00 0.  1.
          1    1    1    2  502    0 -0.36597424373E+03  0.39600192117E+02  0.85743712583E+02  0.37796468954E+03  0.00000000000E+00 0.  1.
         22    1    1    2    0    0  0.12744925398E+03 -0.22049240121E+02  0.57567221276E+03  0.59002370959E+03  0.00000000000E+00 0.  1.
         22    1    1    2    0    0 -0.26002885927E+02 -0.80050995765E+01  0.57757682993E+02  0.63844981326E+02  0.00000000000E+00 0.  1.
</event>
<event>
 6    1  0.2406404E-005  0.7928248E+02  0.7818608E-02  0.1443148E+00
          2   -1    0    0  502    0  0.00000000000E+00  0.00000000000E+00  0.31484217074E+03  0.31484217074E+03  0.00000000000E+00 0.  1.
          1   -1    0    0  501    0 -0.00000000000E+00 -0.00000000000E+00 -0.47414061654E+03  0.47414061654E+03  0.00000000000E+00 0. -1.
          2    1    1    2  501    0 -0.30159935714E+02  0.98105706447E+02 -0.11632413298E+01  0.10264357988E+03  0.00000000000E+00 0.  1.
          1    1    1    2  502    0  0.36798991555E+01 -0.28306902718E+02 -0.40047391961E+03  0.40148995340E+03  0.00000000000E+00 0. -1.
         22    1    1    2    0    0  0.38981410546E+02 -0.66393440677E+02  0.25521930671E+03  0.26657932000E+03  0.00000000000E+00 0.  1.
         22    1    1    2    0    0 -0.12501373988E+02 -0.34053630515E+01 -0.12880591576E+02  0.18269934002E+02  0.00000000000E+00 0. -1.
</event>
<event>
 6    1  0.2406404E-005  0.4891208E+02  0.7818608E-02  0.1451801E+00
          2   -1    0    0  502    0  0.00000000000E+00  0.00000000000E+00  0.80003057518E+02  0.80003057518E+02  0.00000000000E+00 0.  1.
          1   -1    0    0  501    0 -0.00000000000E+00 -0.00000000000E+00 -0.15594018542E+03  0.15594018542E+03  0.00000000000E+00 0.  1.
          2    1    1    2  501    0 -0.12163982230E+02  0.16110726268E+02  0.29384636753E+02  0.35650734097E+02  0.00000000000E+00 0.  1.
          1    1    1    2  502    0  0.26807887810E+02 -0.84157976596E+01 -0.62115848468E+02  0.68175267729E+02  0.00000000000E+00 0.  1.
         22    1    1    2    0    0  0.13285876135E+02 -0.12561747105E+02 -0.82030352868E+02  0.84043386335E+02  0.00000000000E+00 0. -1.
         22    1    1    2    0    0 -0.27929781715E+02  0.48668184968E+01  0.38824436684E+02  0.48073854773E+02  0.00000000000E+00 0.  1.
</event>
<event>
 6    1  0.2406404E-005  0.7849109E+02  0.7818608E-02  0.1342237E+00
          2   -1    0    0  502    0  0.00000000000E+00  0.00000000000E+00  0.35531646716E+03  0.35531646716E+03  0.00000000000E+00 0.  1.
          1   -1    0    0  501    0 -0.00000000000E+00 -0.00000000000E+00 -0.10757939957E+03  0.10757939957E+03  0.00000000000E+00 0. -1.
          2    1    1    2  501    0 -0.52922149149E+02  0.66421155350E+01  0.28733054024E+03  0.29223913311E+03  0.00000000000E+00 0.  1.
          1    1    1    2  502    0  0.13807290111E+02  0.16677677752E+02 -0.26100320235E+02  0.33911840289E+02  0.00000000000E+00 0. -1.
         22    1    1    2    0    0  0.52352572754E+02 -0.22065427604E+02 -0.63380312699E+02  0.85116032609E+02  0.00000000000E+00 0. -1.
         22    1    1    2    0    0 -0.13237713716E+02 -0.12543656837E+01  0.49887160287E+02  0.51628860719E+02  0.00000000000E+00 0.  1.
</event>
<event>
 6    1  0.2406404E-005  0.9807415E+02  0.7818608E-02  0.1294337E+00
          2   -1    0    0  502    0  0.00000000000E+00  0.00000000000E+00  0.30869273208E+02  0.30869273208E+02  0.00000000000E+00 0. -1.
          1   -1    0    0  501    0 -0.00000000000E+00 -0.00000000000E+00 -0.27506875469E+03  0.27506875469E+03  0.00000000000E+00 0. -1.
          2    1    1    2  501    0 -0.22263267244E+01  0.22913717678E+02 -0.39737145888E+02  0.45924239262E+02  0.00000000000E+00 0. -1.
          1    1    1    2  502    0  0.26093107795E+02 -0.16209887984E+02 -0.53915836821E+02  0.62052624465E+02  0.00000000000E+00 0. -1.
         22    1    1    2    0    0  0.44318802930E+01  0.54405069072E+02 -0.36990772081E+02  0.65938382774E+02  0.00000000000E+00 0.  1.
         22    1    1    2    0    0 -0.28298661364E+02 -0.61108898766E+02 -0.11355572669E+03  0.13202278140E+03  0.00000000000E+00 0. -1.
</event>
<event>
 6    1  0.2406404E-005  0.8512692E+02  0.7818608E-02  0.1363950E+00
          2   -1    0    0  502    0  0.00000000000E+00  0.00000000000E+00  0.16868154144E+03  0.16868154144E+03  0.00000000000E+00 0. -1.
          1   -1    0    0  501    0 -0.00000000000E+00 -0.00000000000E+00 -0.13441245179E+03  0.13441245179E+03  0.00000000000E+00 0.  1.
          2    1    1    2  501    0 -0.94133422225E+01  0.73785941328E+02  0.76321721267E+02  0.10657383021E+03  0.00000000000E+00 0. -1.
          1    1    1    2  502    0  0.12350849838E+02 -0.58890677735E+02 -0.13262678907E+00  0.60172028432E+02  0.00000000000E+00 0.  1.
         22    1    1    2    0    0 -0.49022547038E+01  0.21537671843E+02  0.40545442353E+02  0.46171812887E+02  0.00000000000E+00 0. -1.
         22    1    1    2    0    0  0.19647470879E+01 -0.36432935437E+02 -0.82465447186E+02  0.90176321700E+02  0.00000000000E+00 0.  1.
</event>
<event>
 6    1  0.2406404E-005  0.7237019E+02  0.7818608E-02  0.1353191E+00
          2   -1    0    0  502    0  0.00000000000E+00  0.00000000000E+00  0.92156464523E+02  0.92156464523E+02  0.00000000000E+00 0. -1.
          1   -1    0    0  501    0 -0.00000000000E+00 -0.00000000000E+00 -0.94135088118E+02  0.94135088118E+02  0.00000000000E+00 0.  1.
          2    1    1    2  501    0 -0.17384551218E+02 -0.12170577511E+02  0.52431700006E+01  0.21859469565E+02  0.00000000000E+00 0. -1.
          1    1    1    2  502    0  0.23786840942E+02  0.29533458903E+02 -0.19033711712E+02  0.42430191825E+02  0.00000000000E+00 0.  1.
         22    1    1    2    0    0  0.20468971975E+02  0.21535002533E+02 -0.41312745163E+02  0.50886914435E+02  0.00000000000E+00 0.  1.
         22    1    1    2    0    0 -0.26871261698E+02 -0.38897883925E+02  0.53124663279E+02  0.71114976817E+02  0.00000000000E+00 0. -1.
</event>
<event>
 6    1  0.2406404E-005  0.2190552E+03  0.7818608E-02  0.1135624E+00
          2   -1    0    0  502    0  0.00000000000E+00  0.00000000000E+00  0.77686932350E+03  0.77686932350E+03  0.00000000000E+00 0. -1.
          1   -1    0    0  501    0 -0.00000000000E+00 -0.00000000000E+00 -0.29108482623E+03  0.29108482623E+03  0.00000000000E+00 0. -1.
          2    1    1    2  501    0 -0.55123739398E+02 -0.19129441529E+03  0.70154394030E+03  0.72924349852E+03  0.00000000000E+00 0. -1.
          1    1    1    2  502    0  0.31372974176E+02  0.93129319154E+02 -0.64307805273E+02  0.11744286872E+03  0.00000000000E+00 0. -1.
         22    1    1    2    0    0  0.24824119791E+02  0.10917515871E+03 -0.16768252775E+03  0.20162559936E+03  0.00000000000E+00 0. -1.
         22    1    1    2    0    0 -0.10733545689E+01 -0.11010062578E+02  0.16230889993E+02  0.19642183126E+02  0.00000000000E+00 0. -1.
</event>
<event>
 6    1  0.8479141E-005  0.1465611E+03  0.7818608E-02  0.1309289E+00
          2   -1    0    0  502    0  0.00000000000E+00  0.00000000000E+00  0.53233628783E+03  0.53233628783E+03  0.00000000000E+00 0.  1.
          1   -1    0    0  501    0 -0.00000000000E+00 -0.00000000000E+00 -0.45277266774E+03  0.45277266774E+03  0.00000000000E+00 0.  1.
          2    1    1    2  501    0  0.13859884035E+03  0.23622780668E+02  0.43926042535E+03  0.46121296121E+03  0.00000000000E+00 0.  1.
          1    1    1    2  502    0 -0.12579022841E+03 -0.44791825927E+02 -0.37496472674E+03  0.39803019425E+03  0.00000000000E+00 0.  1.
         22    1    1    2    0    0 -0.10226294925E+01  0.18501278394E+02  0.68663572832E+02  0.71119823589E+02  0.00000000000E+00 0. -1.
         22    1    1    2    0    0 -0.11785982445E+02  0.26677668646E+01 -0.53395651354E+02  0.54745976526E+02  0.00000000000E+00 0.  1.
</event>
<event>
 6    1  0.2406404E-005  0.4509568E+02  0.7818608E-02  0.1519655E+00
          2   -1    0    0  502    0  0.00000000000E+00  0.00000000000E+00  0.24942632212E+03  0.24942632212E+03  0.00000000000E+00 0. -1.
          1   -1    0    0  501    0 -0.00000000000E+00 -0.00000000000E+00 -0.12946100382E+03  0.12946100382E+03  0.00000000000E+00 0.  1.
          2    1    1    2  501    0  0.24601140350E+02 -0.18300774735E+02  0.19686133218E+03  0.19923483273E+03  0.00000000000E+00 0. -1.
          1    1    1    2  502    0 -0.20231182621E+02  0.64756581111E+01 -0.49193281212E+02  0.53583708482E+02  0.00000000000E+00 0.  1.
         22    1    1    2    0    0 -0.23767499346E+02 -0.21770435935E+01 -0.71929756304E+02  0.75786036880E+02  0.00000000000E+00 0.  1.
         22    1    1    2    0    0  0.19397541618E+02  0.14002160217E+02  0.44227023637E+02  0.50282747850E+02  0.00000000000E+00 0.  1.
</event>
<event>
 6    1  0.2698680E-005  0.1283133E+03  0.7818608E-02  0.1230660E+00
          2   -1    0    0  502    0  0.00000000000E+00  0.00000000000E+00  0.35035732330E+03  0.35035732330E+03  0.00000000000E+00 0.  1.
          1   -1    0    0  501    0 -0.00000000000E+00 -0.00000000000E+00 -0.81600087751E+03  0.81600087751E+03  0.00000000000E+00 0.  1.
          2    1    1    2  501    0  0.90585203353E+01 -0.10444118221E+03  0.28175046941E+03  0.30062159660E+03  0.00000000000E+00 0.  1.
          1    1    1    2  502    0 -0.26873581914E+02  0.10900781634E+03 -0.73474000249E+03  0.74326829926E+03  0.00000000000E+00 0.  1.
         22    1    1    2    0    0  0.30093666569E+01  0.13288921600E+02 -0.64366024849E+02  0.65792377064E+02  0.00000000000E+00 0. -1.
         22    1    1    2    0    0  0.14805694922E+02 -0.17855555735E+02  0.51712003714E+02  0.56675927878E+02  0.00000000000E+00 0.  1.
</event>
<event>
 6    1  0.2406404E-005  0.1446437E+03  0.7818608E-02  0.1208836E+00
          2   -1    0    0  502    0  0.00000000000E+00  0.00000000000E+00  0.55550290545E+03  0.55550290545E+03  0.00000000000E+00 0. -1.
          1   -1    0    0  501    0 -0.00000000000E+00 -0.00000000000E+00 -0.36519835299E+02  0.36519835299E+02  0.00000000000E+00 0.  1.
          2    1    1    2  501    0 -0.57884675076E+02 -0.48311643316E+02  0.90225050013E+02  0.11758065376E+03  0.00000000000E+00 0. -1.
          1    1    1    2  502    0 -0.16068378168E+01  0.61827101783E+02  0.14523882509E+03  0.15785907879E+03  0.00000000000E+00 0.  1.
         22    1    1    2    0    0  0.69003286288E+02  0.42863552784E+02  0.13657381998E+03  0.15890609170E+03  0.00000000000E+00 0.  1.
         22    1    1    2    0    0 -0.95117733947E+01 -0.56379011252E+02  0.14694537507E+03  0.15767691650E+03  0.00000000000E+00 0. -1.
</event>
<event>
 6    1  0.2406404E-005  0.5426983E+02  0.7818608E-02  0.1469446E+00
          2   -1    0    0  502    0  0.00000000000E+00  0.00000000000E+00  0.27429912530E+03  0.27429912530E+03  0.00000000000E+00 0. -1.
          1   -1    0    0  501    0 -0.00000000000E+00 -0.00000000000E+00 -0.70617443775E+03  0.70617443775E+03  0.00000000000E+00 0.  1.
          2    1    1    2  501    0 -0.41526234830E+02 -0.43561308374E+02  0.20731883148E+03  0.21587754318E+03  0.00000000000E+00 0. -1.
          1    1    1    2  502    0  0.65315576783E+02  0.25776815234E+02 -0.62890543085E+03  0.63281325028E+03  0.00000000000E+00 0.  1.
         22    1    1    2    0    0 -0.34510517501E+02  0.38656160833E+01  0.54517048341E+02  0.64637662131E+02  0.00000000000E+00 0. -1.
         22    1    1    2    0    0  0.10721175548E+02  0.13918877057E+02 -0.64805761415E+02  0.67145107463E+02  0.00000000000E+00 0.  1.
</event>
<event>
 6    1  0.2406404E-005  0.3935003E+02  0.7818608E-02  0.1593636E+00
          2   -1    0    0  502    0  0.00000000000E+00  0.00000000000E+00  0.99299544345E+02  0.99299544345E+02  0.00000000000E+00 0. -1.
          1   -1    0    0  501    0 -0.00000000000E+00 -0.00000000000E+00 -0.30518892522E+03  0.30518892522E+03  0.00000000000E+00 0.  1.
          2    1    1    2  501    0 -0.49655010032E+02  0.55285710100E+01  0.37476011515E+02  0.62455076317E+02  0.00000000000E+00 0. -1.
          1    1    1    2  502    0  0.22878411334E+02  0.14520298449E+01 -0.20157369957E+03  0.20287307966E+03  0.00000000000E+00 0.  1.
         22    1    1    2    0    0  0.11459748937E+02 -0.80932321123E+01  0.47000571386E+02  0.49049770258E+02  0.00000000000E+00 0. -1.
         22    1    1    2    0    0  0.15316849761E+02  0.11126312574E+01 -0.88792264212E+02  0.90110543328E+02  0.00000000000E+00 0.  1.
</event>
<event>
 6    1  0.2406404E-005  0.1441515E+03  0.7818608E-02  0.1236349E+00
          2   -1    0    0  502    0  0.00000000000E+00  0.00000000000E+00  0.72686857278E+02  0.72686857278E+02  0.00000000000E+00 0. -1.
          1   -1    0    0  501    0 -0.00000000000E+00 -0.00000000000E+00 -0.17237425213E+03  0.17237425213E+03  0.00000000000E+00 0. -1.
          2    1    1    2  501    0  0.53332841453E+01 -0.29381569151E+02 -0.78606002729E+02  0.84087003696E+02  0.00000000000E+00 0. -1.
          1    1    1    2  502    0 -0.27811752067E+02 -0.91717657129E+01  0.26625717470E+01  0.29405851928E+02  0.00000000000E+00 0. -1.
         22    1    1    2    0    0  0.67407213428E+02  0.34994866787E+02  0.81052196524E+01  0.76381069050E+02  0.00000000000E+00 0.  1.
         22    1    1    2    0    0 -0.44928745506E+02  0.35584680767E+01 -0.31849183520E+02  0.55187184732E+02  0.00000000000E+00 0. -1.
</event>
<event>
 6    1  0.2406404E-005  0.9528740E+02  0.7818608E-02  0.1299214E+00
          2   -1    0    0  502    0  0.00000000000E+00  0.00000000000E+00  0.30318248197E+03  0.30318248197E+03  0.00000000000E+00 0.  1.
          1   -1    0    0  501    0 -0.00000000000E+00 -0.00000000000E+00 -0.29694782768E+02  0.29694782768E+02  0.00000000000E+00 0. -1.
          2    1    1    2  501    0  0.28002635799E+02 -0.14240355170E+02  0.27424871267E+02  0.41702025024E+02  0.00000000000E+00 0.  1.
          1    1    1    2  502    0 -0.25027602192E+02  0.16967334084E+02  0.36437975922E+02  0.47349734812E+02  0.00000000000E+00 0. -1.
         22    1    1    2    0    0 -0.34000972988E+02  0.35237685997E+02  0.29543645983E+02  0.57189052244E+02  0.00000000000E+00 0. -1.
         22    1    1    2    0    0  0.31025939382E+02 -0.37964664911E+02  0.18008120603E+03  0.18663645266E+03  0.00000000000E+00 0.  1.
</event>
<event>
 6    1  0.2406404E-005  0.5104585E+02  0.7818608E-02  0.1440056E+00
          2   -1    0    0  502    0  0.00000000000E+00  0.00000000000E+00  0.12385866148E+03  0.12385866148E+03  0.00000000000E+00 0. -1.
          1   -1    0    0  501    0 -0.00000000000E+00 -0.00000000000E+00 -0.12819225196E+03  0.12819225196E+03  0.00000000000E+00 0. -1.
          2    1    1    2  501    0  0.88905651687E+01 -0.31061016842E+02  0.58082623977E+02  0.66463675225E+02  0.00000000000E+00 0. -1.
          1    1    1    2  502    0 -0.78795050640E+01  0.27309932603E+02 -0.51104309415E+02  0.58477084910E+02  0.00000000000E+00 0. -1.
         22    1    1    2    0    0 -0.12079513556E+02  0.16823457400E+02 -0.66329541899E+02  0.69487779466E+02  0.00000000000E+00 0. -1.
         22    1    1    2    0    0  0.11068453451E+02 -0.13072373161E+02  0.55017636859E+02  0.57622373844E+02  0.00000000000E+00 0.  1.
</event>
<event>
 6    1  0.2406404E-005  0.8971620E+02  0.7818608E-02  0.1336875E+00
          2   -1    0    0  502    0  0.00000000000E+00  0.00000000000E+00  0.39894027824E+03  0.39894027824E+03  0.00000000000E+00 0. -1.
          1   -1    0    0  501    0 -0.00000000000E+00 -0.00000000000E+00 -0.13783291151E+03  0.13783291151E+03  0.00000000000E+00 0.  1.
          2    1    1    2  501    0  0.62204048780E+02 -0.84972040076E+02  0.13085487484E+03  0.16796603689E+03  0.00000000000E+00 0. -1.
          1    1    1    2  502    0 -0.85371427081E+01  0.67165013919E+02 -0.88977232038E+02  0.11180773552E+03  0.00000000000E+00 0.  1.
         22    1    1    2    0    0 -0.42130221702E+01  0.18490542924E+02 -0.10724321605E+02  0.21786711714E+02  0.00000000000E+00 0.  1.
         22    1    1    2    0    0 -0.49453883901E+02 -0.68351676726E+00  0.22995404554E+03  0.23521270562E+03  0.00000000000E+00 0. -1.
</event>
<event>
 6    1  0.2406404E-005  0.5967822E+02  0.7818608E-02  0.1411622E+00
          2   -1    0    0  502    0  0.00000000000E+00  0.00000000000E+00  0.17749094404E+03  0.17749094404E+03  0.00000000000E+00 0. -1.
          1   -1    0    0  501    0 -0.00000000000E+00 -0.00000000000E+00 -0.13641102183E+03  0.13641102183E+03  0.00000000000E+00 0. -1.
          2    1    1    2  501    0 -0.17205634148E+02 -0.19615344802E+02  0.10685260924E+03  0.10999216199E+03  0.00000000000E+00 0. -1.
          1    1    1    2  502    0  0.27606880780E+02  0.37248903614E+01 -0.76066525756E+02  0.81006981274E+02  0.00000000000E+00 0. -1.
         22    1    1    2    0    0  0.70042001167E+01  0.29504713140E+02 -0.50117022624E+02  0.58577323885E+02  0.00000000000E+00 0.  1.
         22    1    1    2    0    0 -0.17405446749E+02 -0.13614258700E+02  0.60410861350E+02  0.64325498720E+02  0.00000000000E+00 0. -1.
</event>
<event>
 6    1  0.2406404E-005  0.1055534E+03  0.7818608E-02  0.1296604E+00
          2   -1    0    0  502    0  0.00000000000E+00  0.00000000000E+00  0.65464960987E+02  0.65464960987E+02  0.00000000000E+00 0. -1.
          1   -1    0    0  501    0 -0.00000000000E+00 -0.00000000000E+00 -0.21364679546E+03  0.21364679546E+03  0.00000000000E+00 0.  1.
          2    1    1    2  501    0  0.19999544848E+01 -0.46630567951E+02  0.15256870689E+02  0.49103785888E+02  0.00000000000E+00 0. -1.
          1    1    1    2  502    0  0.83215340531E+01  0.22191587761E+02  0.75857188014E+00  0.23712653323E+02  0.00000000000E+00 0.  1.
         22    1    1    2    0    0 -0.11243572053E+02  0.37424078492E+02 -0.18092628546E+03  0.18509808301E+03  0.00000000000E+00 0.  1.
         22    1    1    2    0    0  0.92208351507E+00 -0.12985098302E+02  0.16729008421E+02  0.21197234222E+02  0.00000000000E+00 0.  1.
</event>
<event>
 6    1  0.2406404E-005  0.7040320E+02  0.7818608E-02  0.1366576E+00
          2   -1    0    0  502    0  0.00000000000E+00  0.00000000000E+00  0.80571618085E+02  0.80571618085E+02  0.00000000000E+00 0.  1.
          1   -1    0    0  501    0 -0.00000000000E+00 -0.00000000000E+00 -0.21056301540E+03  0.21056301540E+03  0.00000000000E+00 0.  1.
          2    1    1    2  501    0 -0.22873957063E+02  0.28580046345E+02  0.40812864472E+02  0.54824509731E+02  0.00000000000E+00 0.  1.
          1    1    1    2  502    0 -0.28505334405E+01 -0.32067506707E+02 -0.60144303224E+02  0.68218675871E+02  0.00000000000E+00 0.  1.
         22    1    1    2    0    0  0.27156722232E+02 -0.21296148097E+02 -0.13132938044E+03  0.13578814254E+03  0.00000000000E+00 0.  1.
         22    1    1    2    0    0 -0.14322317281E+01  0.24783608459E+02  0.20669421875E+02  0.32303305352E+02  0.00000000000E+00 0.  1.
</event>
<event>
 6    1  0.2406404E-005  0.4692820E+02  0.7818608E-02  0.1512486E+00
          2   -1    0    0  502    0  0.00000000000E+00  0.00000000000E+00  0.16441639326E+03  0.16441639326E+03  0.00000000000E+00 0. -1.
          1   -1    0    0  501    0 -0.00000000000E+00 -0.00000000000E+00 -0.13868019779E+03  0.13868019779E+03  0.00000000000E+00 0.  1.
          2    1    1    2  501    0 -0.38251292360E+02 -0.24943271312E+02  0.60533011617E+02  0.75825943096E+02  0.00000000000E+00 0. -1.
          1    1    1    2  502    0  0.82839921716E+01 -0.43736119936E+02 -0.67046133753E+02  0.80477678673E+02  0.00000000000E+00 0.  1.
         22    1    1    2    0    0  0.12386768958E+02  0.53271856227E+02 -0.41994747550E+02  0.68955649028E+02  0.00000000000E+00 0. -1.
         22    1    1    2    0    0  0.17580531231E+02  0.15407535020E+02  0.74244065158E+02  0.77837320258E+02  0.00000000000E+00 0. -1.
</event>
<event>
 6    1  0.2406404E-005  0.5238813E+02  0.7818608E-02  0.1433090E+00
          2   -1    0    0  502    0  0.00000000000E+00  0.00000000000E+00  0.24433064926E+03  0.24433064926E+03  0.00000000000E+00 0.  1.
          1   -1    0    0  501    0 -0.00000000000E+00 -0.00000000000E+00 -0.54529375483E+02  0.54529375483E+02  0.00000000000E+00 0.  1.
          2    1    1    2  501    0  0.19975911002E+02  0.43962731608E+01  0.11564573509E+03  0.11744062450E+03  0.00000000000E+00 0.  1.
          1    1    1    2  502    0 -0.26960863597E+02  0.44394547715E-01 -0.13912100203E+02  0.30338699195E+02  0.00000000000E+00 0.  1.
         22    1    1    2    0    0  0.30590808089E+02  0.20664232053E+01  0.11243219164E+03  0.11653782802E+03  0.00000000000E+00 0.  1.
         22    1    1    2    0    0 -0.23605855494E+02 -0.65070909137E+01 -0.24364552751E+02  0.34542873021E+02  0.00000000000E+00 0.  1.
</event>
<event>
 6    1  0.2406404E-005  0.5456019E+02  0.7818608E-02  0.1492513E+00
          2   -1    0    0  502    0  0.00000000000E+00  0.00000000000E+00  0.23288854753E+03  0.23288854753E+03  0.00000000000E+00 0.  1.
          1   -1    0    0  501    0 -0.00000000000E+00 -0.00000000000E+00 -0.20569279674E+03  0.20569279674E+03  0.00000000000E+00 0.  1.
          2    1    1    2  501    0 -0.30387424445E+02  0.13262390520E+02  0.19230211180E+03  0.19513940855E+03  0.00000000000E+00 0.  1.
          1    1    1    2  502    0  0.32388336980E+02 -0.71107515434E+01 -0.89904247554E+02  0.95824531766E+02  0.00000000000E+00 0.  1.
         22    1    1    2    0    0 -0.19543901614E+02 -0.66212123809E+00  0.32732359137E+02  0.38128858224E+02  0.00000000000E+00 0. -1.
         22    1    1    2    0    0  0.17542989079E+02 -0.54895177383E+01 -0.10793447260E+03  0.10948854573E+03  0.00000000000E+00 0. -1.
</event>
<event>
 6    1  0.2406404E-005  0.1031144E+03  0.7818608E-02  0.1276515E+00
          2   -1    0    0  502    0  0.00000000000E+00  0.00000000000E+00  0.82943069841E+03  0.82943069841E+03  0.00000000000E+00 0.  1.
          1   -1    0    0  501    0 -0.00000000000E+00 -0.00000000000E+00 -0.27715486563E+02  0.27715486563E+02  0.00000000000E+00 0.  1.
          2    1    1    2  501    0 -0.62995729956E+02 -0.71345235992E+01  0.55160461501E+03  0.55523599912E+03  0.00000000000E+00 0.  1.
          1    1    1    2  502    0  0.21827120689E+02  0.27197066035E+02  0.28190675630E+02  0.44842143023E+02  0.00000000000E+00 0.  1.
         22    1    1    2    0    0 -0.26997746550E+02 -0.16909673839E+02  0.16546336277E+03  0.16850204689E+03  0.00000000000E+00 0. -1.
         22    1    1    2    0    0  0.68166355816E+02 -0.31528685967E+01  0.56456558441E+02  0.88565995939E+02  0.00000000000E+00 0. -1.
</event>
<event>
 6    1  0.2406404E-005  0.1079748E+03  0.7818608E-02  0.1275158E+00
          2   -1    0    0  502    0  0.00000000000E+00  0.00000000000E+00  0.23107579939E+02  0.23107579939E+02  0.00000000000E+00 0. -1.
          1   -1    0    0  501    0 -0.00000000000E+00 -0.00000000000E+00 -0.47019256086E+03  0.47019256086E+03  0.00000000000E+00 0.  1.
          2    1    1    2  501    0 -0.26773779492E+02 -0.13365985199E+02 -0.12998853635E+03  0.13338854678E+03  0.00000000000E+00 0. -1.
          1    1    1    2  502    0  0.45049235677E+02  0.18080262798E+01 -0.95551322804E+02  0.10565395347E+03  0.00000000000E+00 0.  1.
         22    1    1    2    0    0 -0.51066764776E+02  0.36346595064E+01 -0.29120889768E+02  0.58898653934E+02  0.00000000000E+00 0. -1.
         22    1    1    2    0    0  0.32791308591E+02  0.79232994126E+01 -0.19242423200E+03  0.19535898662E+03  0.00000000000E+00 0.  1.
</event>
<event>
 6    1  0.2406404E-005  0.1734823E+03  0.7818608E-02  0.1176591E+00
          2   -1    0    0  502    0  0.00000000000E+00  0.00000000000E+00  0.24745296659E+03  0.24745296659E+03  0.00000000000E+00 0. -1.
          1   -1    0    0  501    0 -0.00000000000E+00 -0.00000000000E+00 -0.15400482270E+03  0.15400482270E+03  0.00000000000E+00 0. -1.
          2    1    1    2  501    0 -0.45575283226E+02  0.14668283982E+03  0.11094542531E+03  0.18947783336E+03  0.00000000000E+00 0. -1.
          1    1    1    2  502    0 -0.74851891136E+01 -0.21942433169E+02  0.52477382291E+01  0.23770510848E+02  0.00000000000E+00 0. -1.
         22    1    1    2    0    0  0.63223983247E+02 -0.12169136877E+03 -0.59843070922E+02  0.14962370944E+03  0.00000000000E+00 0. -1.
         22    1    1    2    0    0 -0.10163510907E+02 -0.30490378791E+01  0.37098051274E+02  0.38585735632E+02  0.00000000000E+00 0. -1.
</event>
<event>
 6    1  0.2406404E-005  0.1716530E+03  0.7818608E-02  0.1221850E+00
          2   -1    0    0  502    0  0.00000000000E+00  0.00000000000E+00  0.28595573304E+02  0.28595573304E+02  0.00000000000E+00 0.  1.
          1   -1    0    0  501    0 -0.00000000000E+00 -0.00000000000E+00 -0.22470613770E+04  0.22470613770E+04  0.00000000000E+00 0. -1.
          2    1    1    2  501    0  0.37874388057E+02 -0.22152980315E+02 -0.40680121414E+02  0.59833904149E+02  0.00000000000E+00 0.  1.
          1    1    1    2  502    0 -0.10217012850E+03  0.16310448310E+03 -0.13925138137E+04  0.14057512329E+04  0.00000000000E+00 0. -1.
         22    1    1    2    0    0  0.45243743001E+02 -0.14450720947E+03 -0.77168845420E+03  0.78640473054E+03  0.00000000000E+00 0.  1.
         22    1    1    2    0    0  0.19051997442E+02  0.35557066896E+01 -0.13583414408E+02  0.23667082701E+02  0.00000000000E+00 0. -1.
</event>
<event>
 6    1  0.2406404E-005  0.1367154E+03  0.7818608E-02  0.1223734E+00
          2   -1    0    0  502    0  0.00000000000E+00  0.00000000000E+00  0.79537091841E+03  0.79537091841E+03  0.00000000000E+00 0.  1.
          1   -1    0    0  501    0 -0.00000000000E+00 -0.00000000000E+00 -0.30038943082E+02  0.30038943082E+02  0.00000000000E+00 0. -1.
          2    1    1    2  501    0 -0.44275212392E+02  0.59976754884E+01  0.16538927963E+03  0.17131806781E+03  0.00000000000E+00 0.  1.
          1    1    1    2  502    0  0.81946435503E+02  0.55235755721E+02  0.12938376418E+03  0.16280775606E+03  0.00000000000E+00 0. -1.
         22    1    1    2    0    0 -0.48622084404E+02 -0.76419557900E+02  0.46182675450E+03  0.47062512374E+03  0.00000000000E+00 0.  1.
         22    1    1    2    0    0  0.10950861294E+02  0.15186126691E+02  0.87321770198E+01  0.20658913874E+02  0.00000000000E+00 0. -1.
</event>
<event>
 6    1  0.2406404E-005  0.4257443E+02  0.7818608E-02  0.1527366E+00
          2   -1    0    0  502    0  0.00000000000E+00  0.00000000000E+00  0.14043043881E+03  0.14043043881E+03  0.00000000000E+00 0.  1.
          1   -1    0    0  501    0 -0.00000000000E+00 -0.00000000000E+00 -0.13989591889E+03  0.13989591889E+03  0.00000000000E+00 0.  1.
          2    1    1    2  501    0  0.26900237649E+00  0.45508210619E+02  0.67691347467E+02  0.81567077415E+02  0.00000000000E+00 0.  1.
          1    1    1    2  502    0  0.34711087956E+02 -0.23985071177E+02 -0.44272306511E+02  0.61157014236E+02  0.00000000000E+00 0.  1.
         22    1    1    2    0    0 -0.16130985708E+02 -0.31469358258E+02 -0.74112991307E+02  0.82117383602E+02  0.00000000000E+00 0.  1.
         22    1    1    2    0    0 -0.18849104624E+02  0.99462188154E+01  0.51228470274E+02  0.55484882450E+02  0.00000000000E+00 0. -1.
</event>
<event>
 6    1  0.2406404E-005  0.3564937E+03  0.7818608E-02  0.1183834E+00
          2   -1    0    0  502    0  0.00000000000E+00  0.00000000000E+00  0.24779040729E+04  0.24779040729E+04  0.00000000000E+00 0. -1.
          1   -1    0    0  501    0 -0.00000000000E+00 -0.00000000000E+00 -0.22096645727E+03  0.22096645727E+03  0.00000000000E+00 0.  1.
          2    1    1    2  501    0  0.27198879056E+03  0.18905296380E+03  0.22505687432E+04  0.22748139689E+04  0.00000000000E+00 0. -1.
          1    1    1    2  502    0 -0.19688983556E+03 -0.18134853630E+03 -0.31443325023E+02  0.26952102266E+03  0.00000000000E+00 0.  1.
         22    1    1    2    0    0  0.13440532424E+02 -0.88944037273E+01  0.60925445558E+02  0.63021172998E+02  0.00000000000E+00 0. -1.
         22    1    1    2    0    0 -0.88539487426E+02  0.11899762335E+01 -0.23113248086E+02  0.91514365616E+02  0.00000000000E+00 0. -1.
</event>
<event>
 6    1  0.2406404E-005  0.3310635E+02  0.7818608E-02  0.1655442E+00
          2   -1    0    0  502    0  0.00000000000E+00  0.00000000000E+00  0.26208911134E+03  0.26208911134E+03  0.00000000000E+00 0. -1.
          1   -1    0    0  501    0 -0.00000000000E+00 -0.00000000000E+00 -0.28904818902E+03  0.28904818902E+03  0.00000000000E+00 0. -1.
          2    1    1    2  501    0 -0.13121998035E+02  0.64257233524E+02  0.17791362052E+03  0.18961654796E+03  0.00000000000E+00 0. -1.
          1    1    1    2  502    0  0.51866540697E+01 -0.42970235929E+02 -0.22494587379E+03  0.22907201639E+03  0.00000000000E+00 0. -1.
         22    1    1    2    0    0  0.49051412898E+01  0.94479793620E+01 -0.52504733176E+02  0.53573050417E+02  0.00000000000E+00 0. -1.
         22    1    1    2    0    0  0.30302026757E+01 -0.30734976957E+02  0.72577908773E+02  0.78875685598E+02  0.00000000000E+00 0.  1.
</event>
<event>
 6    1  0.2406404E-005  0.4914403E+02  0.7818608E-02  0.1454769E+00
          2   -1    0    0  502    0  0.00000000000E+00  0.00000000000E+00  0.11388599410E+03  0.11388599410E+03  0.00000000000E+00 0. -1.
          1   -1    0    0  501    0 -0.00000000000E+00 -0.00000000000E+00 -0.16119764762E+03  0.16119764762E+03  0.00000000000E+00 0.  1.
          2    1    1    2  501    0  0.23264400543E+02 -0.61442027014E+01  0.44632991140E+02  0.50705891744E+02  0.00000000000E+00 0. -1.
          1    1    1    2  502    0 -0.31527055215E+02 -0.40893800893E+01 -0.92325985216E+02  0.97646125300E+02  0.00000000000E+00 0.  1.
         22    1    1    2    0    0  0.21175665887E+02  0.12715200895E+02  0.60417974253E+02  0.65271868155E+02  0.00000000000E+00 0. -1.
         22    1    1    2    0    0 -0.12913011215E+02 -0.24816181043E+01 -0.60036633694E+02  0.61459756527E+02  0.00000000000E+00 0. -1.
</event>
<event>
 6    1  0.2406404E-005  0.1545006E+03  0.7818608E-02  0.1196080E+00
          2   -1    0    0  502    0  0.00000000000E+00  0.00000000000E+00  0.10713932481E+03  0.10713932481E+03  0.00000000000E+00 0.  1.
          1   -1    0    0  501    0 -0.00000000000E+00 -0.00000000000E+00 -0.56836830480E+03  0.56836830480E+03  0.00000000000E+00 0. -1.
          2    1    1    2  501    0  0.83578130952E+02 -0.10286828976E+03  0.31853956641E+02  0.13631530936E+03  0.00000000000E+00 0.  1.
          1    1    1    2  502    0 -0.45213840223E+02  0.41971843912E+02 -0.25350341743E+03  0.26090210746E+03  0.00000000000E+00 0. -1.
         22    1    1    2    0    0 -0.43432185783E+02  0.78691838047E+02 -0.24333984035E+03  0.25940901688E+03  0.00000000000E+00 0. -1.
         22    1    1    2    0    0  0.50678950549E+01 -0.17795392201E+02  0.37603211465E+01  0.18881195910E+02  0.00000000000E+00 0.  1.
</event>
<event>
 6    1  0.2406404E-005  0.2573397E+03  0.7818608E-02  0.1125134E+00
          2   -1    0    0  502    0  0.00000000000E+00  0.00000000000E+00  0.31115202344E+03  0.31115202344E+03  0.00000000000E+00 0. -1.
          1   -1    0    0  501    0 -0.00000000000E+00 -0.00000000000E+00 -0.14703151082E+03  0.14703151082E+03  0.00000000000E+00 0. -1.
          2    1    1    2  501    0  0.84429489039E+02  0.10877945043E+03  0.33088898625E+02  0.14161985266E+03  0.00000000000E+00 0. -1.
          1    1    1    2  502    0 -0.74339266784E+02 -0.38430468610E+02  0.14654816452E+03  0.16875897614E+03  0.00000000000E+00 0. -1.
         22    1    1    2    0    0 -0.19562410758E+02 -0.94018199490E+02 -0.47309231492E+02  0.10705266524E+03  0.00000000000E+00 0.  1.
         22    1    1    2    0    0  0.94721885025E+01  0.23669217675E+02  0.31792680961E+02  0.40752040232E+02  0.00000000000E+00 0.  1.
</event>
<event>
 6    1  0.2406404E-005  0.5005827E+02  0.7818608E-02  0.1448689E+00
          2   -1    0    0  502    0  0.00000000000E+00  0.00000000000E+00  0.94074851340E+02  0.94074851340E+02  0.00000000000E+00 0. -1.
          1   -1    0    0  501    0 -0.00000000000E+00 -0.00000000000E+00 -0.38617136596E+03  0.38617136596E+03  0.00000000000E+00 0. -1.
          2    1    1    2  501    0 -0.33282409891E+02  0.14733245513E+02  0.58371091246E+02  0.68789327840E+02  0.00000000000E+00 0. -1.
          1    1    1    2  502    0  0.17395139242E+02 -0.98751079107E+01 -0.24552890659E+03  0.24634234836E+03  0.00000000000E+00 0. -1.
         22    1    1    2    0    0  0.22763488072E+02 -0.12166033134E+02 -0.13291253995E+03  0.13539546532E+03  0.00000000000E+00 0.  1.
         22    1    1    2    0    0 -0.68762174226E+01  0.73078955313E+01  0.27973840677E+02  0.29719075782E+02  0.00000000000E+00 0. -1.
</event>
<event>
 6    1  0.2406404E-005  0.6393202E+02  0.7818608E-02  0.1391367E+00
          2   -1    0    0  502    0  0.00000000000E+00  0.00000000000E+00  0.32416097854E+03  0.32416097854E+03  0.00000000000E+00 0.  1.
          1   -1    0    0  501    0 -0.00000000000E+00 -0.00000000000E+00 -0.10293082897E+03  0.10293082897E+03  0.00000000000E+00 0.  1.
          2    1    1    2  501    0 -0.27995853937E+02 -0.32663939390E+02  0.26390246498E+03  0.26738588556E+03  0.00000000000E+00 0.  1.
          1    1    1    2  502    0  0.24000917603E+02  0.85333785486E+01 -0.12065283816E+02  0.28185699722E+02  0.00000000000E+00 0.  1.
         22    1    1    2    0    0  0.11316032825E+02 -0.83546491133E+00  0.47686052029E+02  0.49017447492E+02  0.00000000000E+00 0.  1.
         22    1    1    2    0    0 -0.73210964918E+01  0.24966025752E+02 -0.78293083618E+02  0.82502774730E+02  0.00000000000E+00 0.  1.
</event>
<event>
 6    1  0.2406404E-005  0.5821916E+02  0.7818608E-02  0.1405858E+00
          2   -1    0    0  502    0  0.00000000000E+00  0.00000000000E+00  0.23446210982E+03  0.23446210982E+03  0.00000000000E+00 0.  1.
          1   -1    0    0  501    0 -0.00000000000E+00 -0.00000000000E+00 -0.33123943608E+03  0.33123943608E+03  0.00000000000E+00 0.  1.
          2    1    1    2  501    0  0.38985736919E+02  0.24015504033E+02  0.16124173645E+03  0.16761721179E+03  0.00000000000E+00 0.  1.
          1    1    1    2  502    0 -0.38189388992E+02 -0.22154381625E+02 -0.26783824160E+03  0.27145270255E+03  0.00000000000E+00 0.  1.
         22    1    1    2    0    0 -0.81134455564E+01 -0.10363113868E+02 -0.57192640796E+02  0.58687479832E+02  0.00000000000E+00 0.  1.
         22    1    1    2    0    0  0.73170976295E+01  0.85019914606E+01  0.67011819684E+02  0.67944151727E+02  0.00000000000E+00 0.  1.
</event>
<event>
 6    1  0.2406404E-005  0.4893492E+02  0.7818608E-02  0.1508167E+00
          2   -1    0    0  502    0  0.00000000000E+00  0.00000000000E+00  0.12152434707E+03  0.12152434707E+03  0.00000000000E+00 0. -1.
          1   -1    0    0  501    0 -0.00000000000E+00 -0.00000000000E+00 -0.32777502796E+03  0.32777502796E+03  0.00000000000E+00 0. -1.
          2    1    1    2  501    0  0.19221186491E+02 -0.27937971382E+02  0.76346839069E+02  0.83539356538E+02  0.00000000000E+00 0. -1.
          1    1    1    2  502    0 -0.37636469164E+02  0.28522341879E+02 -0.22136680174E+03  0.22634771638E+03  0.00000000000E+00 0. -1.
         22    1    1    2    0    0  0.16437254026E+02  0.14410616335E+02 -0.97602811503E+02  0.10002078782E+03  0.00000000000E+00 0.  1.
         22    1    1    2    0    0  0.19780286468E+01 -0.14994986833E+02  0.36372093292E+02  0.39391514288E+02  0.00000000000E+00 0. -1.
</event>
<event>
 6    1  0.2406404E-005  0.8532858E+02  0.7818608E-02  0.1326498E+00
          2   -1    0    0  502    0  0.00000000000E+00  0.00000000000E+00  0.47252197147E+02  0.47252197147E+02  0.00000000000E+00 0.  1.
          1   -1    0    0  501    0 -0.00000000000E+00 -0.00000000000E+00 -0.30902527276E+03  0.30902527276E+03  0.00000000000E+00 0.  1.
          2    1    1    2  501    0 -0.22351856465E+02  0.14743175211E+02 -0.19703169803E+02  0.33244271732E+02  0.00000000000E+00 0.  1.
          1    1    1    2  502    0  0.47942085475E+02 -0.41938282982E+01 -0.17047170583E+03  0.17713450890E+03  0.00000000000E+00 0.  1.
         22    1    1    2    0    0 -0.45133995457E+02 -0.16660850679E+02  0.19953749900E+02  0.52084677462E+02  0.00000000000E+00 0.  1.
         22    1    1    2    0    0  0.19543766446E+02  0.61115037669E+01 -0.91551949880E+02  0.93814011811E+02  0.00000000000E+00 0. -1.
</event>
<event>
 6    1  0.2406404E-005  0.9054360E+02  0.7818608E-02  0.1304039E+00
          2   -1    0    0  502    0  0.00000000000E+00  0.00000000000E+00  0.39179486954E+03  0.39179486954E+03  0.00000000000E+00 0. -1.
          1   -1    0    0  501    0 -0.00000000000E+00 -0.00000000000E+00 -0.11471960841E+03  0.11471960841E+03  0.00000000000E+00 0. -1.
          2    1    1    2  501    0  0.13804359826E+02 -0.49785070042E+02  0.18150552920E+03  0.18871505154E+03  0.00000000000E+00 0. -1.
          1    1    1    2  502    0 -0.76914024563E+01  0.69659121692E+02 -0.75530492530E+02  0.10303594620E+03  0.00000000000E+00 0. -1.
         22    1    1    2    0    0 -0.16906877088E+02  0.10809850769E+02 -0.15495700734E+02  0.25353739522E+02  0.00000000000E+00 0.  1.
         22    1    1    2    0    0  0.10793919719E+02 -0.30683902419E+02  0.18659592519E+03  0.18940974069E+03  0.00000000000E+00 0. -1.
</event>
<event>
 6    1  0.2406404E-005  0.2257387E+03  0.7818608E-02  0.1141181E+00
          2   -1    0    0  502    0  0.00000000000E+00  0.00000000000E+00  0.25404058138E+03  0.25404058138E+03  0.00000000000E+00 0. -1.
          1   -1    0    0  501    0 -0.00000000000E+00 -0.00000000000E+00 -0.17464326850E+03  0.17464326850E+03  0.00000000000E+00 0. -1.
          2    1    1    2  501    0 -0.10216419911E+03 -0.97785887714E+02 -0.38748366239E+02  0.14663232694E+03  0.00000000000E+00 0. -1.
          1    1    1    2  502    0  0.50246020952E+02 -0.17303095967E+02  0.86275518982E+02  0.10132879614E+03  0.00000000000E+00 0. -1.
         22    1    1    2    0    0  0.76287507472E+02  0.12879146795E+03  0.30268499996E+02  0.15271937698E+03  0.00000000000E+00 0. -1.
         22    1    1    2    0    0 -0.24369329309E+02 -0.13702484271E+02  0.16016601478E+01  0.28003349825E+02  0.00000000000E+00 0.  1.
</event>
<event>
 6    1  0.2406404E-005  0.1019873E+03  0.7818608E-02  0.1355455E+00
          2   -1    0    0  502    0  0.00000000000E+00  0.00000000000E+00  0.86657836735E+03  0.86657836735E+03  0.00000000000E+00 0.  1.
          1   -1    0    0  501    0 -0.00000000000E+00 -0.00000000000E+00 -0.61509635307E+03  0.61509635307E+03  0.00000000000E+00 0.  1.
          2    1    1    2  501    0  0.26263690114E+02 -0.78699624225E+02  0.74823334990E+03  0.75281907399E+03  0.00000000000E+00 0.  1.
          1    1    1    2  502    0 -0.65784872577E+02  0.80747107233E+02 -0.56917806168E+03  0.57862890585E+03  0.00000000000E+00 0.  1.
         22    1    1    2    0    0  0.15817359049E+02 -0.81418526528E+01  0.10666606513E+03  0.10813939182E+03  0.00000000000E+00 0.  1.
         22    1    1    2    0    0  0.23703823415E+02  0.60943696443E+01 -0.34239339065E+02  0.42087348757E+02  0.00000000000E+00 0.  1.
</event>
<event>
 6    1  0.2406404E-005  0.7800432E+02  0.7818608E-02  0.1361427E+00
          2   -1    0    0  502    0  0.00000000000E+00  0.00000000000E+00  0.40905267591E+03  0.40905267591E+03  0.00000000000E+00 0. -1.
          1   -1    0    0  501    0 -0.00000000000E+00 -0.00000000000E+00 -0.33553009719E+03  0.33553009719E+03  0.00000000000E+00 0.  1.
          2    1    1    2  501    0 -0.19215885482E+02  0.75023595688E+02  0.33357921295E+03  0.34245128336E+03  0.00000000000E+00 0. -1.
          1    1    1    2  502    0  0.38451043393E+01  0.39068331312E+02  0.40845055041E+02  0.56651900764E+02  0.00000000000E+00 0.  1.
         22    1    1    2    0    0  0.79948979063E+01  0.62254873298E+01  0.86263687244E+01  0.13307491213E+02  0.00000000000E+00 0.  1.
         22    1    1    2    0    0  0.73758832367E+01 -0.12031741433E+03 -0.30952805800E+03  0.33217209776E+03  0.00000000000E+00 0.  1.
</event>
<event>
 6    1  0.2406404E-005  0.7811582E+02  0.7818608E-02  0.1334926E+00
          2   -1    0    0  502    0  0.00000000000E+00  0.00000000000E+00  0.65191749971E+03  0.65191749971E+03  0.00000000000E+00 0. -1.
          1   -1    0    0  501    0 -0.00000000000E+00 -0.00000000000E+00 -0.20550284689E+03  0.20550284689E+03  0.00000000000E+00 0. -1.
          2    1    1    2  501    0 -0.55801687969E+02  0.25476412646E+02  0.59000042968E+03  0.59318073384E+03  0.00000000000E+00 0. -1.
          1    1    1    2  502    0  0.36931043642E+02 -0.11375487803E+02 -0.12822119286E+03  0.13391780317E+03  0.00000000000E+00 0. -1.
         22    1    1    2    0    0  0.30501651415E+02 -0.19502624488E+02 -0.67519591951E+02  0.76613304315E+02  0.00000000000E+00 0.  1.
         22    1    1    2    0    0 -0.11631007088E+02  0.54016996449E+01  0.52155007944E+02  0.53708505272E+02  0.00000000000E+00 0.  1.
</event>
<event>
 6    1  0.2406404E-005  0.5549601E+02  0.7818608E-02  0.1421001E+00
          2   -1    0    0  502    0  0.00000000000E+00  0.00000000000E+00  0.93289589706E+02  0.93289589706E+02  0.00000000000E+00 0. -1.
          1   -1    0    0  501    0 -0.00000000000E+00 -0.00000000000E+00 -0.22234722039E+03  0.22234722039E+03  0.00000000000E+00 0.  1.
          2    1    1    2  501    0 -0.14438033527E+02 -0.39590246395E+02  0.51156433749E+02  0.66278391167E+02  0.00000000000E+00 0. -1.
          1    1    1    2  502    0  0.12557191253E+02  0.26840437980E+02 -0.95067735947E+02  0.99578946475E+02  0.00000000000E+00 0.  1.
         22    1    1    2    0    0  0.11546052602E+02  0.18293684433E+02 -0.11546719117E+03  0.11747613570E+03  0.00000000000E+00 0.  1.
         22    1    1    2    0    0 -0.96652103275E+01 -0.55438760181E+01  0.30320862684E+02  0.32303336761E+02  0.00000000000E+00 0. -1.
</event>
<event>
 6    1  0.2406404E-005  0.4814635E+03  0.7818608E-02  0.1019651E+00
          2   -1    0    0  502    0  0.00000000000E+00  0.00000000000E+00  0.28914852849E+04  0.28914852849E+04  0.00000000000E+00 0. -1.
          1   -1    0    0  501    0 -0.00000000000E+00 -0.00000000000E+00 -0.12976152124E+03  0.12976152124E+03  0.00000000000E+00 0. -1.
          2    1    1    2  501    0  0.13454840990E+03  0.35095508539E+03  0.20845521067E+04  0.21181667149E+04  0.00000000000E+00 0. -1.
          1    1    1    2  502    0 -0.14831278629E+03 -0.41293530907E+03  0.40336212792E+03  0.59599769991E+03  0.00000000000E+00 0. -1.
         22    1    1    2    0    0 -0.30144016499E+01 -0.27199461595E+02  0.11796446340E+02  0.29800226083E+02  0.00000000000E+00 0. -1.
         22    1    1    2    0    0  0.16778778039E+02  0.89179685280E+02  0.26201308270E+03  0.27728216525E+03  0.00000000000E+00 0. -1.
</event>
<event>
 6    1  0.2406404E-005  0.4295089E+02  0.7818608E-02  0.1557251E+00
          2   -1    0    0  502    0  0.00000000000E+00  0.00000000000E+00  0.33738333658E+03  0.33738333658E+03  0.00000000000E+00 0.  1.
          1   -1    0    0  501    0 -0.00000000000E+00 -0.00000000000E+00 -0.18519339468E+03  0.18519339468E+03  0.00000000000E+00 0. -1.
          2    1    1    2  501    0 -0.18889936635E+02  0.16564193640E+02  0.23091035431E+03  0.23227310207E+03  0.00000000000E+00 0.  1.
          1    1    1    2  502    0  0.20318200322E+02 -0.13117721870E+02 -0.14654128645E+03  0.14852357565E+03  0.00000000000E+00 0. -1.
         22    1    1    2    0    0 -0.16503025399E+02  0.43128079342E+01  0.10211179623E+03  0.10352665883E+03  0.00000000000E+00 0.  1.
         22    1    1    2    0    0  0.15074761712E+02 -0.77592797045E+01 -0.34290922186E+02  0.38253394707E+02  0.00000000000E+00 0. -1.
</event>
<event>
 6    1  0.2406404E-005  0.4673913E+02  0.7818608E-02  0.1465024E+00
          2   -1    0    0  502    0  0.00000000000E+00  0.00000000000E+00  0.27724483132E+03  0.27724483132E+03  0.00000000000E+00 0.  1.
          1   -1    0    0  501    0 -0.00000000000E+00 -0.00000000000E+00 -0.80143939289E+02  0.80143939289E+02  0.00000000000E+00 0.  1.
          2    1    1    2  501    0  0.22008811008E+02 -0.19212692339E+02  0.18248980376E+03  0.18481353788E+03  0.00000000000E+00 0.  1.
          1    1    1    2  502    0 -0.15473903536E+02  0.22888832710E+02 -0.32364531143E+02  0.42553533691E+02  0.00000000000E+00 0.  1.
         22    1    1    2    0    0 -0.13386088112E+02  0.11346413871E+02 -0.38846348191E+02  0.42625898589E+02  0.00000000000E+00 0.  1.
         22    1    1    2    0    0  0.68511806399E+01 -0.15022554241E+02  0.85821967611E+02  0.87395800453E+02  0.00000000000E+00 0.  1.
</event>
<event>
 6    1  0.2406404E-005  0.1171448E+03  0.7818608E-02  0.1251426E+00
          2   -1    0    0  502    0  0.00000000000E+00  0.00000000000E+00  0.14919212931E+03  0.14919212931E+03  0.00000000000E+00 0. -1.
          1   -1    0    0  501    0 -0.00000000000E+00 -0.00000000000E+00 -0.21850389525E+03  0.21850389525E+03  0.00000000000E+00 0.  1.
          2    1    1    2  501    0  0.44272222980E+01 -0.34879647174E+02  0.69253344802E+02  0.77667340952E+02  0.00000000000E+00 0. -1.
          1    1    1    2  502    0 -0.13103461315E+02  0.84622198219E+02 -0.12743740226E+03  0.15353471472E+03  0.00000000000E+00 0.  1.
         22    1    1    2    0    0 -0.11232995955E+02  0.19358381160E+02 -0.49976570076E+02  0.54759334143E+02  0.00000000000E+00 0.  1.
         22    1    1    2    0    0  0.19909234972E+02 -0.69100932205E+02  0.38848861595E+02  0.81734634740E+02  0.00000000000E+00 0. -1.
</event>
<event>
 6    1  0.2406404E-005  0.8947682E+02  0.7818608E-02  0.1316866E+00
          2   -1    0    0  502    0  0.00000000000E+00  0.00000000000E+00  0.42531193251E+02  0.42531193251E+02  0.00000000000E+00 0. -1.
          1   -1    0    0  501    0 -0.00000000000E+00 -0.00000000000E+00 -0.38991180637E+03  0.38991180637E+03  0.00000000000E+00 0. -1.
          2    1    1    2  501    0 -0.38387733385E+02 -0.42266327249E+02 -0.61392202781E+01  0.57426043910E+02  0.00000000000E+00 0. -1.
          1    1    1    2  502    0  0.18700786765E+02 -0.96481759093E+01 -0.50322614837E+02  0.54545139913E+02  0.00000000000E+00 0. -1.
         22    1    1    2    0    0  0.26566044537E+02  0.59655831080E+02 -0.29979942569E+03  0.30682938019E+03  0.00000000000E+00 0. -1.
         22    1    1    2    0    0 -0.68790979179E+01 -0.77413279215E+01  0.88806476830E+01  0.13642435612E+02  0.00000000000E+00 0.  1.
</event>
<event>
 6    1  0.2406404E-005  0.6815555E+02  0.7818608E-02  0.1380378E+00
          2   -1    0    0  502    0  0.00000000000E+00  0.00000000000E+00  0.39278563220E+03  0.39278563220E+03  0.00000000000E+00 0.  1.
          1   -1    0    0  501    0 -0.00000000000E+00 -0.00000000000E+00 -0.85562539635E+02  0.85562539635E+02  0.00000000000E+00 0.  1.
          2    1    1    2  501    0 -0.26295033773E+02  0.34358314405E+01  0.27849273250E+03  0.27975245450E+03  0.00000000000E+00 0.  1.
          1    1    1    2  502    0  0.34460055220E+02  0.72152543007E+01 -0.42926810180E+02  0.55518162187E+02  0.00000000000E+00 0.  1.
         22    1    1    2    0    0 -0.23468355193E+02 -0.21282870153E+02  0.10236646799E+03  0.10715697843E+03  0.00000000000E+00 0. -1.
         22    1    1    2    0    0  0.15303333745E+02  0.10631784412E+02 -0.30709297751E+02  0.35920576720E+02  0.00000000000E+00 0. -1.
</event>
<event>
 6    1  0.2406404E-005  0.2064526E+03  0.7818608E-02  0.1259182E+00
          2   -1    0    0  502    0  0.00000000000E+00  0.00000000000E+00  0.36743714099E+03  0.36743714099E+03  0.00000000000E+00 0. -1.
          1   -1    0    0  501    0 -0.00000000000E+00 -0.00000000000E+00 -0.35543694260E+03  0.35543694260E+03  0.00000000000E+00 0. -1.
          2    1    1    2  501    0  0.75538005471E+02 -0.52489750424E+02  0.14776371666E+03  0.17405539386E+03  0.00000000000E+00 0. -1.
          1    1    1    2  502    0 -0.17916328315E+03  0.94838782491E+02 -0.26549821490E+03  0.33404068436E+03  0.00000000000E+00 0. -1.
         22    1    1    2    0    0  0.11062759258E+03 -0.26750175430E+02  0.14998122458E+03  0.18827746506E+03  0.00000000000E+00 0. -1.
         22    1    1    2    0    0 -0.70023148998E+01 -0.15598856637E+02 -0.20246527957E+02  0.26500540309E+02  0.00000000000E+00 0.  1.
</event>
<event>
 6    1  0.2406404E-005  0.8053596E+02  0.7818608E-02  0.1347026E+00
          2   -1    0    0  502    0  0.00000000000E+00  0.00000000000E+00  0.88576895591E+02  0.88576895591E+02  0.00000000000E+00 0. -1.
          1   -1    0    0  501    0 -0.00000000000E+00 -0.00000000000E+00 -0.10318739385E+03  0.10318739385E+03  0.00000000000E+00 0. -1.
          2    1    1    2  501    0  0.22363553538E+02 -0.10263124334E+02 -0.75965169179E+01  0.25752035205E+02  0.00000000000E+00 0. -1.
          1    1    1    2  502    0 -0.29421966819E+02 -0.12845082619E+02 -0.18137315173E+02  0.36872896288E+02  0.00000000000E+00 0. -1.
         22    1    1    2    0    0  0.17343274503E+02  0.28262363181E+02  0.65576890449E+02  0.73483868325E+02  0.00000000000E+00 0. -1.
         22    1    1    2    0    0 -0.10284861222E+02 -0.51541562271E+01 -0.54453556621E+02  0.55655489626E+02  0.00000000000E+00 0. -1.
</event>
<event>
 6    1  0.2406404E-005  0.1101188E+03  0.7818608E-02  0.1263000E+00
          2   -1    0    0  502    0  0.00000000000E+00  0.00000000000E+00  0.15839195358E+03  0.15839195358E+03  0.00000000000E+00 0. -1.
          1   -1    0    0  501    0 -0.00000000000E+00 -0.00000000000E+00 -0.83922534130E+02  0.83922534130E+02  0.00000000000E+00 0. -1.
          2    1    1    2  501    0  0.32138835603E+02  0.26327198564E+02  0.13799112225E+02  0.43777181685E+02  0.00000000000E+00 0. -1.
          1    1    1    2  502    0 -0.21744074182E+02 -0.52855606914E+02  0.30676043987E+01  0.57235741814E+02  0.00000000000E+00 0. -1.
         22    1    1    2    0    0 -0.31785301748E+02 -0.33715342600E+02 -0.10901896035E+02  0.47601271738E+02  0.00000000000E+00 0. -1.
         22    1    1    2    0    0  0.21390540328E+02  0.60243750951E+02  0.68504598861E+02  0.93700292471E+02  0.00000000000E+00 0. -1.
</event>
<event>
 6    1  0.2406404E-005  0.8059109E+02  0.7818608E-02  0.1327403E+00
          2   -1    0    0  502    0  0.00000000000E+00  0.00000000000E+00  0.22231241000E+03  0.22231241000E+03  0.00000000000E+00 0. -1.
          1   -1    0    0  501    0 -0.00000000000E+00 -0.00000000000E+00 -0.16115089577E+03  0.16115089577E+03  0.00000000000E+00 0.  1.
          2    1    1    2  501    0 -0.61048112381E+02  0.59496276447E+01  0.15610704283E+03  0.16772500981E+03  0.00000000000E+00 0. -1.
          1    1    1    2  502    0  0.50967089943E+02 -0.84690806091E+01 -0.77900245399E+02  0.93476295481E+02  0.00000000000E+00 0.  1.
         22    1    1    2    0    0  0.26354050132E+02 -0.77657460713E+01 -0.65010557383E+02  0.70577725535E+02  0.00000000000E+00 0.  1.
         22    1    1    2    0    0 -0.16273027694E+02  0.10285199036E+02  0.47965274187E+02  0.51684274952E+02  0.00000000000E+00 0.  1.
</event>
<event>
 6    1  0.2406404E-005  0.1814303E+03  0.7818608E-02  0.1169353E+00
          2   -1    0    0  502    0  0.00000000000E+00  0.00000000000E+00  0.52109182238E+03  0.52109182238E+03  0.00000000000E+00 0. -1.
          1   -1    0    0  501    0 -0.00000000000E+00 -0.00000000000E+00 -0.64047641545E+02  0.64047641545E+02  0.00000000000E+00 0. -1.
          2    1    1    2  501    0  0.81926066727E+01 -0.66216479247E+02  0.53661517036E+02  0.85623007063E+02  0.00000000000E+00 0. -1.
          1    1    1    2  502    0  0.48250250838E+02  0.12740611429E+03  0.25482322422E+03  0.28895549876E+03  0.00000000000E+00 0. -1.
         22    1    1    2    0    0  0.29069481512E+02  0.15160807196E+02  0.47637545134E+02  0.57829236002E+02  0.00000000000E+00 0. -1.
         22    1    1    2    0    0 -0.85512339023E+02 -0.76350442240E+02  0.10092189444E+03  0.15273172209E+03  0.00000000000E+00 0.  1.
</event>
<event>
 6    1  0.2406404E-005  0.2065945E+03  0.7818608E-02  0.1248989E+00
          2   -1    0    0  502    0  0.00000000000E+00  0.00000000000E+00  0.26679802242E+03  0.26679802242E+03  0.00000000000E+00 0. -1.
          1   -1    0    0  501    0 -0.00000000000E+00 -0.00000000000E+00 -0.19684540204E+03  0.19684540204E+03  0.00000000000E+00 0. -1.
          2    1    1    2  501    0  0.54686604434E+02  0.60833951234E+02  0.10041746513E+02  0.82414992570E+02  0.00000000000E+00 0. -1.
          1    1    1    2  502    0 -0.11721993191E+03 -0.14183937733E+03 -0.40658185570E+02  0.18844630390E+03  0.00000000000E+00 0. -1.
         22    1    1    2    0    0  0.51773609058E+02  0.98910144314E+02  0.12024819470E+03  0.16408336775E+03  0.00000000000E+00 0. -1.
         22    1    1    2    0    0  0.10759718422E+02 -0.17904718219E+02 -0.19679135262E+02  0.28698760246E+02  0.00000000000E+00 0.  1.
</event>
<event>
 6    1  0.2406404E-005  0.4348793E+03  0.7818608E-02  0.1046908E+00
          2   -1    0    0  502    0  0.00000000000E+00  0.00000000000E+00  0.89614073289E+03  0.89614073289E+03  0.00000000000E+00 0. -1.
          1   -1    0    0  501    0 -0.00000000000E+00 -0.00000000000E+00 -0.22989596944E+03  0.22989596944E+03  0.00000000000E+00 0. -1.
          2    1    1    2  501    0 -0.24366552292E+03  0.68377427384E+02 -0.52061244851E+02  0.25837711364E+03  0.00000000000E+00 0. -1.
          1    1    1    2  502    0  0.21458767256E+03 -0.15715580494E+03  0.64266563690E+03  0.69553212514E+03  0.00000000000E+00 0. -1.
         22    1    1    2    0    0  0.49306444081E+02  0.11119893796E+03  0.72885185753E+02  0.14180472324E+03  0.00000000000E+00 0. -1.
         22    1    1    2    0    0 -0.20228593715E+02 -0.22420560396E+02  0.27551856451E+01  0.30322740313E+02  0.00000000000E+00 0. -1.
</event>
<event>
 6    1  0.2406404E-005  0.6212381E+02  0.7818608E-02  0.1390606E+00
          2   -1    0    0  502    0  0.00000000000E+00  0.00000000000E+00  0.20930580603E+03  0.20930580603E+03  0.00000000000E+00 0. -1.
          1   -1    0    0  501    0 -0.00000000000E+00 -0.00000000000E+00 -0.53887503908E+02  0.53887503908E+02  0.00000000000E+00 0.  1.
          2    1    1    2  501    0  0.25132909757E+02 -0.60455359294E+01  0.86959294728E+02  0.90720067224E+02  0.00000000000E+00 0. -1.
          1    1    1    2  502    0 -0.29240608892E+02  0.32535471251E+00 -0.34350782296E+01  0.29443485298E+02  0.00000000000E+00 0.  1.
         22    1    1    2    0    0 -0.29309780398E+02 -0.33006434000E+01 -0.25923782355E+02  0.39268307392E+02  0.00000000000E+00 0.  1.
         22    1    1    2    0    0  0.33417479533E+02  0.90208246169E+01  0.97817867977E+02  0.10376145002E+03  0.00000000000E+00 0. -1.
</event>
<event>
 6    1  0.2406404E-005  0.8285155E+02  0.7818608E-02  0.1373766E+00
          2   -1    0    0  502    0  0.00000000000E+00  0.00000000000E+00  0.11346426787E+03  0.11346426787E+03  0.00000000000E+00 0.  1.
          1   -1    0    0  501    0 -0.00000000000E+00 -0.00000000000E+00 -0.23830164787E+03  0.23830164787E+03  0.00000000000E+00 0.  1.
          2    1    1    2  501    0 -0.19916285705E+02  0.93200099665E+01  0.39585891940E+02  0.45283152085E+02  0.00000000000E+00 0.  1.
          1    1    1    2  502    0  0.10420988584E+03  0.72762191516E+01 -0.65899811121E+02  0.12351286888E+03  0.00000000000E+00 0.  1.
         22    1    1    2    0    0 -0.10926862747E+02  0.14682597044E+01  0.31064580464E+02  0.32963013749E+02  0.00000000000E+00 0.  1.
         22    1    1    2    0    0 -0.73366737392E+02 -0.18064488822E+02 -0.12958804128E+03  0.15000688102E+03  0.00000000000E+00 0.  1.
</event>
<event>
 6    1  0.2406404E-005  0.3551089E+02  0.7818608E-02  0.1561756E+00
          2   -1    0    0  502    0  0.00000000000E+00  0.00000000000E+00  0.12071290576E+04  0.12071290576E+04  0.00000000000E+00 0. -1.
          1   -1    0    0  501    0 -0.00000000000E+00 -0.00000000000E+00 -0.89303485169E+02  0.89303485169E+02  0.00000000000E+00 0. -1.
          2    1    1    2  501    0  0.44116520301E+02 -0.99108710671E+01  0.10957031348E+04  0.10966356972E+04  0.00000000000E+00 0. -1.
          1    1    1    2  502    0 -0.22007537464E+02 -0.80906267492E+01 -0.47356602279E+02  0.52843521134E+02  0.00000000000E+00 0. -1.
         22    1    1    2    0    0 -0.89319042837E+01 -0.70809659223E+01 -0.35986390727E+02  0.37748368310E+02  0.00000000000E+00 0. -1.
         22    1    1    2    0    0 -0.13177078554E+02  0.25082463739E+02  0.10546543067E+03  0.10920495617E+03  0.00000000000E+00 0. -1.
</event>
<event>
 6    1  0.2406404E-005  0.6959444E+02  0.7818608E-02  0.1361707E+00
          2   -1    0    0  502    0  0.00000000000E+00  0.00000000000E+00  0.26976029619E+03  0.26976029619E+03  0.00000000000E+00 0. -1.
          1   -1    0    0  501    0 -0.00000000000E+00 -0.00000000000E+00 -0.39130506740E+02  0.39130506740E+02  0.00000000000E+00 0. -1.
          2    1    1    2  501    0  0.16986983469E+02 -0.26053126539E+02  0.70688742744E+02  0.77228371474E+02  0.00000000000E+00 0. -1.
          1    1    1    2  502    0 -0.22814287114E+02  0.26917814884E+02  0.10803868553E+02  0.36902358060E+02  0.00000000000E+00 0. -1.
         22    1    1    2    0    0 -0.14642784524E+02  0.27381023576E+02 -0.93908393463E+01  0.32439473706E+02  0.00000000000E+00 0. -1.
         22    1    1    2    0    0  0.20470088169E+02 -0.28245711922E+02  0.15852801750E+03  0.16232059969E+03  0.00000000000E+00 0. -1.
</event>
<event>
 6    1  0.2406404E-005  0.7283515E+02  0.7818608E-02  0.1376577E+00
          2   -1    0    0  502    0  0.00000000000E+00  0.00000000000E+00  0.15030763706E+03  0.15030763706E+03  0.00000000000E+00 0.  1.
          1   -1    0    0  501    0 -0.00000000000E+00 -0.00000000000E+00 -0.24390202621E+03  0.24390202621E+03  0.00000000000E+00 0.  1.
          2    1    1    2  501    0  0.67021318998E+02  0.53461685050E+01  0.98530793540E+02  0.11928434932E+03  0.00000000000E+00 0.  1.
          1    1    1    2  502    0 -0.42263068557E+02  0.23187327622E+02 -0.78563930075E+01  0.48842010987E+02  0.00000000000E+00 0.  1.
         22    1    1    2    0    0 -0.41228291857E+02 -0.23114747927E+02 -0.19825214025E+03  0.20380867189E+03  0.00000000000E+00 0.  1.
         22    1    1    2    0    0  0.16470041417E+02 -0.54187481997E+01  0.13983350566E+02  0.22274631072E+02  0.00000000000E+00 0.  1.
</event>
<event>
 6    1  0.2406404E-005  0.1842957E+03  0.7818608E-02  0.1277320E+00
          2   -1    0    0  502    0  0.00000000000E+00  0.00000000000E+00  0.19290630519E+04  0.19290630519E+04  0.00000000000E+00 0. -1.
          1   -1    0    0  501    0 -0.00000000000E+00 -0.00000000000E+00 -0.60613571132E+02  0.60613571132E+02  0.00000000000E+00 0.  1.
          2    1    1    2  501    0 -0.15263196721E+03 -0.35293733592E+02  0.16779290515E+04  0.16852264142E+04  0.00000000000E+00 0. -1.
          1    1    1    2  502    0  0.51756847901E+02  0.44817118761E+02  0.25512518312E+02  0.73063219402E+02  0.00000000000E+00 0.  1.
         22    1    1    2    0    0 -0.13020277841E+02  0.10786997879E+02  0.94288102102E+02  0.95792135148E+02  0.00000000000E+00 0. -1.
         22    1    1    2    0    0  0.11389539715E+03 -0.20310383048E+02  0.70719808793E+02  0.13559485428E+03  0.00000000000E+00 0.  1.
</event>
<event>
 6    1  0.2406404E-005  0.5231024E+02  0.7818608E-02  0.1470692E+00
          2   -1    0    0  502    0  0.00000000000E+00  0.00000000000E+00  0.40458878964E+03  0.40458878964E+03  0.00000000000E+00 0. -1.
          1   -1    0    0  501    0 -0.00000000000E+00 -0.00000000000E+00 -0.10056852561E+03  0.10056852561E+03  0.00000000000E+00 0.  1.
          2    1    1    2  501    0  0.36530900369E+01  0.41208582232E+02  0.23154527769E+03  0.23521204888E+03  0.00000000000E+00 0. -1.
          1    1    1    2  502    0 -0.31333585750E+02 -0.20397033512E+02 -0.66964739588E+02  0.76694908045E+02  0.00000000000E+00 0.  1.
         22    1    1    2    0    0  0.29639999765E+02 -0.56830219890E+01  0.16267720523E+03  0.16545301274E+03  0.00000000000E+00 0. -1.
         22    1    1    2    0    0 -0.19595040526E+01 -0.15128526732E+02 -0.23237479306E+02  0.27797345587E+02  0.00000000000E+00 0. -1.
</event>
<event>
 6    1  0.2406404E-005  0.1939407E+03  0.7818608E-02  0.1174370E+00
          2   -1    0    0  502    0  0.00000000000E+00  0.00000000000E+00  0.75927188187E+02  0.75927188187E+02  0.00000000000E+00 0.  1.
          1   -1    0    0  501    0 -0.00000000000E+00 -0.00000000000E+00 -0.53349520517E+03  0.53349520517E+03  0.00000000000E+00 0.  1.
          2    1    1    2  501    0  0.10361478043E+03 -0.39445119610E+02 -0.17248528433E+02  0.11220272687E+03  0.00000000000E+00 0.  1.
          1    1    1    2  502    0  0.32348104531E+02  0.50928444356E+01 -0.28164017457E+02  0.43191999381E+02  0.00000000000E+00 0.  1.
         22    1    1    2    0    0 -0.14073208783E+03  0.45024042306E+02 -0.41620653264E+03  0.44165661180E+03  0.00000000000E+00 0.  1.
         22    1    1    2    0    0  0.47692028743E+01 -0.10671767131E+02  0.40510615479E+01  0.12371055308E+02  0.00000000000E+00 0. -1.
</event>
<event>
 6    1  0.2406404E-005  0.1223231E+03  0.7818608E-02  0.1261283E+00
          2   -1    0    0  502    0  0.00000000000E+00  0.00000000000E+00  0.75473191325E+02  0.75473191325E+02  0.00000000000E+00 0.  1.
          1   -1    0    0  501    0 -0.00000000000E+00 -0.00000000000E+00 -0.17166278926E+03  0.17166278926E+03  0.00000000000E+00 0.  1.
          2    1    1    2  501    0 -0.25848142947E+02 -0.50428172887E+01 -0.10083524252E+02  0.28199892932E+02  0.00000000000E+00 0.  1.
          1    1    1    2  502    0 -0.28053877171E+02  0.22344354408E+02 -0.69281938642E+02  0.78014596200E+02  0.00000000000E+00 0.  1.
         22    1    1    2    0    0  0.85044618873E+02 -0.38910592646E+02  0.10619586221E+02  0.94124370016E+02  0.00000000000E+00 0.  1.
         22    1    1    2    0    0 -0.31142598755E+02  0.21609055526E+02 -0.27443721257E+02  0.46797121433E+02  0.00000000000E+00 0.  1.
</event>
<event>
 6    1  0.2406404E-005  0.1056270E+03  0.7818608E-02  0.1283692E+00
          2   -1    0    0  502    0  0.00000000000E+00  0.00000000000E+00  0.23169541162E+03  0.23169541162E+03  0.00000000000E+00 0. -1.
          1   -1    0    0  501    0 -0.00000000000E+00 -0.00000000000E+00 -0.57667674969E+02  0.57667674969E+02  0.00000000000E+00 0.  1.
          2    1    1    2  501    0 -0.21576935317E+02 -0.40521191050E+02  0.29143652461E+02  0.54377233660E+02  0.00000000000E+00 0. -1.
          1    1    1    2  502    0  0.16740484311E+02  0.22614719718E+02 -0.16034960811E+02  0.32385017077E+02  0.00000000000E+00 0.  1.
         22    1    1    2    0    0 -0.12390156820E+02  0.44908689775E+02  0.91343923822E+01  0.47473608748E+02  0.00000000000E+00 0.  1.
         22    1    1    2    0    0  0.17226607826E+02 -0.27002218444E+02  0.15178465262E+03  0.15512722711E+03  0.00000000000E+00 0. -1.
</event>
<event>
 6    1  0.2406404E-005  0.1422274E+03  0.7818608E-02  0.1284259E+00
          2   -1    0    0  502    0  0.00000000000E+00  0.00000000000E+00  0.13197043183E+03  0.13197043183E+03  0.00000000000E+00 0. -1.
          1   -1    0    0  501    0 -0.00000000000E+00 -0.00000000000E+00 -0.16230766499E+04  0.16230766499E+04  0.00000000000E+00 0.  1.
          2    1    1    2  501    0  0.31938776216E+02 -0.10214445626E+03  0.80217970494E+02  0.13374789031E+03  0.00000000000E+00 0. -1.
          1    1    1    2  502    0 -0.25560496891E+02  0.10763407243E+03 -0.14283090706E+04  0.14325869027E+04  0.00000000000E+00 0.  1.
         22    1    1    2    0    0 -0.20947644800E+02  0.24509722480E+02 -0.15101309695E+03  0.15441659810E+03  0.00000000000E+00 0.  1.
         22    1    1    2    0    0  0.14569365474E+02 -0.29999338646E+02  0.79979789830E+01  0.34295690653E+02  0.00000000000E+00 0.  1.
</event>
<event>
 6    1  0.2406404E-005  0.1015034E+03  0.7818608E-02  0.1279530E+00
          2   -1    0    0  502    0  0.00000000000E+00  0.00000000000E+00  0.44450465055E+03  0.44450465055E+03  0.00000000000E+00 0.  1.
          1   -1    0    0  501    0 -0.00000000000E+00 -0.00000000000E+00 -0.60177654617E+02  0.60177654617E+02  0.00000000000E+00 0.  1.
          2    1    1    2  501    0  0.65778849461E+02  0.39039170499E+02  0.29697191776E+03  0.30666469279E+03  0.00000000000E+00 0.  1.
          1    1    1    2  502    0 -0.30901974990E+02 -0.37872134424E+02  0.80993825264E+01  0.49546247299E+02  0.00000000000E+00 0.  1.
         22    1    1    2    0    0 -0.46833849166E+02 -0.17564226486E+02 -0.14870140027E+02  0.52182684333E+02  0.00000000000E+00 0.  1.
         22    1    1    2    0    0  0.11956974695E+02  0.16397190411E+02  0.94125835675E+02  0.96288680741E+02  0.00000000000E+00 0.  1.
</event>
<event>
 6    1  0.2406404E-005  0.7072338E+02  0.7818608E-02  0.1370007E+00
          2   -1    0    0  502    0  0.00000000000E+00  0.00000000000E+00  0.17847006766E+03  0.17847006766E+03  0.00000000000E+00 0.  1.
          1   -1    0    0  501    0 -0.00000000000E+00 -0.00000000000E+00 -0.12838409136E+03  0.12838409136E+03  0.00000000000E+00 0. -1.
          2    1    1    2  501    0 -0.63660655877E+02  0.41579747912E+02  0.65545870992E+02  0.10038832476E+03  0.00000000000E+00 0.  1.
          1    1    1    2  502    0 -0.24142967347E+00 -0.31807714426E+02 -0.54763907210E+02  0.63331465467E+02  0.00000000000E+00 0. -1.
         22    1    1    2    0    0  0.74842691722E+02  0.12892315740E+02  0.70107518717E+02  0.10335716951E+03  0.00000000000E+00 0.  1.
         22    1    1    2    0    0 -0.10940606172E+02 -0.22664349226E+02 -0.30803506193E+02  0.39777199285E+02  0.00000000000E+00 0. -1.
</event>
<event>
 6    1  0.2406404E-005  0.2109434E+03  0.7818608E-02  0.1166084E+00
          2   -1    0    0  502    0  0.00000000000E+00  0.00000000000E+00  0.71494226567E+03  0.71494226567E+03  0.00000000000E+00 0.  1.
          1   -1    0    0  501    0 -0.00000000000E+00 -0.00000000000E+00 -0.12061809947E+03  0.12061809947E+03  0.00000000000E+00 0.  1.
          2    1    1    2  501    0  0.13465867413E+03 -0.15595606712E+03  0.45272858452E+03  0.49741172546E+03  0.00000000000E+00 0.  1.
          1    1    1    2  502    0 -0.13985800975E+03  0.69101546815E+02  0.57873323094E+02  0.16638692313E+03  0.00000000000E+00 0.  1.
         22    1    1    2    0    0  0.16779424440E+01 -0.29440773566E+02  0.34619034018E+02  0.45475841447E+02  0.00000000000E+00 0.  1.
         22    1    1    2    0    0  0.35213931740E+01  0.11629529387E+03  0.49103224571E+02  0.12628587510E+03  0.00000000000E+00 0.  1.
</event>
<event>
 6    1  0.2406404E-005  0.1542923E+03  0.7818608E-02  0.1196772E+00
          2   -1    0    0  502    0  0.00000000000E+00  0.00000000000E+00  0.24492949066E+03  0.24492949066E+03  0.00000000000E+00 0.  1.
          1   -1    0    0  501    0 -0.00000000000E+00 -0.00000000000E+00 -0.15543701584E+03  0.15543701584E+03  0.00000000000E+00 0. -1.
          2    1    1    2  501    0  0.19209543291E+02  0.43658754576E+02  0.27193243324E+02  0.54905062490E+02  0.00000000000E+00 0.  1.
          1    1    1    2  502    0 -0.56287766616E+02 -0.12137349768E+03 -0.66428131830E+02  0.14937381065E+03  0.00000000000E+00 0. -1.
         22    1    1    2    0    0  0.43936942971E+02  0.90345769954E+02  0.14369828634E+03  0.17533399729E+03  0.00000000000E+00 0.  1.
         22    1    1    2    0    0 -0.68587196456E+01 -0.12631026850E+02 -0.14970923017E+02  0.20753636078E+02  0.00000000000E+00 0. -1.
</event>
<event>
 6    1  0.2406404E-005  0.7317749E+02  0.7818608E-02  0.1350536E+00
          2   -1    0    0  502    0  0.00000000000E+00  0.00000000000E+00  0.22690073759E+03  0.22690073759E+03  0.00000000000E+00 0. -1.
          1   -1    0    0  501    0 -0.00000000000E+00 -0.00000000000E+00 -0.26611299115E+03  0.26611299115E+03  0.00000000000E+00 0. -1.
          2    1    1    2  501    0  0.58604303085E+02  0.92827550192E+01  0.17837325685E+03  0.18798311797E+03  0.00000000000E+00 0. -1.
          1    1    1    2  502    0 -0.36997134636E+02 -0.26942798622E+01 -0.16728170980E+03  0.17134531668E+03  0.00000000000E+00 0. -1.
         22    1    1    2    0    0 -0.33566309885E+02 -0.23321125744E+01 -0.87838373696E+02  0.94062297452E+02  0.00000000000E+00 0. -1.
         22    1    1    2    0    0  0.11959141435E+02 -0.42563625825E+01  0.37534573077E+02  0.39622996636E+02  0.00000000000E+00 0. -1.
</event>
<event>
 6    1  0.2406404E-005  0.2016666E+03  0.7818608E-02  0.1190233E+00
          2   -1    0    0  502    0  0.00000000000E+00  0.00000000000E+00  0.73990803800E+03  0.73990803800E+03  0.00000000000E+00 0.  1.
          1   -1    0    0  501    0 -0.00000000000E+00 -0.00000000000E+00 -0.12691719009E+03  0.12691719009E+03  0.00000000000E+00 0.  1.
          2    1    1    2  501    0  0.17882013714E+03 -0.18674066591E+02  0.40023349864E+03  0.43876214017E+03  0.00000000000E+00 0.  1.
          1    1    1    2  502    0 -0.16811138890E+03  0.73669446038E+02  0.11128075977E+02  0.18388164790E+03  0.00000000000E+00 0.  1.
         22    1    1    2    0    0 -0.92151037100E+01  0.22226462892E+02 -0.41215184264E+01  0.24411487116E+02  0.00000000000E+00 0.  1.
         22    1    1    2    0    0 -0.14936445236E+01 -0.77221842339E+02  0.20575079172E+03  0.21976995291E+03  0.00000000000E+00 0. -1.
</event>
<event>
 6    1  0.2406404E-005  0.1014379E+03  0.7818608E-02  0.1287872E+00
          2   -1    0    0  502    0  0.00000000000E+00  0.00000000000E+00  0.42005271414E+03  0.42005271414E+03  0.00000000000E+00 0.  1.
          1   -1    0    0  501    0 -0.00000000000E+00 -0.00000000000E+00 -0.26521087793E+03  0.26521087793E+03  0.00000000000E+00 0.  1.
          2    1    1    2  501    0  0.22916535801E+02  0.21018419622E+02  0.29089509453E+03  0.29255238437E+03  0.00000000000E+00 0.  1.
          1    1    1    2  502    0 -0.56619106345E+02 -0.41143377277E+02 -0.22204827571E+03  0.23281739076E+03  0.00000000000E+00 0.  1.
         22    1    1    2    0    0 -0.12487723339E+02 -0.20493189270E+01 -0.30286725056E+02  0.32824208397E+02  0.00000000000E+00 0.  1.
         22    1    1    2    0    0  0.46190293883E+02  0.22174276582E+02  0.11628174244E+03  0.12706960855E+03  0.00000000000E+00 0.  1.
</event>
<event>
 6    1  0.2406404E-005  0.4277600E+02  0.7818608E-02  0.1536746E+00
          2   -1    0    0  502    0  0.00000000000E+00  0.00000000000E+00  0.51619988919E+02  0.51619988919E+02  0.00000000000E+00 0.  1.
          1   -1    0    0  501    0 -0.00000000000E+00 -0.00000000000E+00 -0.22105124670E+04  0.22105124670E+04  0.00000000000E+00 0.  1.
          2    1    1    2  501    0 -0.12925523551E+02  0.19897126035E+02  0.28971247752E+02  0.37447269324E+02  0.00000000000E+00 0.  1.
          1    1    1    2  502    0 -0.37271197478E+01  0.41505123746E+02 -0.19288823752E+04  0.19293324711E+04  0.00000000000E+00 0.  1.
         22    1    1    2    0    0  0.22316230904E+02 -0.13830138470E+01  0.63624244455E+01  0.23246662855E+02  0.00000000000E+00 0. -1.
         22    1    1    2    0    0 -0.56635876050E+01 -0.60019235933E+02 -0.26534377515E+03  0.27210605270E+03  0.00000000000E+00 0. -1.
</event>
<event>
 6    1  0.4674045E-005  0.1388716E+03  0.7818608E-02  0.1215889E+00
          2   -1    0    0  502    0  0.00000000000E+00  0.00000000000E+00  0.48615352119E+03  0.48615352119E+03  0.00000000000E+00 0. -1.
          1   -1    0    0  501    0 -0.00000000000E+00 -0.00000000000E+00 -0.50249918560E+03  0.50249918560E+03  0.00000000000E+00 0. -1.
          2    1    1    2  501    0  0.11862197104E+03  0.11972753618E+02  0.41762465650E+03  0.43430965055E+03  0.00000000000E+00 0. -1.
          1    1    1    2  502    0 -0.12253437492E+03 -0.86002633501E+01 -0.41396162823E+03  0.43180188422E+03  0.00000000000E+00 0. -1.
         22    1    1    2    0    0 -0.10372180553E+02 -0.11570146566E+02 -0.69066331019E+02  0.70792715031E+02  0.00000000000E+00 0. -1.
         22    1    1    2    0    0  0.14284584439E+02  0.81976562984E+01  0.49057638346E+02  0.51748456996E+02  0.00000000000E+00 0. -1.
</event>
<event>
 6    1  0.2406404E-005  0.5074608E+02  0.7818608E-02  0.1462352E+00
          2   -1    0    0  502    0  0.00000000000E+00  0.00000000000E+00  0.32907705551E+03  0.32907705551E+03  0.00000000000E+00 0. -1.
          1   -1    0    0  501    0 -0.00000000000E+00 -0.00000000000E+00 -0.31753761197E+03  0.31753761197E+03  0.00000000000E+00 0.  1.
          2    1    1    2  501    0 -0.10258976158E+03  0.19144537758E+01  0.24229005390E+03  0.26312125443E+03  0.00000000000E+00 0. -1.
          1    1    1    2  502    0  0.97112947247E+02 -0.38648145983E+02 -0.23139268260E+03  0.25390387408E+03  0.00000000000E+00 0.  1.
         22    1    1    2    0    0 -0.59914499142E+01  0.16244805723E+02  0.61747003240E+02  0.64128648779E+02  0.00000000000E+00 0.  1.
         22    1    1    2    0    0  0.11468264249E+02  0.20488886484E+02 -0.61104930988E+02  0.65460890197E+02  0.00000000000E+00 0.  1.
</event>
<event>
 6    1  0.2406404E-005  0.9220503E+02  0.7818608E-02  0.1299091E+00
          2   -1    0    0  502    0  0.00000000000E+00  0.00000000000E+00  0.60551462216E+02  0.60551462216E+02  0.00000000000E+00 0. -1.
          1   -1    0    0  501    0 -0.00000000000E+00 -0.00000000000E+00 -0.20701771145E+03  0.20701771145E+03  0.00000000000E+00 0. -1.
          2    1    1    2  501    0  0.19999791151E+02  0.18049072172E+02 -0.57015125056E+02  0.63059377871E+02  0.00000000000E+00 0. -1.
          1    1    1    2  502    0 -0.31270118761E+02 -0.23410517132E+02  0.12856564350E+02  0.41123763040E+02  0.00000000000E+00 0. -1.
         22    1    1    2    0    0 -0.50420826725E+02 -0.20708223452E+00 -0.87399061831E+01  0.51173123911E+02  0.00000000000E+00 0. -1.
         22    1    1    2    0    0  0.61691154335E+02  0.55685271943E+01 -0.93567782347E+02  0.11221290885E+03  0.00000000000E+00 0.  1.
</event>
<event>
 6    1  0.2406404E-005  0.3256856E+03  0.7818608E-02  0.1073273E+00
          2   -1    0    0  502    0  0.00000000000E+00  0.00000000000E+00  0.86132774209E+03  0.86132774209E+03  0.00000000000E+00 0. -1.
          1   -1    0    0  501    0 -0.00000000000E+00 -0.00000000000E+00 -0.13712959386E+03  0.13712959386E+03  0.00000000000E+00 0.  1.
          2    1    1    2  501    0  0.10864971032E+03  0.18629213708E+03  0.16319995246E+03  0.27045100180E+03  0.00000000000E+00 0. -1.
          1    1    1    2  502    0 -0.15332401276E+03 -0.25391918180E+03  0.47325529594E+03  0.55852822571E+03  0.00000000000E+00 0.  1.
         22    1    1    2    0    0 -0.23788443191E+02 -0.12556080949E+02  0.51297317699E+02  0.57922016552E+02  0.00000000000E+00 0. -1.
         22    1    1    2    0    0  0.68462745636E+02  0.80183125667E+02  0.36445582123E+02  0.11155609189E+03  0.00000000000E+00 0. -1.
</event>
<event>
 6    1  0.2406404E-005  0.9248058E+02  0.7818608E-02  0.1301509E+00
          2   -1    0    0  502    0  0.00000000000E+00  0.00000000000E+00  0.15381529728E+03  0.15381529728E+03  0.00000000000E+00 0. -1.
          1   -1    0    0  501    0 -0.00000000000E+00 -0.00000000000E+00 -0.41379940439E+03  0.41379940439E+03  0.00000000000E+00 0.  1.
          2    1    1    2  501    0 -0.60796362751E+02 -0.19592900143E+02  0.79312493760E+02  0.10183590293E+03  0.00000000000E+00 0. -1.
          1    1    1    2  502    0  0.63721864263E+02  0.33155597751E+02 -0.32800278467E+03  0.33577611053E+03  0.00000000000E+00 0.  1.
         22    1    1    2    0    0 -0.86316773998E+01 -0.25382714917E+02  0.55656836064E+02  0.61777596845E+02  0.00000000000E+00 0. -1.
         22    1    1    2    0    0  0.57061758870E+01  0.11820017309E+02 -0.66950652266E+02  0.68225091361E+02  0.00000000000E+00 0.  1.
</event>
<event>
 6    1  0.2406404E-005  0.4986665E+02  0.7818608E-02  0.1504275E+00
          2   -1    0    0  502    0  0.00000000000E+00  0.00000000000E+00  0.20167815361E+03  0.20167815361E+03  0.00000000000E+00 0. -1.
          1   -1    0    0  501    0 -0.00000000000E+00 -0.00000000000E+00 -0.66377338539E+02  0.66377338539E+02  0.00000000000E+00 0. -1.
          2    1    1    2  501    0 -0.26977523512E+02 -0.16626422140E+02  0.76600861309E+02  0.82897024321E+02  0.00000000000E+00 0. -1.
          1    1    1    2  502    0  0.43347555854E+02 -0.24268870387E+01  0.26319525686E+02  0.50770245337E+02  0.00000000000E+00 0. -1.
         22    1    1    2    0    0  0.21814125120E+01  0.21672869681E+02 -0.47544485590E+02  0.52296748950E+02  0.00000000000E+00 0. -1.
         22    1    1    2    0    0 -0.18551444854E+02 -0.26195605022E+01  0.79924913666E+02  0.82091473540E+02  0.00000000000E+00 0. -1.
</event>
<event>
 6    1  0.2406404E-005  0.1578232E+03  0.7818608E-02  0.1191277E+00
          2   -1    0    0  502    0  0.00000000000E+00  0.00000000000E+00  0.67056485265E+03  0.67056485265E+03  0.00000000000E+00 0. -1.
          1   -1    0    0  501    0 -0.00000000000E+00 -0.00000000000E+00 -0.18240026413E+03  0.18240026413E+03  0.00000000000E+00 0. -1.
          2    1    1    2  501    0  0.12772134738E+03  0.50705288026E+01  0.46539568369E+03  0.48262987396E+03  0.00000000000E+00 0. -1.
          1    1    1    2  502    0 -0.12851685748E+03 -0.38164496056E+02 -0.12017274931E+03  0.18004055402E+03  0.00000000000E+00 0. -1.
         22    1    1    2    0    0  0.19558367793E+02  0.18919323258E+02  0.15932686296E+03  0.16163390673E+03  0.00000000000E+00 0.  1.
         22    1    1    2    0    0 -0.18762857689E+02  0.14174643995E+02 -0.16385208819E+02  0.28660782074E+02  0.00000000000E+00 0. -1.
</event>
<event>
 6    1  0.2406404E-005  0.1625418E+03  0.7818608E-02  0.1188777E+00
          2   -1    0    0  502    0  0.00000000000E+00  0.00000000000E+00  0.87062412325E+03  0.87062412325E+03  0.00000000000E+00 0. -1.
          1   -1    0    0  501    0 -0.00000000000E+00 -0.00000000000E+00 -0.29554458330E+02  0.29554458330E+02  0.00000000000E+00 0. -1.
          2    1    1    2  501    0 -0.92270046968E+01  0.37071652110E+02  0.68024456068E+02  0.78017764830E+02  0.00000000000E+00 0. -1.
          1    1    1    2  502    0 -0.30718866452E+02 -0.11663693501E+03  0.27543892065E+03  0.30068991066E+03  0.00000000000E+00 0. -1.
         22    1    1    2    0    0 -0.24336013181E+02 -0.17826473031E+02  0.45831163651E+02  0.54868207915E+02  0.00000000000E+00 0. -1.
         22    1    1    2    0    0  0.64281884330E+02  0.97391755935E+02  0.45177512455E+03  0.46660269817E+03  0.00000000000E+00 0. -1.
</event>
<event>
 6    1  0.2406404E-005  0.7595076E+02  0.7818608E-02  0.1393893E+00
          2   -1    0    0  502    0  0.00000000000E+00  0.00000000000E+00  0.64984896981E+03  0.64984896981E+03  0.00000000000E+00 0. -1.
          1   -1    0    0  501    0 -0.00000000000E+00 -0.00000000000E+00 -0.58635955776E+02  0.58635955776E+02  0.00000000000E+00 0.  1.
          2    1    1    2  501    0  0.33700353266E+00  0.13645203039E+03  0.18544527118E+03  0.23023730969E+03  0.00000000000E+00 0. -1.
          1    1    1    2  502    0 -0.26520827162E+02 -0.53576422829E+02  0.18246757692E+02  0.62503852064E+02  0.00000000000E+00 0.  1.
         22    1    1    2    0    0 -0.14473986416E+01 -0.67758375669E+02  0.37622872943E+03  0.38228438274E+03  0.00000000000E+00 0. -1.
         22    1    1    2    0    0  0.27631222271E+02 -0.15117231888E+02  0.11292255733E+02  0.33459381101E+02  0.00000000000E+00 0.  1.
</event>
<event>
 6    1  0.2406404E-005  0.3337462E+02  0.7818608E-02  0.1586369E+00
          2   -1    0    0  502    0  0.00000000000E+00  0.00000000000E+00  0.23324895453E+03  0.23324895453E+03  0.00000000000E+00 0.  1.
          1   -1    0    0  501    0 -0.00000000000E+00 -0.00000000000E+00 -0.15535309234E+03  0.15535309234E+03  0.00000000000E+00 0.  1.
          2    1    1    2  501    0 -0.35620048222E+02  0.16244892730E+02  0.18146894115E+03  0.18564390907E+03  0.00000000000E+00 0.  1.
          1    1    1    2  502    0  0.38596283941E+02 -0.60454170932E+01 -0.59677588812E+02  0.71327658088E+02  0.00000000000E+00 0.  1.
         22    1    1    2    0    0  0.15927978885E+02  0.48417048308E+00 -0.84282725175E+02  0.85775944736E+02  0.00000000000E+00 0.  1.
         22    1    1    2    0    0 -0.18904214604E+02 -0.10683646120E+02  0.40387235027E+02  0.45854534970E+02  0.00000000000E+00 0. -1.
</event>
<event>
 6    1  0.2406404E-005  0.1187002E+03  0.7818608E-02  0.1253635E+00
          2   -1    0    0  502    0  0.00000000000E+00  0.00000000000E+00  0.19454753189E+03  0.19454753189E+03  0.00000000000E+00 0. -1.
          1   -1    0    0  501    0 -0.00000000000E+00 -0.00000000000E+00 -0.11438518356E+03  0.11438518356E+03  0.00000000000E+00 0.  1.
          2    1    1    2  501    0 -0.50944907784E+01  0.45010339444E+02  0.78975688414E+02  0.91044186270E+02  0.00000000000E+00 0. -1.
          1    1    1    2  502    0  0.48661573276E+02 -0.24188049666E+02 -0.49128144988E+02  0.73256979806E+02  0.00000000000E+00 0.  1.
         22    1    1    2    0    0  0.25150652793E+02 -0.35883446909E+02 -0.17249143417E+02  0.47092568911E+02  0.00000000000E+00 0. -1.
         22    1    1    2    0    0 -0.68717735290E+02  0.15061157132E+02  0.67563948315E+02  0.97538980462E+02  0.00000000000E+00 0. -1.
</event>
<event>
 6    1  0.2406404E-005  0.3398388E+02  0.7818608E-02  0.1567753E+00
          2   -1    0    0  502    0  0.00000000000E+00  0.00000000000E+00  0.14079907609E+03  0.14079907609E+03  0.00000000000E+00 0.  1.
          1   -1    0    0  501    0 -0.00000000000E+00 -0.00000000000E+00 -0.98738442819E+02  0.98738442819E+02  0.00000000000E+00 0. -1.
          2    1    1    2  501    0 -0.36044512325E+02  0.19676525788E+02  0.56596172147E+02  0.69924954327E+02  0.00000000000E+00 0.  1.
          1    1    1    2  502    0  0.29072046753E+02 -0.23635705672E+02 -0.24286880599E+02  0.44650678094E+02  0.00000000000E+00 0. -1.
         22    1    1    2    0    0  0.28241618246E+01 -0.21500321766E+02 -0.52919417358E+02  0.57190073085E+02  0.00000000000E+00 0. -1.
         22    1    1    2    0    0  0.41483037477E+01  0.25459501650E+02  0.62670759076E+02  0.67771813399E+02  0.00000000000E+00 0.  1.
</event>
<event>
 6    1  0.2406404E-005  0.4560193E+02  0.7818608E-02  0.1546743E+00
          2   -1    0    0  502    0  0.00000000000E+00  0.00000000000E+00  0.16286650787E+03  0.16286650787E+03  0.00000000000E+00 0.  1.
          1   -1    0    0  501    0 -0.00000000000E+00 -0.00000000000E+00 -0.13793382301E+03  0.13793382301E+03  0.00000000000E+00 0.  1.
          2    1    1    2  501    0 -0.43674110051E+02  0.18554071574E+02  0.89380593300E+02  0.10119571097E+03  0.00000000000E+00 0.  1.
          1    1    1    2  502    0  0.23970933789E+02  0.30616947070E+01 -0.61774499514E+02  0.66333011626E+02  0.00000000000E+00 0.  1.
         22    1    1    2    0    0  0.20558848943E+02 -0.54307897958E+01 -0.65251435778E+02  0.68628781272E+02  0.00000000000E+00 0.  1.
         22    1    1    2    0    0 -0.85567268107E+00 -0.16184976485E+02  0.62578026852E+02  0.64642827013E+02  0.00000000000E+00 0.  1.
</event>
<event>
 6    1  0.2406404E-005  0.5385813E+02  0.7818608E-02  0.1432469E+00
          2   -1    0    0  502    0  0.00000000000E+00  0.00000000000E+00  0.37215980723E+03  0.37215980723E+03  0.00000000000E+00 0.  1.
          1   -1    0    0  501    0 -0.00000000000E+00 -0.00000000000E+00 -0.60126446193E+02  0.60126446193E+02  0.00000000000E+00 0.  1.
          2    1    1    2  501    0 -0.13916949491E+02 -0.16996650970E+02  0.24787712101E+03  0.24884861814E+03  0.00000000000E+00 0.  1.
          1    1    1    2  502    0  0.21878408599E+02 -0.14884731134E+01 -0.22914855053E+02  0.31717044268E+02  0.00000000000E+00 0.  1.
         22    1    1    2    0    0  0.18293906152E+02  0.19239936810E+02 -0.25087733288E+02  0.36527202634E+02  0.00000000000E+00 0.  1.
         22    1    1    2    0    0 -0.26255365260E+02 -0.75481272619E+00  0.11215882837E+03  0.11519338839E+03  0.00000000000E+00 0.  1.
</event>
<event>
 6    1  0.2406404E-005  0.1261711E+03  0.7818608E-02  0.1294485E+00
          2   -1    0    0  502    0  0.00000000000E+00  0.00000000000E+00  0.10553842617E+03  0.10553842617E+03  0.00000000000E+00 0. -1.
          1   -1    0    0  501    0 -0.00000000000E+00 -0.00000000000E+00 -0.20879823734E+03  0.20879823734E+03  0.00000000000E+00 0. -1.
          2    1    1    2  501    0  0.47127128741E+02 -0.10018758572E+03 -0.30863334832E+01  0.11076120282E+03  0.00000000000E+00 0. -1.
          1    1    1    2  502    0 -0.79072523569E+01  0.27439125723E+02 -0.90744193682E+01  0.29962899511E+02  0.00000000000E+00 0. -1.
         22    1    1    2    0    0 -0.17953330002E+02  0.10439165848E+03 -0.83162360462E+02  0.13466966480E+03  0.00000000000E+00 0. -1.
         22    1    1    2    0    0 -0.21266546382E+02 -0.31643198486E+02 -0.79366978540E+01  0.38942896377E+02  0.00000000000E+00 0. -1.
</event>
<event>
 6    1  0.2406404E-005  0.7610058E+02  0.7818608E-02  0.1344683E+00
          2   -1    0    0  502    0  0.00000000000E+00  0.00000000000E+00  0.45885141214E+02  0.45885141214E+02  0.00000000000E+00 0. -1.
          1   -1    0    0  501    0 -0.00000000000E+00 -0.00000000000E+00 -0.67041914273E+03  0.67041914273E+03  0.00000000000E+00 0.  1.
          2    1    1    2  501    0 -0.15164798602E+02  0.45030935090E+02 -0.14500256149E+02  0.49679106877E+02  0.00000000000E+00 0. -1.
          1    1    1    2  502    0 -0.33784868046E+02 -0.10236389460E+03 -0.35900275699E+03  0.37483698290E+03  0.00000000000E+00 0.  1.
         22    1    1    2    0    0 -0.12306451958E+02  0.21838106033E+02  0.55034267656E+01  0.25663969707E+02  0.00000000000E+00 0. -1.
         22    1    1    2    0    0  0.61256118607E+02  0.35494853474E+02 -0.25653441515E+03  0.26612422446E+03  0.00000000000E+00 0. -1.
</event>
<event>
 6    1  0.2406404E-005  0.7308581E+02  0.7818608E-02  0.1350008E+00
          2   -1    0    0  502    0  0.00000000000E+00  0.00000000000E+00  0.24627851040E+03  0.24627851040E+03  0.00000000000E+00 0. -1.
          1   -1    0    0  501    0 -0.00000000000E+00 -0.00000000000E+00 -0.16081249753E+03  0.16081249753E+03  0.00000000000E+00 0. -1.
          2    1    1    2  501    0 -0.48092290206E+02 -0.12135182707E+02  0.17610996998E+03  0.18296134172E+03  0.00000000000E+00 0. -1.
          1    1    1    2  502    0  0.49821218077E+02  0.24575650235E+01 -0.89974265224E+02  0.10287643948E+03  0.00000000000E+00 0. -1.
         22    1    1    2    0    0  0.20803009216E+02  0.81377899783E+01 -0.56646660928E+02  0.60891978227E+02  0.00000000000E+00 0. -1.
         22    1    1    2    0    0 -0.22531937087E+02  0.15398277050E+01  0.55976969046E+02  0.60361248512E+02  0.00000000000E+00 0. -1.
</event>
<event>
 6    1  0.2406404E-005  0.7424484E+02  0.7818608E-02  0.1421519E+00
          2   -1    0    0  502    0  0.00000000000E+00  0.00000000000E+00  0.28989105748E+03  0.28989105748E+03  0.00000000000E+00 0.  1.
          1   -1    0    0  501    0 -0.00000000000E+00 -0.00000000000E+00 -0.71971613860E+02  0.71971613860E+02  0.00000000000E+00 0.  1.
          2    1    1    2  501    0 -0.50194017973E+02 -0.24586889924E+02  0.14228410992E+03  0.15286831762E+03  0.00000000000E+00 0.  1.
          1    1    1    2  502    0  0.47048489200E+02  0.97497245523E+01 -0.17195603555E+02  0.51032403887E+02  0.00000000000E+00 0.  1.
         22    1    1    2    0    0 -0.21252561203E+02  0.51867125127E+01  0.11894725200E+03  0.12094222630E+03  0.00000000000E+00 0.  1.
         22    1    1    2    0    0  0.24398089976E+02  0.96504528587E+01 -0.26116314742E+02  0.37019723534E+02  0.00000000000E+00 0.  1.
</event>
<event>
 6    1  0.2406404E-005  0.4396322E+02  0.7818608E-02  0.1546140E+00
          2   -1    0    0  502    0  0.00000000000E+00  0.00000000000E+00  0.73923450900E+02  0.73923450900E+02  0.00000000000E+00 0. -1.
          1   -1    0    0  501    0 -0.00000000000E+00 -0.00000000000E+00 -0.17313056026E+03  0.17313056026E+03  0.00000000000E+00 0.  1.
          2    1    1    2  501    0 -0.36661006292E+02 -0.47881728172E+01 -0.11971089264E+02  0.38862101841E+02  0.00000000000E+00 0. -1.
          1    1    1    2  502    0  0.17548817556E+02  0.18017510042E+02 -0.74135147287E+02  0.78285450302E+02  0.00000000000E+00 0.  1.
         22    1    1    2    0    0  0.20122220707E+02  0.49723584070E+01 -0.68509315782E+02  0.71576214368E+02  0.00000000000E+00 0.  1.
         22    1    1    2    0    0 -0.10100319705E+01 -0.18201695631E+02  0.55408442972E+02  0.58330244651E+02  0.00000000000E+00 0. -1.
</event>
<event>
 6    1  0.2406404E-005  0.8407864E+02  0.7818608E-02  0.1414334E+00
          2   -1    0    0  502    0  0.00000000000E+00  0.00000000000E+00  0.25211700608E+03  0.25211700608E+03  0.00000000000E+00 0.  1.
          1   -1    0    0  501    0 -0.00000000000E+00 -0.00000000000E+00 -0.17046844312E+03  0.17046844312E+03  0.00000000000E+00 0. -1.
          2    1    1    2  501    0  0.51248221025E+02  0.48864700386E+02  0.16785999112E+03  0.18218429054E+03  0.00000000000E+00 0.  1.
          1    1    1    2  502    0 -0.47299557716E+02 -0.71863173095E+02 -0.64544586134E+02  0.10755262622E+03  0.00000000000E+00 0. -1.
         22    1    1    2    0    0 -0.90671609895E+01  0.14177419964E+02 -0.75859917905E+02  0.77704181289E+02  0.00000000000E+00 0. -1.
         22    1    1    2    0    0  0.51184976805E+01  0.88210527447E+01  0.54193075875E+02  0.55144351142E+02  0.00000000000E+00 0. -1.
</event>
<event>
 6    1  0.2406404E-005  0.9846384E+02  0.7818608E-02  0.1292215E+00
          2   -1    0    0  502    0  0.00000000000E+00  0.00000000000E+00  0.42870038871E+03  0.42870038871E+03  0.00000000000E+00 0.  1.
          1   -1    0    0  501    0 -0.00000000000E+00 -0.00000000000E+00 -0.22668883707E+02  0.22668883707E+02  0.00000000000E+00 0.  1.
          2    1    1    2  501    0  0.31508135196E+02 -0.54686836947E+01  0.13974759084E+03  0.14335989059E+03  0.00000000000E+00 0.  1.
          1    1    1    2  502    0 -0.19676480162E+02  0.13890503560E+02  0.74850502081E+02  0.78630195361E+02  0.00000000000E+00 0.  1.
         22    1    1    2    0    0  0.36664836821E+02  0.33543086806E+02  0.13534750209E+03  0.14418181319E+03  0.00000000000E+00 0.  1.
         22    1    1    2    0    0 -0.48496491854E+02 -0.41964906672E+02  0.56085909992E+02  0.85197373280E+02  0.00000000000E+00 0.  1.
</event>
<event>
 6    1  0.2406404E-005  0.1010851E+03  0.7818608E-02  0.1344825E+00
          2   -1    0    0  502    0  0.00000000000E+00  0.00000000000E+00  0.10840337386E+03  0.10840337386E+03  0.00000000000E+00 0.  1.
          1   -1    0    0  501    0 -0.00000000000E+00 -0.00000000000E+00 -0.28393707008E+03  0.28393707008E+03  0.00000000000E+00 0.  1.
          2    1    1    2  501    0  0.31585481660E+02  0.69532883391E+02  0.36514341139E+02  0.84650821810E+02  0.00000000000E+00 0.  1.
          1    1    1    2  502    0 -0.64627850798E+01 -0.84233185438E+02 -0.12683220901E+03  0.15239227790E+03  0.00000000000E+00 0.  1.
         22    1    1    2    0    0 -0.28144277894E+02 -0.10767342625E+02 -0.11331545150E+03  0.11725368904E+03  0.00000000000E+00 0. -1.
         22    1    1    2    0    0  0.30215813142E+01  0.25467644672E+02  0.28099623154E+02  0.38043655189E+02  0.00000000000E+00 0.  1.
</event>
<event>
 6    1  0.2406404E-005  0.1094261E+03  0.7818608E-02  0.1267219E+00
          2   -1    0    0  502    0  0.00000000000E+00  0.00000000000E+00  0.38190435459E+02  0.38190435459E+02  0.00000000000E+00 0.  1.
          1   -1    0    0  501    0 -0.00000000000E+00 -0.00000000000E+00 -0.46042683416E+03  0.46042683416E+03  0.00000000000E+00 0. -1.
          2    1    1    2  501    0  0.68396339559E+02  0.37264982812E+02 -0.55110552467E+02  0.95414418209E+02  0.00000000000E+00 0.  1.
          1    1    1    2  502    0 -0.21612142974E+02  0.11480249733E+02 -0.40635560650E+02  0.47435531484E+02  0.00000000000E+00 0. -1.
         22    1    1    2    0    0  0.12903065909E+02  0.69370252970E+00  0.60835343599E+01  0.14282147015E+02  0.00000000000E+00 0.  1.
         22    1    1    2    0    0 -0.59687262495E+02 -0.49438935075E+02 -0.33257381995E+03  0.34148517291E+03  0.00000000000E+00 0. -1.
</event>
<event>
 6    1  0.2406404E-005  0.4706801E+02  0.7818608E-02  0.1519144E+00
          2   -1    0    0  502    0  0.00000000000E+00  0.00000000000E+00  0.15485752072E+03  0.15485752072E+03  0.00000000000E+00 0. -1.
          1   -1    0    0  501    0 -0.00000000000E+00 -0.00000000000E+00 -0.93580390810E+02  0.93580390810E+02  0.00000000000E+00 0.  1.
          2    1    1    2  501    0  0.40679644305E+02  0.74783921668E+01  0.68615026192E+02  0.80117299190E+02  0.00000000000E+00 0. -1.
          1    1    1    2  502    0 -0.24781780482E+02  0.14450725033E+01 -0.28580043566E+02  0.37855564567E+02  0.00000000000E+00 0.  1.
         22    1    1    2    0    0 -0.15964409620E+02  0.12261031572E+02 -0.51186254587E+02  0.55002072037E+02  0.00000000000E+00 0.  1.
         22    1    1    2    0    0  0.66545797123E-01 -0.21184496242E+02  0.72428401874E+02  0.75462975739E+02  0.00000000000E+00 0. -1.
</event>
<event>
 6    1  0.2406404E-005  0.1043468E+03  0.7818608E-02  0.1275898E+00
          2   -1    0    0  502    0  0.00000000000E+00  0.00000000000E+00  0.11280472224E+03  0.11280472224E+03  0.00000000000E+00 0.  1.
          1   -1    0    0  501    0 -0.00000000000E+00 -0.00000000000E+00 -0.10293452381E+03  0.10293452381E+03  0.00000000000E+00 0.  1.
          2    1    1    2  501    0  0.26640681240E+02  0.11768757185E+02  0.27023256002E+01  0.29249480444E+02  0.00000000000E+00 0.  1.
          1    1    1    2  502    0 -0.30949599633E+02 -0.39270864654E+02 -0.28127757863E+02  0.57369410756E+02  0.00000000000E+00 0.  1.
         22    1    1    2    0    0 -0.52186561516E+02 -0.21418766657E+01 -0.68183916759E+01  0.52673668028E+02  0.00000000000E+00 0.  1.
         22    1    1    2    0    0  0.56495479909E+02  0.29643984134E+02  0.42114022368E+02  0.76446686818E+02  0.00000000000E+00 0.  1.
</event>
<event>
 6    1  0.2406404E-005  0.1359758E+03  0.7818608E-02  0.1319574E+00
          2   -1    0    0  502    0  0.00000000000E+00  0.00000000000E+00  0.34341729457E+03  0.34341729457E+03  0.00000000000E+00 0.  1.
          1   -1    0    0  501    0 -0.00000000000E+00 -0.00000000000E+00 -0.28572277059E+03  0.28572277059E+03  0.00000000000E+00 0.  1.
          2    1    1    2  501    0  0.10717558664E+02 -0.12319899865E+03 -0.23024550822E+03  0.26135388535E+03  0.00000000000E+00 0.  1.
          1    1    1    2  502    0 -0.52681827705E+02  0.12044301018E+02  0.63856639433E+02  0.83654710310E+02  0.00000000000E+00 0.  1.
         22    1    1    2    0    0 -0.29375374286E+01 -0.19051256708E+02 -0.20196100344E+01  0.19381907362E+02  0.00000000000E+00 0.  1.
         22    1    1    2    0    0  0.44901806470E+02  0.13020595434E+03  0.22610300280E+03  0.26474956213E+03  0.00000000000E+00 0.  1.
</event>
<event>
 6    1  0.2406404E-005  0.1207136E+03  0.7818608E-02  0.1243064E+00
          2   -1    0    0  502    0  0.00000000000E+00  0.00000000000E+00  0.79948887384E+02  0.79948887384E+02  0.00000000000E+00 0. -1.
          1   -1    0    0  501    0 -0.00000000000E+00 -0.00000000000E+00 -0.19564182381E+03  0.19564182381E+03  0.00000000000E+00 0. -1.
          2    1    1    2  501    0  0.15306077236E+02  0.17711208524E+02 -0.58332965074E+02  0.62854575983E+02  0.00000000000E+00 0. -1.
          1    1    1    2  502    0 -0.39942208690E+02 -0.56511517454E+02 -0.19334427854E+02  0.71852291129E+02  0.00000000000E+00 0. -1.
         22    1    1    2    0    0  0.98561771613E+01  0.83497302684E+02 -0.41338817129E+02  0.93690136009E+02  0.00000000000E+00 0. -1.
         22    1    1    2    0    0  0.14779954292E+02 -0.44696993753E+02  0.33132736312E+01  0.47193708073E+02  0.00000000000E+00 0. -1.
</event>
<event>
 6    1  0.2406404E-005  0.1696475E+03  0.7818608E-02  0.1193564E+00
          2   -1    0    0  502    0  0.00000000000E+00  0.00000000000E+00  0.18457756559E+03  0.18457756559E+03  0.00000000000E+00 0. -1.
          1   -1    0    0  501    0 -0.00000000000E+00 -0.00000000000E+00 -0.19375717990E+03  0.19375717990E+03  0.00000000000E+00 0. -1.
          2    1    1    2  501    0  0.16008268192E+02 -0.26182131604E+02  0.35213082603E+02  0.46708991128E+02  0.00000000000E+00 0. -1.
          1    1    1    2  502    0 -0.56731101520E+02 -0.87737517021E+02 -0.10558376022E+03  0.14854029822E+03  0.00000000000E+00 0. -1.
         22    1    1    2    0    0 -0.21639932803E+01 -0.15848778341E+02 -0.18833094269E+02  0.24709352107E+02  0.00000000000E+00 0. -1.
         22    1    1    2    0    0  0.42886826608E+02  0.12976842697E+03  0.80024157573E+02  0.15837610403E+03  0.00000000000E+00 0. -1.
</event>
<event>
 6    1  0.2406404E-005  0.1381231E+03  0.7818608E-02  0.1233171E+00
          2   -1    0    0  502    0  0.00000000000E+00  0.00000000000E+00  0.65651121662E+03  0.65651121662E+03  0.00000000000E+00 0. -1.
          1   -1    0    0  501    0 -0.00000000000E+00 -0.00000000000E+00 -0.46332013819E+02  0.46332013819E+02  0.00000000000E+00 0. -1.
          2    1    1    2  501    0  0.40393547016E+02  0.73377536157E+02  0.44096092550E+03  0.44884567422E+03  0.00000000000E+00 0. -1.
          1    1    1    2  502    0  0.28578409663E+01  0.23302866097E+02  0.33894334445E+02  0.41231259146E+02  0.00000000000E+00 0. -1.
         22    1    1    2    0    0 -0.21527890416E+02 -0.44613623465E+02  0.14702773865E+03  0.15514825618E+03  0.00000000000E+00 0. -1.
         22    1    1    2    0    0 -0.21723497566E+02 -0.52066778789E+02 -0.11703795789E+02  0.57618040888E+02  0.00000000000E+00 0. -1.
</event>
<event>
 6    1  0.2406404E-005  0.6000253E+02  0.7818608E-02  0.1425947E+00
          2   -1    0    0  502    0  0.00000000000E+00  0.00000000000E+00  0.40367733840E+02  0.40367733840E+02  0.00000000000E+00 0. -1.
          1   -1    0    0  501    0 -0.00000000000E+00 -0.00000000000E+00 -0.36154809279E+03  0.36154809279E+03  0.00000000000E+00 0.  1.
          2    1    1    2  501    0 -0.30179702372E+02  0.90588687036E+01 -0.35757112471E+01  0.31712194002E+02  0.00000000000E+00 0. -1.
          1    1    1    2  502    0  0.31106425847E+02 -0.29644356685E+02 -0.16514264573E+03  0.17064141072E+03  0.00000000000E+00 0.  1.
         22    1    1    2    0    0 -0.30277250045E+02 -0.46840376384E+01  0.10248272691E+02  0.32306023773E+02  0.00000000000E+00 0. -1.
         22    1    1    2    0    0  0.29350526571E+02  0.25269525620E+02 -0.16271027466E+03  0.16725619814E+03  0.00000000000E+00 0.  1.
</event>
<event>
 6    1  0.2406404E-005  0.1596131E+03  0.7818608E-02  0.1207369E+00
          2   -1    0    0  502    0  0.00000000000E+00  0.00000000000E+00  0.54142582866E+03  0.54142582866E+03  0.00000000000E+00 0.  1.
          1   -1    0    0  501    0 -0.00000000000E+00 -0.00000000000E+00 -0.61819940676E+02  0.61819940676E+02  0.00000000000E+00 0.  1.
          2    1    1    2  501    0 -0.15911351199E+02 -0.12385995648E+02  0.54219178806E+00  0.20171216054E+02  0.00000000000E+00 0.  1.
          1    1    1    2  502    0  0.90128485076E+02  0.21183919214E+02  0.11917150254E+02  0.93348383626E+02  0.00000000000E+00 0.  1.
         22    1    1    2    0    0 -0.79904288697E+02  0.44275033686E+01  0.46848197630E+03  0.47526798783E+03  0.00000000000E+00 0.  1.
         22    1    1    2    0    0  0.56871548193E+01 -0.13225426935E+02 -0.13354303567E+01  0.14458181829E+02  0.00000000000E+00 0.  1.
</event>
<event>
 6    1  0.2406404E-005  0.6735961E+02  0.7818608E-02  0.1374346E+00
          2   -1    0    0  502    0  0.00000000000E+00  0.00000000000E+00  0.76237467823E+02  0.76237467823E+02  0.00000000000E+00 0.  1.
          1   -1    0    0  501    0 -0.00000000000E+00 -0.00000000000E+00 -0.21428981626E+03  0.21428981626E+03  0.00000000000E+00 0. -1.
          2    1    1    2  501    0 -0.27208393810E+02  0.15985639593E+02  0.21299899505E+02  0.38072602825E+02  0.00000000000E+00 0.  1.
          1    1    1    2  502    0  0.20126998004E+02 -0.33943794264E+02 -0.10192680948E+03  0.10929936737E+03  0.00000000000E+00 0. -1.
         22    1    1    2    0    0  0.27144054392E+02 -0.32950513526E+01 -0.93102809532E+02  0.97034994692E+02  0.00000000000E+00 0. -1.
         22    1    1    2    0    0 -0.20062658585E+02  0.21253206024E+02  0.35677371070E+02  0.46120319191E+02  0.00000000000E+00 0.  1.
</event>
<event>
 6    1  0.2406404E-005  0.7292903E+02  0.7818608E-02  0.1364599E+00
          2   -1    0    0  502    0  0.00000000000E+00  0.00000000000E+00  0.90167629178E+02  0.90167629178E+02  0.00000000000E+00 0.  1.
          1   -1    0    0  501    0 -0.00000000000E+00 -0.00000000000E+00 -0.92426755689E+02  0.92426755689E+02  0.00000000000E+00 0.  1.
          2    1    1    2  501    0  0.24338826001E+02  0.38196321163E+01  0.11560997980E+02  0.27214421084E+02  0.00000000000E+00 0.  1.
          1    1    1    2  502    0 -0.25308106702E+02  0.65060131626E+01 -0.36398514049E+01  0.26383271032E+02  0.00000000000E+00 0.  1.
         22    1    1    2    0    0 -0.97804375902E+01 -0.35025734346E+02 -0.61264753688E+02  0.71244852939E+02  0.00000000000E+00 0.  1.
         22    1    1    2    0    0  0.10749718290E+02  0.24700089067E+02  0.51084480602E+02  0.57751839812E+02  0.00000000000E+00 0.  1.
</event>
<event>
 6    1  0.2406404E-005  0.1830336E+03  0.7818608E-02  0.1181955E+00
          2   -1    0    0  502    0  0.00000000000E+00  0.00000000000E+00  0.35327596833E+03  0.35327596833E+03  0.00000000000E+00 0.  1.
          1   -1    0    0  501    0 -0.00000000000E+00 -0.00000000000E+00 -0.73937562446E+02  0.73937562446E+02  0.00000000000E+00 0.  1.
          2    1    1    2  501    0  0.57679107638E+01  0.94989903019E+02  0.11079182985E+03  0.14605197716E+03  0.00000000000E+00 0.  1.
          1    1    1    2  502    0 -0.22387195680E+02 -0.51736032211E+02  0.12629925744E+03  0.13830873432E+03  0.00000000000E+00 0.  1.
         22    1    1    2    0    0  0.82143289430E+01 -0.63270085860E+02 -0.27743767756E+02  0.69572233068E+02  0.00000000000E+00 0.  1.
         22    1    1    2    0    0  0.84049559729E+01  0.20016215052E+02  0.69991086352E+02  0.73280586233E+02  0.00000000000E+00 0.  1.
</event>
<event>
 6    1  0.2406404E-005  0.3650679E+02  0.7818608E-02  0.1538157E+00
          2   -1    0    0  502    0  0.00000000000E+00  0.00000000000E+00  0.15596180430E+03  0.15596180430E+03  0.00000000000E+00 0.  1.
          1   -1    0    0  501    0 -0.00000000000E+00 -0.00000000000E+00 -0.18822794318E+03  0.18822794318E+03  0.00000000000E+00 0.  1.
          2    1    1    2  501    0 -0.67931606549E+01 -0.18837620576E+02  0.86991285472E+02  0.89266380731E+02  0.00000000000E+00 0.  1.
          1    1    1    2  502    0  0.11516989542E+02  0.20861964027E+02 -0.13059483083E+03  0.13275116734E+03  0.00000000000E+00 0.  1.
         22    1    1    2    0    0 -0.13900510198E+02 -0.87877076969E+01  0.65135550003E+02  0.67179519681E+02  0.00000000000E+00 0.  1.
         22    1    1    2    0    0  0.91766813111E+01  0.67633642454E+01 -0.53798143535E+02  0.54992679727E+02  0.00000000000E+00 0.  1.
</event>
<event>
 6    1  0.2406404E-005  0.4662185E+02  0.7818608E-02  0.1467251E+00
          2   -1    0    0  502    0  0.00000000000E+00  0.00000000000E+00  0.11658758259E+03  0.11658758259E+03  0.00000000000E+00 0. -1.
          1   -1    0    0  501    0 -0.00000000000E+00 -0.00000000000E+00 -0.21355353006E+03  0.21355353006E+03  0.00000000000E+00 0. -1.
          2    1    1    2  501    0  0.55966660049E+01 -0.20576374758E+02  0.33806027414E+02  0.39969455314E+02  0.00000000000E+00 0. -1.
          1    1    1    2  502    0  0.44655940962E+01  0.31532830287E+02 -0.15799194527E+03  0.16116983491E+03  0.00000000000E+00 0. -1.
         22    1    1    2    0    0 -0.45100086928E+01 -0.22321130545E+02  0.75621016514E+02  0.78975383416E+02  0.00000000000E+00 0. -1.
         22    1    1    2    0    0 -0.55522514084E+01  0.11364675015E+02 -0.48401046129E+02  0.50026439013E+02  0.00000000000E+00 0.  1.
</event>
<event>
 6    1  0.2406404E-005  0.5991267E+02  0.7818608E-02  0.1476775E+00
          2   -1    0    0  502    0  0.00000000000E+00  0.00000000000E+00  0.89032981884E+03  0.89032981884E+03  0.00000000000E+00 0.  1.
          1   -1    0    0  501    0 -0.00000000000E+00 -0.00000000000E+00 -0.22458219736E+03  0.22458219736E+03  0.00000000000E+00 0. -1.
          2    1    1    2  501    0  0.57379347569E+02  0.95278722210E+01  0.80067594932E+03  0.80278586541E+03  0.00000000000E+00 0.  1.
          1    1    1    2  502    0 -0.42597082938E+02  0.34983688861E+01 -0.17318301071E+03  0.17837910545E+03  0.00000000000E+00 0. -1.
         22    1    1    2    0    0  0.70115998637E+00 -0.18405776539E+02  0.83560903832E+02  0.85566867913E+02  0.00000000000E+00 0. -1.
         22    1    1    2    0    0 -0.15483424617E+02  0.53795354319E+01 -0.45306220964E+02  0.48180177432E+02  0.00000000000E+00 0. -1.
</event>
<event>
 6    1  0.2406404E-005  0.2474644E+02  0.7818608E-02  0.1688943E+00
          2   -1    0    0  502    0  0.00000000000E+00  0.00000000000E+00  0.14542686483E+03  0.14542686483E+03  0.00000000000E+00 0. -1.
          1   -1    0    0  501    0 -0.00000000000E+00 -0.00000000000E+00 -0.37250088678E+03  0.37250088678E+03  0.00000000000E+00 0. -1.
          2    1    1    2  501    0 -0.32309494700E+01 -0.26996068144E+02  0.58942413870E+02  0.64910976595E+02  0.00000000000E+00 0. -1.
          1    1    1    2  502    0 -0.60516780811E+01  0.25008867365E+02 -0.32270151715E+03  0.32372571017E+03  0.00000000000E+00 0. -1.
         22    1    1    2    0    0  0.23651410838E+02  0.14391728637E+02  0.78570113234E+02  0.83305304642E+02  0.00000000000E+00 0. -1.
         22    1    1    2    0    0 -0.14368783287E+02 -0.12404527857E+02 -0.41885031901E+02  0.45985760208E+02  0.00000000000E+00 0. -1.
</event>
<event>
 6    1  0.2406404E-005  0.5302452E+02  0.7818608E-02  0.1509032E+00
          2   -1    0    0  502    0  0.00000000000E+00  0.00000000000E+00  0.23245609655E+03  0.23245609655E+03  0.00000000000E+00 0.  1.
          1   -1    0    0  501    0 -0.00000000000E+00 -0.00000000000E+00 -0.10664898541E+03  0.10664898541E+03  0.00000000000E+00 0. -1.
          2    1    1    2  501    0  0.56462098670E+02 -0.36696772627E+02  0.13901047800E+03  0.15446208176E+03  0.00000000000E+00 0.  1.
          1    1    1    2  502    0 -0.27737194996E+02  0.97516936723E+01 -0.44865431560E+02  0.53640977478E+02  0.00000000000E+00 0. -1.
         22    1    1    2    0    0 -0.11483456838E+02  0.12509643906E+02  0.77823648541E+02  0.79654762845E+02  0.00000000000E+00 0. -1.
         22    1    1    2    0    0 -0.17241446836E+02  0.14435435048E+02 -0.46161583844E+02  0.51347259879E+02  0.00000000000E+00 0.  1.
</event>
<event>
 6    1  0.2406404E-005  0.6365934E+02  0.7818608E-02  0.1383283E+00
          2   -1    0    0  502    0  0.00000000000E+00  0.00000000000E+00  0.29847911312E+03  0.29847911312E+03  0.00000000000E+00 0.  1.
          1   -1    0    0  501    0 -0.00000000000E+00 -0.00000000000E+00 -0.15356705389E+03  0.15356705389E+03  0.00000000000E+00 0. -1.
          2    1    1    2  501    0  0.14052663716E+02 -0.21311564002E+02  0.93100480984E+02  0.96536830677E+02  0.00000000000E+00 0.  1.
          1    1    1    2  502    0 -0.36843112173E+02  0.34927299853E+02 -0.12785995966E+03  0.13756998392E+03  0.00000000000E+00 0. -1.
         22    1    1    2    0    0 -0.55939157309E+01  0.10026792321E+02 -0.15507410691E+02  0.19295290715E+02  0.00000000000E+00 0. -1.
         22    1    1    2    0    0  0.28384364188E+02 -0.23642528172E+02  0.19517894860E+03  0.19864406169E+03  0.00000000000E+00 0.  1.
</event>
<event>
 6    1  0.2406404E-005  0.3447069E+02  0.7818608E-02  0.1619886E+00
          2   -1    0    0  502    0  0.00000000000E+00  0.00000000000E+00  0.69574005307E+02  0.69574005307E+02  0.00000000000E+00 0. -1.
          1   -1    0    0  501    0 -0.00000000000E+00 -0.00000000000E+00 -0.22409598682E+03  0.22409598682E+03  0.00000000000E+00 0. -1.
          2    1    1    2  501    0  0.79363168817E+01 -0.39894073617E+02 -0.61983425771E+01  0.41145372596E+02  0.00000000000E+00 0. -1.
          1    1    1    2  502    0 -0.45674119632E+02  0.33081660287E+02 -0.99490486787E+02  0.11436292412E+03  0.00000000000E+00 0. -1.
         22    1    1    2    0    0  0.58002006991E+01  0.13382657122E+02  0.40509336661E+02  0.43055129736E+02  0.00000000000E+00 0. -1.
         22    1    1    2    0    0  0.31937602052E+02 -0.65702437929E+01 -0.89342488805E+02  0.95106565673E+02  0.00000000000E+00 0. -1.
</event>
<event>
 6    1  0.2406404E-005  0.7763859E+02  0.7818608E-02  0.1447229E+00
          2   -1    0    0  502    0  0.00000000000E+00  0.00000000000E+00  0.21296550779E+03  0.21296550779E+03  0.00000000000E+00 0. -1.
          1   -1    0    0  501    0 -0.00000000000E+00 -0.00000000000E+00 -0.28959009558E+03  0.28959009558E+03  0.00000000000E+00 0.  1.
          2    1    1    2  501    0  0.30387994785E+02  0.26294288431E+02  0.79294574869E+02  0.88895722253E+02  0.00000000000E+00 0. -1.
          1    1    1    2  502    0 -0.64235199989E+02 -0.18510528618E+02 -0.24455601194E+03  0.25352799365E+03  0.00000000000E+00 0.  1.
         22    1    1    2    0    0 -0.88366318131E+00 -0.12956888919E+02 -0.31975423127E+02  0.34512164743E+02  0.00000000000E+00 0. -1.
         22    1    1    2    0    0  0.34730868386E+02  0.51731291060E+01  0.12061227240E+03  0.12561972273E+03  0.00000000000E+00 0. -1.
</event>
<event>
 6    1  0.2406404E-005  0.1048236E+03  0.7818608E-02  0.1287810E+00
          2   -1    0    0  502    0  0.00000000000E+00  0.00000000000E+00  0.11626659266E+03  0.11626659266E+03  0.00000000000E+00 0. -1.
          1   -1    0    0  501    0 -0.00000000000E+00 -0.00000000000E+00 -0.21497737734E+03  0.21497737734E+03  0.00000000000E+00 0. -1.
          2    1    1    2  501    0 -0.17021479977E+02 -0.51195525615E+02  0.42281752555E+02  0.68545307809E+02  0.00000000000E+00 0. -1.
          1    1    1    2  502    0  0.47646797271E+02  0.16903349114E+02 -0.11528862924E+03  0.12588649067E+03  0.00000000000E+00 0. -1.
         22    1    1    2    0    0 -0.44481621803E+01 -0.10518821357E+02  0.46506022190E+02  0.47887804809E+02  0.00000000000E+00 0. -1.
         22    1    1    2    0    0 -0.26177155114E+02  0.44810997857E+02 -0.72209930186E+02  0.88924366719E+02  0.00000000000E+00 0. -1.
</event>
<event>
 6    1  0.2406404E-005  0.2951765E+03  0.7818608E-02  0.1101891E+00
          2   -1    0    0  502    0  0.00000000000E+00  0.00000000000E+00  0.61936520215E+02  0.61936520215E+02  0.00000000000E+00 0.  1.
          1   -1    0    0  501    0 -0.00000000000E+00 -0.00000000000E+00 -0.14917757780E+04  0.14917757780E+04  0.00000000000E+00 0.  1.
          2    1    1    2  501    0  0.25638399853E+02 -0.21124756562E+02 -0.24968412256E+03  0.25188438607E+03  0.00000000000E+00 0.  1.
          1    1    1    2  502    0  0.64312084422E+02 -0.16566646517E+03 -0.95618476097E+03  0.97255885117E+03  0.00000000000E+00 0.  1.
         22    1    1    2    0    0 -0.18595358247E+02  0.17011465923E+02 -0.10964488762E+03  0.11250412749E+03  0.00000000000E+00 0.  1.
         22    1    1    2    0    0 -0.71355126027E+02  0.16977975581E+03 -0.11432548662E+03  0.21676493347E+03  0.00000000000E+00 0.  1.
</event>
<event>
 6    1  0.2406404E-005  0.1140118E+03  0.7818608E-02  0.1255563E+00
          2   -1    0    0  502    0  0.00000000000E+00  0.00000000000E+00  0.76908339325E+03  0.76908339325E+03  0.00000000000E+00 0.  1.
          1   -1    0    0  501    0 -0.00000000000E+00 -0.00000000000E+00 -0.36916505336E+02  0.36916505336E+02  0.00000000000E+00 0.  1.
          2    1    1    2  501    0 -0.52005564743E+02  0.19708779623E+02  0.47120114937E+03  0.47447185157E+03  0.00000000000E+00 0.  1.
          1    1    1    2  502    0  0.58627333006E+02  0.10175682830E+01  0.29073776561E+02  0.65448331561E+02  0.00000000000E+00 0.  1.
         22    1    1    2    0    0 -0.50692379132E+02  0.33867741905E+01  0.20051177797E+03  0.20684815843E+03  0.00000000000E+00 0.  1.
         22    1    1    2    0    0  0.44070610868E+02 -0.24113122096E+02  0.31380184011E+02  0.59231557029E+02  0.00000000000E+00 0. -1.
</event>
<event>
 6    1  0.2406404E-005  0.8335993E+02  0.7818608E-02  0.1320077E+00
          2   -1    0    0  502    0  0.00000000000E+00  0.00000000000E+00  0.35187287145E+03  0.35187287145E+03  0.00000000000E+00 0.  1.
          1   -1    0    0  501    0 -0.00000000000E+00 -0.00000000000E+00 -0.27948458218E+03  0.27948458218E+03  0.00000000000E+00 0. -1.
          2    1    1    2  501    0 -0.62907116075E+02  0.20539533677E+02  0.24914781174E+03  0.25778636464E+03  0.00000000000E+00 0.  1.
          1    1    1    2  502    0  0.61164420832E+02 -0.18787306893E+02 -0.23232916157E+03  0.24097902106E+03  0.00000000000E+00 0. -1.
         22    1    1    2    0    0 -0.15518647090E+02  0.57736377513E+00  0.91422576732E+02  0.92732137325E+02  0.00000000000E+00 0.  1.
         22    1    1    2    0    0  0.17261342333E+02 -0.23295905594E+01 -0.35852937634E+02  0.39859930611E+02  0.00000000000E+00 0.  1.
</event>
<event>
 6    1  0.2406404E-005  0.1905536E+03  0.7818608E-02  0.1159228E+00
          2   -1    0    0  502    0  0.00000000000E+00  0.00000000000E+00  0.16249179952E+03  0.16249179952E+03  0.00000000000E+00 0. -1.
          1   -1    0    0  501    0 -0.00000000000E+00 -0.00000000000E+00 -0.21735305879E+03  0.21735305879E+03  0.00000000000E+00 0. -1.
          2    1    1    2  501    0  0.74681907663E+02  0.55596188526E+02 -0.24867161084E+02  0.96367521558E+02  0.00000000000E+00 0. -1.
          1    1    1    2  502    0 -0.88495511030E+02 -0.11121023292E+03 -0.44226329206E+00  0.14212447704E+03  0.00000000000E+00 0. -1.
         22    1    1    2    0    0 -0.90606279020E+01 -0.38522115684E+02 -0.19019434478E+02  0.43906574253E+02  0.00000000000E+00 0. -1.
         22    1    1    2    0    0  0.22874231269E+02  0.94136160076E+02 -0.10532400419E+02  0.97446285453E+02  0.00000000000E+00 0.  1.
</event>
<event>
 6    1  0.2406404E-005  0.1871717E+03  0.7818608E-02  0.1163263E+00
          2   -1    0    0  502    0  0.00000000000E+00  0.00000000000E+00  0.40035472692E+03  0.40035472692E+03  0.00000000000E+00 0. -1.
          1   -1    0    0  501    0 -0.00000000000E+00 -0.00000000000E+00 -0.31924363530E+03  0.31924363530E+03  0.00000000000E+00 0. -1.
          2    1    1    2  501    0  0.14548797904E+03 -0.57559654308E+02  0.29609162735E+03  0.33488821663E+03  0.00000000000E+00 0. -1.
          1    1    1    2  502    0 -0.11363427644E+03  0.64503174138E+02 -0.21765572281E+03  0.25386496790E+03  0.00000000000E+00 0. -1.
         22    1    1    2    0    0 -0.51119835348E+02 -0.13977997907E+02 -0.50898393874E+02  0.73479714823E+02  0.00000000000E+00 0.  1.
         22    1    1    2    0    0  0.19266132752E+02  0.70344780779E+01  0.53573580955E+02  0.57365462863E+02  0.00000000000E+00 0. -1.
</event>
<event>
 6    1  0.2406404E-005  0.3470603E+02  0.7818608E-02  0.1592275E+00
          2   -1    0    0  502    0  0.00000000000E+00  0.00000000000E+00  0.14093761463E+03  0.14093761463E+03  0.00000000000E+00 0. -1.
          1   -1    0    0  501    0 -0.00000000000E+00 -0.00000000000E+00 -0.10301936380E+03  0.10301936380E+03  0.00000000000E+00 0. -1.
          2    1    1    2  501    0  0.13906301062E+02 -0.52639334953E+02  0.52286698156E+02  0.75486313975E+02  0.00000000000E+00 0. -1.
          1    1    1    2  502    0 -0.22353174122E+02  0.38423607463E+02 -0.55775891885E+01  0.44801199816E+02  0.00000000000E+00 0. -1.
         22    1    1    2    0    0 -0.13787402804E+02  0.37432708439E+01 -0.62761128745E+02  0.64366636032E+02  0.00000000000E+00 0. -1.
         22    1    1    2    0    0  0.22234275863E+02  0.10472456646E+02  0.53970270608E+02  0.59302828608E+02  0.00000000000E+00 0.  1.
</event>
<event>
 6    1  0.2406404E-005  0.1522562E+03  0.7818608E-02  0.1200766E+00
          2   -1    0    0  502    0  0.00000000000E+00  0.00000000000E+00  0.14298135140E+03  0.14298135140E+03  0.00000000000E+00 0.  1.
          1   -1    0    0  501    0 -0.00000000000E+00 -0.00000000000E+00 -0.15885840321E+03  0.15885840321E+03  0.00000000000E+00 0. -1.
          2    1    1    2  501    0  0.52849109089E+02 -0.29791294732E+02  0.16726554000E+02  0.62931130469E+02  0.00000000000E+00 0.  1.
          1    1    1    2  502    0 -0.57396913654E+02  0.84365599367E+02 -0.13486535548E+02  0.10292641398E+03  0.00000000000E+00 0. -1.
         22    1    1    2    0    0 -0.12144979197E+02  0.34739573251E+02 -0.25695007701E+02  0.44883982557E+02  0.00000000000E+00 0. -1.
         22    1    1    2    0    0  0.16692783761E+02 -0.89313877887E+02  0.65779374357E+01  0.91098227610E+02  0.00000000000E+00 0.  1.
</event>
<event>
 6    1  0.2406404E-005  0.5459028E+02  0.7818608E-02  0.1424454E+00
          2   -1    0    0  502    0  0.00000000000E+00  0.00000000000E+00  0.13401704569E+03  0.13401704569E+03  0.00000000000E+00 0.  1.
          1   -1    0    0  501    0 -0.00000000000E+00 -0.00000000000E+00 -0.22237548050E+03  0.22237548050E+03  0.00000000000E+00 0. -1.
          2    1    1    2  501    0 -0.51773320501E+02 -0.40074223272E+02  0.70946887494E+02  0.96539530409E+02  0.00000000000E+00 0.  1.
          1    1    1    2  502    0  0.66011251500E+02 -0.98159677648E+01 -0.87088403204E+02  0.10971886128E+03  0.00000000000E+00 0. -1.
         22    1    1    2    0    0  0.19669779232E+02  0.31484903974E+02 -0.97282789540E+02  0.10412559980E+03  0.00000000000E+00 0. -1.
         22    1    1    2    0    0 -0.33907710231E+02  0.18405287063E+02  0.25065870440E+02  0.46008534707E+02  0.00000000000E+00 0.  1.
</event>
<event>
 6    1  0.3019475E-005  0.1664621E+03  0.7818608E-02  0.1181846E+00
          2   -1    0    0  502    0  0.00000000000E+00  0.00000000000E+00  0.25747787395E+03  0.25747787395E+03  0.00000000000E+00 0. -1.
          1   -1    0    0  501    0 -0.00000000000E+00 -0.00000000000E+00 -0.50862040198E+03  0.50862040198E+03  0.00000000000E+00 0. -1.
          2    1    1    2  501    0  0.99039013189E+02  0.77132571059E+02  0.13800938456E+03  0.18656031164E+03  0.00000000000E+00 0. -1.
          1    1    1    2  502    0 -0.12625999324E+03 -0.83436864909E+02 -0.41896963810E+03  0.44546476176E+03  0.00000000000E+00 0. -1.
         22    1    1    2    0    0  0.31231114499E+02  0.19660935005E+02  0.76723771001E+02  0.85137958131E+02  0.00000000000E+00 0. -1.
         22    1    1    2    0    0 -0.40101344487E+01 -0.13356641155E+02 -0.46906045485E+02  0.48935244398E+02  0.00000000000E+00 0.  1.
</event>
<event>
 6    1  0.2406404E-005  0.4843129E+02  0.7818608E-02  0.1455647E+00
          2   -1    0    0  502    0  0.00000000000E+00  0.00000000000E+00  0.39854846670E+03  0.39854846670E+03  0.00000000000E+00 0. -1.
          1   -1    0    0  501    0 -0.00000000000E+00 -0.00000000000E+00 -0.84443585886E+02  0.84443585886E+02  0.00000000000E+00 0.  1.
          2    1    1    2  501    0  0.12094756488E+02 -0.27987118760E+02  0.30375656454E+03  0.30528284009E+03  0.00000000000E+00 0. -1.
          1    1    1    2  502    0 -0.56994313790E+01  0.24890242865E+02 -0.32014597353E+02  0.40950484143E+02  0.00000000000E+00 0.  1.
         22    1    1    2    0    0  0.12459327409E+01 -0.15955022524E+02  0.86560203459E+02  0.88027177139E+02  0.00000000000E+00 0.  1.
         22    1    1    2    0    0 -0.76412578496E+01  0.19051898420E+02 -0.44197289834E+02  0.48731551213E+02  0.00000000000E+00 0.  1.
</event>
<event>
 6    1  0.3312442E-005  0.1872246E+03  0.7818608E-02  0.1232174E+00
          2   -1    0    0  502    0  0.00000000000E+00  0.00000000000E+00  0.76879619960E+03  0.76879619960E+03  0.00000000000E+00 0.  1.
          1   -1    0    0  501    0 -0.00000000000E+00 -0.00000000000E+00 -0.34890743082E+03  0.34890743082E+03  0.00000000000E+00 0. -1.
          2    1    1    2  501    0 -0.16351225427E+02 -0.17149594514E+03  0.64171191343E+03  0.66443389559E+03  0.00000000000E+00 0.  1.
          1    1    1    2  502    0  0.42467517546E+02  0.16056050542E+03 -0.26963838484E+03  0.31668284533E+03  0.00000000000E+00 0. -1.
         22    1    1    2    0    0  0.44324428838E+01 -0.14070595127E+02  0.82638444376E+02  0.83944866943E+02  0.00000000000E+00 0. -1.
         22    1    1    2    0    0 -0.30548735003E+02  0.25006034850E+02 -0.34823204194E+02  0.52642022563E+02  0.00000000000E+00 0.  1.
</event>
<event>
 6    1  0.2572405E-005  0.1194203E+03  0.7818608E-02  0.1244275E+00
          2   -1    0    0  502    0  0.00000000000E+00  0.00000000000E+00  0.15076280662E+03  0.15076280662E+03  0.00000000000E+00 0. -1.
          1   -1    0    0  501    0 -0.00000000000E+00 -0.00000000000E+00 -0.55150772791E+03  0.55150772791E+03  0.00000000000E+00 0.  1.
          2    1    1    2  501    0 -0.85553772614E+02 -0.13283029199E+02  0.73036463702E+02  0.11327052531E+03  0.00000000000E+00 0. -1.
          1    1    1    2  502    0  0.10456693877E+03  0.17466351021E+02 -0.45031192298E+03  0.46262311451E+03  0.00000000000E+00 0.  1.
         22    1    1    2    0    0 -0.30711780171E+02  0.14866485121E+00  0.46267445749E+02  0.55532981899E+02  0.00000000000E+00 0.  1.
         22    1    1    2    0    0  0.11698614016E+02 -0.43319866733E+01 -0.69736907762E+02  0.70843912813E+02  0.00000000000E+00 0.  1.
</event>
<event>
 6    1  0.3322786E-005  0.1703125E+03  0.7818608E-02  0.1177953E+00
          2   -1    0    0  502    0  0.00000000000E+00  0.00000000000E+00  0.24531044892E+03  0.24531044892E+03  0.00000000000E+00 0.  1.
          1   -1    0    0  501    0 -0.00000000000E+00 -0.00000000000E+00 -0.59303475672E+03  0.59303475672E+03  0.00000000000E+00 0.  1.
          2    1    1    2  501    0 -0.95177811719E+02 -0.10334769480E+03  0.15894376834E+03  0.21213835900E+03  0.00000000000E+00 0.  1.
          1    1    1    2  502    0  0.94912410583E+02  0.11827696430E+03 -0.47380574171E+03  0.49748335333E+03  0.00000000000E+00 0.  1.
         22    1    1    2    0    0  0.87197236642E+01  0.13178956312E+02 -0.75402000074E+02  0.77040119972E+02  0.00000000000E+00 0.  1.
         22    1    1    2    0    0 -0.84543225285E+01 -0.28108225805E+02  0.42539665639E+02  0.51683373342E+02  0.00000000000E+00 0. -1.
</event>
<event>
 6    1  0.2406404E-005  0.1250898E+03  0.7818608E-02  0.1235879E+00
          2   -1    0    0  502    0  0.00000000000E+00  0.00000000000E+00  0.41004665234E+03  0.41004665234E+03  0.00000000000E+00 0. -1.
          1   -1    0    0  501    0 -0.00000000000E+00 -0.00000000000E+00 -0.40367248124E+02  0.40367248124E+02  0.00000000000E+00 0. -1.
          2    1    1    2  501    0  0.30463605727E+02 -0.30755570915E+02  0.19331853245E+02  0.47409460723E+02  0.00000000000E+00 0. -1.
          1    1    1    2  502    0 -0.35313071707E+02  0.54284651773E+02  0.17405188235E+03  0.18570916564E+03  0.00000000000E+00 0. -1.
         22    1    1    2    0    0 -0.32674989406E+02  0.40946733108E+02  0.69877716092E+02  0.87333756882E+02  0.00000000000E+00 0. -1.
         22    1    1    2    0    0  0.37524455385E+02 -0.64475813966E+02  0.10641795253E+03  0.12996151722E+03  0.00000000000E+00 0.  1.
</event>
<event>
 6    1  0.2406404E-005  0.8855409E+02  0.7818608E-02  0.1360800E+00
          2   -1    0    0  502    0  0.00000000000E+00  0.00000000000E+00  0.10251951408E+03  0.10251951408E+03  0.00000000000E+00 0. -1.
          1   -1    0    0  501    0 -0.00000000000E+00 -0.00000000000E+00 -0.12225450581E+03  0.12225450581E+03  0.00000000000E+00 0. -1.
          2    1    1    2  501    0 -0.35384707533E+01  0.20812815286E+02  0.50501958392E+02  0.54737024552E+02  0.00000000000E+00 0. -1.
          1    1    1    2  502    0 -0.19809257105E+02 -0.13495250820E+02  0.23835218831E+01  0.24087541143E+02  0.00000000000E+00 0. -1.
         22    1    1    2    0    0 -0.12358094153E+02  0.42016846922E+01  0.32131432521E+02  0.34681487875E+02  0.00000000000E+00 0. -1.
         22    1    1    2    0    0  0.35705822012E+02 -0.11519249159E+02 -0.10475190452E+03  0.11126796632E+03  0.00000000000E+00 0. -1.
</event>
<event>
 6    1  0.2406404E-005  0.5681240E+02  0.7818608E-02  0.1414333E+00
          2   -1    0    0  502    0  0.00000000000E+00  0.00000000000E+00  0.17034582576E+03  0.17034582576E+03  0.00000000000E+00 0.  1.
          1   -1    0    0  501    0 -0.00000000000E+00 -0.00000000000E+00 -0.48832453442E+03  0.48832453442E+03  0.00000000000E+00 0. -1.
          2    1    1    2  501    0 -0.36664936979E+02 -0.13738389305E+02  0.12020497537E+03  0.12642110997E+03  0.00000000000E+00 0.  1.
          1    1    1    2  502    0  0.37531423957E+02 -0.30817223618E-01 -0.39401108208E+03  0.39579456987E+03  0.00000000000E+00 0. -1.
         22    1    1    2    0    0 -0.14686524083E+02  0.45388024198E+01  0.44063136631E+02  0.46667491113E+02  0.00000000000E+00 0.  1.
         22    1    1    2    0    0  0.13820037105E+02  0.92304041092E+01 -0.88235738578E+02  0.89787189220E+02  0.00000000000E+00 0.  1.
</event>
<event>
 6    1  0.2406404E-005  0.9734327E+02  0.7818608E-02  0.1296915E+00
          2   -1    0    0  502    0  0.00000000000E+00  0.00000000000E+00  0.51650687337E+03  0.51650687337E+03  0.00000000000E+00 0. -1.
          1   -1    0    0  501    0 -0.00000000000E+00 -0.00000000000E+00 -0.59405762903E+02  0.59405762903E+02  0.00000000000E+00 0. -1.
          2    1    1    2  501    0 -0.49575639182E+02  0.51217034370E+01  0.34233637657E+03  0.34594532887E+03  0.00000000000E+00 0. -1.
          1    1    1    2  502    0  0.34732660525E+02 -0.29644101333E+02 -0.16280526185E+02  0.48478716813E+02  0.00000000000E+00 0. -1.
         22    1    1    2    0    0  0.42917597105E+02  0.25232170071E+02  0.24318067898E+01  0.49844721205E+02  0.00000000000E+00 0. -1.
         22    1    1    2    0    0 -0.28074618447E+02 -0.70977217473E+00  0.12861345329E+03  0.13164386938E+03  0.00000000000E+00 0.  1.
</event>
<event>
 6    1  0.2406404E-005  0.4445015E+02  0.7818608E-02  0.1556465E+00
          2   -1    0    0  502    0  0.00000000000E+00  0.00000000000E+00  0.65760847039E+02  0.65760847039E+02  0.00000000000E+00 0. -1.
          1   -1    0    0  501    0 -0.00000000000E+00 -0.00000000000E+00 -0.18269547432E+03  0.18269547432E+03  0.00000000000E+00 0.  1.
          2    1    1    2  501    0 -0.14232595107E+02 -0.36007082879E+02 -0.28633265038E+02  0.48155380257E+02  0.00000000000E+00 0. -1.
          1    1    1    2  502    0  0.10548344350E+02  0.18971093874E+02 -0.74010681206E+02  0.77128145990E+02  0.00000000000E+00 0.  1.
         22    1    1    2    0    0  0.19079531977E+02  0.15737852851E+02 -0.65325431653E+02  0.69850702026E+02  0.00000000000E+00 0.  1.
         22    1    1    2    0    0 -0.15395281221E+02  0.12981361541E+01  0.51034750613E+02  0.53322093090E+02  0.00000000000E+00 0. -1.
</event>
<event>
 6    1  0.2406404E-005  0.8524870E+02  0.7818608E-02  0.1340921E+00
          2   -1    0    0  502    0  0.00000000000E+00  0.00000000000E+00  0.22748564112E+03  0.22748564112E+03  0.00000000000E+00 0.  1.
          1   -1    0    0  501    0 -0.00000000000E+00 -0.00000000000E+00 -0.87467640218E+02  0.87467640218E+02  0.00000000000E+00 0.  1.
          2    1    1    2  501    0  0.12155110316E+02 -0.58898738098E+02  0.90019627359E+02  0.10826052543E+03  0.00000000000E+00 0.  1.
          1    1    1    2  502    0  0.18050909221E+02  0.59294564692E+02 -0.11297924654E+02  0.63002570005E+02  0.00000000000E+00 0.  1.
         22    1    1    2    0    0  0.16133433580E+02 -0.27610673078E+02  0.80502226750E+02  0.86621276016E+02  0.00000000000E+00 0. -1.
         22    1    1    2    0    0 -0.46339453117E+02  0.27214846484E+02 -0.19205928553E+02  0.57068909889E+02  0.00000000000E+00 0.  1.
</event>
<event>
 6    1  0.2406404E-005  0.1087558E+03  0.7818608E-02  0.1281203E+00
          2   -1    0    0  502    0  0.00000000000E+00  0.00000000000E+00  0.43408060951E+03  0.43408060951E+03  0.00000000000E+00 0. -1.
          1   -1    0    0  501    0 -0.00000000000E+00 -0.00000000000E+00 -0.54528612474E+02  0.54528612474E+02  0.00000000000E+00 0. -1.
          2    1    1    2  501    0  0.37949918254E+02  0.10764715787E+03  0.17195275536E+03  0.20638763763E+03  0.00000000000E+00 0. -1.
          1    1    1    2  502    0 -0.31138060678E+02 -0.15602559543E+02  0.36403061792E+02  0.50380567632E+02  0.00000000000E+00 0. -1.
         22    1    1    2    0    0 -0.36669290181E+02  0.17175436614E+02  0.65148095127E+02  0.76706627901E+02  0.00000000000E+00 0. -1.
         22    1    1    2    0    0  0.29857432605E+02 -0.10922003494E+03  0.10604808476E+03  0.15513438882E+03  0.00000000000E+00 0. -1.
</event>
<event>
 6    1  0.2406404E-005  0.5868740E+02  0.7818608E-02  0.1405090E+00
          2   -1    0    0  502    0  0.00000000000E+00  0.00000000000E+00  0.14980258642E+03  0.14980258642E+03  0.00000000000E+00 0.  1.
          1   -1    0    0  501    0 -0.00000000000E+00 -0.00000000000E+00 -0.18148580416E+03  0.18148580416E+03  0.00000000000E+00 0. -1.
          2    1    1    2  501    0  0.12184168790E+02 -0.34228683979E+02  0.75583930124E+02  0.83862907587E+02  0.00000000000E+00 0.  1.
          1    1    1    2  502    0 -0.20126804686E+02  0.37418331195E+02 -0.11456970041E+03  0.12219425530E+03  0.00000000000E+00 0. -1.
         22    1    1    2    0    0 -0.83506487939E+01  0.11082264000E+02 -0.56329618373E+02  0.58013583036E+02  0.00000000000E+00 0. -1.
         22    1    1    2    0    0  0.16293284690E+02 -0.14271911216E+02  0.63632170922E+02  0.67217644648E+02  0.00000000000E+00 0. -1.
</event>
<event>
 6    1  0.2406404E-005  0.4961701E+02  0.7818608E-02  0.1484452E+00
          2   -1    0    0  502    0  0.00000000000E+00  0.00000000000E+00  0.81823854617E+02  0.81823854617E+02  0.00000000000E+00 0. -1.
          1   -1    0    0  501    0 -0.00000000000E+00 -0.00000000000E+00 -0.29950717731E+03  0.29950717731E+03  0.00000000000E+00 0. -1.
          2    1    1    2  501    0  0.53813684972E+01  0.45664094391E+02  0.19412810546E+02  0.49910177888E+02  0.00000000000E+00 0. -1.
          1    1    1    2  502    0 -0.59477537619E+02 -0.27700874475E+02 -0.15390986647E+03  0.16731157439E+03  0.00000000000E+00 0. -1.
         22    1    1    2    0    0  0.31153195764E+02 -0.28790337385E+02 -0.11549033566E+03  0.12303423412E+03  0.00000000000E+00 0.  1.
         22    1    1    2    0    0  0.22942973358E+02  0.10827117469E+02  0.32304068889E+02  0.41075045538E+02  0.00000000000E+00 0. -1.
</event>
<event>
 6    1  0.2406404E-005  0.3457148E+03  0.7818608E-02  0.1118934E+00
          2   -1    0    0  502    0  0.00000000000E+00  0.00000000000E+00  0.41762133118E+03  0.41762133118E+03  0.00000000000E+00 0.  1.
          1   -1    0    0  501    0 -0.00000000000E+00 -0.00000000000E+00 -0.24231761362E+04  0.24231761362E+04  0.00000000000E+00 0.  1.
          2    1    1    2  501    0  0.19255182868E+03  0.26556885870E+03  0.26040522571E+03  0.41882443460E+03  0.00000000000E+00 0.  1.
          1    1    1    2  502    0 -0.25368564025E+03 -0.22098236234E+03 -0.22458765780E+04  0.22709361973E+04  0.00000000000E+00 0.  1.
         22    1    1    2    0    0  0.70804808212E+02 -0.41440582624E+02  0.39173751556E+02  0.90913285966E+02  0.00000000000E+00 0. -1.
         22    1    1    2    0    0 -0.96709966466E+01 -0.31459137317E+01 -0.59257204222E+02  0.60123549475E+02  0.00000000000E+00 0.  1.
</event>
<event>
 6    1  0.2406404E-005  0.4700621E+02  0.7818608E-02  0.1506786E+00
          2   -1    0    0  502    0  0.00000000000E+00  0.00000000000E+00  0.22140606663E+03  0.22140606663E+03  0.00000000000E+00 0.  1.
          1   -1    0    0  501    0 -0.00000000000E+00 -0.00000000000E+00 -0.19119946656E+03  0.19119946656E+03  0.00000000000E+00 0.  1.
          2    1    1    2  501    0  0.17501265723E+02  0.37329919926E+02  0.15024907707E+03  0.15580308849E+03  0.00000000000E+00 0.  1.
          1    1    1    2  502    0 -0.68237031718E+01  0.41395021624E+02 -0.98198264537E+02  0.10678487673E+03  0.00000000000E+00 0.  1.
         22    1    1    2    0    0  0.55225969113E+01 -0.59513667658E+02 -0.72206002790E+02  0.93734105606E+02  0.00000000000E+00 0.  1.
         22    1    1    2    0    0 -0.16200159462E+02 -0.19211273892E+02  0.50361790321E+02  0.56283462362E+02  0.00000000000E+00 0. -1.
</event>
<event>
 6    1  0.2406404E-005  0.2668614E+03  0.7818608E-02  0.1103989E+00
          2   -1    0    0  502    0  0.00000000000E+00  0.00000000000E+00  0.62016482381E+02  0.62016482381E+02  0.00000000000E+00 0.  1.
          1   -1    0    0  501    0 -0.00000000000E+00 -0.00000000000E+00 -0.19668405849E+04  0.19668405849E+04  0.00000000000E+00 0.  1.
          2    1    1    2  501    0  0.53097767567E+02 -0.86455418359E+02 -0.74108697294E+02  0.12564239451E+03  0.00000000000E+00 0.  1.
          1    1    1    2  502    0 -0.88021728051E+02  0.22331497093E+03 -0.15212969320E+04  0.15401174488E+04  0.00000000000E+00 0.  1.
         22    1    1    2    0    0  0.47893473931E+02 -0.15172226075E+03 -0.21983978345E+03  0.27137236344E+03  0.00000000000E+00 0. -1.
         22    1    1    2    0    0 -0.12969513447E+02  0.14862708173E+02 -0.89578689732E+02  0.91724860466E+02  0.00000000000E+00 0.  1.
</event>
<event>
 6    1  0.2406404E-005  0.8923147E+02  0.7818608E-02  0.1306086E+00
          2   -1    0    0  502    0  0.00000000000E+00  0.00000000000E+00  0.49552131182E+03  0.49552131182E+03  0.00000000000E+00 0. -1.
          1   -1    0    0  501    0 -0.00000000000E+00 -0.00000000000E+00 -0.25539178727E+02  0.25539178727E+02  0.00000000000E+00 0.  1.
          2    1    1    2  501    0  0.50002257292E+02  0.12856249795E+01  0.21629944292E+03  0.22200749441E+03  0.00000000000E+00 0. -1.
          1    1    1    2  502    0 -0.32873432763E+02 -0.36016206427E+01  0.36090010137E+02  0.48950210261E+02  0.00000000000E+00 0.  1.
         22    1    1    2    0    0  0.31429271709E+02  0.23351731386E+02  0.18238836820E+03  0.18654388045E+03  0.00000000000E+00 0. -1.
         22    1    1    2    0    0 -0.48558096238E+02 -0.21035735722E+02  0.35204311842E+02  0.63558905433E+02  0.00000000000E+00 0.  1.
</event>
<event>
 6    1  0.2406404E-005  0.1824535E+03  0.7818608E-02  0.1175467E+00
          2   -1    0    0  502    0  0.00000000000E+00  0.00000000000E+00  0.91884700423E+03  0.91884700423E+03  0.00000000000E+00 0. -1.
          1   -1    0    0  501    0 -0.00000000000E+00 -0.00000000000E+00 -0.11288410674E+03  0.11288410674E+03  0.00000000000E+00 0.  1.
          2    1    1    2  501    0  0.47414201417E+02 -0.36646952504E+02  0.80184152377E+03  0.80407769205E+03  0.00000000000E+00 0. -1.
          1    1    1    2  502    0 -0.42352577036E+02  0.12028531867E+02  0.68792395684E+02  0.81675088395E+02  0.00000000000E+00 0.  1.
         22    1    1    2    0    0 -0.30718665213E+02  0.13658905649E+02 -0.97360690559E+02  0.10300148621E+03  0.00000000000E+00 0.  1.
         22    1    1    2    0    0  0.25657040831E+02  0.10959514988E+02  0.32689668606E+02  0.42976844307E+02  0.00000000000E+00 0. -1.
</event>
<event>
 6    1  0.2406404E-005  0.3793897E+03  0.7818608E-02  0.1057036E+00
          2   -1    0    0  502    0  0.00000000000E+00  0.00000000000E+00  0.12279996787E+04  0.12279996787E+04  0.00000000000E+00 0. -1.
          1   -1    0    0  501    0 -0.00000000000E+00 -0.00000000000E+00 -0.30973581901E+03  0.30973581901E+03  0.00000000000E+00 0.  1.
          2    1    1    2  501    0  0.15375904515E+02  0.11378653226E+03  0.19185182177E+03  0.22358648188E+03  0.00000000000E+00 0. -1.
          1    1    1    2  502    0 -0.25271067974E+03 -0.17267292352E+03 -0.18775379127E+03  0.35906839503E+03  0.00000000000E+00 0.  1.
         22    1    1    2    0    0  0.23766776963E+03  0.47396201595E+02  0.91165161932E+03  0.94331386275E+03  0.00000000000E+00 0. -1.
         22    1    1    2    0    0 -0.33299439899E+00  0.11490189665E+02  0.25142098634E+01  0.11766758051E+02  0.00000000000E+00 0. -1.
</event>
<event>
 6    1  0.2406404E-005  0.1343414E+03  0.7818608E-02  0.1221282E+00
          2   -1    0    0  502    0  0.00000000000E+00  0.00000000000E+00  0.19759728697E+03  0.19759728697E+03  0.00000000000E+00 0.  1.
          1   -1    0    0  501    0 -0.00000000000E+00 -0.00000000000E+00 -0.17084538072E+03  0.17084538072E+03  0.00000000000E+00 0.  1.
          2    1    1    2  501    0  0.41272590435E+02 -0.52875190309E+02  0.51519729385E+02  0.84578336395E+02  0.00000000000E+00 0.  1.
          1    1    1    2  502    0 -0.57327433803E+02  0.77028589078E+02 -0.97467265582E+02  0.13681997684E+03  0.00000000000E+00 0.  1.
         22    1    1    2    0    0 -0.14317602520E+02  0.32306319301E+02 -0.15017953705E+02  0.38395715154E+02  0.00000000000E+00 0. -1.
         22    1    1    2    0    0  0.30372445889E+02 -0.56459718070E+02  0.87717396158E+02  0.10864863930E+03  0.00000000000E+00 0.  1.
</event>
<event>
 6    1  0.2406404E-005  0.1211197E+03  0.7818608E-02  0.1249765E+00
          2   -1    0    0  502    0  0.00000000000E+00  0.00000000000E+00  0.88971680258E+02  0.88971680258E+02  0.00000000000E+00 0.  1.
          1   -1    0    0  501    0 -0.00000000000E+00 -0.00000000000E+00 -0.27904211322E+03  0.27904211322E+03  0.00000000000E+00 0.  1.
          2    1    1    2  501    0  0.56562391119E+02 -0.63116931758E+02  0.23799073822E+02  0.88030943869E+02  0.00000000000E+00 0.  1.
          1    1    1    2  502    0 -0.52965777170E+01  0.44633434095E+02 -0.50603913190E+02  0.67682739342E+02  0.00000000000E+00 0.  1.
         22    1    1    2    0    0  0.14739610970E+02 -0.26535631793E+01  0.14901714754E+02  0.21127201227E+02  0.00000000000E+00 0. -1.
         22    1    1    2    0    0 -0.66005424372E+02  0.21137060842E+02 -0.17816730835E+03  0.19117290904E+03  0.00000000000E+00 0.  1.
</event>
<event>
 6    1  0.2406404E-005  0.3759569E+03  0.7818608E-02  0.1068896E+00
          2   -1    0    0  502    0  0.00000000000E+00  0.00000000000E+00  0.20099230457E+03  0.20099230457E+03  0.00000000000E+00 0.  1.
          1   -1    0    0  501    0 -0.00000000000E+00 -0.00000000000E+00 -0.72862133400E+03  0.72862133400E+03  0.00000000000E+00 0.  1.
          2    1    1    2  501    0  0.21970388774E+03 -0.15164470214E+02  0.53633581887E+02  0.22666345217E+03  0.00000000000E+00 0.  1.
          1    1    1    2  502    0 -0.51387514455E+02  0.14204229628E+03 -0.21106320561E+03  0.25954646470E+03  0.00000000000E+00 0.  1.
         22    1    1    2    0    0  0.13891023557E+02  0.37345076321E+01 -0.56849567745E+01  0.15466926528E+02  0.00000000000E+00 0. -1.
         22    1    1    2    0    0 -0.18220739684E+03 -0.13061233369E+03 -0.36451444894E+03  0.42793679517E+03  0.00000000000E+00 0.  1.
</event>
<event>
 6    1  0.2512443E-005  0.2332347E+03  0.7818608E-02  0.1141707E+00
          2   -1    0    0  502    0  0.00000000000E+00  0.00000000000E+00  0.12290523305E+04  0.12290523305E+04  0.00000000000E+00 0.  1.
          1   -1    0    0  501    0 -0.00000000000E+00 -0.00000000000E+00 -0.17896498658E+03  0.17896498658E+03  0.00000000000E+00 0. -1.
          2    1    1    2  501    0  0.73367463018E+02  0.60756234277E+02  0.11639669151E+04  0.11678583322E+04  0.00000000000E+00 0.  1.
          1    1    1    2  502    0 -0.38295565902E+02 -0.24088613619E+02  0.18393611209E+02  0.48837860386E+02  0.00000000000E+00 0. -1.
         22    1    1    2    0    0 -0.85127693239E+01 -0.31579628499E+02  0.18882032526E+02  0.37766007600E+02  0.00000000000E+00 0. -1.
         22    1    1    2    0    0 -0.26559127793E+02 -0.50879921586E+01 -0.15115521491E+03  0.15355511690E+03  0.00000000000E+00 0.  1.
</event>
<event>
 6    1  0.2406404E-005  0.8008947E+02  0.7818608E-02  0.1329986E+00
          2   -1    0    0  502    0  0.00000000000E+00  0.00000000000E+00  0.44416814240E+03  0.44416814240E+03  0.00000000000E+00 0. -1.
          1   -1    0    0  501    0 -0.00000000000E+00 -0.00000000000E+00 -0.46151532449E+02  0.46151532449E+02  0.00000000000E+00 0.  1.
          2    1    1    2  501    0  0.12993319110E+02  0.21759298662E+02  0.10229595553E+03  0.10538859492E+03  0.00000000000E+00 0. -1.
          1    1    1    2  502    0  0.91865739177E+01 -0.50114010301E+02 -0.90622070973E+01  0.51748727195E+02  0.00000000000E+00 0.  1.
         22    1    1    2    0    0 -0.15731898243E+02 -0.23286735070E+02  0.45455865797E+01  0.28467999752E+02  0.00000000000E+00 0.  1.
         22    1    1    2    0    0 -0.64479947849E+01  0.51641446709E+02  0.30023727493E+03  0.30471435298E+03  0.00000000000E+00 0. -1.
</event>
<event>
 6    1  0.2406404E-005  0.2150935E+03  0.7818608E-02  0.1181505E+00
          2   -1    0    0  502    0  0.00000000000E+00  0.00000000000E+00  0.16838673678E+04  0.16838673678E+04  0.00000000000E+00 0. -1.
          1   -1    0    0  501    0 -0.00000000000E+00 -0.00000000000E+00 -0.13008821242E+02  0.13008821242E+02  0.00000000000E+00 0. -1.
          2    1    1    2  501    0  0.32150163613E+02 -0.29959457300E+02  0.10668976450E+04  0.10678023165E+04  0.00000000000E+00 0. -1.
          1    1    1    2  502    0  0.26722716086E+02  0.14429323126E+02  0.16388112644E+03  0.16667133084E+03  0.00000000000E+00 0. -1.
         22    1    1    2    0    0  0.35294428887E+02  0.29091763806E+02  0.17045156381E+03  0.17648162238E+03  0.00000000000E+00 0. -1.
         22    1    1    2    0    0 -0.94167308587E+02 -0.13561629632E+02  0.26962821130E+03  0.28592091937E+03  0.00000000000E+00 0. -1.
</event>
<event>
 6    1  0.2406404E-005  0.2323457E+03  0.7818608E-02  0.1179011E+00
          2   -1    0    0  502    0  0.00000000000E+00  0.00000000000E+00  0.84886899931E+03  0.84886899931E+03  0.00000000000E+00 0.  1.
          1   -1    0    0  501    0 -0.00000000000E+00 -0.00000000000E+00 -0.94952068358E+02  0.94952068358E+02  0.00000000000E+00 0. -1.
          2    1    1    2  501    0  0.50539772380E+01 -0.52000701450E+02  0.70314597829E+03  0.70508430874E+03  0.00000000000E+00 0.  1.
          1    1    1    2  502    0  0.46047707585E+02 -0.17820024950E+02 -0.40777632597E+02  0.64037176572E+02  0.00000000000E+00 0. -1.
         22    1    1    2    0    0 -0.62942254436E+02  0.63397104331E+02  0.11622134901E+03  0.14658895660E+03  0.00000000000E+00 0. -1.
         22    1    1    2    0    0  0.11840569613E+02  0.64236220679E+01 -0.24672763756E+02  0.28110625759E+02  0.00000000000E+00 0.  1.
</event>
<event>
 6    1  0.2406404E-005  0.1471899E+03  0.7818608E-02  0.1206675E+00
          2   -1    0    0  502    0  0.00000000000E+00  0.00000000000E+00  0.91999059945E+02  0.91999059945E+02  0.00000000000E+00 0. -1.
          1   -1    0    0  501    0 -0.00000000000E+00 -0.00000000000E+00 -0.43453114665E+03  0.43453114665E+03  0.00000000000E+00 0. -1.
          2    1    1    2  501    0  0.75316012958E+02  0.70280706235E+02 -0.19147911722E+01  0.10303177132E+03  0.00000000000E+00 0. -1.
          1    1    1    2  502    0 -0.63587019360E+02 -0.70990739907E+02 -0.24719157051E+03  0.26492766317E+03  0.00000000000E+00 0. -1.
         22    1    1    2    0    0 -0.10823721795E+02 -0.42130920647E+02 -0.10544629150E+03  0.11406615545E+03  0.00000000000E+00 0.  1.
         22    1    1    2    0    0 -0.90527180310E+00  0.42840954320E+02  0.12020566481E+02  0.44504616644E+02  0.00000000000E+00 0. -1.
</event>
<event>
 6    1  0.2406404E-005  0.3949542E+02  0.7818608E-02  0.1559165E+00
          2   -1    0    0  502    0  0.00000000000E+00  0.00000000000E+00  0.58971193609E+03  0.58971193609E+03  0.00000000000E+00 0.  1.
          1   -1    0    0  501    0 -0.00000000000E+00 -0.00000000000E+00 -0.61216565572E+02  0.61216565572E+02  0.00000000000E+00 0. -1.
          2    1    1    2  501    0 -0.45150362016E+02 -0.64563550077E+02  0.38295684878E+03  0.39097692415E+03  0.00000000000E+00 0.  1.
          1    1    1    2  502    0  0.79124014137E+01  0.42418062075E+02 -0.21351923749E+02  0.48143563787E+02  0.00000000000E+00 0. -1.
         22    1    1    2    0    0  0.19733500219E+02  0.27084548401E+02  0.18388643115E+03  0.18691496289E+03  0.00000000000E+00 0. -1.
         22    1    1    2    0    0  0.17504460383E+02 -0.49390603988E+01 -0.16995985664E+02  0.24893050830E+02  0.00000000000E+00 0. -1.
</event>
<event>
 6    1  0.2406404E-005  0.2412228E+03  0.7818608E-02  0.1158706E+00
          2   -1    0    0  502    0  0.00000000000E+00  0.00000000000E+00  0.54820841599E+03  0.54820841599E+03  0.00000000000E+00 0. -1.
          1   -1    0    0  501    0 -0.00000000000E+00 -0.00000000000E+00 -0.51064091641E+02  0.51064091641E+02  0.00000000000E+00 0. -1.
          2    1    1    2  501    0 -0.48258103899E+02 -0.11438313183E+03  0.23125317094E+03  0.26246975923E+03  0.00000000000E+00 0. -1.
          1    1    1    2  502    0  0.37115029219E+02  0.99112614021E+01  0.86994528535E+02  0.95098930023E+02  0.00000000000E+00 0. -1.
         22    1    1    2    0    0 -0.33318286106E+02  0.10944014633E+03  0.14918458669E+03  0.18799812426E+03  0.00000000000E+00 0. -1.
         22    1    1    2    0    0  0.44461360786E+02 -0.49682758992E+01  0.29712038186E+02  0.53705694126E+02  0.00000000000E+00 0. -1.
</event>
<event>
 6    1  0.2406404E-005  0.6275020E+02  0.7818608E-02  0.1389541E+00
          2   -1    0    0  502    0  0.00000000000E+00  0.00000000000E+00  0.25317498841E+03  0.25317498841E+03  0.00000000000E+00 0. -1.
          1   -1    0    0  501    0 -0.00000000000E+00 -0.00000000000E+00 -0.57450224671E+02  0.57450224671E+02  0.00000000000E+00 0.  1.
          2    1    1    2  501    0 -0.24252036849E+02 -0.21375450758E+01  0.13104000251E+03  0.13328245439E+03  0.00000000000E+00 0. -1.
          1    1    1    2  502    0  0.16378648341E+02  0.12207016391E+02 -0.19231549095E+02  0.28055727601E+02  0.00000000000E+00 0.  1.
         22    1    1    2    0    0  0.40660417048E+02 -0.43811605508E+01 -0.16046255128E+02  0.43931155072E+02  0.00000000000E+00 0.  1.
         22    1    1    2    0    0 -0.32787028541E+02 -0.56883107642E+01  0.99962565444E+02  0.10535587601E+03  0.00000000000E+00 0. -1.
</event>
<event>
 6    1  0.2406404E-005  0.9889515E+02  0.7818608E-02  0.1286467E+00
          2   -1    0    0  502    0  0.00000000000E+00  0.00000000000E+00  0.27842567663E+03  0.27842567663E+03  0.00000000000E+00 0.  1.
          1   -1    0    0  501    0 -0.00000000000E+00 -0.00000000000E+00 -0.63457868226E+02  0.63457868226E+02  0.00000000000E+00 0. -1.
          2    1    1    2  501    0  0.26646622327E+02  0.16121609524E+02  0.27349124240E+02  0.41447839169E+02  0.00000000000E+00 0.  1.
          1    1    1    2  502    0 -0.59580868668E+02  0.36019630121E+02  0.34329455656E+01  0.69707092756E+02  0.00000000000E+00 0. -1.
         22    1    1    2    0    0 -0.29121969353E+01 -0.15729852036E+02 -0.16889496448E+02  0.23262936752E+02  0.00000000000E+00 0. -1.
         22    1    1    2    0    0  0.35846443276E+02 -0.36411387609E+02  0.20107523505E+03  0.20746567618E+03  0.00000000000E+00 0.  1.
</event>
<event>
 6    1  0.2406404E-005  0.1418378E+03  0.7818608E-02  0.1266348E+00
          2   -1    0    0  502    0  0.00000000000E+00  0.00000000000E+00  0.43882456920E+03  0.43882456920E+03  0.00000000000E+00 0.  1.
          1   -1    0    0  501    0 -0.00000000000E+00 -0.00000000000E+00 -0.13781157232E+03  0.13781157232E+03  0.00000000000E+00 0. -1.
          2    1    1    2  501    0 -0.12389952613E+03 -0.38657830063E+02  0.30431673392E+03  0.33083862372E+03  0.00000000000E+00 0.  1.
          1    1    1    2  502    0  0.11549170175E+03  0.12185533914E+02  0.75123535074E+01  0.11637549513E+03  0.00000000000E+00 0. -1.
         22    1    1    2    0    0 -0.75375641481E+01 -0.16493829090E+02  0.50048427539E+02  0.53232568701E+02  0.00000000000E+00 0.  1.
         22    1    1    2    0    0  0.15945388519E+02  0.42966125239E+02 -0.60864518098E+02  0.76189453971E+02  0.00000000000E+00 0.  1.
</event>
<event>
 6    1  0.2406404E-005  0.4224333E+02  0.7818608E-02  0.1493686E+00
          2   -1    0    0  502    0  0.00000000000E+00  0.00000000000E+00  0.11537301254E+03  0.11537301254E+03  0.00000000000E+00 0. -1.
          1   -1    0    0  501    0 -0.00000000000E+00 -0.00000000000E+00 -0.42218678780E+03  0.42218678780E+03  0.00000000000E+00 0.  1.
          2    1    1    2  501    0  0.22719957320E+02  0.81134156206E+02  0.66270927926E+02  0.10719507289E+03  0.00000000000E+00 0. -1.
          1    1    1    2  502    0 -0.92390415670E+01 -0.73036166985E+02 -0.23013151315E+03  0.24161985622E+03  0.00000000000E+00 0.  1.
         22    1    1    2    0    0  0.67970458822E+01 -0.27665521341E+02  0.12245532962E+02  0.31008611406E+02  0.00000000000E+00 0. -1.
         22    1    1    2    0    0 -0.20277961635E+02  0.19567532121E+02 -0.15519872301E+03  0.15773625983E+03  0.00000000000E+00 0.  1.
</event>
<event>
 6    1  0.2406404E-005  0.5236234E+02  0.7818608E-02  0.1516182E+00
          2   -1    0    0  502    0  0.00000000000E+00  0.00000000000E+00  0.10943137401E+03  0.10943137401E+03  0.00000000000E+00 0. -1.
          1   -1    0    0  501    0 -0.00000000000E+00 -0.00000000000E+00 -0.13783855843E+03  0.13783855843E+03  0.00000000000E+00 0. -1.
          2    1    1    2  501    0 -0.53436020784E+01  0.34906183044E+02  0.30682423823E+02  0.46780410745E+02  0.00000000000E+00 0. -1.
          1    1    1    2  502    0  0.49662547826E+01 -0.38266990270E+02 -0.69773542513E+02  0.79733139068E+02  0.00000000000E+00 0. -1.
         22    1    1    2    0    0  0.59748778812E+00  0.15999057162E+02  0.63994991608E+02  0.65967308363E+02  0.00000000000E+00 0. -1.
         22    1    1    2    0    0 -0.22014049226E+00 -0.12638249936E+02 -0.53311057340E+02  0.54789074258E+02  0.00000000000E+00 0. -1.
</event>
<event>
 6    1  0.2406404E-005  0.5245475E+02  0.7818608E-02  0.1524623E+00
          2   -1    0    0  502    0  0.00000000000E+00  0.00000000000E+00  0.20367267394E+03  0.20367267394E+03  0.00000000000E+00 0.  1.
          1   -1    0    0  501    0 -0.00000000000E+00 -0.00000000000E+00 -0.10246961259E+03  0.10246961259E+03  0.00000000000E+00 0.  1.
          2    1    1    2  501    0 -0.35206064033E+02 -0.25880233117E+02  0.12641006715E+03  0.13374886350E+03  0.00000000000E+00 0.  1.
          1    1    1    2  502    0  0.16637091124E+02  0.13481938023E+02 -0.34867288951E+02  0.40918006950E+02  0.00000000000E+00 0.  1.
         22    1    1    2    0    0 -0.12407820928E+02  0.69601925122E+01  0.65695076873E+02  0.67217865373E+02  0.00000000000E+00 0.  1.
         22    1    1    2    0    0  0.30976793837E+02  0.54381025817E+01 -0.56034793719E+02  0.64257550710E+02  0.00000000000E+00 0.  1.
</event>
<event>
 6    1  0.2406404E-005  0.8148680E+02  0.7818608E-02  0.1332041E+00
          2   -1    0    0  502    0  0.00000000000E+00  0.00000000000E+00  0.87955562299E+02  0.87955562299E+02  0.00000000000E+00 0.  1.
          1   -1    0    0  501    0 -0.00000000000E+00 -0.00000000000E+00 -0.30260260760E+03  0.30260260760E+03  0.00000000000E+00 0.  1.
          2    1    1    2  501    0  0.72326111853E+02  0.48251341162E+02 -0.17463404870E+01  0.86961532213E+02  0.00000000000E+00 0.  1.
          1    1    1    2  502    0 -0.55425337069E+02  0.18426248958E+02 -0.12429380311E+03  0.13733333219E+03  0.00000000000E+00 0.  1.
         22    1    1    2    0    0 -0.23317801969E+02  0.48606718737E+01 -0.91331276384E+02  0.94386164588E+02  0.00000000000E+00 0. -1.
         22    1    1    2    0    0  0.64170271844E+01 -0.71538261994E+02  0.27243746816E+01  0.71877140903E+02  0.00000000000E+00 0.  1.
</event>
<event>
 6    1  0.2406404E-005  0.5927198E+02  0.7818608E-02  0.1447739E+00
          2   -1    0    0  502    0  0.00000000000E+00  0.00000000000E+00  0.12035412671E+03  0.12035412671E+03  0.00000000000E+00 0.  1.
          1   -1    0    0  501    0 -0.00000000000E+00 -0.00000000000E+00 -0.22573942420E+03  0.22573942420E+03  0.00000000000E+00 0.  1.
          2    1    1    2  501    0  0.11927927419E+02 -0.30662207569E+02  0.75122929404E+02  0.82011590326E+02  0.00000000000E+00 0.  1.
          1    1    1    2  502    0 -0.24034463415E+02  0.33018732277E+02 -0.11641817411E+03  0.12337375481E+03  0.00000000000E+00 0.  1.
         22    1    1    2    0    0 -0.14753547621E+02  0.84912612572E+01 -0.96065668051E+02  0.97562191771E+02  0.00000000000E+00 0.  1.
         22    1    1    2    0    0  0.26860083617E+02 -0.10847785965E+02  0.31975615272E+02  0.43146014002E+02  0.00000000000E+00 0.  1.
</event>
<event>
 6    1  0.2406404E-005  0.2671451E+03  0.7818608E-02  0.1137428E+00
          2   -1    0    0  502    0  0.00000000000E+00  0.00000000000E+00  0.18673639712E+04  0.18673639712E+04  0.00000000000E+00 0.  1.
          1   -1    0    0  501    0 -0.00000000000E+00 -0.00000000000E+00 -0.22266214109E+02  0.22266214109E+02  0.00000000000E+00 0. -1.
          2    1    1    2  501    0 -0.75831903178E+02 -0.93203175669E+01  0.83452216411E+03  0.83801228406E+03  0.00000000000E+00 0.  1.
          1    1    1    2  502    0 -0.76522787653E+02 -0.23553629148E+02  0.18494487061E+03  0.20153192214E+03  0.00000000000E+00 0. -1.
         22    1    1    2    0    0 -0.19868335791E+02 -0.13055453829E+02  0.80795559254E+02  0.84220650894E+02  0.00000000000E+00 0.  1.
         22    1    1    2    0    0  0.17222302662E+03  0.45929400543E+02  0.74483516308E+03  0.76586532817E+03  0.00000000000E+00 0. -1.
</event>
<event>
 6    1  0.2406404E-005  0.1134268E+03  0.7818608E-02  0.1280347E+00
          2   -1    0    0  502    0  0.00000000000E+00  0.00000000000E+00  0.18542900475E+03  0.18542900475E+03  0.00000000000E+00 0. -1.
          1   -1    0    0  501    0 -0.00000000000E+00 -0.00000000000E+00 -0.47901370086E+02  0.47901370086E+02  0.00000000000E+00 0. -1.
          2    1    1    2  501    0 -0.22272854265E+02  0.55205112186E+01 -0.11698881107E+01  0.22976612444E+02  0.00000000000E+00 0. -1.
          1    1    1    2  502    0 -0.24027665741E+02 -0.13138973903E+02  0.19149497522E+02  0.33416532010E+02  0.00000000000E+00 0. -1.
         22    1    1    2    0    0  0.72828030573E+02 -0.20499037801E+02  0.11549428531E+03  0.13806904985E+03  0.00000000000E+00 0. -1.
         22    1    1    2    0    0 -0.26527510567E+02  0.28117500485E+02  0.40537399454E+01  0.38868180533E+02  0.00000000000E+00 0. -1.
</event>
<event>
 6    1  0.2406404E-005  0.1242391E+03  0.7818608E-02  0.1299306E+00
          2   -1    0    0  502    0  0.00000000000E+00  0.00000000000E+00  0.38671200094E+03  0.38671200094E+03  0.00000000000E+00 0.  1.
          1   -1    0    0  501    0 -0.00000000000E+00 -0.00000000000E+00 -0.91366387600E+02  0.91366387600E+02  0.00000000000E+00 0. -1.
          2    1    1    2  501    0 -0.29190387621E+02 -0.97882915191E+02  0.19770354701E+03  0.22253052895E+03  0.00000000000E+00 0.  1.
          1    1    1    2  502    0 -0.25357550859E+01  0.10165496116E+03  0.27908046613E+02  0.10544676499E+03  0.00000000000E+00 0. -1.
         22    1    1    2    0    0  0.12612488103E+00 -0.22079294424E+02  0.10016158252E+03  0.10256633836E+03  0.00000000000E+00 0.  1.
         22    1    1    2    0    0  0.31600017826E+02  0.18307248459E+02 -0.30427562805E+02  0.47534756243E+02  0.00000000000E+00 0.  1.
</event>
<event>
 6    1  0.2406404E-005  0.5454820E+02  0.7818608E-02  0.1423531E+00
          2   -1    0    0  502    0  0.00000000000E+00  0.00000000000E+00  0.16364984484E+03  0.16364984484E+03  0.00000000000E+00 0. -1.
          1   -1    0    0  501    0 -0.00000000000E+00 -0.00000000000E+00 -0.24930969352E+03  0.24930969352E+03  0.00000000000E+00 0. -1.
          2    1    1    2  501    0  0.27432615743E+02 -0.27289810369E+02  0.12236276661E+03  0.12833522045E+03  0.00000000000E+00 0. -1.
          1    1    1    2  502    0 -0.28601120424E+02  0.12383140050E+02 -0.12812088559E+03  0.13185722419E+03  0.00000000000E+00 0. -1.
         22    1    1    2    0    0  0.13608287633E+02 -0.46575323246E+01  0.33796158533E+02  0.36729530779E+02  0.00000000000E+00 0. -1.
         22    1    1    2    0    0 -0.12439782952E+02  0.19564202643E+02 -0.11369788823E+03  0.11603756294E+03  0.00000000000E+00 0. -1.
</event>
<event>
 6    1  0.2406404E-005  0.1251080E+03  0.7818608E-02  0.1236576E+00
          2   -1    0    0  502    0  0.00000000000E+00  0.00000000000E+00  0.16294279029E+03  0.16294279029E+03  0.00000000000E+00 0. -1.
          1   -1    0    0  501    0 -0.00000000000E+00 -0.00000000000E+00 -0.28784625295E+03  0.28784625295E+03  0.00000000000E+00 0.  1.
          2    1    1    2  501    0 -0.76134546058E+02 -0.19854836014E+02  0.93298940929E+02  0.12204661403E+03  0.00000000000E+00 0. -1.
          1    1    1    2  502    0  0.84870305691E+02  0.31336655543E+02 -0.17627777461E+03  0.19813835719E+03  0.00000000000E+00 0.  1.
         22    1    1    2    0    0 -0.40771004537E+02  0.15728743357E+01  0.30100033784E+02  0.50702670329E+02  0.00000000000E+00 0. -1.
         22    1    1    2    0    0  0.32035244905E+02 -0.13054693865E+02 -0.72024662758E+02  0.79901401698E+02  0.00000000000E+00 0.  1.
</event>
<event>
 6    1  0.2406404E-005  0.1930703E+03  0.7818608E-02  0.1157678E+00
          2   -1    0    0  502    0  0.00000000000E+00  0.00000000000E+00  0.79567518030E+03  0.79567518030E+03  0.00000000000E+00 0.  1.
          1   -1    0    0  501    0 -0.00000000000E+00 -0.00000000000E+00 -0.30224853066E+03  0.30224853066E+03  0.00000000000E+00 0. -1.
          2    1    1    2  501    0  0.11567248122E+02  0.16703682398E+03  0.70472700844E+03  0.72434470952E+03  0.00000000000E+00 0.  1.
          1    1    1    2  502    0 -0.31259884982E+02 -0.12049129366E+03 -0.20526415769E+03  0.24005979816E+03  0.00000000000E+00 0. -1.
         22    1    1    2    0    0  0.56260203797E+01  0.15127097719E+02  0.47802179766E+02  0.50453241532E+02  0.00000000000E+00 0.  1.
         22    1    1    2    0    0  0.14066616480E+02 -0.61672628034E+02 -0.53838380862E+02  0.83065961752E+02  0.00000000000E+00 0. -1.
</event>
<event>
 6    1  0.2406404E-005  0.6247180E+02  0.7818608E-02  0.1495637E+00
          2   -1    0    0  502    0  0.00000000000E+00  0.00000000000E+00  0.19079933177E+03  0.19079933177E+03  0.00000000000E+00 0.  1.
          1   -1    0    0  501    0 -0.00000000000E+00 -0.00000000000E+00 -0.18308398008E+03  0.18308398008E+03  0.00000000000E+00 0.  1.
          2    1    1    2  501    0  0.27263554442E+02 -0.48065827861E+02  0.11480227422E+03  0.12740952623E+03  0.00000000000E+00 0.  1.
          1    1    1    2  502    0 -0.83219297978E+01  0.44358718802E+02 -0.11404901503E+03  0.12265450778E+03  0.00000000000E+00 0.  1.
         22    1    1    2    0    0 -0.10967663911E+02  0.13300902472E+02 -0.56536684158E+02  0.59106685864E+02  0.00000000000E+00 0.  1.
         22    1    1    2    0    0 -0.79739607339E+01 -0.95937934139E+01  0.63498776666E+02  0.64712591973E+02  0.00000000000E+00 0. -1.
</event>
<event>
 6    1  0.2406404E-005  0.2040894E+03  0.7818608E-02  0.1146816E+00
          2   -1    0    0  502    0  0.00000000000E+00  0.00000000000E+00  0.45688901416E+03  0.45688901416E+03  0.00000000000E+00 0. -1.
          1   -1    0    0  501    0 -0.00000000000E+00 -0.00000000000E+00 -0.14867627683E+03  0.14867627683E+03  0.00000000000E+00 0. -1.
          2    1    1    2  501    0  0.11516677977E+03  0.73757718005E+02  0.20012059253E+03  0.24238778782E+03  0.00000000000E+00 0. -1.
          1    1    1    2  502    0 -0.14919828141E+03 -0.57579394374E+02 -0.41659470603E+02  0.16526047720E+03  0.00000000000E+00 0. -1.
         22    1    1    2    0    0 -0.29398124033E+02 -0.26256985589E+02  0.52237064995E+01  0.39761364394E+02  0.00000000000E+00 0.  1.
         22    1    1    2    0    0  0.63429625675E+02  0.10078661958E+02  0.14452790890E+03  0.15815566158E+03  0.00000000000E+00 0. -1.
</event>
<event>
 6    1  0.2406404E-005  0.7409795E+02  0.7818608E-02  0.1371211E+00
          2   -1    0    0  502    0  0.00000000000E+00  0.00000000000E+00  0.56291223515E+02  0.56291223515E+02  0.00000000000E+00 0.  1.
          1   -1    0    0  501    0 -0.00000000000E+00 -0.00000000000E+00 -0.18543105619E+03  0.18543105619E+03  0.00000000000E+00 0. -1.
          2    1    1    2  501    0 -0.31929573283E+01 -0.28891246984E+02  0.10782977404E+02  0.31002769723E+02  0.00000000000E+00 0.  1.
          1    1    1    2  502    0  0.18637638292E+02 -0.77621863617E+01 -0.48599975366E+02  0.52626710934E+02  0.00000000000E+00 0. -1.
         22    1    1    2    0    0 -0.12544209911E+02  0.52356419303E+02 -0.11646574467E+03  0.12830752716E+03  0.00000000000E+00 0. -1.
         22    1    1    2    0    0 -0.29004710521E+01 -0.15702985957E+02  0.25142909957E+02  0.29785271887E+02  0.00000000000E+00 0.  1.
</event>
<event>
 6    1  0.2406404E-005  0.1003858E+03  0.7818608E-02  0.1281382E+00
          2   -1    0    0  502    0  0.00000000000E+00  0.00000000000E+00  0.16614887834E+03  0.16614887834E+03  0.00000000000E+00 0.  1.
          1   -1    0    0  501    0 -0.00000000000E+00 -0.00000000000E+00 -0.71069741130E+02  0.71069741130E+02  0.00000000000E+00 0. -1.
          2    1    1    2  501    0  0.29711371682E+01 -0.31096796273E+02  0.17730204237E+02  0.35919333746E+02  0.00000000000E+00 0.  1.
          1    1    1    2  502    0 -0.36175706695E+02  0.37678282494E+02  0.39388189381E+01  0.52381762296E+02  0.00000000000E+00 0. -1.
         22    1    1    2    0    0  0.31733336643E+02 -0.54256771624E+02  0.78931695758E+02  0.10090101346E+03  0.00000000000E+00 0.  1.
         22    1    1    2    0    0  0.14712328838E+01  0.47675285402E+02 -0.55215817283E+01  0.48016509965E+02  0.00000000000E+00 0. -1.
</event>
<event>
 6    1  0.2406404E-005  0.9822794E+02  0.7818608E-02  0.1313751E+00
          2   -1    0    0  502    0  0.00000000000E+00  0.00000000000E+00  0.17347750180E+03  0.17347750180E+03  0.00000000000E+00 0. -1.
          1   -1    0    0  501    0 -0.00000000000E+00 -0.00000000000E+00 -0.13572909336E+03  0.13572909336E+03  0.00000000000E+00 0. -1.
          2    1    1    2  501    0  0.12795116292E+02  0.37864594656E+02  0.10197548031E+03  0.10952826628E+03  0.00000000000E+00 0. -1.
          1    1    1    2  502    0 -0.40884497722E+02  0.69445685299E+01 -0.50173679380E+02  0.65093527240E+02  0.00000000000E+00 0. -1.
         22    1    1    2    0    0  0.13454737458E+02  0.99548472407E+01  0.47823712742E+02  0.50667903490E+02  0.00000000000E+00 0.  1.
         22    1    1    2    0    0  0.14634643973E+02 -0.54764010426E+02 -0.61877105242E+02  0.83916898151E+02  0.00000000000E+00 0. -1.
</event>
<event>
 6    1  0.2406404E-005  0.1696546E+03  0.7818608E-02  0.1200923E+00
          2   -1    0    0  502    0  0.00000000000E+00  0.00000000000E+00  0.59038027932E+03  0.59038027932E+03  0.00000000000E+00 0. -1.
          1   -1    0    0  501    0 -0.00000000000E+00 -0.00000000000E+00 -0.36321232589E+02  0.36321232589E+02  0.00000000000E+00 0. -1.
          2    1    1    2  501    0 -0.61568057476E+02 -0.32181654065E+02  0.23654781672E+03  0.24653834216E+03  0.00000000000E+00 0. -1.
          1    1    1    2  502    0  0.16023395359E+02 -0.20446361591E+02  0.18848989239E+03  0.19027149664E+03  0.00000000000E+00 0. -1.
         22    1    1    2    0    0  0.74585954856E+02  0.37211695520E+02  0.35209294790E+02  0.90484636181E+02  0.00000000000E+00 0. -1.
         22    1    1    2    0    0 -0.29041292739E+02  0.15416320137E+02  0.93812042832E+02  0.99407036928E+02  0.00000000000E+00 0.  1.
</event>
<event>
 6    1  0.2406404E-005  0.1524830E+03  0.7818608E-02  0.1222394E+00
          2   -1    0    0  502    0  0.00000000000E+00  0.00000000000E+00  0.26475120815E+02  0.26475120815E+02  0.00000000000E+00 0. -1.
          1   -1    0    0  501    0 -0.00000000000E+00 -0.00000000000E+00 -0.57141748441E+03  0.57141748441E+03  0.00000000000E+00 0.  1.
          2    1    1    2  501    0 -0.16516642535E+02 -0.61198998544E+02 -0.10184693083E+03  0.11996213662E+03  0.00000000000E+00 0. -1.
          1    1    1    2  502    0  0.31899528525E+02 -0.31100497496E+01 -0.35541057836E+02  0.47858323432E+02  0.00000000000E+00 0.  1.
         22    1    1    2    0    0  0.50213117000E+02  0.20954086162E+02 -0.11642478474E+03  0.12851132771E+03  0.00000000000E+00 0.  1.
         22    1    1    2    0    0 -0.65596002990E+02  0.43354962131E+02 -0.29112959018E+03  0.30156081746E+03  0.00000000000E+00 0.  1.
</event>
<event>
 6    1  0.2406404E-005  0.1611265E+03  0.7818608E-02  0.1300906E+00
          2   -1    0    0  502    0  0.00000000000E+00  0.00000000000E+00  0.77342159162E+03  0.77342159162E+03  0.00000000000E+00 0.  1.
          1   -1    0    0  501    0 -0.00000000000E+00 -0.00000000000E+00 -0.21085242089E+03  0.21085242089E+03  0.00000000000E+00 0. -1.
          2    1    1    2  501    0  0.41191634268E+02 -0.90320889661E+02  0.39462021946E+03  0.40691489460E+03  0.00000000000E+00 0.  1.
          1    1    1    2  502    0 -0.63895072871E+02  0.13471329182E+03 -0.16247576420E+03  0.22051899076E+03  0.00000000000E+00 0. -1.
         22    1    1    2    0    0  0.38874851469E+02 -0.46045336321E+02  0.33465960800E+03  0.34004188021E+03  0.00000000000E+00 0.  1.
         22    1    1    2    0    0 -0.16171412866E+02  0.16529341599E+01 -0.42348925223E+01  0.16798246935E+02  0.00000000000E+00 0.  1.
</event>
<event>
 6    1  0.2406404E-005  0.8780942E+02  0.7818608E-02  0.1308251E+00
          2   -1    0    0  502    0  0.00000000000E+00  0.00000000000E+00  0.35074698048E+03  0.35074698048E+03  0.00000000000E+00 0. -1.
          1   -1    0    0  501    0 -0.00000000000E+00 -0.00000000000E+00 -0.92217753110E+02  0.92217753110E+02  0.00000000000E+00 0. -1.
          2    1    1    2  501    0 -0.16823759091E+02 -0.55354299034E+02  0.19041678893E+03  0.19901178557E+03  0.00000000000E+00 0. -1.
          1    1    1    2  502    0  0.20283447649E+02  0.59968722793E+02 -0.45431342101E+02  0.77920939464E+02  0.00000000000E+00 0. -1.
         22    1    1    2    0    0 -0.24398180288E+01  0.24361675636E+02 -0.18598332039E+02  0.30746412904E+02  0.00000000000E+00 0.  1.
         22    1    1    2    0    0 -0.10198705297E+01 -0.28976099395E+02  0.13214211259E+03  0.13528559565E+03  0.00000000000E+00 0. -1.
</event>
<event>
 6    1  0.2406404E-005  0.1018473E+03  0.7818608E-02  0.1280235E+00
          2   -1    0    0  502    0  0.00000000000E+00  0.00000000000E+00  0.18845950666E+03  0.18845950666E+03  0.00000000000E+00 0. -1.
          1   -1    0    0  501    0 -0.00000000000E+00 -0.00000000000E+00 -0.18417087976E+03  0.18417087976E+03  0.00000000000E+00 0. -1.
          2    1    1    2  501    0  0.42901781374E+02  0.33802410491E+02  0.65842972530E+02  0.85548014774E+02  0.00000000000E+00 0. -1.
          1    1    1    2  502    0 -0.63045140038E+02 -0.27563675271E+02 -0.12765472659E+03  0.14501784407E+03  0.00000000000E+00 0. -1.
         22    1    1    2    0    0 -0.24197801198E+02 -0.43454372567E+01 -0.28459148366E+02  0.37607705773E+02  0.00000000000E+00 0. -1.
         22    1    1    2    0    0  0.44341159862E+02 -0.18932979636E+01  0.94559529325E+02  0.10445682180E+03  0.00000000000E+00 0. -1.
</event>
<event>
 6    1  0.2406404E-005  0.1674819E+03  0.7818608E-02  0.1199061E+00
          2   -1    0    0  502    0  0.00000000000E+00  0.00000000000E+00  0.40869293559E+03  0.40869293559E+03  0.00000000000E+00 0.  1.
          1   -1    0    0  501    0 -0.00000000000E+00 -0.00000000000E+00 -0.94954516669E+02  0.94954516669E+02  0.00000000000E+00 0.  1.
          2    1    1    2  501    0 -0.80471096038E+02  0.35153337476E+02  0.27791856629E+03  0.29146197680E+03  0.00000000000E+00 0.  1.
          1    1    1    2  502    0  0.26332903496E+02 -0.63169545212E+02  0.36486313801E+02  0.77556845885E+02  0.00000000000E+00 0.  1.
         22    1    1    2    0    0 -0.12739158921E+02 -0.16952188448E+02  0.39312716020E+02  0.44667130018E+02  0.00000000000E+00 0.  1.
         22    1    1    2    0    0  0.66877351464E+02  0.44968396184E+02 -0.39979177186E+02  0.89961499558E+02  0.00000000000E+00 0.  1.
</event>
<event>
 6    1  0.2406404E-005  0.2212889E+03  0.7818608E-02  0.1143563E+00
          2   -1    0    0  502    0  0.00000000000E+00  0.00000000000E+00  0.31387166377E+04  0.31387166377E+04  0.00000000000E+00 0. -1.
          1   -1    0    0  501    0 -0.00000000000E+00 -0.00000000000E+00 -0.60286245495E+02  0.60286245495E+02  0.00000000000E+00 0. -1.
          2    1    1    2  501    0  0.11694695955E+03  0.10417759501E+03  0.16802719117E+04  0.16875554094E+04  0.00000000000E+00 0. -1.
          1    1    1    2  502    0  0.54405866720E+02  0.18081252313E+03  0.27795286547E+03  0.33602226456E+03  0.00000000000E+00 0. -1.
         22    1    1    2    0    0  0.51947402625E+01  0.99332307122E+01  0.55132807375E+02  0.56260828716E+02  0.00000000000E+00 0. -1.
         22    1    1    2    0    0 -0.17654756653E+03 -0.29492334885E+03  0.10650728077E+04  0.11191643805E+04  0.00000000000E+00 0. -1.
</event>
<event>
 6    1  0.2406404E-005  0.6039583E+02  0.7818608E-02  0.1464010E+00
          2   -1    0    0  502    0  0.00000000000E+00  0.00000000000E+00  0.34253355451E+03  0.34253355451E+03  0.00000000000E+00 0.  1.
          1   -1    0    0  501    0 -0.00000000000E+00 -0.00000000000E+00 -0.35628640173E+02  0.35628640173E+02  0.00000000000E+00 0. -1.
          2    1    1    2  501    0  0.34797867618E+02  0.11638091019E+02  0.12104195707E+03  0.12648119277E+03  0.00000000000E+00 0.  1.
          1    1    1    2  502    0 -0.42062593054E+02 -0.13490890267E+02  0.52677740497E+02  0.68747437760E+02  0.00000000000E+00 0. -1.
         22    1    1    2    0    0  0.16690226979E+02  0.21272877968E+02  0.15194646569E+03  0.15433349425E+03  0.00000000000E+00 0.  1.
         22    1    1    2    0    0 -0.94255015427E+01 -0.19420078719E+02 -0.18761248922E+02  0.28600069894E+02  0.00000000000E+00 0. -1.
</event>
<event>
 6    1  0.2406404E-005  0.5530404E+02  0.7818608E-02  0.1457471E+00
          2   -1    0    0  502    0  0.00000000000E+00  0.00000000000E+00  0.83951314731E+03  0.83951314731E+03  0.00000000000E+00 0.  1.
          1   -1    0    0  501    0 -0.00000000000E+00 -0.00000000000E+00 -0.86479650359E+02  0.86479650359E+02  0.00000000000E+00 0.  1.
          2    1    1    2  501    0 -0.32438885412E+02  0.17695340484E+02  0.66944697946E+03  0.67046600561E+03  0.00000000000E+00 0.  1.
          1    1    1    2  502    0  0.36555318469E+02 -0.47432933930E+01 -0.54249211944E+02  0.65587858154E+02  0.00000000000E+00 0.  1.
         22    1    1    2    0    0 -0.17964431644E+02 -0.25157831159E+02  0.15892984897E+03  0.16190841290E+03  0.00000000000E+00 0. -1.
         22    1    1    2    0    0  0.13847998586E+02  0.12205784068E+02 -0.21094119534E+02  0.28030521016E+02  0.00000000000E+00 0.  1.
</event>
<event>
 6    1  0.2406404E-005  0.1315279E+03  0.7818608E-02  0.1227600E+00
          2   -1    0    0  502    0  0.00000000000E+00  0.00000000000E+00  0.23396757048E+02  0.23396757048E+02  0.00000000000E+00 0. -1.
          1   -1    0    0  501    0 -0.00000000000E+00 -0.00000000000E+00 -0.84967873537E+03  0.84967873537E+03  0.00000000000E+00 0. -1.
          2    1    1    2  501    0  0.40098429103E+02  0.41327784928E+02 -0.12172399610E+03  0.13465734681E+03  0.00000000000E+00 0. -1.
          1    1    1    2  502    0 -0.59976562092E+02 -0.63533756206E+02 -0.37115688521E+03  0.38130192711E+03  0.00000000000E+00 0. -1.
         22    1    1    2    0    0 -0.43397772852E+02  0.21469561231E+01 -0.23121993323E+03  0.23526715375E+03  0.00000000000E+00 0. -1.
         22    1    1    2    0    0  0.63275905840E+02  0.20059015155E+02 -0.10218116377E+03  0.12184906474E+03  0.00000000000E+00 0.  1.
</event>
<event>
 6    1  0.2406404E-005  0.2620759E+02  0.7818608E-02  0.1667381E+00
          2   -1    0    0  502    0  0.00000000000E+00  0.00000000000E+00  0.42653300842E+03  0.42653300842E+03  0.00000000000E+00 0. -1.
          1   -1    0    0  501    0 -0.00000000000E+00 -0.00000000000E+00 -0.66883572963E+02  0.66883572963E+02  0.00000000000E+00 0. -1.
          2    1    1    2  501    0  0.30588105571E+02 -0.90212608881E+01  0.34094165276E+03  0.34242988470E+03  0.00000000000E+00 0. -1.
          1    1    1    2  502    0 -0.18607001592E+02  0.14049161903E+02 -0.40507513790E+00  0.23318738051E+02  0.00000000000E+00 0. -1.
         22    1    1    2    0    0 -0.39475969419E+01  0.15160468408E+02 -0.51477893765E+02  0.53808892113E+02  0.00000000000E+00 0. -1.
         22    1    1    2    0    0 -0.80335070368E+01 -0.20188369423E+02  0.70590751602E+02  0.73859066519E+02  0.00000000000E+00 0. -1.
</event>
<event>
 6    1  0.2406404E-005  0.1104777E+03  0.7818608E-02  0.1260886E+00
          2   -1    0    0  502    0  0.00000000000E+00  0.00000000000E+00  0.84250251830E+02  0.84250251830E+02  0.00000000000E+00 0.  1.
          1   -1    0    0  501    0 -0.00000000000E+00 -0.00000000000E+00 -0.19962218364E+03  0.19962218364E+03  0.00000000000E+00 0.  1.
          2    1    1    2  501    0  0.64601174833E+02  0.25098897617E+02 -0.77018921048E+02  0.10361071687E+03  0.00000000000E+00 0.  1.
          1    1    1    2  502    0 -0.39641057887E+02 -0.28532547531E+02  0.36314618391E+01  0.48976599046E+02  0.00000000000E+00 0.  1.
         22    1    1    2    0    0  0.30581376648E+02 -0.22428984665E+02 -0.56757084966E+02  0.68261604468E+02  0.00000000000E+00 0.  1.
         22    1    1    2    0    0 -0.55541493594E+02  0.25862634579E+02  0.14772612360E+02  0.63023515088E+02  0.00000000000E+00 0.  1.
</event>
<event>
 6    1  0.2406404E-005  0.2986013E+03  0.7818608E-02  0.1183139E+00
          2   -1    0    0  502    0  0.00000000000E+00  0.00000000000E+00  0.15889646129E+03  0.15889646129E+03  0.00000000000E+00 0.  1.
          1   -1    0    0  501    0 -0.00000000000E+00 -0.00000000000E+00 -0.12722148484E+04  0.12722148484E+04  0.00000000000E+00 0.  1.
          2    1    1    2  501    0 -0.78072224051E+01  0.27475629883E+03 -0.57985349009E+02  0.28091685099E+03  0.00000000000E+00 0.  1.
          1    1    1    2  502    0  0.62246869025E+01 -0.27265170459E+03 -0.94716930716E+03  0.98565074706E+03  0.00000000000E+00 0.  1.
         22    1    1    2    0    0  0.14155565497E+02  0.23990296319E+02  0.19262484577E+02  0.33866763413E+02  0.00000000000E+00 0. -1.
         22    1    1    2    0    0 -0.12573029995E+02 -0.26094890565E+02 -0.12742621555E+03  0.13067694825E+03  0.00000000000E+00 0. -1.
</event>
<event>
 6    1  0.2406404E-005  0.1339436E+03  0.7818608E-02  0.1226780E+00
          2   -1    0    0  502    0  0.00000000000E+00  0.00000000000E+00  0.10635392584E+03  0.10635392584E+03  0.00000000000E+00 0. -1.
          1   -1    0    0  501    0 -0.00000000000E+00 -0.00000000000E+00 -0.49533123120E+03  0.49533123120E+03  0.00000000000E+00 0. -1.
          2    1    1    2  501    0  0.53775776349E+02  0.80550368720E+02  0.54677206924E+02  0.11121957103E+03  0.00000000000E+00 0. -1.
          1    1    1    2  502    0 -0.58805844897E+02 -0.22677348493E+02 -0.20556416444E+03  0.21500933755E+03  0.00000000000E+00 0. -1.
         22    1    1    2    0    0  0.19371300297E+02  0.11543692966E+02  0.42633226608E+01  0.22949510727E+02  0.00000000000E+00 0. -1.
         22    1    1    2    0    0 -0.14341231748E+02 -0.69416713193E+02 -0.24235367050E+03  0.25250673774E+03  0.00000000000E+00 0. -1.
</event>
<event>
 6    1  0.2406404E-005  0.7405596E+02  0.7818608E-02  0.1350485E+00
          2   -1    0    0  502    0  0.00000000000E+00  0.00000000000E+00  0.70437978141E+02  0.70437978141E+02  0.00000000000E+00 0.  1.
          1   -1    0    0  501    0 -0.00000000000E+00 -0.00000000000E+00 -0.12177362211E+03  0.12177362211E+03  0.00000000000E+00 0. -1.
          2    1    1    2  501    0 -0.14795504096E+02 -0.21045591161E+02  0.28376692430E+01  0.25881966995E+02  0.00000000000E+00 0.  1.
          1    1    1    2  502    0 -0.13514107909E+02  0.27350451798E+02 -0.12962918074E+02  0.33146878753E+02  0.00000000000E+00 0. -1.
         22    1    1    2    0    0 -0.23786892001E+01 -0.33089102710E+02 -0.73867457779E+02  0.80974985021E+02  0.00000000000E+00 0. -1.
         22    1    1    2    0    0  0.30688301205E+02  0.26784242073E+02  0.32657062638E+02  0.52207769484E+02  0.00000000000E+00 0.  1.
</event>
<event>
 6    1  0.2406404E-005  0.9749876E+02  0.7818608E-02  0.1290323E+00
          2   -1    0    0  502    0  0.00000000000E+00  0.00000000000E+00  0.23621366895E+03  0.23621366895E+03  0.00000000000E+00 0. -1.
          1   -1    0    0  501    0 -0.00000000000E+00 -0.00000000000E+00 -0.55746392676E+02  0.55746392676E+02  0.00000000000E+00 0. -1.
          2    1    1    2  501    0  0.27905989979E+02  0.84926703420E+01 -0.15830005672E+02  0.33188232942E+02  0.00000000000E+00 0. -1.
          1    1    1    2  502    0 -0.19745609909E+02  0.26420008791E+02  0.53682932465E+02  0.63006056956E+02  0.00000000000E+00 0. -1.
         22    1    1    2    0    0  0.51695339388E+02 -0.11482799628E+02  0.18678562526E+02  0.56152929574E+02  0.00000000000E+00 0. -1.
         22    1    1    2    0    0 -0.59855719458E+02 -0.23429879505E+02  0.12393578695E+03  0.13961284215E+03  0.00000000000E+00 0. -1.
</event>
<event>
 6    1  0.2406404E-005  0.4407636E+02  0.7818608E-02  0.1528516E+00
          2   -1    0    0  502    0  0.00000000000E+00  0.00000000000E+00  0.11764666485E+03  0.11764666485E+03  0.00000000000E+00 0. -1.
          1   -1    0    0  501    0 -0.00000000000E+00 -0.00000000000E+00 -0.52917414864E+03  0.52917414864E+03  0.00000000000E+00 0. -1.
          2    1    1    2  501    0 -0.21105610427E+02 -0.11021604949E+02  0.72556200970E+02  0.76363111948E+02  0.00000000000E+00 0. -1.
          1    1    1    2  502    0  0.42237141456E+02 -0.12459094723E+02 -0.42879802718E+03  0.43105330676E+03  0.00000000000E+00 0. -1.
         22    1    1    2    0    0 -0.19422031787E+02  0.77130767506E+00  0.38373880674E+02  0.43015868610E+02  0.00000000000E+00 0. -1.
         22    1    1    2    0    0 -0.17094992412E+01  0.22709391997E+02 -0.93659538256E+02  0.96388526179E+02  0.00000000000E+00 0.  1.
</event>
<event>
 6    1  0.2406404E-005  0.9909300E+02  0.7818608E-02  0.1347557E+00
          2   -1    0    0  502    0  0.00000000000E+00  0.00000000000E+00  0.15869609026E+03  0.15869609026E+03  0.00000000000E+00 0. -1.
          1   -1    0    0  501    0 -0.00000000000E+00 -0.00000000000E+00 -0.59072799288E+03  0.59072799288E+03  0.00000000000E+00 0.  1.
          2    1    1    2  501    0  0.70100813087E+02  0.44276408985E+02  0.10245756222E+03  0.13180317311E+03  0.00000000000E+00 0. -1.
          1    1    1    2  502    0 -0.11045582278E+03 -0.51030101552E+02 -0.44617648366E+03  0.46246947426E+03  0.00000000000E+00 0.  1.
         22    1    1    2    0    0  0.30354267170E+02 -0.32035016905E+01 -0.11821210967E+03  0.12208909383E+03  0.00000000000E+00 0.  1.
         22    1    1    2    0    0  0.10000742518E+02  0.99571942578E+01  0.29899128503E+02  0.33062341926E+02  0.00000000000E+00 0.  1.
</event>
<event>
 6    1  0.2406404E-005  0.9247387E+02  0.7818608E-02  0.1419461E+00
          2   -1    0    0  502    0  0.00000000000E+00  0.00000000000E+00  0.47021136010E+02  0.47021136010E+02  0.00000000000E+00 0. -1.
          1   -1    0    0  501    0 -0.00000000000E+00 -0.00000000000E+00 -0.42936607019E+03  0.42936607019E+03  0.00000000000E+00 0. -1.
          2    1    1    2  501    0  0.17371438356E+02  0.75274933300E+02 -0.34392176693E+02  0.84563019527E+02  0.00000000000E+00 0. -1.
          1    1    1    2  502    0 -0.12611834778E+02 -0.44624254979E+02 -0.11952893243E+03  0.12820900201E+03  0.00000000000E+00 0. -1.
         22    1    1    2    0    0 -0.66445870432E+01  0.96128244239E+01  0.13787128433E+02  0.18073235483E+02  0.00000000000E+00 0. -1.
         22    1    1    2    0    0  0.18849834653E+01 -0.40263502745E+02 -0.24221095349E+03  0.24554194917E+03  0.00000000000E+00 0.  1.
</event>
<event>
 6    1  0.2406404E-005  0.1909487E+03  0.7818608E-02  0.1199019E+00
          2   -1    0    0  502    0  0.00000000000E+00  0.00000000000E+00  0.12487299807E+03  0.12487299807E+03  0.00000000000E+00 0.  1.
          1   -1    0    0  501    0 -0.00000000000E+00 -0.00000000000E+00 -0.15182941596E+03  0.15182941596E+03  0.00000000000E+00 0.  1.
          2    1    1    2  501    0  0.33157500780E+02  0.82096641244E+01 -0.61508666330E+02  0.70357192075E+02  0.00000000000E+00 0.  1.
          1    1    1    2  502    0  0.25762323006E+02 -0.26398072303E+02 -0.36078866364E+02  0.51596900160E+02  0.00000000000E+00 0.  1.
         22    1    1    2    0    0 -0.91381395629E+02  0.25994670024E+02  0.75045607376E+02  0.12107074594E+03  0.00000000000E+00 0.  1.
         22    1    1    2    0    0  0.32461571843E+02 -0.78062618451E+01 -0.44144925811E+01  0.33677575852E+02  0.00000000000E+00 0.  1.
</event>
<event>
 6    1  0.2406404E-005  0.6953061E+02  0.7818608E-02  0.1369546E+00
          2   -1    0    0  502    0  0.00000000000E+00  0.00000000000E+00  0.40236027427E+03  0.40236027427E+03  0.00000000000E+00 0.  1.
          1   -1    0    0  501    0 -0.00000000000E+00 -0.00000000000E+00 -0.34118099071E+02  0.34118099071E+02  0.00000000000E+00 0.  1.
          2    1    1    2  501    0 -0.26775742547E+02  0.93293526396E+01  0.70292106669E+02  0.75795497687E+02  0.00000000000E+00 0.  1.
          1    1    1    2  502    0  0.50428283864E+02  0.36450114948E+02  0.58538435621E+02  0.85430504728E+02  0.00000000000E+00 0.  1.
         22    1    1    2    0    0 -0.48000464608E+02  0.10156244889E+02  0.19149107426E+03  0.19767656774E+03  0.00000000000E+00 0.  1.
         22    1    1    2    0    0  0.24347923291E+02 -0.55935712477E+02  0.47920558655E+02  0.77575803191E+02  0.00000000000E+00 0.  1.
</event>
<event>
 6    1  0.2406404E-005  0.1130109E+03  0.7818608E-02  0.1282233E+00
          2   -1    0    0  502    0  0.00000000000E+00  0.00000000000E+00  0.22036983488E+03  0.22036983488E+03  0.00000000000E+00 0.  1.
          1   -1    0    0  501    0 -0.00000000000E+00 -0.00000000000E+00 -0.18174325942E+03  0.18174325942E+03  0.00000000000E+00 0. -1.
          2    1    1    2  501    0 -0.16761341858E+02  0.92279976987E+02  0.11416240397E+03  0.14774840512E+03  0.00000000000E+00 0.  1.
          1    1    1    2  502    0 -0.25804768443E+02 -0.79172273073E+02 -0.82914382552E+02  0.11751140256E+03  0.00000000000E+00 0. -1.
         22    1    1    2    0    0 -0.18134911595E+02  0.14736562220E+02  0.51676695694E+02  0.56714391141E+02  0.00000000000E+00 0. -1.
         22    1    1    2    0    0  0.60701021897E+02 -0.27844266134E+02 -0.44298141647E+02  0.80138895483E+02  0.00000000000E+00 0. -1.
</event>
<event>
 6    1  0.2406404E-005  0.1395507E+03  0.7818608E-02  0.1237025E+00
          2   -1    0    0  502    0  0.00000000000E+00  0.00000000000E+00  0.66322367566E+03  0.66322367566E+03  0.00000000000E+00 0. -1.
          1   -1    0    0  501    0 -0.00000000000E+00 -0.00000000000E+00 -0.31428459201E+02  0.31428459201E+02  0.00000000000E+00 0. -1.
          2    1    1    2  501    0 -0.15648320577E+02  0.21823381409E+02  0.18902255306E+03  0.19092054756E+03  0.00000000000E+00 0. -1.
          1    1    1    2  502    0 -0.85602613259E+00  0.65471320159E+02  0.52845205299E+02  0.84141798574E+02  0.00000000000E+00 0. -1.
         22    1    1    2    0    0 -0.49884996160E+01  0.18398870008E+02  0.48190243233E+01  0.19662821299E+02  0.00000000000E+00 0. -1.
         22    1    1    2    0    0  0.21492846326E+02 -0.10569357158E+03  0.38510843377E+03  0.39992696743E+03  0.00000000000E+00 0. -1.
</event>
<event>
 6    1  0.2406404E-005  0.9710565E+02  0.7818608E-02  0.1295081E+00
          2   -1    0    0  502    0  0.00000000000E+00  0.00000000000E+00  0.31656393992E+02  0.31656393992E+02  0.00000000000E+00 0.  1.
          1   -1    0    0  501    0 -0.00000000000E+00 -0.00000000000E+00 -0.38853510983E+03  0.38853510983E+03  0.00000000000E+00 0.  1.
          2    1    1    2  501    0 -0.97607626878E+01 -0.44391066531E+02 -0.50381557078E+02  0.67853817649E+02  0.00000000000E+00 0.  1.
          1    1    1    2  502    0  0.31910486770E+02  0.19189228068E+02 -0.10265222368E+03  0.10919699934E+03  0.00000000000E+00 0.  1.
         22    1    1    2    0    0  0.96490595826E+01 -0.24812852873E+02  0.40800345570E+01  0.26933783627E+02  0.00000000000E+00 0.  1.
         22    1    1    2    0    0 -0.31798783665E+02  0.50014691336E+02 -0.20792496964E+03  0.21620690320E+03  0.00000000000E+00 0.  1.
</event>
<event>
 6    1  0.2406404E-005  0.6107340E+02  0.7818608E-02  0.1414748E+00
          2   -1    0    0  502    0  0.00000000000E+00  0.00000000000E+00  0.25804798069E+02  0.25804798069E+02  0.00000000000E+00 0.  1.
          1   -1    0    0  501    0 -0.00000000000E+00 -0.00000000000E+00 -0.41435206503E+03  0.41435206503E+03  0.00000000000E+00 0.  1.
          2    1    1    2  501    0  0.14010935639E+01  0.19970210342E+02 -0.25915951315E+02  0.32747654830E+02  0.00000000000E+00 0.  1.
          1    1    1    2  502    0  0.16674150026E+02 -0.54039100359E+02 -0.86660035933E+02  0.10348049804E+03  0.00000000000E+00 0.  1.
         22    1    1    2    0    0 -0.43182531766E+02 -0.62244115211E+01 -0.24111759039E+03  0.24503299113E+03  0.00000000000E+00 0.  1.
         22    1    1    2    0    0  0.25107288175E+02  0.40293301537E+02 -0.34853689321E+02  0.58895719094E+02  0.00000000000E+00 0.  1.
</event>
<event>
 6    1  0.2406404E-005  0.1821442E+03  0.7818608E-02  0.1191844E+00
          2   -1    0    0  502    0  0.00000000000E+00  0.00000000000E+00  0.66762178319E+03  0.66762178319E+03  0.00000000000E+00 0. -1.
          1   -1    0    0  501    0 -0.00000000000E+00 -0.00000000000E+00 -0.56949917118E+02  0.56949917118E+02  0.00000000000E+00 0. -1.
          2    1    1    2  501    0  0.80519635361E+02 -0.12533216852E+02  0.43374833923E+03  0.44133673651E+03  0.00000000000E+00 0. -1.
          1    1    1    2  502    0 -0.10732076802E+01 -0.52875863833E+02  0.64519799269E+02  0.83425495195E+02  0.00000000000E+00 0. -1.
         22    1    1    2    0    0  0.17566658517E+02 -0.64279246548E+01  0.69060624631E+02  0.71549113071E+02  0.00000000000E+00 0. -1.
         22    1    1    2    0    0 -0.97013086197E+02  0.71837005340E+02  0.43343102940E+02  0.12826035554E+03  0.00000000000E+00 0. -1.
</event>
<event>
 6    1  0.2406404E-005  0.9167299E+02  0.7818608E-02  0.1301878E+00
          2   -1    0    0  502    0  0.00000000000E+00  0.00000000000E+00  0.46368358465E+02  0.46368358465E+02  0.00000000000E+00 0. -1.
          1   -1    0    0  501    0 -0.00000000000E+00 -0.00000000000E+00 -0.44415388701E+03  0.44415388701E+03  0.00000000000E+00 0. -1.
          2    1    1    2  501    0  0.20195409052E+02 -0.32586637970E+02 -0.12677373190E+02  0.40378946395E+02  0.00000000000E+00 0. -1.
          1    1    1    2  502    0 -0.35476148107E+02  0.26612089736E+02 -0.28042846433E+03  0.28391351502E+03  0.00000000000E+00 0. -1.
         22    1    1    2    0    0  0.35041193678E+02 -0.29400160746E+02  0.80454080206E+01  0.46443334252E+02  0.00000000000E+00 0. -1.
         22    1    1    2    0    0 -0.19760454624E+02  0.35374708980E+02 -0.11272509905E+03  0.11978644981E+03  0.00000000000E+00 0. -1.
</event>
<event>
 6    1  0.2406404E-005  0.5306770E+03  0.7818608E-02  0.1060315E+00
          2   -1    0    0  502    0  0.00000000000E+00  0.00000000000E+00  0.70444223531E+03  0.70444223531E+03  0.00000000000E+00 0. -1.
          1   -1    0    0  501    0 -0.00000000000E+00 -0.00000000000E+00 -0.16841368133E+03  0.16841368133E+03  0.00000000000E+00 0.  1.
          2    1    1    2  501    0  0.62712672934E+02 -0.69000767922E+02  0.21764834515E+03  0.23678004026E+03  0.00000000000E+00 0. -1.
          1    1    1    2  502    0 -0.67374392413E+02 -0.44721288300E+02  0.42550103441E+03  0.43311711195E+03  0.00000000000E+00 0.  1.
         22    1    1    2    0    0  0.15418287120E+02  0.10518665783E+03 -0.13502808498E+03  0.17185616164E+03  0.00000000000E+00 0.  1.
         22    1    1    2    0    0 -0.10756567641E+02  0.85353983959E+01  0.27907259396E+02  0.31102602788E+02  0.00000000000E+00 0.  1.
</event>
<event>
 6    1  0.2406404E-005  0.6524619E+02  0.7818608E-02  0.1379611E+00
          2   -1    0    0  502    0  0.00000000000E+00  0.00000000000E+00  0.98695713796E+02  0.98695713796E+02  0.00000000000E+00 0. -1.
          1   -1    0    0  501    0 -0.00000000000E+00 -0.00000000000E+00 -0.18137731164E+03  0.18137731164E+03  0.00000000000E+00 0. -1.
          2    1    1    2  501    0  0.48810942258E+01 -0.23638367777E+02  0.30978057062E+02  0.39271332182E+02  0.00000000000E+00 0. -1.
          1    1    1    2  502    0 -0.23564217453E+02  0.36446601743E+02 -0.10440819032E+03  0.11306943587E+03  0.00000000000E+00 0. -1.
         22    1    1    2    0    0  0.36058342456E+02 -0.19723972157E+02  0.50506525200E+02  0.65116420556E+02  0.00000000000E+00 0. -1.
         22    1    1    2    0    0 -0.17375219228E+02  0.69157381907E+01 -0.59757989792E+02  0.62615836830E+02  0.00000000000E+00 0. -1.
</event>
<event>
 6    1  0.2406404E-005  0.1530908E+03  0.7818608E-02  0.1234089E+00
          2   -1    0    0  502    0  0.00000000000E+00  0.00000000000E+00  0.39426373460E+03  0.39426373460E+03  0.00000000000E+00 0.  1.
          1   -1    0    0  501    0 -0.00000000000E+00 -0.00000000000E+00 -0.11614821192E+03  0.11614821192E+03  0.00000000000E+00 0.  1.
          2    1    1    2  501    0 -0.21167533338E+02 -0.16936674333E+02  0.58098384798E+02  0.64111915595E+02  0.00000000000E+00 0.  1.
          1    1    1    2  502    0  0.14448415976E+03 -0.10109508076E+03  0.89557046134E+02  0.19777854355E+03  0.00000000000E+00 0.  1.
         22    1    1    2    0    0 -0.42291318186E+02  0.13926613149E+01  0.92187011156E+02  0.10143441292E+03  0.00000000000E+00 0.  1.
         22    1    1    2    0    0 -0.81025308239E+02  0.11663909377E+03  0.38273080591E+02  0.14708707445E+03  0.00000000000E+00 0.  1.
</event>
<event>
 6    1  0.2406404E-005  0.7491614E+02  0.7818608E-02  0.1424271E+00
          2   -1    0    0  502    0  0.00000000000E+00  0.00000000000E+00  0.13316068580E+03  0.13316068580E+03  0.00000000000E+00 0. -1.
          1   -1    0    0  501    0 -0.00000000000E+00 -0.00000000000E+00 -0.12015758345E+03  0.12015758345E+03  0.00000000000E+00 0.  1.
          2    1    1    2  501    0  0.55130942414E+02 -0.13992617618E+02  0.50820927338E+02  0.76275689540E+02  0.00000000000E+00 0. -1.
          1    1    1    2  502    0 -0.29100033869E+02  0.80703038998E+00 -0.32831204755E+02  0.43878824903E+02  0.00000000000E+00 0.  1.
         22    1    1    2    0    0 -0.41455748390E+02  0.26558497533E+02 -0.58163321073E+02  0.76203049703E+02  0.00000000000E+00 0.  1.
         22    1    1    2    0    0  0.15424839845E+02 -0.13372910304E+02  0.53176700835E+02  0.56960705104E+02  0.00000000000E+00 0.  1.
</event>
<event>
 6    1  0.2406404E-005  0.7716858E+02  0.7818608E-02  0.1337942E+00
          2   -1    0    0  502    0  0.00000000000E+00  0.00000000000E+00  0.19229831307E+03  0.19229831307E+03  0.00000000000E+00 0. -1.
          1   -1    0    0  501    0 -0.00000000000E+00 -0.00000000000E+00 -0.51264462899E+02  0.51264462899E+02  0.00000000000E+00 0.  1.
          2    1    1    2  501    0 -0.34029021226E+02 -0.98052270372E+01  0.64561454998E+02  0.73636256249E+02  0.00000000000E+00 0. -1.
          1    1    1    2  502    0  0.20425354253E+02  0.17645186612E+02  0.32740484284E+01  0.27189466711E+02  0.00000000000E+00 0.  1.
         22    1    1    2    0    0 -0.29769990613E+02 -0.29183985803E+02  0.83483856740E+02  0.93314048806E+02  0.00000000000E+00 0. -1.
         22    1    1    2    0    0  0.43373657586E+02  0.21344026228E+02 -0.10285510000E+02  0.49423004198E+02  0.00000000000E+00 0.  1.
</event>
<event>
 6    1  0.2406404E-005  0.9711903E+02  0.7818608E-02  0.1342128E+00
          2   -1    0    0  502    0  0.00000000000E+00  0.00000000000E+00  0.67366953632E+03  0.67366953632E+03  0.00000000000E+00 0. -1.
          1   -1    0    0  501    0 -0.00000000000E+00 -0.00000000000E+00 -0.31337329802E+02  0.31337329802E+02  0.00000000000E+00 0.  1.
          2    1    1    2  501    0  0.12042772837E+02  0.19551837070E+02  0.10118694180E+03  0.10375981833E+03  0.00000000000E+00 0. -1.
          1    1    1    2  502    0  0.15131018193E+02 -0.10269501777E+03  0.16903975548E+03  0.19836747041E+03  0.00000000000E+00 0.  1.
         22    1    1    2    0    0 -0.33939218586E+02  0.10730084412E+02  0.15311408201E+02  0.38748477271E+02  0.00000000000E+00 0.  1.
         22    1    1    2    0    0  0.67654275557E+01  0.72413096289E+02  0.35679410104E+03  0.36413110010E+03  0.00000000000E+00 0. -1.
</event>
<event>
 6    1  0.2406404E-005  0.8160302E+02  0.7818608E-02  0.1326607E+00
          2   -1    0    0  502    0  0.00000000000E+00  0.00000000000E+00  0.13791511534E+03  0.13791511534E+03  0.00000000000E+00 0.  1.
          1   -1    0    0  501    0 -0.00000000000E+00 -0.00000000000E+00 -0.93812224186E+02  0.93812224186E+02  0.00000000000E+00 0.  1.
          2    1    1    2  501    0 -0.18567560785E+02  0.12594695212E+02 -0.27800132600E+00  0.22437868565E+02  0.00000000000E+00 0.  1.
          1    1    1    2  502    0  0.20346239504E+02 -0.47576558052E+02 -0.32048253103E+02  0.60865333852E+02  0.00000000000E+00 0.  1.
         22    1    1    2    0    0 -0.24791418955E+02  0.23269145868E+02  0.10473140030E+03  0.11011236903E+03  0.00000000000E+00 0.  1.
         22    1    1    2    0    0  0.23012740236E+02  0.11712716972E+02 -0.28302254715E+02  0.38311768087E+02  0.00000000000E+00 0.  1.
</event>
<event>
 6    1  0.2406404E-005  0.1129221E+03  0.7818608E-02  0.1281142E+00
          2   -1    0    0  502    0  0.00000000000E+00  0.00000000000E+00  0.54142809930E+03  0.54142809930E+03  0.00000000000E+00 0.  1.
          1   -1    0    0  501    0 -0.00000000000E+00 -0.00000000000E+00 -0.69925350477E+02  0.69925350477E+02  0.00000000000E+00 0.  1.
          2    1    1    2  501    0  0.76103726344E+02  0.79761877709E+02  0.35813340660E+03  0.37471758862E+03  0.00000000000E+00 0.  1.
          1    1    1    2  502    0 -0.23211215652E+02 -0.68756195552E+02  0.41768514021E+02  0.83730422920E+02  0.00000000000E+00 0.  1.
         22    1    1    2    0    0 -0.60606072926E+02 -0.31579947816E+02 -0.93941933404E+01  0.68982896780E+02  0.00000000000E+00 0.  1.
         22    1    1    2    0    0  0.77135622340E+01  0.20574265660E+02  0.80995021542E+02  0.83922541456E+02  0.00000000000E+00 0.  1.
</event>
<event>
 6    1  0.2406404E-005  0.4327301E+02  0.7818608E-02  0.1532765E+00
          2   -1    0    0  502    0  0.00000000000E+00  0.00000000000E+00  0.46169323566E+02  0.46169323566E+02  0.00000000000E+00 0. -1.
          1   -1    0    0  501    0 -0.00000000000E+00 -0.00000000000E+00 -0.30082485287E+03  0.30082485287E+03  0.00000000000E+00 0. -1.
          2    1    1    2  501    0 -0.23507665896E+02 -0.13896199613E+02 -0.11728528463E+02  0.29719910826E+02  0.00000000000E+00 0. -1.
          1    1    1    2  502    0  0.20964317466E+02  0.18163424876E+02 -0.17110555617E+03  0.17333933184E+03  0.00000000000E+00 0. -1.
         22    1    1    2    0    0  0.52008116983E+01 -0.22152209270E+02  0.31602629708E+02  0.38942201047E+02  0.00000000000E+00 0. -1.
         22    1    1    2    0    0 -0.26574632680E+01  0.17884984007E+02 -0.10342407438E+03  0.10499273272E+03  0.00000000000E+00 0. -1.
</event>
<event>
 6    1  0.2406404E-005  0.1609406E+03  0.7818608E-02  0.1194812E+00
          2   -1    0    0  502    0  0.00000000000E+00  0.00000000000E+00  0.65108528132E+03  0.65108528132E+03  0.00000000000E+00 0.  1.
          1   -1    0    0  501    0 -0.00000000000E+00 -0.00000000000E+00 -0.39037916041E+02  0.39037916041E+02  0.00000000000E+00 0.  1.
          2    1    1    2  501    0  0.18449402509E+02  0.40546704740E+02  0.42446037095E+02  0.61531144824E+02  0.00000000000E+00 0.  1.
          1    1    1    2  502    0 -0.55694711880E+02 -0.93847709212E+02  0.15745471287E+03  0.19157578151E+03  0.00000000000E+00 0.  1.
         22    1    1    2    0    0 -0.69591314824E+01 -0.19936925548E+02  0.59913469782E+01  0.21950096808E+02  0.00000000000E+00 0.  1.
         22    1    1    2    0    0  0.44204440854E+02  0.73237930020E+02  0.40615526833E+03  0.41506617422E+03  0.00000000000E+00 0.  1.
</event>
<event>
 6    1  0.2406404E-005  0.5926448E+02  0.7818608E-02  0.1468462E+00
          2   -1    0    0  502    0  0.00000000000E+00  0.00000000000E+00  0.12807397545E+03  0.12807397545E+03  0.00000000000E+00 0.  1.
          1   -1    0    0  501    0 -0.00000000000E+00 -0.00000000000E+00 -0.87914818913E+02  0.87914818913E+02  0.00000000000E+00 0.  1.
          2    1    1    2  501    0  0.14769020116E+02  0.43637152040E+02  0.16394759345E+02  0.48899009472E+02  0.00000000000E+00 0.  1.
          1    1    1    2  502    0  0.49437624905E+01 -0.25555735178E+02 -0.17269501563E+02  0.31237350596E+02  0.00000000000E+00 0.  1.
         22    1    1    2    0    0 -0.10330134799E+02  0.18773315287E+02  0.79155696556E+02  0.82004715408E+02  0.00000000000E+00 0.  1.
         22    1    1    2    0    0 -0.93826478072E+01 -0.36854732149E+02 -0.38121797802E+02  0.53847718887E+02  0.00000000000E+00 0.  1.
</event>
<event>
 6    1  0.2406404E-005  0.8049557E+02  0.7818608E-02  0.1389544E+00
          2   -1    0    0  502    0  0.00000000000E+00  0.00000000000E+00  0.18139805702E+03  0.18139805702E+03  0.00000000000E+00 0.  1.
          1   -1    0    0  501    0 -0.00000000000E+00 -0.00000000000E+00 -0.45444832161E+03  0.45444832161E+03  0.00000000000E+00 0. -1.
          2    1    1    2  501    0 -0.62508200562E+02 -0.22546821720E+01  0.12710970208E+03  0.14166592778E+03  0.00000000000E+00 0.  1.
          1    1    1    2  502    0  0.47683798012E+02 -0.24971773805E+02 -0.34576234420E+03  0.34992703918E+03  0.00000000000E+00 0. -1.
         22    1    1    2    0    0 -0.10766058428E+02  0.14985868233E+02  0.40875178123E+02  0.44847123067E+02  0.00000000000E+00 0.  1.
         22    1    1    2    0    0  0.25590460979E+02  0.12240587745E+02 -0.95272800596E+02  0.99406288609E+02  0.00000000000E+00 0. -1.
</event>
<event>
 6    1  0.2406404E-005  0.5769030E+02  0.7818608E-02  0.1408637E+00
          2   -1    0    0  502    0  0.00000000000E+00  0.00000000000E+00  0.55148328169E+02  0.55148328169E+02  0.00000000000E+00 0. -1.
          1   -1    0    0  501    0 -0.00000000000E+00 -0.00000000000E+00 -0.30580668185E+03  0.30580668185E+03  0.00000000000E+00 0. -1.
          2    1    1    2  501    0 -0.23415096341E+02  0.79378642827E+01  0.69360999215E+01  0.25678510630E+02  0.00000000000E+00 0. -1.
          1    1    1    2  502    0  0.14599931197E+02  0.29568876439E+02 -0.17602398596E+03  0.17908634810E+03  0.00000000000E+00 0. -1.
         22    1    1    2    0    0 -0.13169461740E+02 -0.26610568557E+02  0.29848783392E+02  0.42101151426E+02  0.00000000000E+00 0. -1.
         22    1    1    2    0    0  0.21984626885E+02 -0.10896172164E+02 -0.11141925104E+03  0.11408899986E+03  0.00000000000E+00 0. -1.
</event>
<event>
 6    1  0.2406404E-005  0.7692121E+02  0.7818608E-02  0.1447878E+00
          2   -1    0    0  502    0  0.00000000000E+00  0.00000000000E+00  0.79220796944E+02  0.79220796944E+02  0.00000000000E+00 0. -1.
          1   -1    0    0  501    0 -0.00000000000E+00 -0.00000000000E+00 -0.26367749314E+03  0.26367749314E+03  0.00000000000E+00 0. -1.
          2    1    1    2  501    0  0.31009236635E+02 -0.32963977098E+02  0.13442118043E+02  0.47211090649E+02  0.00000000000E+00 0. -1.
          1    1    1    2  502    0  0.37456624450E+02 -0.44604151932E+02 -0.48132907171E+02  0.75559948633E+02  0.00000000000E+00 0. -1.
         22    1    1    2    0    0 -0.55553548042E+02  0.74703957482E+02 -0.17123802721E+03  0.19490854247E+03  0.00000000000E+00 0. -1.
         22    1    1    2    0    0 -0.12912313042E+02  0.28641715473E+01  0.21472120141E+02  0.25218708336E+02  0.00000000000E+00 0. -1.
</event>
<event>
 6    1  0.2406404E-005  0.2254209E+03  0.7818608E-02  0.1165781E+00
          2   -1    0    0  502    0  0.00000000000E+00  0.00000000000E+00  0.70747663289E+03  0.70747663289E+03  0.00000000000E+00 0.  1.
          1   -1    0    0  501    0 -0.00000000000E+00 -0.00000000000E+00 -0.48007332465E+02  0.48007332465E+02  0.00000000000E+00 0.  1.
          2    1    1    2  501    0  0.61711772071E+02  0.47209504384E+02  0.32977114520E+03  0.33880095679E+03  0.00000000000E+00 0.  1.
          1    1    1    2  502    0  0.23314485570E+02 -0.67618949694E+02  0.21835769332E+03  0.22977373616E+03  0.00000000000E+00 0.  1.
         22    1    1    2    0    0  0.18246489150E+02 -0.98240666945E+00  0.72101897676E+02  0.74381335949E+02  0.00000000000E+00 0.  1.
         22    1    1    2    0    0 -0.10327274679E+03  0.21391851979E+02  0.39238564229E+02  0.11252793646E+03  0.00000000000E+00 0.  1.
</event>
<event>
 6    1  0.2406404E-005  0.5333507E+02  0.7818608E-02  0.1447436E+00
          2   -1    0    0  502    0  0.00000000000E+00  0.00000000000E+00  0.13658910581E+03  0.13658910581E+03  0.00000000000E+00 0. -1.
          1   -1    0    0  501    0 -0.00000000000E+00 -0.00000000000E+00 -0.11409381591E+03  0.11409381591E+03  0.00000000000E+00 0. -1.
          2    1    1    2  501    0 -0.17265798727E+02  0.12723353097E+02  0.70099442914E+02  0.73307048887E+02  0.00000000000E+00 0. -1.
          1    1    1    2  502    0  0.17904634753E+02  0.13346112533E+02 -0.40318776908E+02  0.46090112136E+02  0.00000000000E+00 0. -1.
         22    1    1    2    0    0  0.17817191901E+02 -0.25246269978E+02 -0.64307162546E+02  0.71345901282E+02  0.00000000000E+00 0. -1.
         22    1    1    2    0    0 -0.18456027927E+02 -0.82319565168E+00  0.57021786437E+02  0.59939859413E+02  0.00000000000E+00 0.  1.
</event>
<event>
 6    1  0.2406404E-005  0.7157654E+02  0.7818608E-02  0.1365825E+00
          2   -1    0    0  502    0  0.00000000000E+00  0.00000000000E+00  0.56001709309E+02  0.56001709309E+02  0.00000000000E+00 0. -1.
          1   -1    0    0  501    0 -0.00000000000E+00 -0.00000000000E+00 -0.21702264702E+03  0.21702264702E+03  0.00000000000E+00 0. -1.
          2    1    1    2  501    0 -0.16016695986E+02 -0.25969086262E+02  0.17553457174E+02  0.35200168329E+02  0.00000000000E+00 0. -1.
          1    1    1    2  502    0  0.13431365721E+02  0.26400399095E+02 -0.40722723152E+02  0.50355961300E+02  0.00000000000E+00 0. -1.
         22    1    1    2    0    0  0.31461838849E+02  0.14006335040E+01 -0.15202222562E+03  0.15525001178E+03  0.00000000000E+00 0. -1.
         22    1    1    2    0    0 -0.28876508583E+02 -0.18319463364E+01  0.14170553879E+02  0.32218214919E+02  0.00000000000E+00 0.  1.
</event>
<event>
 6    1  0.2406404E-005  0.5328063E+02  0.7818608E-02  0.1430925E+00
          2   -1    0    0  502    0  0.00000000000E+00  0.00000000000E+00  0.94637789917E+02  0.94637789917E+02  0.00000000000E+00 0.  1.
          1   -1    0    0  501    0 -0.00000000000E+00 -0.00000000000E+00 -0.15199378962E+03  0.15199378962E+03  0.00000000000E+00 0.  1.
          2    1    1    2  501    0 -0.85776247297E+01  0.27701518291E+02  0.35123172747E+02  0.45547634686E+02  0.00000000000E+00 0.  1.
          1    1    1    2  502    0  0.13690489261E+02 -0.26360241237E+02 -0.61793213673E+02  0.68561600553E+02  0.00000000000E+00 0.  1.
         22    1    1    2    0    0 -0.34667458870E+01 -0.21720784372E+02 -0.77966808413E+02  0.81010085884E+02  0.00000000000E+00 0. -1.
         22    1    1    2    0    0 -0.16461186446E+01  0.20379507318E+02  0.47280849634E+02  0.51512258417E+02  0.00000000000E+00 0.  1.
</event>
<event>
 6    1  0.2406404E-005  0.9244127E+02  0.7818608E-02  0.1297733E+00
          2   -1    0    0  502    0  0.00000000000E+00  0.00000000000E+00  0.57446101646E+02  0.57446101646E+02  0.00000000000E+00 0.  1.
          1   -1    0    0  501    0 -0.00000000000E+00 -0.00000000000E+00 -0.39166325319E+03  0.39166325319E+03  0.00000000000E+00 0.  1.
          2    1    1    2  501    0  0.30677371899E+02 -0.52316922160E+02 -0.36361646949E+01  0.60756754231E+02  0.00000000000E+00 0.  1.
          1    1    1    2  502    0 -0.21298858331E+02  0.46088346837E+02 -0.20293277933E+03  0.20918769086E+03  0.00000000000E+00 0.  1.
         22    1    1    2    0    0 -0.30421763581E+02  0.26459756238E+02 -0.14129966322E+03  0.14693943387E+03  0.00000000000E+00 0.  1.
         22    1    1    2    0    0  0.21043250013E+02 -0.20231180916E+02  0.13651455706E+02  0.32225475873E+02  0.00000000000E+00 0.  1.
</event>
<event>
 6    1  0.2406404E-005  0.4836206E+02  0.7818608E-02  0.1537213E+00
          2   -1    0    0  502    0  0.00000000000E+00  0.00000000000E+00  0.28831104258E+03  0.28831104258E+03  0.00000000000E+00 0. -1.
          1   -1    0    0  501    0 -0.00000000000E+00 -0.00000000000E+00 -0.33407104581E+03  0.33407104581E+03  0.00000000000E+00 0. -1.
          2    1    1    2  501    0 -0.19847830676E+02 -0.23921590236E+02  0.24896802580E+03  0.25090089026E+03  0.00000000000E+00 0. -1.
          1    1    1    2  502    0  0.25946014721E+02  0.15694607289E+02 -0.22854175838E+03  0.23054468483E+03  0.00000000000E+00 0. -1.
         22    1    1    2    0    0  0.70065450341E+01  0.16272897718E+02 -0.10117662699E+03  0.10271615609E+03  0.00000000000E+00 0. -1.
         22    1    1    2    0    0 -0.13104729080E+02 -0.80459147706E+01  0.34990356347E+02  0.38220357220E+02  0.00000000000E+00 0. -1.
</event>
<event>
 6    1  0.2406404E-005  0.7024595E+02  0.7818608E-02  0.1371022E+00
          2   -1    0    0  502    0  0.00000000000E+00  0.00000000000E+00  0.12426892548E+03  0.12426892548E+03  0.00000000000E+00 0. -1.
          1   -1    0    0  501    0 -0.00000000000E+00 -0.00000000000E+00 -0.26931864709E+03  0.26931864709E+03  0.00000000000E+00 0. -1.
          2    1    1    2  501    0  0.38826621974E+02  0.34784663807E+01  0.70796238751E+02  0.80819018328E+02  0.00000000000E+00 0. -1.
          1    1    1    2  502    0 -0.17553482046E+02 -0.14987823647E+02 -0.17390022822E+03  0.17542533730E+03  0.00000000000E+00 0. -1.
         22    1    1    2    0    0 -0.37121964459E+02  0.19452855607E+01 -0.83747185622E+02  0.91626499883E+02  0.00000000000E+00 0.  1.
         22    1    1    2    0    0  0.15848824532E+02  0.95640717052E+01  0.41801453480E+02  0.45716717070E+02  0.00000000000E+00 0.  1.
</event>
<event>
 6    1  0.2406404E-005  0.4102608E+02  0.7818608E-02  0.1573446E+00
          2   -1    0    0  502    0  0.00000000000E+00  0.00000000000E+00  0.11890972915E+03  0.11890972915E+03  0.00000000000E+00 0. -1.
          1   -1    0    0  501    0 -0.00000000000E+00 -0.00000000000E+00 -0.11911468409E+03  0.11911468409E+03  0.00000000000E+00 0. -1.
          2    1    1    2  501    0  0.77901400392E+01  0.39813801645E+02  0.22166867493E+02  0.46229807459E+02  0.00000000000E+00 0. -1.
          1    1    1    2  502    0 -0.35650612427E+01 -0.24087188619E+02 -0.56405203909E+02  0.61436547309E+02  0.00000000000E+00 0. -1.
         22    1    1    2    0    0  0.11209622825E+02 -0.12049942449E+02 -0.45954014654E+02  0.48812172865E+02  0.00000000000E+00 0. -1.
         22    1    1    2    0    0 -0.15434701621E+02 -0.36766705769E+01  0.79987396125E+02  0.81545885608E+02  0.00000000000E+00 0. -1.
</event>
<event>
 6    1  0.2406404E-005  0.8143548E+02  0.7818608E-02  0.1332187E+00
          2   -1    0    0  502    0  0.00000000000E+00  0.00000000000E+00  0.23274260955E+03  0.23274260955E+03  0.00000000000E+00 0. -1.
          1   -1    0    0  501    0 -0.00000000000E+00 -0.00000000000E+00 -0.24798924244E+03  0.24798924244E+03  0.00000000000E+00 0. -1.
          2    1    1    2  501    0  0.47069918598E+02 -0.59786161477E+02 -0.18271878083E+03  0.19792957134E+03  0.00000000000E+00 0. -1.
          1    1    1    2  502    0 -0.38541344450E+02  0.51510026588E+02  0.13856355475E+03  0.15276968540E+03  0.00000000000E+00 0. -1.
         22    1    1    2    0    0  0.30895204077E+02 -0.43442789170E+02 -0.10017203549E+02  0.54241441102E+02  0.00000000000E+00 0.  1.
         22    1    1    2    0    0 -0.39423778225E+02  0.51718924058E+02  0.38925796744E+02  0.75791154151E+02  0.00000000000E+00 0. -1.
</event>
<event>
 6    1  0.2406404E-005  0.3557753E+03  0.7818608E-02  0.1060783E+00
          2   -1    0    0  502    0  0.00000000000E+00  0.00000000000E+00  0.17923161579E+04  0.17923161579E+04  0.00000000000E+00 0.  1.
          1   -1    0    0  501    0 -0.00000000000E+00 -0.00000000000E+00 -0.93707533009E+02  0.93707533009E+02  0.00000000000E+00 0.  1.
          2    1    1    2  501    0  0.19161480145E+03 -0.10689362587E+03  0.19610500878E+03  0.29427819126E+03  0.00000000000E+00 0.  1.
          1    1    1    2  502    0 -0.27133199709E+03  0.18311632521E+03  0.12302759587E+04  0.12730795638E+04  0.00000000000E+00 0.  1.
         22    1    1    2    0    0 -0.10266548260E+02  0.20945598415E+02  0.92618875359E+02  0.95511131178E+02  0.00000000000E+00 0.  1.
         22    1    1    2    0    0  0.89983743900E+02 -0.97168297764E+02  0.17960878207E+03  0.22315480468E+03  0.00000000000E+00 0. -1.
</event>
<event>
 6    1  0.2406404E-005  0.7917314E+02  0.7818608E-02  0.1379994E+00
          2   -1    0    0  502    0  0.00000000000E+00  0.00000000000E+00  0.13064631462E+03  0.13064631462E+03  0.00000000000E+00 0.  1.
          1   -1    0    0  501    0 -0.00000000000E+00 -0.00000000000E+00 -0.25453887783E+03  0.25453887783E+03  0.00000000000E+00 0.  1.
          2    1    1    2  501    0  0.51093578409E+02  0.70163676772E+02 -0.80016553813E+02  0.11805144716E+03  0.00000000000E+00 0.  1.
          1    1    1    2  502    0 -0.97075864472E+02 -0.73050814545E+02  0.30273025428E+01  0.12152904809E+03  0.00000000000E+00 0.  1.
         22    1    1    2    0    0  0.77718334132E+02  0.20032665550E+01  0.12024517956E+02  0.78668555149E+02  0.00000000000E+00 0.  1.
         22    1    1    2    0    0 -0.31736048069E+02  0.88387121791E+00 -0.58927829905E+02  0.66936142051E+02  0.00000000000E+00 0.  1.
</event>
<event>
 6    1  0.2406404E-005  0.1417786E+03  0.7818608E-02  0.1213251E+00
          2   -1    0    0  502    0  0.00000000000E+00  0.00000000000E+00  0.37268722779E+03  0.37268722779E+03  0.00000000000E+00 0.  1.
          1   -1    0    0  501    0 -0.00000000000E+00 -0.00000000000E+00 -0.53700898992E+02  0.53700898992E+02  0.00000000000E+00 0.  1.
          2    1    1    2  501    0 -0.54637943614E+00  0.37315415203E+02  0.31261446076E+02  0.48682817842E+02  0.00000000000E+00 0.  1.
          1    1    1    2  502    0 -0.53672578254E+02 -0.76844094670E+02  0.16783007541E+03  0.19223083716E+03  0.00000000000E+00 0.  1.
         22    1    1    2    0    0  0.51236708296E+02  0.83184589969E+02  0.80338600319E+02  0.12648781359E+03  0.00000000000E+00 0.  1.
         22    1    1    2    0    0  0.29822493937E+01 -0.43655910501E+02  0.39556206990E+02  0.58986658191E+02  0.00000000000E+00 0.  1.
</event>
<event>
 6    1  0.2406404E-005  0.2236800E+03  0.7818608E-02  0.1205132E+00
          2   -1    0    0  502    0  0.00000000000E+00  0.00000000000E+00  0.31707336655E+03  0.31707336655E+03  0.00000000000E+00 0.  1.
          1   -1    0    0  501    0 -0.00000000000E+00 -0.00000000000E+00 -0.20784945682E+03  0.20784945682E+03  0.00000000000E+00 0.  1.
          2    1    1    2  501    0  0.15198106808E+03 -0.12331361581E+03  0.10452841896E+03  0.22187988478E+03  0.00000000000E+00 0.  1.
          1    1    1    2  502    0 -0.15280086940E+03  0.83988423551E+02 -0.30974237288E+01  0.17438966430E+03  0.00000000000E+00 0.  1.
         22    1    1    2    0    0  0.37948024346E+02  0.15261795939E+02  0.51966522493E+02  0.66132400736E+02  0.00000000000E+00 0. -1.
         22    1    1    2    0    0 -0.37128223032E+02  0.24063396316E+02 -0.44173607996E+02  0.62520873563E+02  0.00000000000E+00 0.  1.
</event>
<event>
 6    1  0.2406404E-005  0.1930696E+03  0.7818608E-02  0.1156224E+00
          2   -1    0    0  502    0  0.00000000000E+00  0.00000000000E+00  0.40575364186E+03  0.40575364186E+03  0.00000000000E+00 0.  1.
          1   -1    0    0  501    0 -0.00000000000E+00 -0.00000000000E+00 -0.25771446928E+03  0.25771446928E+03  0.00000000000E+00 0.  1.
          2    1    1    2  501    0 -0.84747203732E+02 -0.98064333332E+02  0.20392371658E+03  0.24162695255E+03  0.00000000000E+00 0.  1.
          1    1    1    2  502    0  0.12440378396E+03  0.12314139603E+03 -0.16968002687E+03  0.24378559514E+03  0.00000000000E+00 0.  1.
         22    1    1    2    0    0  0.13751940086E+02  0.53649733985E+01 -0.23428277644E+02  0.27690846665E+02  0.00000000000E+00 0. -1.
         22    1    1    2    0    0 -0.53408520315E+02 -0.30442036092E+02  0.13722376052E+03  0.15036471678E+03  0.00000000000E+00 0.  1.
</event>
<event>
 6    1  0.2406404E-005  0.1036339E+03  0.7818608E-02  0.1273396E+00
          2   -1    0    0  502    0  0.00000000000E+00  0.00000000000E+00  0.74993905058E+03  0.74993905058E+03  0.00000000000E+00 0.  1.
          1   -1    0    0  501    0 -0.00000000000E+00 -0.00000000000E+00 -0.37118867912E+02  0.37118867912E+02  0.00000000000E+00 0. -1.
          2    1    1    2  501    0 -0.35426414187E+02 -0.36132263463E+02  0.39504635649E+03  0.39827402007E+03  0.00000000000E+00 0.  1.
          1    1    1    2  502    0  0.49420297394E+02  0.60658162989E+02  0.48530609784E+02  0.92070617559E+02  0.00000000000E+00 0. -1.
         22    1    1    2    0    0 -0.26191338478E+02 -0.42834368804E+02  0.27007098954E+03  0.27469821396E+03  0.00000000000E+00 0. -1.
         22    1    1    2    0    0  0.12197455272E+02  0.18308469278E+02 -0.82777314593E+00  0.22015066904E+02  0.00000000000E+00 0. -1.
</event>
<event>
 6    1  0.2406404E-005  0.5993495E+02  0.7818608E-02  0.1465238E+00
          2   -1    0    0  502    0  0.00000000000E+00  0.00000000000E+00  0.77706522957E+02  0.77706522957E+02  0.00000000000E+00 0. -1.
          1   -1    0    0  501    0 -0.00000000000E+00 -0.00000000000E+00 -0.53441733014E+03  0.53441733014E+03  0.00000000000E+00 0.  1.
          2    1    1    2  501    0 -0.79071882262E+02  0.54909698851E+02 -0.41120086586E+02  0.10468189487E+03  0.00000000000E+00 0. -1.
          1    1    1    2  502    0  0.42671852272E+02 -0.75533776231E+02 -0.34728939683E+03  0.35796112007E+03  0.00000000000E+00 0.  1.
         22    1    1    2    0    0  0.76226062695E+00  0.13254065309E+02  0.36341518142E+02  0.38690531521E+02  0.00000000000E+00 0. -1.
         22    1    1    2    0    0  0.35637769363E+02  0.73700120709E+01 -0.10464284191E+03  0.11079030665E+03  0.00000000000E+00 0. -1.
</event>
<event>
 6    1  0.2406404E-005  0.8114885E+02  0.7818608E-02  0.1338499E+00
          2   -1    0    0  502    0  0.00000000000E+00  0.00000000000E+00  0.53318292331E+02  0.53318292331E+02  0.00000000000E+00 0. -1.
          1   -1    0    0  501    0 -0.00000000000E+00 -0.00000000000E+00 -0.23331327856E+03  0.23331327856E+03  0.00000000000E+00 0. -1.
          2    1    1    2  501    0  0.21329106916E+02  0.37614580137E+01 -0.18706671832E+02  0.28618506936E+02  0.00000000000E+00 0. -1.
          1    1    1    2  502    0 -0.43715829275E+02  0.82084669447E+00 -0.11539716832E+03  0.12340281186E+03  0.00000000000E+00 0. -1.
         22    1    1    2    0    0 -0.18023835393E+02  0.94481038588E+01 -0.78326397686E+02  0.80926818072E+02  0.00000000000E+00 0. -1.
         22    1    1    2    0    0  0.40410557752E+02 -0.14030408567E+02  0.32435251605E+02  0.53683434028E+02  0.00000000000E+00 0. -1.
</event>
<event>
 6    1  0.2406404E-005  0.8743592E+02  0.7818608E-02  0.1341010E+00
          2   -1    0    0  502    0  0.00000000000E+00  0.00000000000E+00  0.17930752142E+03  0.17930752142E+03  0.00000000000E+00 0.  1.
          1   -1    0    0  501    0 -0.00000000000E+00 -0.00000000000E+00 -0.47658331734E+02  0.47658331734E+02  0.00000000000E+00 0. -1.
          2    1    1    2  501    0 -0.20675217833E+02  0.76366116921E+00 -0.31087562182E+00  0.20691651807E+02  0.00000000000E+00 0.  1.
          1    1    1    2  502    0  0.19813504291E+02 -0.11962833006E+02  0.27524293112E+01  0.23307942700E+02  0.00000000000E+00 0. -1.
         22    1    1    2    0    0 -0.16417602535E+02  0.22697033557E+02  0.15058647690E+03  0.15316977519E+03  0.00000000000E+00 0.  1.
         22    1    1    2    0    0  0.17279316078E+02 -0.11497861721E+02 -0.21378840904E+02  0.29796483461E+02  0.00000000000E+00 0. -1.
</event>
<event>
 6    1  0.2406404E-005  0.6036875E+02  0.7818608E-02  0.1396311E+00
          2   -1    0    0  502    0  0.00000000000E+00  0.00000000000E+00  0.11215832313E+03  0.11215832313E+03  0.00000000000E+00 0.  1.
          1   -1    0    0  501    0 -0.00000000000E+00 -0.00000000000E+00 -0.22208920508E+03  0.22208920508E+03  0.00000000000E+00 0.  1.
          2    1    1    2  501    0 -0.91438376645E+01 -0.29947465359E+02  0.49804679948E+02  0.58829980396E+02  0.00000000000E+00 0.  1.
          1    1    1    2  502    0  0.15623421777E+01  0.46152895733E+02 -0.13869528535E+03  0.14618109616E+03  0.00000000000E+00 0.  1.
         22    1    1    2    0    0  0.62656035592E+01 -0.28322501975E+02  0.49650305427E+02  0.57502823713E+02  0.00000000000E+00 0. -1.
         22    1    1    2    0    0  0.13158919276E+01  0.12117071600E+02 -0.70690581980E+02  0.71733627932E+02  0.00000000000E+00 0.  1.
</event>
<event>
 6    1  0.2406404E-005  0.4349110E+02  0.7818608E-02  0.1503701E+00
          2   -1    0    0  502    0  0.00000000000E+00  0.00000000000E+00  0.63252771580E+02  0.63252771580E+02  0.00000000000E+00 0. -1.
          1   -1    0    0  501    0 -0.00000000000E+00 -0.00000000000E+00 -0.33344282246E+03  0.33344282246E+03  0.00000000000E+00 0. -1.
          2    1    1    2  501    0  0.24764702417E+02 -0.40443488112E+02 -0.11737888121E+03  0.12659687188E+03  0.00000000000E+00 0. -1.
          1    1    1    2  502    0 -0.76514363689E+02  0.41791080438E+02 -0.38705771000E+02  0.95389092477E+02  0.00000000000E+00 0. -1.
         22    1    1    2    0    0  0.22561753905E+02 -0.41362771409E+01 -0.13612321126E+03  0.13804227676E+03  0.00000000000E+00 0.  1.
         22    1    1    2    0    0  0.29187907367E+02  0.27886848149E+01  0.22017812588E+02  0.36667352926E+02  0.00000000000E+00 0. -1.
</event>
<event>
 6    1  0.2406404E-005  0.2393299E+02  0.7818608E-02  0.1732748E+00
          2   -1    0    0  502    0  0.00000000000E+00  0.00000000000E+00  0.35120389410E+03  0.35120389410E+03  0.00000000000E+00 0. -1.
          1   -1    0    0  501    0 -0.00000000000E+00 -0.00000000000E+00 -0.94157909189E+02  0.94157909189E+02  0.00000000000E+00 0. -1.
          2    1    1    2  501    0 -0.75953602541E+01  0.35176098722E+02  0.26837256265E+03  0.27077459224E+03  0.00000000000E+00 0. -1.
          1    1    1    2  502    0 -0.65042833875E+01 -0.42812082956E+02 -0.15537543802E+02  0.46006471466E+02  0.00000000000E+00 0. -1.
         22    1    1    2    0    0  0.24567872056E+01 -0.12707288706E+02  0.63510998332E+02  0.64816339751E+02  0.00000000000E+00 0. -1.
         22    1    1    2    0    0  0.11642856436E+02  0.20343272940E+02 -0.59300032265E+02  0.63764399837E+02  0.00000000000E+00 0. -1.
</event>
<event>
 6    1  0.2406404E-005  0.2201859E+03  0.7818608E-02  0.1139144E+00
          2   -1    0    0  502    0  0.00000000000E+00  0.00000000000E+00  0.98037991300E+03  0.98037991300E+03  0.00000000000E+00 0. -1.
          1   -1    0    0  501    0 -0.00000000000E+00 -0.00000000000E+00 -0.56676852029E+02  0.56676852029E+02  0.00000000000E+00 0. -1.
          2    1    1    2  501    0  0.69766424795E+02 -0.10303190179E+02  0.16662869871E+02  0.72464894873E+02  0.00000000000E+00 0. -1.
          1    1    1    2  502    0 -0.16491638199E+03  0.15722011672E+02  0.55796558542E+03  0.58203968010E+03  0.00000000000E+00 0. -1.
         22    1    1    2    0    0  0.12055998059E+03 -0.11606452623E+01  0.21941652912E+03  0.25035908066E+03  0.00000000000E+00 0. -1.
         22    1    1    2    0    0 -0.25410023394E+02 -0.42581762308E+01  0.12965807656E+03  0.13219310940E+03  0.00000000000E+00 0.  1.
</event>
<event>
 6    1  0.2406404E-005  0.8504677E+02  0.7818608E-02  0.1316516E+00
          2   -1    0    0  502    0  0.00000000000E+00  0.00000000000E+00  0.15686410177E+03  0.15686410177E+03  0.00000000000E+00 0.  1.
          1   -1    0    0  501    0 -0.00000000000E+00 -0.00000000000E+00 -0.26610452692E+03  0.26610452692E+03  0.00000000000E+00 0. -1.
          2    1    1    2  501    0 -0.63845948292E+02 -0.35952500849E+02  0.10936921667E+03  0.13164540625E+03  0.00000000000E+00 0.  1.
          1    1    1    2  502    0  0.45789991372E+02  0.11146309211E+02 -0.12758773981E+03  0.13601321579E+03  0.00000000000E+00 0. -1.
         22    1    1    2    0    0 -0.10007616421E+02  0.27790472990E+01  0.28628417475E+02  0.30454257132E+02  0.00000000000E+00 0.  1.
         22    1    1    2    0    0  0.28063573341E+02  0.22027144340E+02 -0.11965031948E+03  0.12485574952E+03  0.00000000000E+00 0. -1.
</event>
<event>
 6    1  0.2406404E-005  0.1258875E+03  0.7818608E-02  0.1234766E+00
          2   -1    0    0  502    0  0.00000000000E+00  0.00000000000E+00  0.18416568986E+03  0.18416568986E+03  0.00000000000E+00 0. -1.
          1   -1    0    0  501    0 -0.00000000000E+00 -0.00000000000E+00 -0.63784500607E+03  0.63784500607E+03  0.00000000000E+00 0. -1.
          2    1    1    2  501    0  0.66052634064E+02 -0.26269973999E+02  0.11232702889E+03  0.13293014489E+03  0.00000000000E+00 0. -1.
          1    1    1    2  502    0 -0.10600069019E+03  0.35861748980E+02 -0.54367817956E+03  0.55507492673E+03  0.00000000000E+00 0. -1.
         22    1    1    2    0    0  0.50850986494E+02 -0.79056493759E+01  0.43423742214E+02  0.67334563987E+02  0.00000000000E+00 0. -1.
         22    1    1    2    0    0 -0.10902930370E+02 -0.16861256048E+01 -0.65751907755E+02  0.66671060316E+02  0.00000000000E+00 0.  1.
</event>
<event>
 6    1  0.2406404E-005  0.5293889E+02  0.7818608E-02  0.1491932E+00
          2   -1    0    0  502    0  0.00000000000E+00  0.00000000000E+00  0.87882468597E+03  0.87882468597E+03  0.00000000000E+00 0.  1.
          1   -1    0    0  501    0 -0.00000000000E+00 -0.00000000000E+00 -0.19225160542E+03  0.19225160542E+03  0.00000000000E+00 0.  1.
          2    1    1    2  501    0 -0.27285317770E+02  0.48328198686E+02  0.70544429844E+03  0.70762402556E+03  0.00000000000E+00 0.  1.
          1    1    1    2  502    0  0.45551272069E+02 -0.10103939247E+02 -0.16160843880E+03  0.16820908259E+03  0.00000000000E+00 0.  1.
         22    1    1    2    0    0 -0.33710678151E+02 -0.28874653792E+02  0.16251308023E+03  0.16846559500E+03  0.00000000000E+00 0.  1.
         22    1    1    2    0    0  0.15444723851E+02 -0.93496056475E+01 -0.19775859311E+02  0.26777588243E+02  0.00000000000E+00 0. -1.
</event>
<event>
 6    1  0.2406404E-005  0.1936919E+03  0.7818608E-02  0.1206037E+00
          2   -1    0    0  502    0  0.00000000000E+00  0.00000000000E+00  0.64913510462E+02  0.64913510462E+02  0.00000000000E+00 0. -1.
          1   -1    0    0  501    0 -0.00000000000E+00 -0.00000000000E+00 -0.36605374265E+03  0.36605374265E+03  0.00000000000E+00 0. -1.
          2    1    1    2  501    0 -0.80345497203E+01  0.47826652769E+02  0.55181435272E+01  0.48809759396E+02  0.00000000000E+00 0. -1.
          1    1    1    2  502    0 -0.34366768610E+02 -0.14215025376E+02  0.98686146548E+01  0.38477672569E+02  0.00000000000E+00 0. -1.
         22    1    1    2    0    0  0.49767760700E+02 -0.43828615054E+02 -0.32284694671E+03  0.32958751267E+03  0.00000000000E+00 0. -1.
         22    1    1    2    0    0 -0.73664423692E+01  0.10216987660E+02  0.63199563475E+01  0.14092308479E+02  0.00000000000E+00 0.  1.
</event>
<event>
 6    1  0.2406404E-005  0.1238518E+03  0.7818608E-02  0.1256087E+00
          2   -1    0    0  502    0  0.00000000000E+00  0.00000000000E+00  0.50549105775E+03  0.50549105775E+03  0.00000000000E+00 0. -1.
          1   -1    0    0  501    0 -0.00000000000E+00 -0.00000000000E+00 -0.28788347614E+02  0.28788347614E+02  0.00000000000E+00 0. -1.
          2    1    1    2  501    0  0.15126793472E+02 -0.44098063588E+02  0.93140138184E+02  0.10415634610E+03  0.00000000000E+00 0. -1.
          1    1    1    2  502    0 -0.50887237816E+02  0.17483374947E+02  0.65406367466E+02  0.84694582336E+02  0.00000000000E+00 0. -1.
         22    1    1    2    0    0  0.59161537662E+02  0.35001726162E+02  0.31245146007E+03  0.31992362100E+03  0.00000000000E+00 0. -1.
         22    1    1    2    0    0 -0.23401093318E+02 -0.83870375212E+01  0.57047444167E+01  0.25504855924E+02  0.00000000000E+00 0. -1.
</event>
<event>
 6    1  0.2406404E-005  0.5547596E+02  0.7818608E-02  0.1496388E+00
          2   -1    0    0  502    0  0.00000000000E+00  0.00000000000E+00  0.21816698222E+03  0.21816698222E+03  0.00000000000E+00 0.  1.
          1   -1    0    0  501    0 -0.00000000000E+00 -0.00000000000E+00 -0.27876386741E+03  0.27876386741E+03  0.00000000000E+00 0. -1.
          2    1    1    2  501    0 -0.42459604281E+02  0.11385407690E+02  0.12078060085E+03  0.12853170444E+03  0.00000000000E+00 0.  1.
          1    1    1    2  502    0  0.42000241703E+02 -0.23864229217E+01 -0.22971964213E+03  0.23353978098E+03  0.00000000000E+00 0. -1.
         22    1    1    2    0    0  0.11613643944E+02  0.46548469374E+01 -0.41478613392E+02  0.43324585337E+02  0.00000000000E+00 0.  1.
         22    1    1    2    0    0 -0.11154281367E+02 -0.13653831706E+02  0.89820769484E+02  0.91534778876E+02  0.00000000000E+00 0.  1.
</event>
<event>
 6    1  0.2406404E-005  0.1016879E+03  0.7818608E-02  0.1302825E+00
          2   -1    0    0  502    0  0.00000000000E+00  0.00000000000E+00  0.11725470502E+03  0.11725470502E+03  0.00000000000E+00 0.  1.
          1   -1    0    0  501    0 -0.00000000000E+00 -0.00000000000E+00 -0.22234175822E+03  0.22234175822E+03  0.00000000000E+00 0. -1.
          2    1    1    2  501    0 -0.24387378096E+02 -0.16569388580E+02 -0.78209136732E+01  0.30503369306E+02  0.00000000000E+00 0.  1.
          1    1    1    2  502    0  0.20800376732E+02  0.44437050091E+02 -0.15980011071E+03  0.16716274249E+03  0.00000000000E+00 0. -1.
         22    1    1    2    0    0  0.12769390598E+02 -0.37285825403E+02  0.97181970566E+02  0.10486956429E+03  0.00000000000E+00 0.  1.
         22    1    1    2    0    0 -0.91823892337E+01  0.94181638923E+01 -0.34647999387E+02  0.37060787157E+02  0.00000000000E+00 0. -1.
</event>
<event>
 6    1  0.2406404E-005  0.2877824E+03  0.7818608E-02  0.1092491E+00
          2   -1    0    0  502    0  0.00000000000E+00  0.00000000000E+00  0.11619832515E+04  0.11619832515E+04  0.00000000000E+00 0. -1.
          1   -1    0    0  501    0 -0.00000000000E+00 -0.00000000000E+00 -0.86028015458E+02  0.86028015458E+02  0.00000000000E+00 0. -1.
          2    1    1    2  501    0 -0.13298158216E+03  0.20097134537E+02  0.10086339027E+03  0.16811133069E+03  0.00000000000E+00 0. -1.
          1    1    1    2  502    0  0.22276326394E+03 -0.10582120528E+03  0.76557407185E+03  0.80431664084E+03  0.00000000000E+00 0. -1.
         22    1    1    2    0    0  0.25454817439E+02 -0.11333662807E+02  0.40531457325E+02  0.49185350221E+02  0.00000000000E+00 0. -1.
         22    1    1    2    0    0 -0.11523649921E+03  0.97057733550E+02  0.16898631659E+03  0.22639794519E+03  0.00000000000E+00 0. -1.
</event>
<event>
 6    1  0.3673892E-005  0.2057508E+03  0.7818608E-02  0.1145422E+00
          2   -1    0    0  502    0  0.00000000000E+00  0.00000000000E+00  0.52531430166E+03  0.52531430166E+03  0.00000000000E+00 0. -1.
          1   -1    0    0  501    0 -0.00000000000E+00 -0.00000000000E+00 -0.97697985347E+03  0.97697985347E+03  0.00000000000E+00 0.  1.
          2    1    1    2  501    0  0.16066033957E+03  0.38741957641E+02  0.39876931186E+03  0.43165918045E+03  0.00000000000E+00 0. -1.
          1    1    1    2  502    0 -0.18282190357E+03 -0.58260423852E+02 -0.90970905439E+03  0.92972506100E+03  0.00000000000E+00 0.  1.
         22    1    1    2    0    0  0.31204317305E+02  0.25779574718E+02  0.95141854956E+02  0.10339375443E+03  0.00000000000E+00 0.  1.
         22    1    1    2    0    0 -0.90427533051E+01 -0.62611085073E+01 -0.35867664226E+02  0.37516159240E+02  0.00000000000E+00 0.  1.
</event>
<event>
 6    1  0.2406404E-005  0.9219979E+02  0.7818608E-02  0.1304758E+00
          2   -1    0    0  502    0  0.00000000000E+00  0.00000000000E+00  0.14100949369E+03  0.14100949369E+03  0.00000000000E+00 0. -1.
          1   -1    0    0  501    0 -0.00000000000E+00 -0.00000000000E+00 -0.17961636370E+03  0.17961636370E+03  0.00000000000E+00 0. -1.
          2    1    1    2  501    0  0.11979433766E+02 -0.31994951602E+02  0.24107926429E+02  0.41813584851E+02  0.00000000000E+00 0. -1.
          1    1    1    2  502    0 -0.54523347109E+02  0.26799810364E+01 -0.11758651564E+03  0.12964014170E+03  0.00000000000E+00 0. -1.
         22    1    1    2    0    0 -0.10805929132E+02  0.22696836563E+02 -0.35810408751E+02  0.43752712708E+02  0.00000000000E+00 0. -1.
         22    1    1    2    0    0  0.53349842476E+02  0.66181340026E+01  0.90682127949E+02  0.10541941813E+03  0.00000000000E+00 0. -1.
</event>
<event>
 6    1  0.2406404E-005  0.9955203E+02  0.7818608E-02  0.1282866E+00
          2   -1    0    0  502    0  0.00000000000E+00  0.00000000000E+00  0.35539158320E+03  0.35539158320E+03  0.00000000000E+00 0. -1.
          1   -1    0    0  501    0 -0.00000000000E+00 -0.00000000000E+00 -0.85255577705E+02  0.85255577705E+02  0.00000000000E+00 0. -1.
          2    1    1    2  501    0  0.46393487880E+02  0.36540400460E+02  0.14937265263E+03  0.16062299318E+03  0.00000000000E+00 0. -1.
          1    1    1    2  502    0 -0.52495383595E+02 -0.43134188236E+02 -0.38294877319E+02  0.77992442726E+02  0.00000000000E+00 0. -1.
         22    1    1    2    0    0 -0.12175001769E+02 -0.25371325297E+02 -0.93431502696E+01  0.29651800491E+02  0.00000000000E+00 0. -1.
         22    1    1    2    0    0  0.18276897483E+02  0.31965113073E+02  0.16840138045E+03  0.17237992450E+03  0.00000000000E+00 0. -1.
</event>
<event>
 6    1  0.2406404E-005  0.1655908E+03  0.7818608E-02  0.1202345E+00
          2   -1    0    0  502    0  0.00000000000E+00  0.00000000000E+00  0.28568255206E+03  0.28568255206E+03  0.00000000000E+00 0.  1.
          1   -1    0    0  501    0 -0.00000000000E+00 -0.00000000000E+00 -0.10066685874E+03  0.10066685874E+03  0.00000000000E+00 0.  1.
          2    1    1    2  501    0 -0.73513129872E+02 -0.33914709777E+02  0.15818525787E+03  0.17769908163E+03  0.00000000000E+00 0.  1.
          1    1    1    2  502    0  0.25536841004E+02  0.18361866194E+02  0.60484932096E+02  0.68174154848E+02  0.00000000000E+00 0.  1.
         22    1    1    2    0    0  0.69655677458E+02  0.26405598168E+01 -0.68317042886E+02  0.97601763852E+02  0.00000000000E+00 0.  1.
         22    1    1    2    0    0 -0.21679388590E+02  0.12912283766E+02  0.34662546236E+02  0.42874410471E+02  0.00000000000E+00 0.  1.
</event>
<event>
 6    1  0.2406404E-005  0.2566700E+03  0.7818608E-02  0.1112452E+00
          2   -1    0    0  502    0  0.00000000000E+00  0.00000000000E+00  0.17352856370E+04  0.17352856370E+04  0.00000000000E+00 0. -1.
          1   -1    0    0  501    0 -0.00000000000E+00 -0.00000000000E+00 -0.83768360192E+02  0.83768360192E+02  0.00000000000E+00 0.  1.
          2    1    1    2  501    0 -0.51516391289E+01  0.95952634634E+02  0.69958855222E+03  0.70615691591E+03  0.00000000000E+00 0. -1.
          1    1    1    2  502    0 -0.10403588213E+03 -0.20020523306E+03  0.11548251370E+03  0.25345968336E+03  0.00000000000E+00 0.  1.
         22    1    1    2    0    0  0.59786083149E+00 -0.99948028556E+01  0.19688302295E+01  0.10204401706E+02  0.00000000000E+00 0.  1.
         22    1    1    2    0    0  0.10858966043E+03  0.11424740128E+03  0.83447738067E+03  0.84923299624E+03  0.00000000000E+00 0. -1.
</event>
<event>
 6    1  0.2406404E-005  0.6932261E+02  0.7818608E-02  0.1365702E+00
          2   -1    0    0  502    0  0.00000000000E+00  0.00000000000E+00  0.31246885936E+03  0.31246885936E+03  0.00000000000E+00 0. -1.
          1   -1    0    0  501    0 -0.00000000000E+00 -0.00000000000E+00 -0.16203630175E+03  0.16203630175E+03  0.00000000000E+00 0. -1.
          2    1    1    2  501    0 -0.11952618500E+02 -0.29355844800E+02  0.16634767110E+03  0.16934042162E+03  0.00000000000E+00 0. -1.
          1    1    1    2  502    0  0.52596454223E+01  0.54744511177E+02 -0.12742004575E+03  0.13878217981E+03  0.00000000000E+00 0. -1.
         22    1    1    2    0    0  0.11875581792E+02 -0.34653070994E+02  0.13538292920E+03  0.14025121137E+03  0.00000000000E+00 0. -1.
         22    1    1    2    0    0 -0.51826087146E+01  0.92644046165E+01 -0.23877996956E+02  0.26131348312E+02  0.00000000000E+00 0. -1.
</event>
<event>
 6    1  0.2406404E-005  0.4189098E+02  0.7818608E-02  0.1496414E+00
          2   -1    0    0  502    0  0.00000000000E+00  0.00000000000E+00  0.16848202854E+03  0.16848202854E+03  0.00000000000E+00 0.  1.
          1   -1    0    0  501    0 -0.00000000000E+00 -0.00000000000E+00 -0.15075770396E+03  0.15075770396E+03  0.00000000000E+00 0. -1.
          2    1    1    2  501    0 -0.69447797051E+00  0.26490691654E+02  0.85801827796E+02  0.89800850203E+02  0.00000000000E+00 0.  1.
          1    1    1    2  502    0 -0.24608632678E+01 -0.23566300078E+02 -0.10073186840E+03  0.10348108841E+03  0.00000000000E+00 0. -1.
         22    1    1    2    0    0  0.49282191589E+01  0.13333230043E+02  0.77203756991E+02  0.78501480629E+02  0.00000000000E+00 0.  1.
         22    1    1    2    0    0 -0.17728779206E+01 -0.16257621619E+02 -0.44549391817E+02  0.47456313258E+02  0.00000000000E+00 0. -1.
</event>
<event>
 6    1  0.2406404E-005  0.1188530E+03  0.7818608E-02  0.1263664E+00
          2   -1    0    0  502    0  0.00000000000E+00  0.00000000000E+00  0.65754183879E+03  0.65754183879E+03  0.00000000000E+00 0. -1.
          1   -1    0    0  501    0 -0.00000000000E+00 -0.00000000000E+00 -0.31936641518E+02  0.31936641518E+02  0.00000000000E+00 0.  1.
          2    1    1    2  501    0 -0.12364934561E+02 -0.43184335577E+02  0.30801429613E+03  0.31127252540E+03  0.00000000000E+00 0. -1.
          1    1    1    2  502    0 -0.39617461951E+02  0.41206099950E+02  0.48907726101E+02  0.75229326973E+02  0.00000000000E+00 0.  1.
         22    1    1    2    0    0  0.41578211659E+01 -0.36766084187E+02  0.22370541950E+03  0.22674467389E+03  0.00000000000E+00 0. -1.
         22    1    1    2    0    0  0.47824575347E+02  0.38744319814E+02  0.44977755544E+02  0.76231954053E+02  0.00000000000E+00 0.  1.
</event>
<event>
 6    1  0.2406404E-005  0.4411979E+02  0.7818608E-02  0.1592650E+00
          2   -1    0    0  502    0  0.00000000000E+00  0.00000000000E+00  0.24784649007E+03  0.24784649007E+03  0.00000000000E+00 0.  1.
          1   -1    0    0  501    0 -0.00000000000E+00 -0.00000000000E+00 -0.19571332036E+03  0.19571332036E+03  0.00000000000E+00 0.  1.
          2    1    1    2  501    0 -0.37409787825E+02  0.13991309479E+02  0.19418630296E+03  0.19825127799E+03  0.00000000000E+00 0.  1.
          1    1    1    2  502    0  0.22550809424E+02 -0.97605507168E+01 -0.10707954088E+03  0.10986280276E+03  0.00000000000E+00 0.  1.
         22    1    1    2    0    0  0.13496783256E+02 -0.14211688088E+02 -0.83559106294E+02  0.85826915832E+02  0.00000000000E+00 0.  1.
         22    1    1    2    0    0  0.13621951451E+01  0.99809293256E+01  0.48585513917E+02  0.49618813855E+02  0.00000000000E+00 0. -1.
</event>
<event>
 6    1  0.2406404E-005  0.7220717E+02  0.7818608E-02  0.1377872E+00
          2   -1    0    0  502    0  0.00000000000E+00  0.00000000000E+00  0.50290288006E+03  0.50290288006E+03  0.00000000000E+00 0.  1.
          1   -1    0    0  501    0 -0.00000000000E+00 -0.00000000000E+00 -0.13657707537E+03  0.13657707537E+03  0.00000000000E+00 0. -1.
          2    1    1    2  501    0 -0.45773622403E+02  0.46504507438E+02  0.38190812734E+03  0.38744252664E+03  0.00000000000E+00 0.  1.
          1    1    1    2  502    0 -0.25477028083E+01 -0.54540114455E+02 -0.82310473581E+02  0.98773118486E+02  0.00000000000E+00 0. -1.
         22    1    1    2    0    0  0.40924026621E+02  0.24097302692E+02  0.10271760366E+03  0.11316519807E+03  0.00000000000E+00 0.  1.
         22    1    1    2    0    0  0.73972985901E+01 -0.16061695675E+02 -0.35989452727E+02  0.40099112234E+02  0.00000000000E+00 0. -1.
</event>
<event>
 6    1  0.2406404E-005  0.4768225E+02  0.7818608E-02  0.1488525E+00
          2   -1    0    0  502    0  0.00000000000E+00  0.00000000000E+00  0.14869200843E+03  0.14869200843E+03  0.00000000000E+00 0.  1.
          1   -1    0    0  501    0 -0.00000000000E+00 -0.00000000000E+00 -0.25199213029E+03  0.25199213029E+03  0.00000000000E+00 0.  1.
          2    1    1    2  501    0 -0.29885097329E+02  0.12178365380E+02  0.95951667307E+02  0.10123316692E+03  0.00000000000E+00 0.  1.
          1    1    1    2  502    0  0.96401315296E+01 -0.32552515334E+02 -0.15868896603E+03  0.16227996281E+03  0.00000000000E+00 0.  1.
         22    1    1    2    0    0  0.29969487056E+02  0.78059427293E+01 -0.84740456126E+02  0.90222213455E+02  0.00000000000E+00 0.  1.
         22    1    1    2    0    0 -0.97245212567E+01  0.12568207225E+02  0.44177632980E+02  0.46948795535E+02  0.00000000000E+00 0.  1.
</event>
<event>
 6    1  0.2406404E-005  0.2264947E+03  0.7818608E-02  0.1129530E+00
          2   -1    0    0  502    0  0.00000000000E+00  0.00000000000E+00  0.52083948822E+03  0.52083948822E+03  0.00000000000E+00 0.  1.
          1   -1    0    0  501    0 -0.00000000000E+00 -0.00000000000E+00 -0.14057981500E+03  0.14057981500E+03  0.00000000000E+00 0.  1.
          2    1    1    2  501    0 -0.17554607569E+03 -0.95501775425E+02  0.31646918667E+03  0.37428566618E+03  0.00000000000E+00 0.  1.
          1    1    1    2  502    0  0.12430791022E+03  0.67787828538E+02  0.30350486965E+02  0.14480607135E+03  0.00000000000E+00 0.  1.
         22    1    1    2    0    0 -0.11391264460E+02 -0.19859301779E+02  0.56006453993E+02  0.60505170540E+02  0.00000000000E+00 0. -1.
         22    1    1    2    0    0  0.62629429930E+02  0.47573248666E+02 -0.22566454408E+02  0.81822395140E+02  0.00000000000E+00 0.  1.
</event>
<event>
 6    1  0.2406404E-005  0.3708961E+02  0.7818608E-02  0.1579944E+00
          2   -1    0    0  502    0  0.00000000000E+00  0.00000000000E+00  0.18076082219E+03  0.18076082219E+03  0.00000000000E+00 0. -1.
          1   -1    0    0  501    0 -0.00000000000E+00 -0.00000000000E+00 -0.25161206761E+03  0.25161206761E+03  0.00000000000E+00 0. -1.
          2    1    1    2  501    0  0.10842240527E+01 -0.24158086714E+02  0.13505605451E+03  0.13720395969E+03  0.00000000000E+00 0. -1.
          1    1    1    2  502    0  0.14635894917E+02  0.21278054932E+02 -0.16122829883E+03  0.16328358578E+03  0.00000000000E+00 0. -1.
         22    1    1    2    0    0 -0.25117768567E+01 -0.11885239805E+02  0.41612271079E+02  0.43349152847E+02  0.00000000000E+00 0. -1.
         22    1    1    2    0    0 -0.13208342113E+02  0.14765271586E+02 -0.86291272180E+02  0.88536191475E+02  0.00000000000E+00 0.  1.
</event>
<event>
 6    1  0.2406404E-005  0.3986386E+02  0.7818608E-02  0.1550374E+00
          2   -1    0    0  502    0  0.00000000000E+00  0.00000000000E+00  0.38590436894E+03  0.38590436894E+03  0.00000000000E+00 0.  1.
          1   -1    0    0  501    0 -0.00000000000E+00 -0.00000000000E+00 -0.61499773503E+02  0.61499773503E+02  0.00000000000E+00 0.  1.
          2    1    1    2  501    0  0.38457137751E+02 -0.11570111641E+02  0.24092820649E+03  0.24425236869E+03  0.00000000000E+00 0.  1.
          1    1    1    2  502    0 -0.18430620731E+02  0.18260410080E+02 -0.25497927979E+02  0.36376842744E+02  0.00000000000E+00 0.  1.
         22    1    1    2    0    0 -0.52174355026E+01  0.11108892822E+02 -0.26569762844E+02  0.29267412433E+02  0.00000000000E+00 0.  1.
         22    1    1    2    0    0 -0.14809081517E+02 -0.17799191261E+02  0.13554407976E+03  0.13750751857E+03  0.00000000000E+00 0.  1.
</event>
<event>
 6    1  0.2406404E-005  0.6851782E+02  0.7818608E-02  0.1420109E+00
          2   -1    0    0  502    0  0.00000000000E+00  0.00000000000E+00  0.43450354561E+03  0.43450354561E+03  0.00000000000E+00 0.  1.
          1   -1    0    0  501    0 -0.00000000000E+00 -0.00000000000E+00 -0.17117892863E+03  0.17117892863E+03  0.00000000000E+00 0. -1.
          2    1    1    2  501    0  0.36525700933E+02 -0.26520497132E+02  0.34235514929E+03  0.34531798656E+03  0.00000000000E+00 0.  1.
          1    1    1    2  502    0 -0.51009356177E+02  0.18016274957E+02 -0.11305375984E+03  0.12533033629E+03  0.00000000000E+00 0. -1.
         22    1    1    2    0    0 -0.13408206780E+02  0.29323892256E+01 -0.47105319690E+02  0.49064142291E+02  0.00000000000E+00 0. -1.
         22    1    1    2    0    0  0.27891862024E+02  0.55718329502E+01  0.81128547217E+02  0.85970009092E+02  0.00000000000E+00 0.  1.
</event>
<event>
 6    1  0.2406404E-005  0.5502070E+02  0.7818608E-02  0.1461464E+00
          2   -1    0    0  502    0  0.00000000000E+00  0.00000000000E+00  0.23042941864E+03  0.23042941864E+03  0.00000000000E+00 0.  1.
          1   -1    0    0  501    0 -0.00000000000E+00 -0.00000000000E+00 -0.54259109509E+02  0.54259109509E+02  0.00000000000E+00 0. -1.
          2    1    1    2  501    0  0.25541637792E+02 -0.14617582852E+02  0.97105720217E+02  0.10146708771E+03  0.00000000000E+00 0.  1.
          1    1    1    2  502    0 -0.32857741988E+02  0.15683367854E+02  0.23300939806E+02  0.43226531571E+02  0.00000000000E+00 0. -1.
         22    1    1    2    0    0  0.21546714043E+02 -0.27046515375E+02  0.88995001047E+02  0.95477144340E+02  0.00000000000E+00 0.  1.
         22    1    1    2    0    0 -0.14230609847E+02  0.25980730373E+02 -0.33231351936E+02  0.44517764531E+02  0.00000000000E+00 0. -1.
</event>
<event>
 6    1  0.2406404E-005  0.1732713E+03  0.7818608E-02  0.1174509E+00
          2   -1    0    0  502    0  0.00000000000E+00  0.00000000000E+00  0.55744347738E+03  0.55744347738E+03  0.00000000000E+00 0. -1.
          1   -1    0    0  501    0 -0.00000000000E+00 -0.00000000000E+00 -0.11363240481E+03  0.11363240481E+03  0.00000000000E+00 0. -1.
          2    1    1    2  501    0  0.83254194632E+02 -0.86279401457E+02  0.37703315812E+03  0.39563796375E+03  0.00000000000E+00 0. -1.
          1    1    1    2  502    0 -0.89636259895E+02  0.88287673267E+02 -0.18146994949E+02  0.12711681936E+03  0.00000000000E+00 0. -1.
         22    1    1    2    0    0  0.77496783055E+01  0.46726037334E+02 -0.33449088960E+01  0.47482296641E+02  0.00000000000E+00 0. -1.
         22    1    1    2    0    0 -0.13676130429E+01 -0.48734309144E+02  0.88269818298E+02  0.10083880243E+03  0.00000000000E+00 0. -1.
</event>
<event>
 6    1  0.2406404E-005  0.1781851E+03  0.7818608E-02  0.1169939E+00
          2   -1    0    0  502    0  0.00000000000E+00  0.00000000000E+00  0.11383295888E+04  0.11383295888E+04  0.00000000000E+00 0. -1.
          1   -1    0    0  501    0 -0.00000000000E+00 -0.00000000000E+00 -0.42409385322E+02  0.42409385322E+02  0.00000000000E+00 0. -1.
          2    1    1    2  501    0  0.58799653978E+02 -0.13506519841E+03  0.18184056134E+03  0.23402135987E+03  0.00000000000E+00 0. -1.
          1    1    1    2  502    0 -0.20119211795E+02  0.65601753498E+02  0.51796602216E+03  0.52249131367E+03  0.00000000000E+00 0. -1.
         22    1    1    2    0    0 -0.30929046112E+02  0.95264916522E+02  0.37968006263E+03  0.39266902115E+03  0.00000000000E+00 0. -1.
         22    1    1    2    0    0 -0.77513960706E+01 -0.25801471614E+02  0.16433557366E+02  0.31557279449E+02  0.00000000000E+00 0. -1.
</event>
<event>
 6    1  0.2406404E-005  0.6689330E+02  0.7818608E-02  0.1372535E+00
          2   -1    0    0  502    0  0.00000000000E+00  0.00000000000E+00  0.53436566232E+02  0.53436566232E+02  0.00000000000E+00 0. -1.
          1   -1    0    0  501    0 -0.00000000000E+00 -0.00000000000E+00 -0.21231403802E+03  0.21231403802E+03  0.00000000000E+00 0.  1.
          2    1    1    2  501    0  0.16757687702E+02 -0.23851186995E+02  0.83227823708E+00  0.29161479820E+02  0.00000000000E+00 0. -1.
          1    1    1    2  502    0 -0.19775792247E+02  0.32338017741E+02 -0.74363123839E+02  0.83466781042E+02  0.00000000000E+00 0.  1.
         22    1    1    2    0    0  0.20704189243E+02 -0.25254931613E+02  0.24359724442E+02  0.40741516882E+02  0.00000000000E+00 0. -1.
         22    1    1    2    0    0 -0.17686084699E+02  0.16768100867E+02 -0.10970635063E+03  0.11238082651E+03  0.00000000000E+00 0.  1.
</event>
<event>
 6    1  0.2406404E-005  0.1342836E+03  0.7818608E-02  0.1221717E+00
          2   -1    0    0  502    0  0.00000000000E+00  0.00000000000E+00  0.60783290917E+03  0.60783290917E+03  0.00000000000E+00 0. -1.
          1   -1    0    0  501    0 -0.00000000000E+00 -0.00000000000E+00 -0.61165599279E+02  0.61165599279E+02  0.00000000000E+00 0. -1.
          2    1    1    2  501    0  0.11519306276E+02 -0.17799253336E+02 -0.49892381198E+01  0.21780733079E+02  0.00000000000E+00 0. -1.
          1    1    1    2  502    0 -0.30232327966E+02  0.10817016594E+03  0.44361269518E+03  0.45761009799E+03  0.00000000000E+00 0. -1.
         22    1    1    2    0    0  0.36689523309E+02 -0.10251451836E+03  0.36484622217E+02  0.11483237894E+03  0.00000000000E+00 0. -1.
         22    1    1    2    0    0 -0.17976501620E+02  0.12143605754E+02  0.71559230611E+02  0.74775298441E+02  0.00000000000E+00 0. -1.
</event>
<event>
 6    1  0.2406404E-005  0.5070322E+02  0.7818608E-02  0.1508458E+00
          2   -1    0    0  502    0  0.00000000000E+00  0.00000000000E+00  0.45997580851E+03  0.45997580851E+03  0.00000000000E+00 0. -1.
          1   -1    0    0  501    0 -0.00000000000E+00 -0.00000000000E+00 -0.37447220685E+02  0.37447220685E+02  0.00000000000E+00 0. -1.
          2    1    1    2  501    0 -0.10715330095E+02 -0.46849400668E+02  0.94669126187E+02  0.10616933689E+03  0.00000000000E+00 0. -1.
          1    1    1    2  502    0 -0.42122738197E+02 -0.46113288555E+01  0.15339505778E+02  0.45065395422E+02  0.00000000000E+00 0. -1.
         22    1    1    2    0    0  0.39800137977E+02  0.36860947736E+02  0.32049385400E+03  0.32505244331E+03  0.00000000000E+00 0. -1.
         22    1    1    2    0    0  0.13037930315E+02  0.14599781788E+02 -0.79738981342E+01  0.21135853581E+02  0.00000000000E+00 0.  1.
</event>
<event>
 6    1  0.2406404E-005  0.7245356E+02  0.7818608E-02  0.1359449E+00
          2   -1    0    0  502    0  0.00000000000E+00  0.00000000000E+00  0.28869532138E+03  0.28869532138E+03  0.00000000000E+00 0. -1.
          1   -1    0    0  501    0 -0.00000000000E+00 -0.00000000000E+00 -0.58584778769E+02  0.58584778769E+02  0.00000000000E+00 0. -1.
          2    1    1    2  501    0 -0.25293503121E+02  0.73329498464E+01  0.15776006763E+03  0.15994302859E+03  0.00000000000E+00 0. -1.
          1    1    1    2  502    0  0.33056293705E+02  0.90514528049E+01 -0.13951217338E+02  0.37003835160E+02  0.00000000000E+00 0. -1.
         22    1    1    2    0    0  0.23534260583E+02 -0.30053830135E+02 -0.16812614250E+02  0.41710407872E+02  0.00000000000E+00 0. -1.
         22    1    1    2    0    0 -0.31297051166E+02  0.13669427483E+02  0.10311430656E+03  0.10862282853E+03  0.00000000000E+00 0.  1.
</event>
<event>
 6    1  0.2406404E-005  0.1955799E+03  0.7818608E-02  0.1153714E+00
          2   -1    0    0  502    0  0.00000000000E+00  0.00000000000E+00  0.37655207895E+03  0.37655207895E+03  0.00000000000E+00 0.  1.
          1   -1    0    0  501    0 -0.00000000000E+00 -0.00000000000E+00 -0.28107860462E+03  0.28107860462E+03  0.00000000000E+00 0.  1.
          2    1    1    2  501    0  0.15437557676E+03 -0.64980481511E+02  0.24920059146E+03  0.30025858266E+03  0.00000000000E+00 0.  1.
          1    1    1    2  502    0 -0.15001586466E+03  0.61575945429E+02 -0.16782494735E+03  0.23337002733E+03  0.00000000000E+00 0.  1.
         22    1    1    2    0    0 -0.16646747184E+02  0.26582528215E+02 -0.47573950901E+02  0.56982679846E+02  0.00000000000E+00 0. -1.
         22    1    1    2    0    0  0.12287035090E+02 -0.23177992132E+02  0.61671781111E+02  0.67019393730E+02  0.00000000000E+00 0.  1.
</event>
<event>
 6    1  0.2406404E-005  0.1285111E+03  0.7818608E-02  0.1231887E+00
          2   -1    0    0  502    0  0.00000000000E+00  0.00000000000E+00  0.17295233395E+03  0.17295233395E+03  0.00000000000E+00 0.  1.
          1   -1    0    0  501    0 -0.00000000000E+00 -0.00000000000E+00 -0.33365909710E+03  0.33365909710E+03  0.00000000000E+00 0. -1.
          2    1    1    2  501    0  0.98510715638E+02 -0.11913444955E+02  0.11098598390E+03  0.14887639130E+03  0.00000000000E+00 0.  1.
          1    1    1    2  502    0 -0.92219497752E+02  0.26393827156E+02 -0.18182686979E+03  0.20557743178E+03  0.00000000000E+00 0. -1.
         22    1    1    2    0    0 -0.25863701970E+02 -0.13724909245E+01 -0.11490008899E+03  0.11778304318E+03  0.00000000000E+00 0. -1.
         22    1    1    2    0    0  0.19572484084E+02 -0.13107891276E+02  0.25034211738E+02  0.34374564786E+02  0.00000000000E+00 0.  1.
</event>
<event>
 6    1  0.2406404E-005  0.4133933E+02  0.7818608E-02  0.1545683E+00
          2   -1    0    0  502    0  0.00000000000E+00  0.00000000000E+00  0.13138167953E+03  0.13138167953E+03  0.00000000000E+00 0.  1.
          1   -1    0    0  501    0 -0.00000000000E+00 -0.00000000000E+00 -0.17413489650E+03  0.17413489650E+03  0.00000000000E+00 0.  1.
          2    1    1    2  501    0  0.21599294208E+02 -0.11346851960E+02  0.74631162167E+02  0.78518092986E+02  0.00000000000E+00 0.  1.
          1    1    1    2  502    0 -0.15621315271E+02  0.13593491024E+02 -0.97388396081E+02  0.99565597373E+02  0.00000000000E+00 0.  1.
         22    1    1    2    0    0 -0.59086219360E+01  0.19809079376E+02 -0.69889137379E+02  0.72882116890E+02  0.00000000000E+00 0.  1.
         22    1    1    2    0    0 -0.69357001329E-01 -0.22055718440E+02  0.49893154320E+02  0.54550768778E+02  0.00000000000E+00 0.  1.
</event>
<event>
 6    1  0.2406404E-005  0.8978614E+02  0.7818608E-02  0.1348357E+00
          2   -1    0    0  502    0  0.00000000000E+00  0.00000000000E+00  0.23471307757E+03  0.23471307757E+03  0.00000000000E+00 0.  1.
          1   -1    0    0  501    0 -0.00000000000E+00 -0.00000000000E+00 -0.23605993615E+03  0.23605993615E+03  0.00000000000E+00 0.  1.
          2    1    1    2  501    0  0.19648521655E+02  0.77945448152E+02  0.17733631240E+03  0.19470419869E+03  0.00000000000E+00 0.  1.
          1    1    1    2  502    0 -0.44250528410E+02 -0.50760926856E+02 -0.11842676827E+03  0.13623391796E+03  0.00000000000E+00 0.  1.
         22    1    1    2    0    0  0.61544182225E+01  0.88407148272E+01  0.34848801558E+02  0.36475664111E+02  0.00000000000E+00 0.  1.
         22    1    1    2    0    0  0.18447588532E+02 -0.36025236123E+02 -0.95105204267E+02  0.10335923297E+03  0.00000000000E+00 0.  1.
</event>
<event>
 6    1  0.2406404E-005  0.3620031E+02  0.7818608E-02  0.1602961E+00
          2   -1    0    0  502    0  0.00000000000E+00  0.00000000000E+00  0.50481107969E+03  0.50481107969E+03  0.00000000000E+00 0.  1.
          1   -1    0    0  501    0 -0.00000000000E+00 -0.00000000000E+00 -0.11538105427E+03  0.11538105427E+03  0.00000000000E+00 0. -1.
          2    1    1    2  501    0 -0.28827275662E+02  0.18414225585E+02  0.42236257039E+03  0.42374548539E+03  0.00000000000E+00 0.  1.
          1    1    1    2  502    0  0.22975827518E+02  0.61782903221E+00 -0.58459414526E+02  0.62815392298E+02  0.00000000000E+00 0. -1.
         22    1    1    2    0    0  0.11573727665E+02 -0.39801827929E+01 -0.52526804806E+02  0.53933832149E+02  0.00000000000E+00 0. -1.
         22    1    1    2    0    0 -0.57222795214E+01 -0.15051871825E+02  0.78053674369E+02  0.79697424116E+02  0.00000000000E+00 0. -1.
</event>
<event>
 6    1  0.2406404E-005  0.1077291E+03  0.7818608E-02  0.1266799E+00
          2   -1    0    0  502    0  0.00000000000E+00  0.00000000000E+00  0.37230650819E+03  0.37230650819E+03  0.00000000000E+00 0. -1.
          1   -1    0    0  501    0 -0.00000000000E+00 -0.00000000000E+00 -0.55928131889E+02  0.55928131889E+02  0.00000000000E+00 0.  1.
          2    1    1    2  501    0  0.39819148430E+02 -0.59856402553E+02  0.20539110548E+03  0.21760942011E+03  0.00000000000E+00 0. -1.
          1    1    1    2  502    0  0.12054827580E+02  0.34254768171E+02  0.10413907756E+02  0.37777737957E+02  0.00000000000E+00 0.  1.
         22    1    1    2    0    0 -0.43118728597E+02  0.56120408485E+02  0.36611741344E+01  0.70866982442E+02  0.00000000000E+00 0.  1.
         22    1    1    2    0    0 -0.87552474125E+01 -0.30518774103E+02  0.96912188931E+02  0.10198049957E+03  0.00000000000E+00 0. -1.
</event>
<event>
 6    1  0.2406404E-005  0.3529597E+02  0.7818608E-02  0.1598804E+00
          2   -1    0    0  502    0  0.00000000000E+00  0.00000000000E+00  0.12577226292E+03  0.12577226292E+03  0.00000000000E+00 0.  1.
          1   -1    0    0  501    0 -0.00000000000E+00 -0.00000000000E+00 -0.95799328064E+02  0.95799328064E+02  0.00000000000E+00 0.  1.
          2    1    1    2  501    0 -0.13093973023E+02  0.21785166925E+02  0.52772545609E+02  0.58574629300E+02  0.00000000000E+00 0.  1.
          1    1    1    2  502    0 -0.11766823211E+01 -0.25768542112E+02  0.12325879605E+02  0.28588977804E+02  0.00000000000E+00 0.  1.
         22    1    1    2    0    0 -0.19820043213E+01  0.12312584787E+02  0.47848981012E+02  0.49447477885E+02  0.00000000000E+00 0.  1.
         22    1    1    2    0    0  0.16252659666E+02 -0.83292096009E+01 -0.82974471373E+02  0.84960505992E+02  0.00000000000E+00 0.  1.
</event>
<event>
 6    1  0.2406404E-005  0.1084606E+03  0.7818608E-02  0.1397333E+00
          2   -1    0    0  502    0  0.00000000000E+00  0.00000000000E+00  0.40640241083E+03  0.40640241083E+03  0.00000000000E+00 0.  1.
          1   -1    0    0  501    0 -0.00000000000E+00 -0.00000000000E+00 -0.98735898930E+02  0.98735898930E+02  0.00000000000E+00 0.  1.
          2    1    1    2  501    0 -0.55445255770E+02  0.22786435006E+02  0.19666875041E+03  0.20560154521E+03  0.00000000000E+00 0.  1.
          1    1    1    2  502    0  0.98877523104E+02 -0.13225518305E+02 -0.32404872508E+02  0.10488924955E+03  0.00000000000E+00 0.  1.
         22    1    1    2    0    0 -0.44356119732E+02 -0.19757525774E+02  0.16432782124E+03  0.17135185443E+03  0.00000000000E+00 0.  1.
         22    1    1    2    0    0  0.92385239870E+00  0.10196609072E+02 -0.20925187242E+02  0.23295660561E+02  0.00000000000E+00 0.  1.
</event>
<event>
 6    1  0.2406404E-005  0.1045497E+03  0.7818608E-02  0.1334863E+00
          2   -1    0    0  502    0  0.00000000000E+00  0.00000000000E+00  0.31059156702E+03  0.31059156702E+03  0.00000000000E+00 0.  1.
          1   -1    0    0  501    0 -0.00000000000E+00 -0.00000000000E+00 -0.10993527587E+03  0.10993527587E+03  0.00000000000E+00 0.  1.
          2    1    1    2  501    0  0.78928470392E+02  0.47174096344E+02  0.20596270119E+03  0.22555649644E+03  0.00000000000E+00 0.  1.
          1    1    1    2  502    0 -0.51592362026E+02 -0.21682239555E+02 -0.23806145750E+02  0.60816312836E+02  0.00000000000E+00 0.  1.
         22    1    1    2    0    0 -0.48299923607E+02 -0.82937753806E+00 -0.42989346870E+02  0.64665712954E+02  0.00000000000E+00 0.  1.
         22    1    1    2    0    0  0.20963815240E+02 -0.24662479251E+02  0.61489082585E+02  0.69488320669E+02  0.00000000000E+00 0.  1.
</event>
<event>
 6    1  0.2406404E-005  0.7909059E+02  0.7818608E-02  0.1342705E+00
          2   -1    0    0  502    0  0.00000000000E+00  0.00000000000E+00  0.55024388116E+03  0.55024388116E+03  0.00000000000E+00 0. -1.
          1   -1    0    0  501    0 -0.00000000000E+00 -0.00000000000E+00 -0.49344715982E+02  0.49344715982E+02  0.00000000000E+00 0. -1.
          2    1    1    2  501    0 -0.22649735019E+02 -0.31142651183E+02  0.32223738542E+03  0.32453013386E+03  0.00000000000E+00 0. -1.
          1    1    1    2  502    0  0.42242885530E+02 -0.11227411180E+02 -0.76908069645E+01  0.44380904130E+02  0.00000000000E+00 0. -1.
         22    1    1    2    0    0 -0.28946316555E+02  0.25418019401E+02  0.20208902684E+03  0.20572782924E+03  0.00000000000E+00 0.  1.
         22    1    1    2    0    0  0.93531660440E+01  0.16952042962E+02 -0.15736440115E+02  0.24949729921E+02  0.00000000000E+00 0.  1.
</event>
<event>
 6    1  0.2406404E-005  0.1713583E+03  0.7818608E-02  0.1194098E+00
          2   -1    0    0  502    0  0.00000000000E+00  0.00000000000E+00  0.34443178271E+02  0.34443178271E+02  0.00000000000E+00 0. -1.
          1   -1    0    0  501    0 -0.00000000000E+00 -0.00000000000E+00 -0.16822844718E+04  0.16822844718E+04  0.00000000000E+00 0. -1.
          2    1    1    2  501    0  0.18383312489E+02  0.88118306190E+02 -0.74182342870E+02  0.11664391136E+03  0.00000000000E+00 0. -1.
          1    1    1    2  502    0  0.22668644373E+02 -0.62039809491E+02 -0.12213837693E+04  0.12231684746E+04  0.00000000000E+00 0. -1.
         22    1    1    2    0    0 -0.62586291547E+02 -0.36677889253E+02 -0.34394120333E+03  0.35150798398E+03  0.00000000000E+00 0. -1.
         22    1    1    2    0    0  0.21534334685E+02  0.10599392555E+02 -0.83339780238E+01  0.25407280110E+02  0.00000000000E+00 0.  1.
</event>
<event>
 6    1  0.2406404E-005  0.4662626E+02  0.7818608E-02  0.1551784E+00
          2   -1    0    0  502    0  0.00000000000E+00  0.00000000000E+00  0.16709858614E+03  0.16709858614E+03  0.00000000000E+00 0. -1.
          1   -1    0    0  501    0 -0.00000000000E+00 -0.00000000000E+00 -0.24762018040E+03  0.24762018040E+03  0.00000000000E+00 0.  1.
          2    1    1    2  501    0  0.29271345093E+01 -0.33312109152E+02  0.13307525515E+03  0.13721256599E+03  0.00000000000E+00 0. -1.
          1    1    1    2  502    0  0.10580367209E+02  0.18968356068E+02 -0.10486504874E+03  0.10709071458E+03  0.00000000000E+00 0.  1.
         22    1    1    2    0    0 -0.37886076956E+01  0.24711762773E+02 -0.13674086921E+03  0.13900751807E+03  0.00000000000E+00 0.  1.
         22    1    1    2    0    0 -0.97188940232E+01 -0.10368009689E+02  0.28009068545E+02  0.31407967885E+02  0.00000000000E+00 0. -1.
</event>
<event>
 6    1  0.2406404E-005  0.9482156E+02  0.7818608E-02  0.1335249E+00
          2   -1    0    0  502    0  0.00000000000E+00  0.00000000000E+00  0.40406735819E+02  0.40406735819E+02  0.00000000000E+00 0.  1.
          1   -1    0    0  501    0 -0.00000000000E+00 -0.00000000000E+00 -0.29868037265E+03  0.29868037265E+03  0.00000000000E+00 0.  1.
          2    1    1    2  501    0 -0.11083598341E+02  0.16871685536E+02  0.27094257844E+01  0.20367643778E+02  0.00000000000E+00 0.  1.
          1    1    1    2  502    0 -0.15419226654E+02  0.16195000509E+02 -0.13852475582E+03  0.14031799089E+03  0.00000000000E+00 0.  1.
         22    1    1    2    0    0 -0.12413167897E+02  0.17420272662E+02  0.15508179933E+02  0.26420754753E+02  0.00000000000E+00 0. -1.
         22    1    1    2    0    0  0.38915992893E+02 -0.50486958706E+02 -0.13796648672E+03  0.15198071904E+03  0.00000000000E+00 0.  1.
</event>
<event>
 6    1  0.2406404E-005  0.1122390E+03  0.7818608E-02  0.1292350E+00
          2   -1    0    0  502    0  0.00000000000E+00  0.00000000000E+00  0.68321683081E+02  0.68321683081E+02  0.00000000000E+00 0. -1.
          1   -1    0    0  501    0 -0.00000000000E+00 -0.00000000000E+00 -0.58809001007E+03  0.58809001007E+03  0.00000000000E+00 0. -1.
          2    1    1    2  501    0 -0.76164786726E+02 -0.27752218319E+02 -0.15849746796E+02  0.82598273784E+02  0.00000000000E+00 0. -1.
          1    1    1    2  502    0  0.65842102425E+02 -0.55474008416E+01 -0.40799696389E+03  0.41331280969E+03  0.00000000000E+00 0. -1.
         22    1    1    2    0    0  0.42329784401E+02  0.37204998060E+02 -0.11131666356E+03  0.12476947589E+03  0.00000000000E+00 0. -1.
         22    1    1    2    0    0 -0.32007100101E+02 -0.39053788995E+01  0.15395047264E+02  0.35731133783E+02  0.00000000000E+00 0. -1.
</event>
<event>
 6    1  0.2406404E-005  0.1305599E+03  0.7818608E-02  0.1241722E+00
          2   -1    0    0  502    0  0.00000000000E+00  0.00000000000E+00  0.59586023781E+02  0.59586023781E+02  0.00000000000E+00 0.  1.
          1   -1    0    0  501    0 -0.00000000000E+00 -0.00000000000E+00 -0.52785128465E+03  0.52785128465E+03  0.00000000000E+00 0.  1.
          2    1    1    2  501    0  0.70843434100E+02 -0.39920037638E+02  0.44312745428E+01  0.81437324085E+02  0.00000000000E+00 0.  1.
          1    1    1    2  502    0 -0.61424805073E+01  0.36573687525E+02 -0.56666695948E+02  0.67723549195E+02  0.00000000000E+00 0.  1.
         22    1    1    2    0    0 -0.72928517769E+02  0.15265542219E+02 -0.41714823314E+03  0.42375022583E+03  0.00000000000E+00 0.  1.
         22    1    1    2    0    0  0.82275641762E+01 -0.11919192106E+02  0.11183936735E+01  0.14526209318E+02  0.00000000000E+00 0. -1.
</event>
<event>
 6    1  0.2406404E-005  0.5539855E+02  0.7818608E-02  0.1418790E+00
          2   -1    0    0  502    0  0.00000000000E+00  0.00000000000E+00  0.25094521226E+03  0.25094521226E+03  0.00000000000E+00 0. -1.
          1   -1    0    0  501    0 -0.00000000000E+00 -0.00000000000E+00 -0.18768934881E+03  0.18768934881E+03  0.00000000000E+00 0. -1.
          2    1    1    2  501    0  0.36623096673E+02 -0.21575317274E+02  0.18681608287E+03  0.19159069483E+03  0.00000000000E+00 0. -1.
          1    1    1    2  502    0 -0.20454178654E+02  0.16782699782E+02 -0.11684332377E+03  0.11980148057E+03  0.00000000000E+00 0. -1.
         22    1    1    2    0    0 -0.21211870812E+02  0.16123690512E+02 -0.63635407266E+02  0.68988273764E+02  0.00000000000E+00 0.  1.
         22    1    1    2    0    0  0.50429527922E+01 -0.11331073020E+02  0.56918511619E+02  0.58254111903E+02  0.00000000000E+00 0. -1.
</event>
<event>
 6    1  0.2406404E-005  0.9151221E+02  0.7818608E-02  0.1304872E+00
          2   -1    0    0  502    0  0.00000000000E+00  0.00000000000E+00  0.35504181307E+03  0.35504181307E+03  0.00000000000E+00 0.  1.
          1   -1    0    0  501    0 -0.00000000000E+00 -0.00000000000E+00 -0.95076066953E+02  0.95076066953E+02  0.00000000000E+00 0. -1.
          2    1    1    2  501    0 -0.27373997557E+01  0.62744681968E+02  0.22469698380E+03  0.23330907184E+03  0.00000000000E+00 0.  1.
          1    1    1    2  502    0 -0.10786679702E+02 -0.35039232500E+02 -0.49446917695E+02  0.61555649153E+02  0.00000000000E+00 0. -1.
         22    1    1    2    0    0  0.16390081070E+02 -0.45871985844E+02 -0.17224126094E+02  0.51667633607E+02  0.00000000000E+00 0.  1.
         22    1    1    2    0    0 -0.28660016126E+01  0.18166536376E+02  0.10193980610E+03  0.10358552542E+03  0.00000000000E+00 0.  1.
</event>
<event>
 6    1  0.2406404E-005  0.3623758E+02  0.7818608E-02  0.1587140E+00
          2   -1    0    0  502    0  0.00000000000E+00  0.00000000000E+00  0.26082181618E+03  0.26082181618E+03  0.00000000000E+00 0.  1.
          1   -1    0    0  501    0 -0.00000000000E+00 -0.00000000000E+00 -0.94735985597E+02  0.94735985597E+02  0.00000000000E+00 0. -1.
          2    1    1    2  501    0  0.90874274171E+00 -0.21860786778E+02  0.13252155666E+03  0.13431560889E+03  0.00000000000E+00 0.  1.
          1    1    1    2  502    0  0.28736275895E+02  0.18959301649E+02 -0.57678331461E+02  0.67171560883E+02  0.00000000000E+00 0. -1.
         22    1    1    2    0    0  0.12110181048E+02  0.15211283411E+02  0.10625771324E+03  0.10802194801E+03  0.00000000000E+00 0. -1.
         22    1    1    2    0    0 -0.41755199684E+02 -0.12309798282E+02 -0.15015107853E+02  0.46048684001E+02  0.00000000000E+00 0. -1.
</event>
<event>
 6    1  0.2406404E-005  0.1180875E+03  0.7818608E-02  0.1247918E+00
          2   -1    0    0  502    0  0.00000000000E+00  0.00000000000E+00  0.10447249502E+03  0.10447249502E+03  0.00000000000E+00 0.  1.
          1   -1    0    0  501    0 -0.00000000000E+00 -0.00000000000E+00 -0.46124515948E+03  0.46124515948E+03  0.00000000000E+00 0. -1.
          2    1    1    2  501    0  0.32220187214E+02  0.86506251758E+02  0.40182826208E+02  0.10067835706E+03  0.00000000000E+00 0.  1.
          1    1    1    2  502    0 -0.27205474943E+02 -0.72784854389E+02 -0.27789524749E+03  0.28855422622E+03  0.00000000000E+00 0. -1.
         22    1    1    2    0    0  0.22308460455E+02  0.10518752829E+02  0.20595174026E+02  0.32132114186E+02  0.00000000000E+00 0.  1.
         22    1    1    2    0    0 -0.27323172725E+02 -0.24240150198E+02 -0.13965541720E+03  0.14435295703E+03  0.00000000000E+00 0. -1.
</event>
<event>
 6    1  0.2406404E-005  0.3083226E+02  0.7818608E-02  0.1597721E+00
          2   -1    0    0  502    0  0.00000000000E+00  0.00000000000E+00  0.19627307631E+03  0.19627307631E+03  0.00000000000E+00 0. -1.
          1   -1    0    0  501    0 -0.00000000000E+00 -0.00000000000E+00 -0.26881501813E+03  0.26881501813E+03  0.00000000000E+00 0.  1.
          2    1    1    2  501    0  0.35451638089E+02  0.47170682075E+02  0.14121011418E+03  0.15304309274E+03  0.00000000000E+00 0. -1.
          1    1    1    2  502    0  0.34097644631E+01 -0.24264854164E+02 -0.16626857128E+03  0.16806441455E+03  0.00000000000E+00 0.  1.
         22    1    1    2    0    0 -0.20173074761E+02 -0.12323724514E+02 -0.91767627269E+02  0.94763519066E+02  0.00000000000E+00 0.  1.
         22    1    1    2    0    0 -0.18688327791E+02 -0.10582103397E+02  0.44284142556E+02  0.49217068074E+02  0.00000000000E+00 0. -1.
</event>
<event>
 6    1  0.2406404E-005  0.4217894E+02  0.7818608E-02  0.1494166E+00
          2   -1    0    0  502    0  0.00000000000E+00  0.00000000000E+00  0.23334074092E+03  0.23334074092E+03  0.00000000000E+00 0.  1.
          1   -1    0    0  501    0 -0.00000000000E+00 -0.00000000000E+00 -0.95287020590E+02  0.95287020590E+02  0.00000000000E+00 0.  1.
          2    1    1    2  501    0 -0.65668392893E+01  0.29100024190E+02  0.15849242248E+03  0.16127548720E+03  0.00000000000E+00 0.  1.
          1    1    1    2  502    0  0.93978240750E+00 -0.21267570639E+02 -0.34623069460E+02  0.40644183972E+02  0.00000000000E+00 0.  1.
         22    1    1    2    0    0  0.58127561483E+01  0.10885176020E+02  0.68321114499E+02  0.69426579041E+02  0.00000000000E+00 0.  1.
         22    1    1    2    0    0 -0.18569926656E+00 -0.18717629570E+02 -0.54136747189E+02  0.57281511303E+02  0.00000000000E+00 0.  1.
</event>
<event>
 6    1  0.2406404E-005  0.7117474E+02  0.7818608E-02  0.1432634E+00
          2   -1    0    0  502    0  0.00000000000E+00  0.00000000000E+00  0.56370232655E+03  0.56370232655E+03  0.00000000000E+00 0.  1.
          1   -1    0    0  501    0 -0.00000000000E+00 -0.00000000000E+00 -0.11434852461E+04  0.11434852461E+04  0.00000000000E+00 0. -1.
          2    1    1    2  501    0  0.83052142457E+02  0.32450884497E+02  0.49968072230E+03  0.50757417439E+03  0.00000000000E+00 0.  1.
          1    1    1    2  502    0 -0.11595248851E+03 -0.33362193267E+02 -0.10635202042E+04  0.10703425808E+04  0.00000000000E+00 0. -1.
         22    1    1    2    0    0 -0.68125764390E+01  0.98452517609E+01 -0.64675771648E+02  0.65774581855E+02  0.00000000000E+00 0. -1.
         22    1    1    2    0    0  0.39712922490E+02 -0.89339429912E+01  0.48732334031E+02  0.63496235559E+02  0.00000000000E+00 0. -1.
</event>
<event>
 6    1  0.2406404E-005  0.2111784E+02  0.7818608E-02  0.1745719E+00
          2   -1    0    0  502    0  0.00000000000E+00  0.00000000000E+00  0.70539750381E+02  0.70539750381E+02  0.00000000000E+00 0.  1.
          1   -1    0    0  501    0 -0.00000000000E+00 -0.00000000000E+00 -0.20217388083E+03  0.20217388083E+03  0.00000000000E+00 0. -1.
          2    1    1    2  501    0  0.24121978852E+02  0.35624250744E+02 -0.12531894843E+02  0.44810774298E+02  0.00000000000E+00 0.  1.
          1    1    1    2  502    0 -0.22766402906E+02 -0.13658892976E+02 -0.96944879324E+02  0.10051459638E+03  0.00000000000E+00 0. -1.
         22    1    1    2    0    0  0.76463350434E+01 -0.96045610232E+01 -0.73139314546E+02  0.74162479492E+02  0.00000000000E+00 0. -1.
         22    1    1    2    0    0 -0.90019109892E+01 -0.12360796745E+02  0.50981958270E+02  0.53225781034E+02  0.00000000000E+00 0.  1.
</event>
<event>
 6    1  0.2406404E-005  0.8173201E+02  0.7818608E-02  0.1397378E+00
          2   -1    0    0  502    0  0.00000000000E+00  0.00000000000E+00  0.19222554086E+03  0.19222554086E+03  0.00000000000E+00 0. -1.
          1   -1    0    0  501    0 -0.00000000000E+00 -0.00000000000E+00 -0.13366000409E+03  0.13366000409E+03  0.00000000000E+00 0. -1.
          2    1    1    2  501    0 -0.48746121676E+02  0.35149480611E+02  0.10786702249E+03  0.12347860101E+03  0.00000000000E+00 0. -1.
          1    1    1    2  502    0  0.53290343698E+02 -0.27584922789E+02 -0.42680717063E+02  0.73637166606E+02  0.00000000000E+00 0. -1.
         22    1    1    2    0    0  0.19402063416E+02 -0.13971158599E+02 -0.62890555040E+02  0.67281908791E+02  0.00000000000E+00 0. -1.
         22    1    1    2    0    0 -0.23946285438E+02  0.64066007761E+01  0.56269786382E+02  0.61487868553E+02  0.00000000000E+00 0. -1.
</event>
<event>
 6    1  0.2406404E-005  0.5483329E+02  0.7818608E-02  0.1538152E+00
          2   -1    0    0  502    0  0.00000000000E+00  0.00000000000E+00  0.93261775626E+02  0.93261775626E+02  0.00000000000E+00 0. -1.
          1   -1    0    0  501    0 -0.00000000000E+00 -0.00000000000E+00 -0.11159425817E+04  0.11159425817E+04  0.00000000000E+00 0. -1.
          2    1    1    2  501    0  0.13614064722E+02  0.71462102131E+02 -0.10852099874E+03  0.13064831406E+03  0.00000000000E+00 0. -1.
          1    1    1    2  502    0 -0.38815967780E+02 -0.33555381199E+02 -0.93766735255E+03  0.93907012890E+03  0.00000000000E+00 0. -1.
         22    1    1    2    0    0  0.35102488545E+02 -0.39651470236E+02  0.72327277989E+02  0.89641836969E+02  0.00000000000E+00 0. -1.
         22    1    1    2    0    0 -0.99005854872E+01  0.17447493042E+01 -0.48819732773E+02  0.49844077393E+02  0.00000000000E+00 0. -1.
</event>
<event>
 6    1  0.2406404E-005  0.1631942E+03  0.7818608E-02  0.1185425E+00
          2   -1    0    0  502    0  0.00000000000E+00  0.00000000000E+00  0.61084710890E+02  0.61084710890E+02  0.00000000000E+00 0. -1.
          1   -1    0    0  501    0 -0.00000000000E+00 -0.00000000000E+00 -0.13944916977E+04  0.13944916977E+04  0.00000000000E+00 0. -1.
          2    1    1    2  501    0  0.80988829994E+01 -0.22945566004E+02 -0.24400348440E+02  0.34459656253E+02  0.00000000000E+00 0. -1.
          1    1    1    2  502    0  0.85342675845E+02 -0.95236062662E+02 -0.11811616885E+04  0.11880640616E+04  0.00000000000E+00 0. -1.
         22    1    1    2    0    0 -0.68095056638E+02  0.11534167984E+03 -0.37379546419E+02  0.13906067142E+03  0.00000000000E+00 0. -1.
         22    1    1    2    0    0 -0.25346502207E+02  0.28399488294E+01 -0.90465403420E+02  0.93992019339E+02  0.00000000000E+00 0. -1.
</event>
<event>
 6    1  0.2406404E-005  0.1989990E+03  0.7818608E-02  0.1156271E+00
          2   -1    0    0  502    0  0.00000000000E+00  0.00000000000E+00  0.18420464026E+03  0.18420464026E+03  0.00000000000E+00 0. -1.
          1   -1    0    0  501    0 -0.00000000000E+00 -0.00000000000E+00 -0.78526239704E+03  0.78526239704E+03  0.00000000000E+00 0. -1.
          2    1    1    2  501    0 -0.14090324561E+02  0.38271277187E+02  0.10344848397E+03  0.11119719753E+03  0.00000000000E+00 0. -1.
          1    1    1    2  502    0  0.96583397324E+02  0.88023629673E+02 -0.63413549037E+03  0.64745990777E+03  0.00000000000E+00 0. -1.
         22    1    1    2    0    0 -0.76921184335E+02 -0.90556050472E+02  0.13394655680E+02  0.11956874039E+03  0.00000000000E+00 0. -1.
         22    1    1    2    0    0 -0.55718884275E+01 -0.35738856388E+02 -0.83765406051E+02  0.91241191616E+02  0.00000000000E+00 0.  1.
</event>
<event>
 6    1  0.2406404E-005  0.7022366E+02  0.7818608E-02  0.1359412E+00
          2   -1    0    0  502    0  0.00000000000E+00  0.00000000000E+00  0.29187140333E+03  0.29187140333E+03  0.00000000000E+00 0.  1.
          1   -1    0    0  501    0 -0.00000000000E+00 -0.00000000000E+00 -0.12698323549E+03  0.12698323549E+03  0.00000000000E+00 0.  1.
          2    1    1    2  501    0  0.23237450005E+02  0.37400145547E+02  0.20216425478E+03  0.20690368745E+03  0.00000000000E+00 0.  1.
          1    1    1    2  502    0 -0.23416940969E+02 -0.40917796132E+02 -0.69809009030E+02  0.84237265545E+02  0.00000000000E+00 0.  1.
         22    1    1    2    0    0  0.19996024801E+02  0.14710974783E+02  0.75289787404E+02  0.79276767557E+02  0.00000000000E+00 0. -1.
         22    1    1    2    0    0 -0.19816533837E+02 -0.11193324198E+02 -0.42756865317E+02  0.48436918272E+02  0.00000000000E+00 0.  1.
</event>
<event>
 6    1  0.2406404E-005  0.9217782E+02  0.7818608E-02  0.1298413E+00
          2   -1    0    0  502    0  0.00000000000E+00  0.00000000000E+00  0.93278260296E+02  0.93278260296E+02  0.00000000000E+00 0.  1.
          1   -1    0    0  501    0 -0.00000000000E+00 -0.00000000000E+00 -0.11866241797E+03  0.11866241797E+03  0.00000000000E+00 0.  1.
          2    1    1    2  501    0 -0.13393473062E+02  0.30957002555E+02  0.12957714792E+02  0.36133412522E+02  0.00000000000E+00 0.  1.
          1    1    1    2  502    0  0.11800238557E+02 -0.41252964604E+02 -0.29674741868E+02  0.52169368633E+02  0.00000000000E+00 0.  1.
         22    1    1    2    0    0 -0.64460931970E+01 -0.47551521222E+02 -0.35177574490E+02  0.59499252390E+02  0.00000000000E+00 0. -1.
         22    1    1    2    0    0  0.80393277015E+01  0.57847483271E+02  0.26510443896E+02  0.64138644718E+02  0.00000000000E+00 0.  1.
</event>
<event>
 6    1  0.2406404E-005  0.4218189E+02  0.7818608E-02  0.1578506E+00
          2   -1    0    0  502    0  0.00000000000E+00  0.00000000000E+00  0.35029484088E+03  0.35029484088E+03  0.00000000000E+00 0. -1.
          1   -1    0    0  501    0 -0.00000000000E+00 -0.00000000000E+00 -0.97879051001E+02  0.97879051001E+02  0.00000000000E+00 0.  1.
          2    1    1    2  501    0 -0.20298135442E+02 -0.78105909485E+02  0.19860815387E+03  0.21437757855E+03  0.00000000000E+00 0. -1.
          1    1    1    2  502    0 -0.80478858116E+01  0.55602976705E+02 -0.44387817023E+02  0.71601241502E+02  0.00000000000E+00 0.  1.
         22    1    1    2    0    0  0.94326016236E+01 -0.57812079347E+01 -0.28730860056E+02  0.30787313265E+02  0.00000000000E+00 0. -1.
         22    1    1    2    0    0  0.18913419630E+02  0.28284140714E+02  0.12692631308E+03  0.13140775856E+03  0.00000000000E+00 0. -1.
</event>
<event>
 6    1  0.2406404E-005  0.1545248E+03  0.7818608E-02  0.1218481E+00
          2   -1    0    0  502    0  0.00000000000E+00  0.00000000000E+00  0.76020150655E+03  0.76020150655E+03  0.00000000000E+00 0.  1.
          1   -1    0    0  501    0 -0.00000000000E+00 -0.00000000000E+00 -0.16175410179E+03  0.16175410179E+03  0.00000000000E+00 0.  1.
          2    1    1    2  501    0  0.11270704506E+03 -0.46352902533E+02  0.43891771235E+03  0.45552192899E+03  0.00000000000E+00 0.  1.
          1    1    1    2  502    0 -0.78191253319E+02  0.11545603914E+03 -0.96364508498E+02  0.16949952085E+03  0.00000000000E+00 0.  1.
         22    1    1    2    0    0 -0.31713153236E+02 -0.87819779047E+02  0.26111094094E+03  0.27730301325E+03  0.00000000000E+00 0. -1.
         22    1    1    2    0    0 -0.28026385028E+01  0.18716642437E+02 -0.52167400343E+01  0.19631145236E+02  0.00000000000E+00 0. -1.
</event>
<event>
 6    1  0.2406404E-005  0.8698592E+02  0.7818608E-02  0.1420406E+00
          2   -1    0    0  502    0  0.00000000000E+00  0.00000000000E+00  0.12341120425E+03  0.12341120425E+03  0.00000000000E+00 0. -1.
          1   -1    0    0  501    0 -0.00000000000E+00 -0.00000000000E+00 -0.14775690135E+03  0.14775690135E+03  0.00000000000E+00 0. -1.
          2    1    1    2  501    0 -0.38623697639E+02  0.54811199770E+02  0.51494364947E+02  0.84544232570E+02  0.00000000000E+00 0. -1.
          1    1    1    2  502    0  0.28347282326E+02 -0.10443582295E+02 -0.30372962893E+02  0.42838693973E+02  0.00000000000E+00 0. -1.
         22    1    1    2    0    0  0.19006025421E+02 -0.55103965270E+02 -0.84340078639E+02  0.10252280164E+03  0.00000000000E+00 0. -1.
         22    1    1    2    0    0 -0.87296101076E+01  0.10736347796E+02  0.38872979481E+02  0.41262377420E+02  0.00000000000E+00 0. -1.
</event>
<event>
 6    1  0.2406404E-005  0.6430438E+02  0.7818608E-02  0.1392978E+00
          2   -1    0    0  502    0  0.00000000000E+00  0.00000000000E+00  0.25651546260E+02  0.25651546260E+02  0.00000000000E+00 0.  1.
          1   -1    0    0  501    0 -0.00000000000E+00 -0.00000000000E+00 -0.68979575115E+03  0.68979575115E+03  0.00000000000E+00 0.  1.
          2    1    1    2  501    0  0.63209997696E+02  0.16410478732E+02 -0.14745680373E+03  0.16127094155E+03  0.00000000000E+00 0.  1.
          1    1    1    2  502    0 -0.68138685400E+02 -0.18978315389E+02 -0.22357192541E+03  0.23449405693E+03  0.00000000000E+00 0.  1.
         22    1    1    2    0    0  0.18094609928E+02  0.61440526260E+02 -0.11507500029E+03  0.13169893267E+03  0.00000000000E+00 0. -1.
         22    1    1    2    0    0 -0.13165922224E+02 -0.58872689603E+02 -0.17804047546E+03  0.18798336626E+03  0.00000000000E+00 0.  1.
</event>
<event>
 6    1  0.2406404E-005  0.7352431E+02  0.7818608E-02  0.1399274E+00
          2   -1    0    0  502    0  0.00000000000E+00  0.00000000000E+00  0.10512479330E+03  0.10512479330E+03  0.00000000000E+00 0. -1.
          1   -1    0    0  501    0 -0.00000000000E+00 -0.00000000000E+00 -0.33557959022E+03  0.33557959022E+03  0.00000000000E+00 0.  1.
          2    1    1    2  501    0 -0.51890112418E+02  0.14618029734E+02  0.51904665257E+02  0.74835585356E+02  0.00000000000E+00 0. -1.
          1    1    1    2  502    0  0.72010648378E+02  0.75608983257E+01 -0.20198280455E+03  0.21456876287E+03  0.00000000000E+00 0.  1.
         22    1    1    2    0    0 -0.37881845520E+01 -0.31643331070E+02 -0.11091274142E+03  0.11540055005E+03  0.00000000000E+00 0.  1.
         22    1    1    2    0    0 -0.16332351409E+02  0.94644030102E+01  0.30536083799E+02  0.35899485242E+02  0.00000000000E+00 0. -1.
</event>
<event>
 6    1  0.2406404E-005  0.2047531E+03  0.7818608E-02  0.1157694E+00
          2   -1    0    0  502    0  0.00000000000E+00  0.00000000000E+00  0.55297794975E+03  0.55297794975E+03  0.00000000000E+00 0. -1.
          1   -1    0    0  501    0 -0.00000000000E+00 -0.00000000000E+00 -0.80222366859E+02  0.80222366859E+02  0.00000000000E+00 0. -1.
          2    1    1    2  501    0  0.13879994872E+03  0.10409684496E+02  0.32019317565E+03  0.34913816324E+03  0.00000000000E+00 0. -1.
          1    1    1    2  502    0 -0.44284504425E+02  0.28621940750E+02  0.97354413462E+02  0.11071682187E+03  0.00000000000E+00 0. -1.
         22    1    1    2    0    0  0.12361465553E+02  0.49268461722E+01  0.56223619832E+02  0.57776942380E+02  0.00000000000E+00 0.  1.
         22    1    1    2    0    0 -0.10687690984E+03 -0.43958471418E+02 -0.10156260580E+01  0.11556838912E+03  0.00000000000E+00 0. -1.
</event>
<event>
 6    1  0.2406404E-005  0.1052708E+03  0.7818608E-02  0.1325922E+00
          2   -1    0    0  502    0  0.00000000000E+00  0.00000000000E+00  0.49489446906E+03  0.49489446906E+03  0.00000000000E+00 0. -1.
          1   -1    0    0  501    0 -0.00000000000E+00 -0.00000000000E+00 -0.81440891576E+02  0.81440891576E+02  0.00000000000E+00 0.  1.
          2    1    1    2  501    0  0.21257536053E+02 -0.16190383878E+02  0.36450342262E+03  0.36548154053E+03  0.00000000000E+00 0. -1.
          1    1    1    2  502    0  0.16602929292E+02  0.17170421139E+02 -0.42106212875E+02  0.48408819299E+02  0.00000000000E+00 0.  1.
         22    1    1    2    0    0 -0.50815920858E+02 -0.23760564683E+01  0.12019953857E+03  0.13052138725E+03  0.00000000000E+00 0. -1.
         22    1    1    2    0    0  0.12955455513E+02  0.13960192070E+01 -0.29143170824E+02  0.31923613562E+02  0.00000000000E+00 0.  1.
</event>
<event>
 6    1  0.2406404E-005  0.1160312E+03  0.7818608E-02  0.1285149E+00
          2   -1    0    0  502    0  0.00000000000E+00  0.00000000000E+00  0.63693518594E+03  0.63693518594E+03  0.00000000000E+00 0. -1.
          1   -1    0    0  501    0 -0.00000000000E+00 -0.00000000000E+00 -0.90558980553E+02  0.90558980553E+02  0.00000000000E+00 0. -1.
          2    1    1    2  501    0 -0.73691930537E+02 -0.23729751198E+02  0.39593563443E+03  0.40343354884E+03  0.00000000000E+00 0. -1.
          1    1    1    2  502    0  0.93492559414E+02 -0.21478024579E+02 -0.27131100852E+02  0.99690826253E+02  0.00000000000E+00 0. -1.
         22    1    1    2    0    0 -0.43490205178E+02  0.38961332534E+02  0.18865186483E+03  0.19748141554E+03  0.00000000000E+00 0. -1.
         22    1    1    2    0    0  0.23689576302E+02  0.62464432440E+01 -0.11080193028E+02  0.26888375855E+02  0.00000000000E+00 0. -1.
</event>
<event>
 6    1  0.2406404E-005  0.1441969E+03  0.7818608E-02  0.1226305E+00
          2   -1    0    0  502    0  0.00000000000E+00  0.00000000000E+00  0.67474817825E+03  0.67474817825E+03  0.00000000000E+00 0.  1.
          1   -1    0    0  501    0 -0.00000000000E+00 -0.00000000000E+00 -0.19684100504E+03  0.19684100504E+03  0.00000000000E+00 0.  1.
          2    1    1    2  501    0  0.61290443433E+02  0.10759525514E+02  0.38382560364E+03  0.38883721511E+03  0.00000000000E+00 0.  1.
          1    1    1    2  502    0 -0.15983531609E+03  0.45649179074E+02 -0.12466598978E+03  0.20778061706E+03  0.00000000000E+00 0.  1.
         22    1    1    2    0    0  0.70146484880E+02 -0.74883606339E+02  0.74504451662E+02  0.12680298560E+03  0.00000000000E+00 0. -1.
         22    1    1    2    0    0  0.28398387773E+02  0.18474901751E+02  0.14424310770E+03  0.14816836552E+03  0.00000000000E+00 0. -1.
</event>
<event>
 6    1  0.2406404E-005  0.5170230E+02  0.7818608E-02  0.1497464E+00
          2   -1    0    0  502    0  0.00000000000E+00  0.00000000000E+00  0.44431964196E+03  0.44431964196E+03  0.00000000000E+00 0. -1.
          1   -1    0    0  501    0 -0.00000000000E+00 -0.00000000000E+00 -0.12225895526E+03  0.12225895526E+03  0.00000000000E+00 0.  1.
          2    1    1    2  501    0 -0.38852824130E+02 -0.40658371131E+02  0.27520715559E+03  0.28089432813E+03  0.00000000000E+00 0. -1.
          1    1    1    2  502    0  0.68626421067E+02  0.10711876983E+01 -0.78104207542E+02  0.10397596043E+03  0.00000000000E+00 0.  1.
         22    1    1    2    0    0 -0.30082060310E+02  0.23615860501E+02  0.14845122103E+03  0.15329841566E+03  0.00000000000E+00 0. -1.
         22    1    1    2    0    0  0.30846337297E+00  0.15971322933E+02 -0.23493482375E+02  0.28409892995E+02  0.00000000000E+00 0. -1.
</event>
<event>
 6    1  0.2406404E-005  0.1280397E+03  0.7818608E-02  0.1230479E+00
          2   -1    0    0  502    0  0.00000000000E+00  0.00000000000E+00  0.29204176685E+03  0.29204176685E+03  0.00000000000E+00 0. -1.
          1   -1    0    0  501    0 -0.00000000000E+00 -0.00000000000E+00 -0.61661978084E+03  0.61661978084E+03  0.00000000000E+00 0. -1.
          2    1    1    2  501    0 -0.28408275675E+02  0.10627110892E+03  0.25017852553E+03  0.27329448102E+03  0.00000000000E+00 0. -1.
          1    1    1    2  502    0  0.31303003989E+02 -0.87948710713E+02 -0.44304034424E+03  0.45276881562E+03  0.00000000000E+00 0. -1.
         22    1    1    2    0    0  0.40131458991E+01  0.15600264736E+02  0.20740165699E+02  0.26260770611E+02  0.00000000000E+00 0. -1.
         22    1    1    2    0    0 -0.69078742131E+01 -0.33922662940E+02 -0.15245636099E+03  0.15633748045E+03  0.00000000000E+00 0.  1.
</event>
<event>
 6    1  0.2406404E-005  0.1375283E+03  0.7818608E-02  0.1217539E+00
          2   -1    0    0  502    0  0.00000000000E+00  0.00000000000E+00  0.74749088672E+03  0.74749088672E+03  0.00000000000E+00 0. -1.
          1   -1    0    0  501    0 -0.00000000000E+00 -0.00000000000E+00 -0.48764940834E+02  0.48764940834E+02  0.00000000000E+00 0.  1.
          2    1    1    2  501    0 -0.64194345528E+02 -0.72765031559E+02  0.41228056701E+03  0.42354566431E+03  0.00000000000E+00 0. -1.
          1    1    1    2  502    0  0.61749791013E+02  0.81850684260E+02  0.72143331371E+02  0.12536838304E+03  0.00000000000E+00 0.  1.
         22    1    1    2    0    0  0.16880496723E+02  0.24750342949E+02  0.54385403801E-01  0.29958865190E+02  0.00000000000E+00 0.  1.
         22    1    1    2    0    0 -0.14435942208E+02 -0.33835995649E+02  0.21424766210E+03  0.21738291502E+03  0.00000000000E+00 0. -1.
</event>
<event>
 6    1  0.2406404E-005  0.2758433E+03  0.7818608E-02  0.1101728E+00
          2   -1    0    0  502    0  0.00000000000E+00  0.00000000000E+00  0.60707272298E+03  0.60707272298E+03  0.00000000000E+00 0.  1.
          1   -1    0    0  501    0 -0.00000000000E+00 -0.00000000000E+00 -0.21879283079E+03  0.21879283079E+03  0.00000000000E+00 0. -1.
          2    1    1    2  501    0 -0.68310788278E+02 -0.11374377166E+03  0.13616153369E+03  0.19011568227E+03  0.00000000000E+00 0.  1.
          1    1    1    2  502    0  0.10979227957E+03  0.20885688067E+03 -0.93838792325E+02  0.25393160536E+03  0.00000000000E+00 0. -1.
         22    1    1    2    0    0 -0.41507635167E+02 -0.10915400715E+03  0.34850301224E+03  0.36754840579E+03  0.00000000000E+00 0. -1.
         22    1    1    2    0    0  0.26143874099E-01  0.14040898142E+02 -0.25458614203E+01  0.14269860353E+02  0.00000000000E+00 0. -1.
</event>
<event>
 6    1  0.2406404E-005  0.1206298E+03  0.7818608E-02  0.1246803E+00
          2   -1    0    0  502    0  0.00000000000E+00  0.00000000000E+00  0.36306025273E+03  0.36306025273E+03  0.00000000000E+00 0.  1.
          1   -1    0    0  501    0 -0.00000000000E+00 -0.00000000000E+00 -0.19764016408E+03  0.19764016408E+03  0.00000000000E+00 0.  1.
          2    1    1    2  501    0 -0.95145277229E+02 -0.31309719473E+02  0.18146140192E+03  0.20727074733E+03  0.00000000000E+00 0.  1.
          1    1    1    2  502    0  0.10617814629E+03 -0.81595775788E+02 -0.96652243207E+02  0.16514637596E+03  0.00000000000E+00 0.  1.
         22    1    1    2    0    0 -0.17659018834E+02  0.34729732795E+01  0.76483758433E+02  0.78572691144E+02  0.00000000000E+00 0.  1.
         22    1    1    2    0    0  0.66261497682E+01  0.10943252198E+03  0.41271715036E+01  0.10971060237E+03  0.00000000000E+00 0.  1.
</event>
<event>
 6    1  0.2406404E-005  0.8825107E+02  0.7818608E-02  0.1307873E+00
          2   -1    0    0  502    0  0.00000000000E+00  0.00000000000E+00  0.10781924225E+03  0.10781924225E+03  0.00000000000E+00 0. -1.
          1   -1    0    0  501    0 -0.00000000000E+00 -0.00000000000E+00 -0.97076337190E+02  0.97076337190E+02  0.00000000000E+00 0. -1.
          2    1    1    2  501    0  0.22937781613E+02 -0.77992075963E+01 -0.19159728342E+01  0.24303094789E+02  0.00000000000E+00 0. -1.
          1    1    1    2  502    0 -0.45437869404E+02  0.58835879782E+01 -0.18009960950E+02  0.49229821012E+02  0.00000000000E+00 0. -1.
         22    1    1    2    0    0 -0.16940229833E+02  0.38007378300E+02 -0.29399030907E+02  0.50949339645E+02  0.00000000000E+00 0. -1.
         22    1    1    2    0    0  0.39440317625E+02 -0.36091758682E+02  0.60067869747E+02  0.80413323989E+02  0.00000000000E+00 0. -1.
</event>
<event>
 6    1  0.2406404E-005  0.6668540E+02  0.7818608E-02  0.1374097E+00
          2   -1    0    0  502    0  0.00000000000E+00  0.00000000000E+00  0.27232006087E+03  0.27232006087E+03  0.00000000000E+00 0.  1.
          1   -1    0    0  501    0 -0.00000000000E+00 -0.00000000000E+00 -0.22953267129E+03  0.22953267129E+03  0.00000000000E+00 0.  1.
          2    1    1    2  501    0 -0.50176820137E+02 -0.14475164353E+02  0.23195535291E+03  0.23776149690E+03  0.00000000000E+00 0.  1.
          1    1    1    2  502    0  0.41267098396E+02 -0.27124350221E+01 -0.11045197372E+03  0.11794053252E+03  0.00000000000E+00 0.  1.
         22    1    1    2    0    0  0.19076109330E+02  0.12771688128E+02 -0.11030757757E+03  0.11267109494E+03  0.00000000000E+00 0. -1.
         22    1    1    2    0    0 -0.10166387590E+02  0.44159112467E+01  0.31591587954E+02  0.33479607797E+02  0.00000000000E+00 0.  1.
</event>
<event>
 6    1  0.2406404E-005  0.1118824E+03  0.7818608E-02  0.1283419E+00
          2   -1    0    0  502    0  0.00000000000E+00  0.00000000000E+00  0.80904857024E+02  0.80904857024E+02  0.00000000000E+00 0. -1.
          1   -1    0    0  501    0 -0.00000000000E+00 -0.00000000000E+00 -0.15064722255E+03  0.15064722255E+03  0.00000000000E+00 0. -1.
          2    1    1    2  501    0  0.43209996016E+01 -0.23094969962E+02 -0.35107789588E+02  0.42244592137E+02  0.00000000000E+00 0. -1.
          1    1    1    2  502    0 -0.54617506839E+01  0.39546157125E+02 -0.50740672909E+02  0.64562722613E+02  0.00000000000E+00 0. -1.
         22    1    1    2    0    0 -0.18409524344E+02 -0.35062562971E+02  0.60783726512E+02  0.72546228829E+02  0.00000000000E+00 0. -1.
         22    1    1    2    0    0  0.19550275427E+02  0.18611375808E+02 -0.44677629541E+02  0.52198535996E+02  0.00000000000E+00 0. -1.
</event>
<event>
 6    1  0.2406404E-005  0.1601170E+03  0.7818608E-02  0.1207295E+00
          2   -1    0    0  502    0  0.00000000000E+00  0.00000000000E+00  0.60127765257E+03  0.60127765257E+03  0.00000000000E+00 0.  1.
          1   -1    0    0  501    0 -0.00000000000E+00 -0.00000000000E+00 -0.30083778304E+02  0.30083778304E+02  0.00000000000E+00 0.  1.
          2    1    1    2  501    0 -0.28407486522E+02  0.34501159532E+02  0.10388549164E+03  0.11309071877E+03  0.00000000000E+00 0.  1.
          1    1    1    2  502    0  0.61959639037E+02  0.36590264531E+02  0.16475172347E+03  0.17978035130E+03  0.00000000000E+00 0.  1.
         22    1    1    2    0    0  0.27016786727E+02 -0.81691264082E+02  0.13586071844E+03  0.16081512431E+03  0.00000000000E+00 0.  1.
         22    1    1    2    0    0 -0.60568939242E+02  0.10599840020E+02  0.16669594072E+03  0.17767523649E+03  0.00000000000E+00 0.  1.
</event>
<event>
 6    1  0.2406404E-005  0.6729832E+02  0.7818608E-02  0.1392502E+00
          2   -1    0    0  502    0  0.00000000000E+00  0.00000000000E+00  0.45820653755E+03  0.45820653755E+03  0.00000000000E+00 0. -1.
          1   -1    0    0  501    0 -0.00000000000E+00 -0.00000000000E+00 -0.76328860867E+02  0.76328860867E+02  0.00000000000E+00 0. -1.
          2    1    1    2  501    0  0.11746687705E+02  0.64375172169E+02 -0.11986850295E+02  0.66526927208E+02  0.00000000000E+00 0. -1.
          1    1    1    2  502    0  0.69882141017E+02 -0.17450389671E+02  0.22839773386E+03  0.23948602165E+03  0.00000000000E+00 0. -1.
         22    1    1    2    0    0 -0.36603375897E+02 -0.57680736338E+02  0.16881052448E+03  0.18210949356E+03  0.00000000000E+00 0. -1.
         22    1    1    2    0    0 -0.45025452825E+02  0.10755953840E+02 -0.33437313568E+01  0.46412955999E+02  0.00000000000E+00 0.  1.
</event>
<event>
 6    1  0.2406404E-005  0.2865346E+02  0.7818608E-02  0.1675878E+00
          2   -1    0    0  502    0  0.00000000000E+00  0.00000000000E+00  0.65022649024E+03  0.65022649024E+03  0.00000000000E+00 0.  1.
          1   -1    0    0  501    0 -0.00000000000E+00 -0.00000000000E+00 -0.11091165495E+03  0.11091165495E+03  0.00000000000E+00 0.  1.
          2    1    1    2  501    0  0.28591280249E+02  0.16494375315E+02  0.58266684164E+03  0.58360104016E+03  0.00000000000E+00 0.  1.
          1    1    1    2  502    0 -0.26834593586E+02 -0.93638782172E+01 -0.49284193892E+02  0.56892085528E+02  0.00000000000E+00 0.  1.
         22    1    1    2    0    0 -0.15846825378E+02 -0.72007157639E+01  0.61190787547E+02  0.63618273025E+02  0.00000000000E+00 0.  1.
         22    1    1    2    0    0  0.14090138714E+02  0.70218665779E-01 -0.55258600006E+02  0.57026746481E+02  0.00000000000E+00 0.  1.
</event>
<event>
 6    1  0.2406404E-005  0.8109697E+02  0.7818608E-02  0.1450331E+00
          2   -1    0    0  502    0  0.00000000000E+00  0.00000000000E+00  0.20296145016E+03  0.20296145016E+03  0.00000000000E+00 0. -1.
          1   -1    0    0  501    0 -0.00000000000E+00 -0.00000000000E+00 -0.15443871273E+03  0.15443871273E+03  0.00000000000E+00 0.  1.
          2    1    1    2  501    0  0.22230332033E+02 -0.21910716197E+02  0.75978494009E+02  0.82140116255E+02  0.00000000000E+00 0. -1.
          1    1    1    2  502    0 -0.41110427837E+02  0.59001682951E+02 -0.10115621038E+03  0.12411222650E+03  0.00000000000E+00 0.  1.
         22    1    1    2    0    0  0.27778976835E+01  0.10524788207E+02 -0.32164222067E+02  0.33956222751E+02  0.00000000000E+00 0.  1.
         22    1    1    2    0    0  0.16102198120E+02 -0.47615754961E+02  0.10586467586E+03  0.11719159740E+03  0.00000000000E+00 0.  1.
</event>
<event>
 6    1  0.2406404E-005  0.3657323E+03  0.7818608E-02  0.1104261E+00
          2   -1    0    0  502    0  0.00000000000E+00  0.00000000000E+00  0.12406590110E+03  0.12406590110E+03  0.00000000000E+00 0.  1.
          1   -1    0    0  501    0 -0.00000000000E+00 -0.00000000000E+00 -0.14084685600E+04  0.14084685600E+04  0.00000000000E+00 0.  1.
          2    1    1    2  501    0  0.37786834667E+02 -0.31559327703E+03 -0.30289318684E+03  0.43905722180E+03  0.00000000000E+00 0.  1.
          1    1    1    2  502    0  0.88717230950E+02  0.28925885238E+03 -0.62753246319E+03  0.69666234512E+03  0.00000000000E+00 0.  1.
         22    1    1    2    0    0 -0.55146410747E+02 -0.44557487874E+02 -0.91698424636E+02  0.11590986768E+03  0.00000000000E+00 0. -1.
         22    1    1    2    0    0 -0.71357654871E+02  0.70891912526E+02 -0.26227858423E+03  0.28090502650E+03  0.00000000000E+00 0.  1.
</event>
<event>
 6    1  0.2406404E-005  0.1209141E+03  0.7818608E-02  0.1256804E+00
          2   -1    0    0  502    0  0.00000000000E+00  0.00000000000E+00  0.16348807970E+03  0.16348807970E+03  0.00000000000E+00 0.  1.
          1   -1    0    0  501    0 -0.00000000000E+00 -0.00000000000E+00 -0.33378700227E+03  0.33378700227E+03  0.00000000000E+00 0.  1.
          2    1    1    2  501    0  0.58443195665E+02  0.42870426125E+02  0.12433246317E+03  0.14391678830E+03  0.00000000000E+00 0.  1.
          1    1    1    2  502    0 -0.47137210788E+02  0.20576820974E+02 -0.78940300803E+02  0.94217266428E+02  0.00000000000E+00 0.  1.
         22    1    1    2    0    0  0.12408644574E+02 -0.90656980761E+01  0.14680550078E+02  0.21252761993E+02  0.00000000000E+00 0.  1.
         22    1    1    2    0    0 -0.23714629451E+02 -0.54381549022E+02 -0.23037163502E+03  0.23788826525E+03  0.00000000000E+00 0.  1.
</event>
<event>
 6    1  0.2406404E-005  0.9731143E+02  0.7818608E-02  0.1314900E+00
          2   -1    0    0  502    0  0.00000000000E+00  0.00000000000E+00  0.77504566875E+03  0.77504566875E+03  0.00000000000E+00 0.  1.
          1   -1    0    0  501    0 -0.00000000000E+00 -0.00000000000E+00 -0.50376647600E+02  0.50376647600E+02  0.00000000000E+00 0.  1.
          2    1    1    2  501    0 -0.71544853383E+02 -0.23295569615E+02  0.55974914888E+03  0.56478355082E+03  0.00000000000E+00 0.  1.
          1    1    1    2  502    0  0.59733010548E+02 -0.13168347341E+02  0.21563131498E+02  0.64856815840E+02  0.00000000000E+00 0.  1.
         22    1    1    2    0    0  0.32837818664E+02 -0.16724657993E+02 -0.46171097463E+01  0.37139658345E+02  0.00000000000E+00 0.  1.
         22    1    1    2    0    0 -0.21025975829E+02  0.53188574949E+02  0.14797385052E+03  0.15864229135E+03  0.00000000000E+00 0.  1.
</event>
<event>
 6    1  0.2406404E-005  0.5320736E+02  0.7818608E-02  0.1429020E+00
          2   -1    0    0  502    0  0.00000000000E+00  0.00000000000E+00  0.20003557126E+03  0.20003557126E+03  0.00000000000E+00 0.  1.
          1   -1    0    0  501    0 -0.00000000000E+00 -0.00000000000E+00 -0.83933616098E+02  0.83933616098E+02  0.00000000000E+00 0. -1.
          2    1    1    2  501    0 -0.20051721555E+02  0.11758790035E+02  0.63925698755E+02  0.68020847111E+02  0.00000000000E+00 0.  1.
          1    1    1    2  502    0  0.29009734797E+02 -0.23461758202E+02 -0.44632821515E+02  0.58173082842E+02  0.00000000000E+00 0. -1.
         22    1    1    2    0    0 -0.23785198180E+02  0.15773481070E+02  0.12361812286E+03  0.12686992810E+03  0.00000000000E+00 0. -1.
         22    1    1    2    0    0  0.14827184938E+02 -0.40705129030E+01 -0.26809044940E+02  0.30905329299E+02  0.00000000000E+00 0. -1.
</event>
<event>
 6    1  0.2406404E-005  0.5204819E+02  0.7818608E-02  0.1435718E+00
          2   -1    0    0  502    0  0.00000000000E+00  0.00000000000E+00  0.26122156380E+03  0.26122156380E+03  0.00000000000E+00 0. -1.
          1   -1    0    0  501    0 -0.00000000000E+00 -0.00000000000E+00 -0.63560615898E+02  0.63560615898E+02  0.00000000000E+00 0. -1.
          2    1    1    2  501    0  0.22791625658E+02  0.27369296377E+01  0.13675450334E+03  0.13866774379E+03  0.00000000000E+00 0. -1.
          1    1    1    2  502    0 -0.27697491272E+02  0.35710182659E+00 -0.20692045751E+02  0.34575125478E+02  0.00000000000E+00 0. -1.
         22    1    1    2    0    0 -0.21926143923E+02  0.51597791183E+01 -0.29405034625E+02  0.37040993091E+02  0.00000000000E+00 0. -1.
         22    1    1    2    0    0  0.26832009538E+02 -0.82538105826E+01  0.11100352493E+03  0.11449831733E+03  0.00000000000E+00 0. -1.
</event>
<event>
 6    1  0.2406404E-005  0.1736752E+03  0.7818608E-02  0.1311678E+00
          2   -1    0    0  502    0  0.00000000000E+00  0.00000000000E+00  0.10202917658E+04  0.10202917658E+04  0.00000000000E+00 0.  1.
          1   -1    0    0  501    0 -0.00000000000E+00 -0.00000000000E+00 -0.79359473737E+02  0.79359473737E+02  0.00000000000E+00 0. -1.
          2    1    1    2  501    0  0.71105144909E+01 -0.11398138442E+03  0.64007776690E+03  0.65018602191E+03  0.00000000000E+00 0.  1.
          1    1    1    2  502    0 -0.38755313054E+02  0.16568516632E+03  0.84035929159E+02  0.18977772793E+03  0.00000000000E+00 0. -1.
         22    1    1    2    0    0  0.21136866443E+02 -0.53517167911E+02  0.23317091002E+03  0.24016562549E+03  0.00000000000E+00 0.  1.
         22    1    1    2    0    0  0.10507932120E+02  0.18133860098E+01 -0.16352314051E+02  0.19521864181E+02  0.00000000000E+00 0. -1.
</event>
<event>
 6    1  0.2406404E-005  0.3151771E+03  0.7818608E-02  0.1124319E+00
          2   -1    0    0  502    0  0.00000000000E+00  0.00000000000E+00  0.10190540575E+03  0.10190540575E+03  0.00000000000E+00 0. -1.
          1   -1    0    0  501    0 -0.00000000000E+00 -0.00000000000E+00 -0.41347008444E+03  0.41347008444E+03  0.00000000000E+00 0. -1.
          2    1    1    2  501    0 -0.57391387050E+02  0.38175268277E+02 -0.57242525044E+02  0.89598153379E+02  0.00000000000E+00 0. -1.
          1    1    1    2  502    0 -0.72489556937E+02 -0.33040612563E+02  0.32110318030E+02  0.85892319024E+02  0.00000000000E+00 0. -1.
         22    1    1    2    0    0  0.13989794548E+03 -0.24902626245E+02 -0.28403279781E+03  0.31759440514E+03  0.00000000000E+00 0. -1.
         22    1    1    2    0    0 -0.10017001489E+02  0.19767970531E+02 -0.23996738649E+01  0.22290612652E+02  0.00000000000E+00 0.  1.
</event>
<event>
 6    1  0.2406404E-005  0.5013371E+02  0.7818608E-02  0.1445109E+00
          2   -1    0    0  502    0  0.00000000000E+00  0.00000000000E+00  0.16420266229E+03  0.16420266229E+03  0.00000000000E+00 0. -1.
          1   -1    0    0  501    0 -0.00000000000E+00 -0.00000000000E+00 -0.86234614991E+02  0.86234614991E+02  0.00000000000E+00 0. -1.
          2    1    1    2  501    0 -0.24142588972E+02 -0.14453946707E+02  0.67684992181E+02  0.73301018712E+02  0.00000000000E+00 0. -1.
          1    1    1    2  502    0  0.25621694414E+02  0.84799092008E+01 -0.35379313751E+02  0.44498044071E+02  0.00000000000E+00 0. -1.
         22    1    1    2    0    0 -0.18376888460E+02 -0.87660102055E+01  0.84974991829E+02  0.87380216300E+02  0.00000000000E+00 0. -1.
         22    1    1    2    0    0  0.16897783019E+02  0.14740047711E+02 -0.39312622957E+02  0.45257998201E+02  0.00000000000E+00 0.  1.
</event>
<event>
 6    1  0.2406404E-005  0.3290450E+02  0.7818608E-02  0.1588297E+00
          2   -1    0    0  502    0  0.00000000000E+00  0.00000000000E+00  0.11564995578E+03  0.11564995578E+03  0.00000000000E+00 0.  1.
          1   -1    0    0  501    0 -0.00000000000E+00 -0.00000000000E+00 -0.34798350552E+03  0.34798350552E+03  0.00000000000E+00 0.  1.
          2    1    1    2  501    0 -0.12768128270E+02 -0.16394304207E+02  0.59811951153E+02  0.63318779289E+02  0.00000000000E+00 0.  1.
          1    1    1    2  502    0  0.33162639317E+02  0.89632256583E+01 -0.27330671662E+03  0.27545718616E+03  0.00000000000E+00 0.  1.
         22    1    1    2    0    0 -0.28964691168E+01 -0.11263316593E+02  0.50039731664E+02  0.51373403420E+02  0.00000000000E+00 0.  1.
         22    1    1    2    0    0 -0.17498041930E+02  0.18694395141E+02 -0.68878515946E+02  0.73484092428E+02  0.00000000000E+00 0.  1.
</event>
<event>
 6    1  0.2406404E-005  0.1955043E+03  0.7818608E-02  0.1170296E+00
          2   -1    0    0  502    0  0.00000000000E+00  0.00000000000E+00  0.75554241364E+03  0.75554241364E+03  0.00000000000E+00 0. -1.
          1   -1    0    0  501    0 -0.00000000000E+00 -0.00000000000E+00 -0.41053220800E+02  0.41053220800E+02  0.00000000000E+00 0. -1.
          2    1    1    2  501    0  0.90440770663E+01 -0.10976886303E+03  0.33899568946E+03  0.35643944239E+03  0.00000000000E+00 0. -1.
          1    1    1    2  502    0 -0.34994032188E+02  0.11460737187E+02  0.18360318718E+03  0.18725934190E+03  0.00000000000E+00 0. -1.
         22    1    1    2    0    0  0.78916053559E+01 -0.19258307843E+02  0.10121022925E+03  0.10332797473E+03  0.00000000000E+00 0.  1.
         22    1    1    2    0    0  0.18058349765E+02  0.11756643368E+03  0.90680086943E+02  0.14956887542E+03  0.00000000000E+00 0. -1.
</event>
<event>
 6    1  0.2406404E-005  0.7876652E+02  0.7818608E-02  0.1420287E+00
          2   -1    0    0  502    0  0.00000000000E+00  0.00000000000E+00  0.75345879513E+02  0.75345879513E+02  0.00000000000E+00 0. -1.
          1   -1    0    0  501    0 -0.00000000000E+00 -0.00000000000E+00 -0.26322936954E+03  0.26322936954E+03  0.00000000000E+00 0. -1.
          2    1    1    2  501    0 -0.31047958678E+02 -0.49819746355E+00  0.16088616664E+02  0.34972382318E+02  0.00000000000E+00 0. -1.
          1    1    1    2  502    0 -0.55300953757E+02  0.40013120493E+02 -0.84318001503E+02  0.10848396506E+03  0.00000000000E+00 0. -1.
         22    1    1    2    0    0 -0.60562685267E+01 -0.17661517741E+02  0.19278437503E+02  0.26837767231E+02  0.00000000000E+00 0. -1.
         22    1    1    2    0    0  0.92405180962E+02 -0.21853405288E+02 -0.13893254269E+03  0.16828113445E+03  0.00000000000E+00 0. -1.
</event>
<event>
 6    1  0.2406404E-005  0.1218472E+03  0.7818608E-02  0.1242353E+00
          2   -1    0    0  502    0  0.00000000000E+00  0.00000000000E+00  0.55313456200E+03  0.55313456200E+03  0.00000000000E+00 0. -1.
          1   -1    0    0  501    0 -0.00000000000E+00 -0.00000000000E+00 -0.26942414765E+02  0.26942414765E+02  0.00000000000E+00 0.  1.
          2    1    1    2  501    0 -0.52822572358E+02  0.86664766297E+01  0.17941006448E+03  0.18722527394E+03  0.00000000000E+00 0. -1.
          1    1    1    2  502    0  0.62075591627E+02  0.92574383052E+00  0.10162518089E+03  0.11908783930E+03  0.00000000000E+00 0.  1.
         22    1    1    2    0    0  0.42698890125E+02 -0.41761764866E+02  0.10363984592E+03  0.11961796640E+03  0.00000000000E+00 0. -1.
         22    1    1    2    0    0 -0.51951909394E+02  0.32169544406E+02  0.14151705595E+03  0.15414589713E+03  0.00000000000E+00 0.  1.
</event>
<event>
 6    1  0.2406404E-005  0.4699570E+02  0.7818608E-02  0.1495306E+00
          2   -1    0    0  502    0  0.00000000000E+00  0.00000000000E+00  0.29613411215E+03  0.29613411215E+03  0.00000000000E+00 0. -1.
          1   -1    0    0  501    0 -0.00000000000E+00 -0.00000000000E+00 -0.61095832045E+02  0.61095832045E+02  0.00000000000E+00 0. -1.
          2    1    1    2  501    0 -0.21187608746E+02 -0.26054709090E+02  0.57382503392E+02  0.66486948536E+02  0.00000000000E+00 0. -1.
          1    1    1    2  502    0  0.76536789397E+02 -0.21061051329E+02  0.94650160840E+02  0.12353178118E+03  0.00000000000E+00 0. -1.
         22    1    1    2    0    0 -0.26270639749E+02  0.13282671554E+02  0.11080355573E+03  0.11464730192E+03  0.00000000000E+00 0. -1.
         22    1    1    2    0    0 -0.29078540902E+02  0.33833088865E+02 -0.27797939854E+02  0.52563912557E+02  0.00000000000E+00 0. -1.
</event>
<event>
 6    1  0.2406404E-005  0.1350122E+03  0.7818608E-02  0.1333011E+00
          2   -1    0    0  502    0  0.00000000000E+00  0.00000000000E+00  0.59116555743E+03  0.59116555743E+03  0.00000000000E+00 0.  1.
          1   -1    0    0  501    0 -0.00000000000E+00 -0.00000000000E+00 -0.43865442452E+03  0.43865442452E+03  0.00000000000E+00 0. -1.
          2    1    1    2  501    0 -0.37394885821E+02 -0.87102161646E+02  0.37768521038E+03  0.38939861606E+03  0.00000000000E+00 0.  1.
          1    1    1    2  502    0  0.60470435497E+02  0.98836727218E+02 -0.40391015260E+03  0.42020088481E+03  0.00000000000E+00 0. -1.
         22    1    1    2    0    0 -0.31254090155E+02 -0.24930908775E+02  0.19422091682E+03  0.19829304803E+03  0.00000000000E+00 0.  1.
         22    1    1    2    0    0  0.81785404800E+01  0.13196343204E+02 -0.15484841695E+02  0.21927433061E+02  0.00000000000E+00 0. -1.
</event>
<event>
 6    1  0.2406404E-005  0.1122394E+03  0.7818608E-02  0.1282051E+00
          2   -1    0    0  502    0  0.00000000000E+00  0.00000000000E+00  0.44605117190E+03  0.44605117190E+03  0.00000000000E+00 0. -1.
          1   -1    0    0  501    0 -0.00000000000E+00 -0.00000000000E+00 -0.19919057878E+02  0.19919057878E+02  0.00000000000E+00 0. -1.
          2    1    1    2  501    0 -0.22920677597E+02 -0.62288493049E+01  0.15530618899E+02  0.28378797517E+02  0.00000000000E+00 0. -1.
          1    1    1    2  502    0 -0.18846536399E+01 -0.20304384935E+02  0.91327854895E+02  0.93576690723E+02  0.00000000000E+00 0. -1.
         22    1    1    2    0    0  0.34561251641E+02  0.72394434469E+02  0.18019500136E+03  0.19724520975E+03  0.00000000000E+00 0. -1.
         22    1    1    2    0    0 -0.97559204040E+01 -0.45861200228E+02  0.13907863887E+03  0.14676953178E+03  0.00000000000E+00 0. -1.
</event>
<event>
 6    1  0.2406404E-005  0.7176737E+02  0.7818608E-02  0.1363309E+00
          2   -1    0    0  502    0  0.00000000000E+00  0.00000000000E+00  0.56158665342E+03  0.56158665342E+03  0.00000000000E+00 0. -1.
          1   -1    0    0  501    0 -0.00000000000E+00 -0.00000000000E+00 -0.80103974268E+02  0.80103974268E+02  0.00000000000E+00 0. -1.
          2    1    1    2  501    0 -0.99766624221E+01 -0.18330622340E+02  0.35969481932E+03  0.36029974820E+03  0.00000000000E+00 0. -1.
          1    1    1    2  502    0  0.23267387790E+02  0.37539089436E+02 -0.51707294235E+02  0.68001462097E+02  0.00000000000E+00 0. -1.
         22    1    1    2    0    0  0.25039156601E+01  0.16806083631E+02 -0.13874927127E+02  0.21936901408E+02  0.00000000000E+00 0. -1.
         22    1    1    2    0    0 -0.15794641029E+02 -0.36014550726E+02  0.18737008119E+03  0.19145251598E+03  0.00000000000E+00 0. -1.
</event>
<event>
 6    1  0.2406404E-005  0.4424064E+02  0.7818608E-02  0.1524588E+00
          2   -1    0    0  502    0  0.00000000000E+00  0.00000000000E+00  0.50122558417E+03  0.50122558417E+03  0.00000000000E+00 0. -1.
          1   -1    0    0  501    0 -0.00000000000E+00 -0.00000000000E+00 -0.17305035618E+03  0.17305035618E+03  0.00000000000E+00 0. -1.
          2    1    1    2  501    0  0.49749793689E+02  0.70822549620E+00  0.44341760116E+03  0.44620030544E+03  0.00000000000E+00 0. -1.
          1    1    1    2  502    0 -0.23350750560E+02 -0.18745153972E+02 -0.93687342149E+02  0.98356272948E+02  0.00000000000E+00 0. -1.
         22    1    1    2    0    0 -0.12699050388E+02 -0.13322446286E+01 -0.72449911449E+02  0.73566503420E+02  0.00000000000E+00 0. -1.
         22    1    1    2    0    0 -0.13699992741E+02  0.19369173104E+02  0.50894880433E+02  0.56152858539E+02  0.00000000000E+00 0.  1.
</event>
<event>
 6    1  0.2406404E-005  0.3681164E+03  0.7818608E-02  0.1056130E+00
          2   -1    0    0  502    0  0.00000000000E+00  0.00000000000E+00  0.24212805972E+03  0.24212805972E+03  0.00000000000E+00 0. -1.
          1   -1    0    0  501    0 -0.00000000000E+00 -0.00000000000E+00 -0.10891271443E+04  0.10891271443E+04  0.00000000000E+00 0. -1.
          2    1    1    2  501    0 -0.15155247366E+03  0.26433668275E+03  0.67245874952E+02  0.31203211665E+03  0.00000000000E+00 0. -1.
          1    1    1    2  502    0  0.12849814340E+03 -0.28259068872E+03 -0.73240741022E+03  0.79548091414E+03  0.00000000000E+00 0. -1.
         22    1    1    2    0    0  0.34377867779E+02 -0.34033727146E+02 -0.15787677572E+03  0.16512179956E+03  0.00000000000E+00 0. -1.
         22    1    1    2    0    0 -0.11323537518E+02  0.52287733114E+02 -0.23960773548E+02  0.58620373635E+02  0.00000000000E+00 0.  1.
</event>
<event>
 6    1  0.2406404E-005  0.2944765E+03  0.7818608E-02  0.1088940E+00
          2   -1    0    0  502    0  0.00000000000E+00  0.00000000000E+00  0.18405852107E+03  0.18405852107E+03  0.00000000000E+00 0.  1.
          1   -1    0    0  501    0 -0.00000000000E+00 -0.00000000000E+00 -0.46231189641E+03  0.46231189641E+03  0.00000000000E+00 0.  1.
          2    1    1    2  501    0 -0.10933430819E+03 -0.16742977961E+03 -0.90801281261E+02  0.21961692723E+03  0.00000000000E+00 0.  1.
          1    1    1    2  502    0  0.16975258613E+03  0.17105080128E+03 -0.11571738817E+03  0.26732906883E+03  0.00000000000E+00 0.  1.
         22    1    1    2    0    0 -0.65907543844E+02 -0.53197687691E+02 -0.69383975453E+02  0.10948942579E+03  0.00000000000E+00 0.  1.
         22    1    1    2    0    0  0.54892659001E+01  0.49576666026E+02 -0.23507304547E+01  0.49934995625E+02  0.00000000000E+00 0.  1.
</event>
<event>
 6    1  0.2406404E-005  0.7243372E+02  0.7818608E-02  0.1352494E+00
          2   -1    0    0  502    0  0.00000000000E+00  0.00000000000E+00  0.21112558794E+03  0.21112558794E+03  0.00000000000E+00 0.  1.
          1   -1    0    0  501    0 -0.00000000000E+00 -0.00000000000E+00 -0.98247714415E+02  0.98247714415E+02  0.00000000000E+00 0. -1.
          2    1    1    2  501    0  0.10121903133E+02 -0.32622003738E+02  0.92568827292E+02  0.98669325715E+02  0.00000000000E+00 0.  1.
          1    1    1    2  502    0 -0.51470533074E+01  0.49729935671E+02 -0.42712398426E+02  0.65756426598E+02  0.00000000000E+00 0. -1.
         22    1    1    2    0    0 -0.13046661743E+01  0.20378279241E+02 -0.34675520845E+02  0.40241373790E+02  0.00000000000E+00 0. -1.
         22    1    1    2    0    0 -0.36701836511E+01 -0.37486211175E+02  0.97696965505E+02  0.10470617625E+03  0.00000000000E+00 0.  1.
</event>
<event>
 6    1  0.2406404E-005  0.1233223E+03  0.7818608E-02  0.1270189E+00
          2   -1    0    0  502    0  0.00000000000E+00  0.00000000000E+00  0.25741937822E+03  0.25741937822E+03  0.00000000000E+00 0.  1.
          1   -1    0    0  501    0 -0.00000000000E+00 -0.00000000000E+00 -0.42914362986E+02  0.42914362986E+02  0.00000000000E+00 0.  1.
          2    1    1    2  501    0 -0.44749691188E+02  0.56697670362E+01  0.28598745701E+02  0.53409450244E+02  0.00000000000E+00 0.  1.
          1    1    1    2  502    0  0.21322413571E+02  0.12489521241E+02  0.17909592463E+01  0.24775814746E+02  0.00000000000E+00 0.  1.
         22    1    1    2    0    0  0.46284943148E+01  0.39133414794E+02  0.14258509288E+02  0.41906469670E+02  0.00000000000E+00 0. -1.
         22    1    1    2    0    0  0.18798783302E+02 -0.57292703071E+02  0.16985680100E+03  0.18024200655E+03  0.00000000000E+00 0.  1.
</event>
<event>
 6    1  0.2406404E-005  0.1186247E+03  0.7818608E-02  0.1245847E+00
          2   -1    0    0  502    0  0.00000000000E+00  0.00000000000E+00  0.40381565972E+03  0.40381565972E+03  0.00000000000E+00 0.  1.
          1   -1    0    0  501    0 -0.00000000000E+00 -0.00000000000E+00 -0.34927139979E+03  0.34927139979E+03  0.00000000000E+00 0. -1.
          2    1    1    2  501    0 -0.34210650404E+02  0.94782929449E+02  0.33428891586E+03  0.34914646151E+03  0.00000000000E+00 0.  1.
          1    1    1    2  502    0  0.26953038617E+02 -0.83946898467E+02 -0.26622974612E+03  0.28044932835E+03  0.00000000000E+00 0. -1.
         22    1    1    2    0    0 -0.12926773478E+02  0.10567765750E+02  0.50419781631E+02  0.53112461110E+02  0.00000000000E+00 0.  1.
         22    1    1    2    0    0  0.20184385265E+02 -0.21403796733E+02 -0.63934691443E+02  0.70378808551E+02  0.00000000000E+00 0. -1.
</event>
<event>
 6    1  0.2406404E-005  0.5892228E+02  0.7818608E-02  0.1458570E+00
          2   -1    0    0  502    0  0.00000000000E+00  0.00000000000E+00  0.82523583203E+03  0.82523583203E+03  0.00000000000E+00 0. -1.
          1   -1    0    0  501    0 -0.00000000000E+00 -0.00000000000E+00 -0.11593023258E+03  0.11593023258E+03  0.00000000000E+00 0.  1.
          2    1    1    2  501    0 -0.32270139068E+02 -0.33060983766E+01  0.68797421065E+03  0.68873856193E+03  0.00000000000E+00 0. -1.
          1    1    1    2  502    0  0.47314771645E+02  0.23641708240E+01 -0.78977836926E+02  0.92096556098E+02  0.00000000000E+00 0.  1.
         22    1    1    2    0    0 -0.24671299500E+02 -0.49092611633E+01  0.12799369479E+03  0.13044217022E+03  0.00000000000E+00 0. -1.
         22    1    1    2    0    0  0.96266669231E+01  0.58511887160E+01 -0.27684469063E+02  0.29888776367E+02  0.00000000000E+00 0.  1.
</event>
<event>
 6    1  0.2406404E-005  0.1157632E+03  0.7818608E-02  0.1272209E+00
          2   -1    0    0  502    0  0.00000000000E+00  0.00000000000E+00  0.13523494717E+03  0.13523494717E+03  0.00000000000E+00 0.  1.
          1   -1    0    0  501    0 -0.00000000000E+00 -0.00000000000E+00 -0.23143412713E+03  0.23143412713E+03  0.00000000000E+00 0.  1.
          2    1    1    2  501    0 -0.46118289435E+02 -0.64750242527E+02 -0.32827300620E+01  0.79562974079E+02  0.00000000000E+00 0.  1.
          1    1    1    2  502    0  0.95191962700E+02  0.65488182390E+02 -0.95728450649E+02  0.15004715279E+03  0.00000000000E+00 0.  1.
         22    1    1    2    0    0  0.25512059495E+02  0.92707055421E+01 -0.41603131044E+02  0.49675262189E+02  0.00000000000E+00 0. -1.
         22    1    1    2    0    0 -0.74585732760E+02 -0.10008645406E+02  0.44415131798E+02  0.87383685244E+02  0.00000000000E+00 0.  1.
</event>
<event>
 6    1  0.2406404E-005  0.1595688E+03  0.7818608E-02  0.1199978E+00
          2   -1    0    0  502    0  0.00000000000E+00  0.00000000000E+00  0.19187741834E+03  0.19187741834E+03  0.00000000000E+00 0.  1.
          1   -1    0    0  501    0 -0.00000000000E+00 -0.00000000000E+00 -0.55930002123E+03  0.55930002123E+03  0.00000000000E+00 0. -1.
          2    1    1    2  501    0  0.11658476741E+01  0.44402598202E+02 -0.90473985952E+01  0.45329960834E+02  0.00000000000E+00 0.  1.
          1    1    1    2  502    0 -0.42564957014E+02 -0.96857111524E+02 -0.49510198561E+03  0.50627961817E+03  0.00000000000E+00 0. -1.
         22    1    1    2    0    0  0.31735047452E+02  0.62259634567E+02  0.15883251482E+03  0.17352562663E+03  0.00000000000E+00 0.  1.
         22    1    1    2    0    0  0.96640618883E+01 -0.98051212450E+01 -0.22105733507E+02  0.26042233942E+02  0.00000000000E+00 0. -1.
</event>
<event>
 6    1  0.2406404E-005  0.2964209E+03  0.7818608E-02  0.1088548E+00
          2   -1    0    0  502    0  0.00000000000E+00  0.00000000000E+00  0.92568064614E+03  0.92568064614E+03  0.00000000000E+00 0. -1.
          1   -1    0    0  501    0 -0.00000000000E+00 -0.00000000000E+00 -0.13261551555E+03  0.13261551555E+03  0.00000000000E+00 0. -1.
          2    1    1    2  501    0  0.24208555279E+03 -0.50828331618E+01  0.92374494179E+02  0.25916075559E+03  0.00000000000E+00 0. -1.
          1    1    1    2  502    0 -0.19463788540E+03  0.17150960455E+02  0.59279183612E+03  0.62416361865E+03  0.00000000000E+00 0. -1.
         22    1    1    2    0    0 -0.68192700551E+02 -0.47586173880E+02  0.10471552398E+03  0.13371622682E+03  0.00000000000E+00 0. -1.
         22    1    1    2    0    0  0.20745033155E+02  0.35518046587E+02  0.31832763152E+01  0.41255560619E+02  0.00000000000E+00 0. -1.
</event>
<event>
 6    1  0.2406404E-005  0.7116300E+02  0.7818608E-02  0.1362332E+00
          2   -1    0    0  502    0  0.00000000000E+00  0.00000000000E+00  0.54739306244E+03  0.54739306244E+03  0.00000000000E+00 0.  1.
          1   -1    0    0  501    0 -0.00000000000E+00 -0.00000000000E+00 -0.34751310648E+02  0.34751310648E+02  0.00000000000E+00 0.  1.
          2    1    1    2  501    0  0.55297742659E+01 -0.21677291445E+02  0.31189406264E+03  0.31269536242E+03  0.00000000000E+00 0.  1.
          1    1    1    2  502    0 -0.28468165627E+01  0.38956029706E+02  0.67934906265E+01  0.39646287719E+02  0.00000000000E+00 0.  1.
         22    1    1    2    0    0  0.12896578281E+01  0.23401676135E+02 -0.72153915663E+01  0.24522714749E+02  0.00000000000E+00 0.  1.
         22    1    1    2    0    0 -0.39726155313E+01 -0.40680414396E+02  0.20116959009E+03  0.20528000820E+03  0.00000000000E+00 0. -1.
</event>
<event>
 6    1  0.2406404E-005  0.7277050E+02  0.7818608E-02  0.1374578E+00
          2   -1    0    0  502    0  0.00000000000E+00  0.00000000000E+00  0.28652965636E+03  0.28652965636E+03  0.00000000000E+00 0. -1.
          1   -1    0    0  501    0 -0.00000000000E+00 -0.00000000000E+00 -0.40465471389E+02  0.40465471389E+02  0.00000000000E+00 0.  1.
          2    1    1    2  501    0  0.95925744165E+01 -0.48835566381E+02  0.67799644333E+02  0.84105420749E+02  0.00000000000E+00 0. -1.
          1    1    1    2  502    0 -0.23766943105E+02  0.11762537277E+02  0.79394762636E+01  0.27681404428E+02  0.00000000000E+00 0.  1.
         22    1    1    2    0    0  0.44519398651E+02 -0.20406775973E+02  0.12950416002E+03  0.13845483316E+03  0.00000000000E+00 0. -1.
         22    1    1    2    0    0 -0.30345029962E+02  0.57479805077E+02  0.40820904354E+02  0.76753469416E+02  0.00000000000E+00 0.  1.
</event>
<event>
 6    1  0.2406404E-005  0.5463884E+02  0.7818608E-02  0.1515242E+00
          2   -1    0    0  502    0  0.00000000000E+00  0.00000000000E+00  0.36808608312E+03  0.36808608312E+03  0.00000000000E+00 0. -1.
          1   -1    0    0  501    0 -0.00000000000E+00 -0.00000000000E+00 -0.75590204632E+02  0.75590204632E+02  0.00000000000E+00 0. -1.
          2    1    1    2  501    0  0.11201787184E+02  0.33022973523E+02  0.27212525718E+03  0.27435041901E+03  0.00000000000E+00 0. -1.
          1    1    1    2  502    0 -0.24086209352E+01 -0.39353789913E+02 -0.57308496174E+01  0.39841747861E+02  0.00000000000E+00 0. -1.
         22    1    1    2    0    0 -0.11799741023E+01  0.18400968062E+02  0.75679384386E+02  0.77893242233E+02  0.00000000000E+00 0.  1.
         22    1    1    2    0    0 -0.76131921462E+01 -0.12070151672E+02 -0.49577913463E+02  0.51590878645E+02  0.00000000000E+00 0. -1.
</event>
<event>
 6    1  0.2406404E-005  0.3914440E+02  0.7818608E-02  0.1533574E+00
          2   -1    0    0  502    0  0.00000000000E+00  0.00000000000E+00  0.29320792772E+03  0.29320792772E+03  0.00000000000E+00 0. -1.
          1   -1    0    0  501    0 -0.00000000000E+00 -0.00000000000E+00 -0.29429423909E+03  0.29429423909E+03  0.00000000000E+00 0.  1.
          2    1    1    2  501    0  0.29858822277E+01  0.23395874013E+02  0.23490966925E+03  0.23609073493E+03  0.00000000000E+00 0. -1.
          1    1    1    2  502    0 -0.32784786507E+02 -0.33849448872E+02 -0.21130271197E+03  0.21649356457E+03  0.00000000000E+00 0.  1.
         22    1    1    2    0    0  0.30351613367E+02 -0.19709091441E+01 -0.76139458274E+02  0.81989767795E+02  0.00000000000E+00 0.  1.
         22    1    1    2    0    0 -0.55270908776E+00  0.12424484003E+02  0.51446189629E+02  0.52928099507E+02  0.00000000000E+00 0. -1.
</event>
<event>
 6    1  0.2406404E-005  0.5969907E+02  0.7818608E-02  0.1493681E+00
          2   -1    0    0  502    0  0.00000000000E+00  0.00000000000E+00  0.23385892138E+03  0.23385892138E+03  0.00000000000E+00 0. -1.
          1   -1    0    0  501    0 -0.00000000000E+00 -0.00000000000E+00 -0.94583957037E+03  0.94583957037E+03  0.00000000000E+00 0. -1.
          2    1    1    2  501    0 -0.13549701528E+02  0.44771592184E+02  0.16296224694E+03  0.16954286716E+03  0.00000000000E+00 0. -1.
          1    1    1    2  502    0  0.30654054294E+02 -0.65091655299E+02 -0.87781643527E+03  0.88076006305E+03  0.00000000000E+00 0. -1.
         22    1    1    2    0    0 -0.84903142165E+01  0.11984880553E+02 -0.61850740348E+02  0.63570723442E+02  0.00000000000E+00 0. -1.
         22    1    1    2    0    0 -0.86140385502E+01  0.83351825624E+01  0.64724279696E+02  0.65824838098E+02  0.00000000000E+00 0.  1.
</event>
<event>
 6    1  0.2406404E-005  0.1354664E+03  0.7818608E-02  0.1237684E+00
          2   -1    0    0  502    0  0.00000000000E+00  0.00000000000E+00  0.26060331223E+03  0.26060331223E+03  0.00000000000E+00 0.  1.
          1   -1    0    0  501    0 -0.00000000000E+00 -0.00000000000E+00 -0.70403675725E+02  0.70403675725E+02  0.00000000000E+00 0.  1.
          2    1    1    2  501    0  0.25268264468E+02  0.33704700038E+02 -0.25330422373E+02  0.49154066887E+02  0.00000000000E+00 0.  1.
          1    1    1    2  502    0  0.68595690064E+01 -0.39504857247E+02  0.93323848533E+02  0.10157277262E+03  0.00000000000E+00 0.  1.
         22    1    1    2    0    0 -0.54239476625E+02  0.52108409528E+02  0.45229017683E+02  0.87766002579E+02  0.00000000000E+00 0. -1.
         22    1    1    2    0    0  0.22111643150E+02 -0.46308252319E+02  0.76977192663E+02  0.92514145869E+02  0.00000000000E+00 0.  1.
</event>
<event>
 6    1  0.2406404E-005  0.5816538E+02  0.7818608E-02  0.1406274E+00
          2   -1    0    0  502    0  0.00000000000E+00  0.00000000000E+00  0.28357268121E+03  0.28357268121E+03  0.00000000000E+00 0. -1.
          1   -1    0    0  501    0 -0.00000000000E+00 -0.00000000000E+00 -0.21751883926E+03  0.21751883926E+03  0.00000000000E+00 0. -1.
          2    1    1    2  501    0  0.31677192673E+02 -0.31931825796E+02  0.22217347918E+03  0.22668070250E+03  0.00000000000E+00 0. -1.
          1    1    1    2  502    0 -0.37482103083E+02  0.22970135584E+02 -0.14268468084E+03  0.14930322611E+03  0.00000000000E+00 0. -1.
         22    1    1    2    0    0  0.12333251037E+02 -0.24817969249E+01  0.54486592955E+02  0.55920096647E+02  0.00000000000E+00 0. -1.
         22    1    1    2    0    0 -0.65283406275E+01  0.11443487137E+02 -0.67921549347E+02  0.69187495220E+02  0.00000000000E+00 0. -1.
</event>
<event>
 6    1  0.2406404E-005  0.1986135E+03  0.7818608E-02  0.1229415E+00
          2   -1    0    0  502    0  0.00000000000E+00  0.00000000000E+00  0.23149104447E+03  0.23149104447E+03  0.00000000000E+00 0. -1.
          1   -1    0    0  501    0 -0.00000000000E+00 -0.00000000000E+00 -0.72216269948E+03  0.72216269948E+03  0.00000000000E+00 0.  1.
          2    1    1    2  501    0  0.13537037600E+03  0.14974042256E+03  0.11746886101E+03  0.23355142079E+03  0.00000000000E+00 0. -1.
          1    1    1    2  502    0 -0.45358898230E+02  0.62780767042E+02 -0.32860128761E+03  0.33760577687E+03  0.00000000000E+00 0.  1.
         22    1    1    2    0    0 -0.12363732602E+02 -0.32748775993E+02 -0.13403838192E+03  0.13853386604E+03  0.00000000000E+00 0.  1.
         22    1    1    2    0    0 -0.77647745171E+02 -0.17977241361E+03 -0.14550084650E+03  0.24396268025E+03  0.00000000000E+00 0.  1.
</event>
<event>
 6    1  0.6638449E-005  0.2765939E+03  0.7818608E-02  0.1197874E+00
          2   -1    0    0  502    0  0.00000000000E+00  0.00000000000E+00  0.14210594042E+04  0.14210594042E+04  0.00000000000E+00 0.  1.
          1   -1    0    0  501    0 -0.00000000000E+00 -0.00000000000E+00 -0.67395573220E+03  0.67395573220E+03  0.00000000000E+00 0.  1.
          2    1    1    2  501    0 -0.10466003907E+03 -0.24185638489E+03  0.13138555323E+04  0.13400241021E+04  0.00000000000E+00 0.  1.
          1    1    1    2  502    0  0.90013415588E+02  0.25889946627E+03 -0.56208345837E+03  0.62535522928E+03  0.00000000000E+00 0.  1.
         22    1    1    2    0    0  0.24035443175E+02 -0.79473341769E+01 -0.64029550430E+02  0.68852349106E+02  0.00000000000E+00 0.  1.
         22    1    1    2    0    0 -0.93888196888E+01 -0.90957472003E+01  0.59361148577E+02  0.60783455912E+02  0.00000000000E+00 0. -1.
</event>
<event>
 6    1  0.2406404E-005  0.9182179E+02  0.7818608E-02  0.1371929E+00
          2   -1    0    0  502    0  0.00000000000E+00  0.00000000000E+00  0.31760314858E+03  0.31760314858E+03  0.00000000000E+00 0. -1.
          1   -1    0    0  501    0 -0.00000000000E+00 -0.00000000000E+00 -0.66256760918E+02  0.66256760918E+02  0.00000000000E+00 0.  1.
          2    1    1    2  501    0 -0.69074752595E+02 -0.97075618612E+01  0.12319624245E+03  0.14157285177E+03  0.00000000000E+00 0. -1.
          1    1    1    2  502    0  0.68478272262E+02  0.35393349936E+01  0.28091015991E+01  0.68627193706E+02  0.00000000000E+00 0.  1.
         22    1    1    2    0    0  0.24488002001E+02 -0.26435465525E+01 -0.16438218092E+02  0.29611916426E+02  0.00000000000E+00 0.  1.
         22    1    1    2    0    0 -0.23891521668E+02  0.88117734202E+01  0.14177926170E+03  0.14404794759E+03  0.00000000000E+00 0.  1.
</event>
<event>
 6    1  0.2406404E-005  0.2349083E+03  0.7818608E-02  0.1125383E+00
          2   -1    0    0  502    0  0.00000000000E+00  0.00000000000E+00  0.65483178217E+03  0.65483178217E+03  0.00000000000E+00 0. -1.
          1   -1    0    0  501    0 -0.00000000000E+00 -0.00000000000E+00 -0.11512676482E+03  0.11512676482E+03  0.00000000000E+00 0. -1.
          2    1    1    2  501    0 -0.12077736981E+02 -0.85286299558E+02  0.17563218203E+03  0.19561770878E+03  0.00000000000E+00 0. -1.
          1    1    1    2  502    0 -0.67252259393E+02  0.19405668179E+03  0.52332390275E+02  0.21194230633E+03  0.00000000000E+00 0. -1.
         22    1    1    2    0    0  0.79812414362E+02 -0.12552922588E+03  0.31198265639E+03  0.34563099676E+03  0.00000000000E+00 0. -1.
         22    1    1    2    0    0 -0.48241798789E+00  0.16758843649E+02 -0.24221134246E+00  0.16767535117E+02  0.00000000000E+00 0. -1.
</event>
<event>
 6    1  0.2406404E-005  0.1172264E+03  0.7818608E-02  0.1248631E+00
          2   -1    0    0  502    0  0.00000000000E+00  0.00000000000E+00  0.26096201536E+03  0.26096201536E+03  0.00000000000E+00 0. -1.
          1   -1    0    0  501    0 -0.00000000000E+00 -0.00000000000E+00 -0.43957898687E+03  0.43957898687E+03  0.00000000000E+00 0.  1.
          2    1    1    2  501    0  0.51079332803E+00  0.83888687691E+02  0.16220626217E+03  0.18261556428E+03  0.00000000000E+00 0. -1.
          1    1    1    2  502    0 -0.23256788641E+02 -0.97236815638E+02 -0.37360145688E+03  0.38674788315E+03  0.00000000000E+00 0.  1.
         22    1    1    2    0    0  0.45824561055E+01 -0.14168578908E+02 -0.44625357394E+02  0.47044341368E+02  0.00000000000E+00 0. -1.
         22    1    1    2    0    0  0.18163539207E+02  0.27516706854E+02  0.77403580603E+02  0.84133213435E+02  0.00000000000E+00 0. -1.
</event>
<event>
 6    1  0.2406404E-005  0.1145785E+03  0.7818608E-02  0.1299027E+00
          2   -1    0    0  502    0  0.00000000000E+00  0.00000000000E+00  0.30562783874E+02  0.30562783874E+02  0.00000000000E+00 0. -1.
          1   -1    0    0  501    0 -0.00000000000E+00 -0.00000000000E+00 -0.11872266591E+04  0.11872266591E+04  0.00000000000E+00 0.  1.
          2    1    1    2  501    0 -0.57324568661E+02  0.35216034665E+02 -0.52080217733E+02  0.85080105482E+02  0.00000000000E+00 0. -1.
          1    1    1    2  502    0  0.33677630528E+02 -0.73646290517E+02 -0.77029461802E+03  0.77453970683E+03  0.00000000000E+00 0.  1.
         22    1    1    2    0    0 -0.22419488321E+02  0.46680342241E+02 -0.57211642612E+02  0.77167738458E+02  0.00000000000E+00 0.  1.
         22    1    1    2    0    0  0.46066426453E+02 -0.82500863886E+01 -0.27707739686E+03  0.28100189221E+03  0.00000000000E+00 0.  1.
</event>
<event>
 6    1  0.2406404E-005  0.1488513E+03  0.7818608E-02  0.1202241E+00
          2   -1    0    0  502    0  0.00000000000E+00  0.00000000000E+00  0.59960612565E+03  0.59960612565E+03  0.00000000000E+00 0. -1.
          1   -1    0    0  501    0 -0.00000000000E+00 -0.00000000000E+00 -0.44471065963E+02  0.44471065963E+02  0.00000000000E+00 0. -1.
          2    1    1    2  501    0  0.10460794372E+03 -0.51277047566E+02  0.28213749336E+03  0.30524371026E+03  0.00000000000E+00 0. -1.
          1    1    1    2  502    0 -0.55551831393E+02  0.34371569059E+02  0.85122472156E+02  0.10729979495E+03  0.00000000000E+00 0. -1.
         22    1    1    2    0    0 -0.73438017644E+02  0.29941199331E+02  0.56736553525E+02  0.97512329266E+02  0.00000000000E+00 0.  1.
         22    1    1    2    0    0  0.24381905317E+02 -0.13035720824E+02  0.13113854065E+03  0.13402135713E+03  0.00000000000E+00 0. -1.
</event>
<event>
 6    1  0.2406404E-005  0.2503264E+03  0.7818608E-02  0.1115589E+00
          2   -1    0    0  502    0  0.00000000000E+00  0.00000000000E+00  0.73714827672E+03  0.73714827672E+03  0.00000000000E+00 0. -1.
          1   -1    0    0  501    0 -0.00000000000E+00 -0.00000000000E+00 -0.15019408043E+03  0.15019408043E+03  0.00000000000E+00 0. -1.
          2    1    1    2  501    0  0.76985692070E+02 -0.20574630768E+03  0.54847654243E+03  0.59083403550E+03  0.00000000000E+00 0. -1.
          1    1    1    2  502    0 -0.69562707521E+01  0.13453789852E+03  0.68429343936E+01  0.13489129546E+03  0.00000000000E+00 0. -1.
         22    1    1    2    0    0  0.12676503737E+02 -0.85114710971E+01  0.43530698564E+02  0.46130907261E+02  0.00000000000E+00 0. -1.
         22    1    1    2    0    0 -0.82705925055E+02  0.79719880265E+02 -0.11895979093E+02  0.11548611894E+03  0.00000000000E+00 0. -1.
</event>
<event>
 6    1  0.2406404E-005  0.8441437E+02  0.7818608E-02  0.1317604E+00
          2   -1    0    0  502    0  0.00000000000E+00  0.00000000000E+00  0.62614332011E+02  0.62614332011E+02  0.00000000000E+00 0. -1.
          1   -1    0    0  501    0 -0.00000000000E+00 -0.00000000000E+00 -0.20272908664E+03  0.20272908664E+03  0.00000000000E+00 0. -1.
          2    1    1    2  501    0 -0.32703694662E+02 -0.27471046771E+02  0.10809696212E+02  0.44057230819E+02  0.00000000000E+00 0. -1.
          1    1    1    2  502    0  0.17096532869E+02  0.30842101312E+02 -0.42514777065E+02  0.55236155898E+02  0.00000000000E+00 0. -1.
         22    1    1    2    0    0  0.21630674081E+02  0.37837967987E+02 -0.11581977908E+03  0.12374901660E+03  0.00000000000E+00 0. -1.
         22    1    1    2    0    0 -0.60235122882E+01 -0.41209022528E+02  0.74101053029E+01  0.42301015338E+02  0.00000000000E+00 0.  1.
</event>
<event>
 6    1  0.2406404E-005  0.4695446E+02  0.7818608E-02  0.1462761E+00
          2   -1    0    0  502    0  0.00000000000E+00  0.00000000000E+00  0.16698866313E+03  0.16698866313E+03  0.00000000000E+00 0. -1.
          1   -1    0    0  501    0 -0.00000000000E+00 -0.00000000000E+00 -0.12437538589E+03  0.12437538589E+03  0.00000000000E+00 0.  1.
          2    1    1    2  501    0  0.18943944902E+02 -0.19051491514E+02  0.77304099371E+02  0.81839820118E+02  0.00000000000E+00 0. -1.
          1    1    1    2  502    0 -0.20058240935E+02  0.25321503611E+02 -0.69472310275E+02  0.76615360532E+02  0.00000000000E+00 0.  1.
         22    1    1    2    0    0  0.96223057019E+01 -0.16743368044E+02  0.81770957095E+02  0.84020346136E+02  0.00000000000E+00 0. -1.
         22    1    1    2    0    0 -0.85080096692E+01  0.10473355948E+02 -0.46989468957E+02  0.48888522233E+02  0.00000000000E+00 0. -1.
</event>
<event>
 6    1  0.2406404E-005  0.8653774E+02  0.7818608E-02  0.1315112E+00
          2   -1    0    0  502    0  0.00000000000E+00  0.00000000000E+00  0.91022007370E+02  0.91022007370E+02  0.00000000000E+00 0. -1.
          1   -1    0    0  501    0 -0.00000000000E+00 -0.00000000000E+00 -0.22812230190E+03  0.22812230190E+03  0.00000000000E+00 0.  1.
          2    1    1    2  501    0 -0.13296170215E+02 -0.45571565690E+02  0.25816759299E+02  0.54037586942E+02  0.00000000000E+00 0. -1.
          1    1    1    2  502    0  0.36598564796E+02  0.48000311583E+02 -0.11971920161E+03  0.13407524787E+03  0.00000000000E+00 0.  1.
         22    1    1    2    0    0 -0.36364108100E+02 -0.11503280847E+02  0.34677829720E+02  0.51548285153E+02  0.00000000000E+00 0.  1.
         22    1    1    2    0    0  0.13061713519E+02  0.90745349538E+01 -0.77875681938E+02  0.79483189305E+02  0.00000000000E+00 0. -1.
</event>
<event>
 6    1  0.2406404E-005  0.7242523E+02  0.7818608E-02  0.1357137E+00
          2   -1    0    0  502    0  0.00000000000E+00  0.00000000000E+00  0.62323533210E+02  0.62323533210E+02  0.00000000000E+00 0.  1.
          1   -1    0    0  501    0 -0.00000000000E+00 -0.00000000000E+00 -0.13209662168E+03  0.13209662168E+03  0.00000000000E+00 0.  1.
          2    1    1    2  501    0 -0.28572496963E+02  0.13949978837E+02 -0.82282431890E+01  0.32843469339E+02  0.00000000000E+00 0.  1.
          1    1    1    2  502    0  0.20055772960E+02 -0.65048079074E+01 -0.11047757750E+02  0.23803350736E+02  0.00000000000E+00 0.  1.
         22    1    1    2    0    0  0.35163312799E+02 -0.13212408712E+02 -0.85510393941E+02  0.93397290019E+02  0.00000000000E+00 0. -1.
         22    1    1    2    0    0 -0.26646588796E+02  0.57672377825E+01  0.35013306409E+02  0.44376044797E+02  0.00000000000E+00 0.  1.
</event>
<event>
 6    1  0.2406404E-005  0.1123497E+03  0.7818608E-02  0.1287706E+00
          2   -1    0    0  502    0  0.00000000000E+00  0.00000000000E+00  0.37088392845E+02  0.37088392845E+02  0.00000000000E+00 0.  1.
          1   -1    0    0  501    0 -0.00000000000E+00 -0.00000000000E+00 -0.52820011549E+03  0.52820011549E+03  0.00000000000E+00 0. -1.
          2    1    1    2  501    0  0.20965400878E+02  0.40198713695E+02 -0.10706808019E+02  0.46584550601E+02  0.00000000000E+00 0.  1.
          1    1    1    2  502    0  0.19524956786E+02 -0.12925759694E+02 -0.26080785441E+03  0.26185690008E+03  0.00000000000E+00 0. -1.
         22    1    1    2    0    0  0.24170788203E+02 -0.23668811638E+02 -0.17494081705E+03  0.17818173059E+03  0.00000000000E+00 0. -1.
         22    1    1    2    0    0 -0.64661145867E+02 -0.36041423636E+01 -0.44656243166E+02  0.78665327056E+02  0.00000000000E+00 0. -1.
</event>
<event>
 6    1  0.2406404E-005  0.1249201E+03  0.7818608E-02  0.1311040E+00
          2   -1    0    0  502    0  0.00000000000E+00  0.00000000000E+00  0.42784563447E+02  0.42784563447E+02  0.00000000000E+00 0. -1.
          1   -1    0    0  501    0 -0.00000000000E+00 -0.00000000000E+00 -0.12796636135E+04  0.12796636135E+04  0.00000000000E+00 0. -1.
          2    1    1    2  501    0 -0.15428127971E+03 -0.11629868875E+02 -0.42676249880E+03  0.45394294520E+03  0.00000000000E+00 0. -1.
          1    1    1    2  502    0  0.78238482634E+02  0.11072073315E+03 -0.40151259171E+03  0.42378379183E+03  0.00000000000E+00 0. -1.
         22    1    1    2    0    0  0.91994742320E+02 -0.76187248822E+02 -0.39684981432E+03  0.41443612852E+03  0.00000000000E+00 0. -1.
         22    1    1    2    0    0 -0.15951945243E+02 -0.22903615451E+02 -0.11754145263E+02  0.30285311433E+02  0.00000000000E+00 0. -1.
</event>
<event>
 6    1  0.2406404E-005  0.4020498E+02  0.7818608E-02  0.1507985E+00
          2   -1    0    0  502    0  0.00000000000E+00  0.00000000000E+00  0.23329716414E+03  0.23329716414E+03  0.00000000000E+00 0.  1.
          1   -1    0    0  501    0 -0.00000000000E+00 -0.00000000000E+00 -0.13021784970E+03  0.13021784970E+03  0.00000000000E+00 0.  1.
          2    1    1    2  501    0  0.10779520166E+02 -0.19402036356E+02  0.12454043527E+03  0.12650279478E+03  0.00000000000E+00 0.  1.
          1    1    1    2  502    0 -0.73401609484E+01  0.20577631485E+02 -0.91395018465E+02  0.93970028629E+02  0.00000000000E+00 0.  1.
         22    1    1    2    0    0 -0.69442967876E+01 -0.16612595995E+02  0.10396333575E+03  0.10551102683E+03  0.00000000000E+00 0.  1.
         22    1    1    2    0    0  0.35049375701E+01  0.15437000866E+02 -0.34029438112E+02  0.37531163602E+02  0.00000000000E+00 0.  1.
</event>
<event>
 6    1  0.2406404E-005  0.5692614E+02  0.7818608E-02  0.1448212E+00
          2   -1    0    0  502    0  0.00000000000E+00  0.00000000000E+00  0.15041218653E+03  0.15041218653E+03  0.00000000000E+00 0. -1.
          1   -1    0    0  501    0 -0.00000000000E+00 -0.00000000000E+00 -0.99777537510E+02  0.99777537510E+02  0.00000000000E+00 0.  1.
          2    1    1    2  501    0  0.17601820862E+01 -0.65975710340E+02  0.46891648591E+02  0.80961220985E+02  0.00000000000E+00 0. -1.
          1    1    1    2  502    0 -0.13778909079E+02  0.24681657889E+02 -0.19001022672E+02  0.34059968205E+02  0.00000000000E+00 0.  1.
         22    1    1    2    0    0 -0.11444615592E+02  0.18848035032E+02 -0.50470165224E+02  0.55076902857E+02  0.00000000000E+00 0.  1.
         22    1    1    2    0    0  0.23463342585E+02  0.22446017420E+02  0.73214188328E+02  0.80091631996E+02  0.00000000000E+00 0.  1.
</event>
<event>
 6    1  0.2406404E-005  0.5696674E+02  0.7818608E-02  0.1453423E+00
          2   -1    0    0  502    0  0.00000000000E+00  0.00000000000E+00  0.92185397830E+02  0.92185397830E+02  0.00000000000E+00 0. -1.
          1   -1    0    0  501    0 -0.00000000000E+00 -0.00000000000E+00 -0.80709042871E+03  0.80709042871E+03  0.00000000000E+00 0. -1.
          2    1    1    2  501    0  0.29901098678E+02 -0.22821311844E+02  0.45379923101E+02  0.58942560150E+02  0.00000000000E+00 0. -1.
          1    1    1    2  502    0 -0.55924814262E+02  0.98260189760E+00 -0.69440083895E+03  0.69664989449E+03  0.00000000000E+00 0. -1.
         22    1    1    2    0    0  0.86478167587E+01  0.28736172600E+02 -0.10020449600E+03  0.10460159353E+03  0.00000000000E+00 0.  1.
         22    1    1    2    0    0  0.17375898826E+02 -0.68974626533E+01  0.34320380967E+02  0.39081778373E+02  0.00000000000E+00 0. -1.
</event>
<event>
 6    1  0.2406404E-005  0.1511388E+03  0.7818608E-02  0.1327478E+00
          2   -1    0    0  502    0  0.00000000000E+00  0.00000000000E+00  0.18474657853E+03  0.18474657853E+03  0.00000000000E+00 0. -1.
          1   -1    0    0  501    0 -0.00000000000E+00 -0.00000000000E+00 -0.87297145659E+03  0.87297145659E+03  0.00000000000E+00 0. -1.
          2    1    1    2  501    0  0.95570802416E+02  0.12056326800E+03 -0.19147134834E+02  0.15503513356E+03  0.00000000000E+00 0. -1.
          1    1    1    2  502    0 -0.15070130971E+02  0.18152629911E+02 -0.69689528343E+03  0.69729453094E+03  0.00000000000E+00 0. -1.
         22    1    1    2    0    0 -0.80435819916E+02 -0.12651814744E+03  0.67101662615E+02  0.16425405895E+03  0.00000000000E+00 0. -1.
         22    1    1    2    0    0 -0.64851528986E-01 -0.12197750467E+02 -0.39284122412E+02  0.41134311661E+02  0.00000000000E+00 0. -1.
</event>
<event>
 6    1  0.2406404E-005  0.1412245E+03  0.7818608E-02  0.1212990E+00
          2   -1    0    0  502    0  0.00000000000E+00  0.00000000000E+00  0.77744557675E+02  0.77744557675E+02  0.00000000000E+00 0. -1.
          1   -1    0    0  501    0 -0.00000000000E+00 -0.00000000000E+00 -0.66636659940E+03  0.66636659940E+03  0.00000000000E+00 0. -1.
          2    1    1    2  501    0 -0.70044971384E+02  0.75639023681E+02  0.73828676491E+01  0.10335408388E+03  0.00000000000E+00 0. -1.
          1    1    1    2  502    0  0.78322895892E+02 -0.41188412582E+02 -0.34989946081E+03  0.36091632552E+03  0.00000000000E+00 0. -1.
         22    1    1    2    0    0  0.22702389675E+02 -0.47216389193E+02 -0.24016236674E+03  0.24581039096E+03  0.00000000000E+00 0. -1.
         22    1    1    2    0    0 -0.30980314183E+02  0.12765778094E+02 -0.59430818326E+01  0.34030356726E+02  0.00000000000E+00 0.  1.
</event>
<event>
 6    1  0.2406404E-005  0.5598757E+02  0.7818608E-02  0.1417065E+00
          2   -1    0    0  502    0  0.00000000000E+00  0.00000000000E+00  0.82984053059E+02  0.82984053059E+02  0.00000000000E+00 0.  1.
          1   -1    0    0  501    0 -0.00000000000E+00 -0.00000000000E+00 -0.14558486931E+03  0.14558486931E+03  0.00000000000E+00 0. -1.
          2    1    1    2  501    0 -0.55976626408E+01 -0.28636957865E+02  0.23836321556E+02  0.37677306275E+02  0.00000000000E+00 0.  1.
          1    1    1    2  502    0  0.19695423995E+02  0.18894976238E+02 -0.50161695715E+02  0.57106265596E+02  0.00000000000E+00 0. -1.
         22    1    1    2    0    0 -0.13984744512E+02 -0.17731577244E+02  0.43717615707E+02  0.49205810975E+02  0.00000000000E+00 0.  1.
         22    1    1    2    0    0 -0.11301684257E+00  0.27473558871E+02 -0.79993057804E+02  0.84579539527E+02  0.00000000000E+00 0.  1.
</event>
<event>
 6    1  0.2406404E-005  0.8894104E+02  0.7818608E-02  0.1336587E+00
          2   -1    0    0  502    0  0.00000000000E+00  0.00000000000E+00  0.76743157631E+02  0.76743157631E+02  0.00000000000E+00 0.  1.
          1   -1    0    0  501    0 -0.00000000000E+00 -0.00000000000E+00 -0.11108159958E+03  0.11108159958E+03  0.00000000000E+00 0.  1.
          2    1    1    2  501    0  0.84995467820E+01  0.18783935989E+02  0.12556097477E+02  0.24139886714E+02  0.00000000000E+00 0.  1.
          1    1    1    2  502    0  0.11542084808E+02 -0.21006988985E+02  0.50462139687E+01  0.24494439845E+02  0.00000000000E+00 0.  1.
         22    1    1    2    0    0 -0.36454260782E+02 -0.22293679023E+02 -0.84843952923E+02  0.94996934694E+02  0.00000000000E+00 0.  1.
         22    1    1    2    0    0  0.16412629192E+02  0.24516732019E+02  0.32903199528E+02  0.44193495959E+02  0.00000000000E+00 0.  1.
</event>
<event>
 6    1  0.2406404E-005  0.6350109E+03  0.7818608E-02  0.1031470E+00
          2   -1    0    0  502    0  0.00000000000E+00  0.00000000000E+00  0.13937600578E+03  0.13937600578E+03  0.00000000000E+00 0. -1.
          1   -1    0    0  501    0 -0.00000000000E+00 -0.00000000000E+00 -0.10864994461E+04  0.10864994461E+04  0.00000000000E+00 0. -1.
          2    1    1    2  501    0 -0.91903207923E+01  0.61943769176E+02 -0.87256055049E+03  0.87480478211E+03  0.00000000000E+00 0. -1.
          1    1    1    2  502    0 -0.22338256195E+01 -0.12855832581E+03 -0.14049857371E+03  0.19045230985E+03  0.00000000000E+00 0. -1.
         22    1    1    2    0    0  0.11487775720E+02  0.76737471502E+02  0.99146305664E+02  0.12589915985E+03  0.00000000000E+00 0. -1.
         22    1    1    2    0    0 -0.63629308472E-01 -0.10122914864E+02 -0.33210621815E+02  0.34719200097E+02  0.00000000000E+00 0.  1.
</event>
<event>
 6    1  0.2406404E-005  0.1113695E+03  0.7818608E-02  0.1301185E+00
          2   -1    0    0  502    0  0.00000000000E+00  0.00000000000E+00  0.32633706181E+02  0.32633706181E+02  0.00000000000E+00 0.  1.
          1   -1    0    0  501    0 -0.00000000000E+00 -0.00000000000E+00 -0.85100537852E+03  0.85100537852E+03  0.00000000000E+00 0.  1.
          2    1    1    2  501    0  0.48813931834E+02  0.63328125587E+02 -0.83432680963E+02  0.11556064938E+03  0.00000000000E+00 0.  1.
          1    1    1    2  502    0  0.14565291261E+01 -0.60593556473E+02 -0.44278414891E+03  0.44691330601E+03  0.00000000000E+00 0.  1.
         22    1    1    2    0    0 -0.29605780776E+02 -0.47135832972E+02 -0.25128965018E+03  0.25738060784E+03  0.00000000000E+00 0.  1.
         22    1    1    2    0    0 -0.20664680184E+02  0.44401263858E+02 -0.40865192289E+02  0.63784521477E+02  0.00000000000E+00 0.  1.
</event>
<event>
 6    1  0.2406404E-005  0.1576501E+03  0.7818608E-02  0.1241431E+00
          2   -1    0    0  502    0  0.00000000000E+00  0.00000000000E+00  0.31530860442E+03  0.31530860442E+03  0.00000000000E+00 0. -1.
          1   -1    0    0  501    0 -0.00000000000E+00 -0.00000000000E+00 -0.13669035953E+03  0.13669035953E+03  0.00000000000E+00 0. -1.
          2    1    1    2  501    0  0.61892587815E+02 -0.54565065325E+02  0.12832382231E+03  0.15256160117E+03  0.00000000000E+00 0. -1.
          1    1    1    2  502    0 -0.12010198404E+03 -0.30164322621E+01 -0.37644389661E+02  0.12589950559E+03  0.00000000000E+00 0. -1.
         22    1    1    2    0    0  0.81173838158E+02  0.78939466069E+01  0.86351001203E+02  0.11877710976E+03  0.00000000000E+00 0. -1.
         22    1    1    2    0    0 -0.22964441934E+02  0.49687550980E+02  0.15878110441E+01  0.54760747435E+02  0.00000000000E+00 0. -1.
</event>
<event>
 6    1  0.2406404E-005  0.2375484E+03  0.7818608E-02  0.1125343E+00
          2   -1    0    0  502    0  0.00000000000E+00  0.00000000000E+00  0.32531045235E+03  0.32531045235E+03  0.00000000000E+00 0.  1.
          1   -1    0    0  501    0 -0.00000000000E+00 -0.00000000000E+00 -0.26934475760E+03  0.26934475760E+03  0.00000000000E+00 0.  1.
          2    1    1    2  501    0 -0.12646634723E+03 -0.47704054204E+02  0.76647219038E+02  0.15538407240E+03  0.00000000000E+00 0.  1.
          1    1    1    2  502    0  0.19952437379E+03  0.17797973914E+02 -0.14628054641E+03  0.24804181476E+03  0.00000000000E+00 0.  1.
         22    1    1    2    0    0 -0.85413583309E+02  0.22571524150E+02  0.14335295349E+03  0.16838949846E+03  0.00000000000E+00 0.  1.
         22    1    1    2    0    0  0.12355556745E+02  0.73345561399E+01 -0.17753931369E+02  0.22839824327E+02  0.00000000000E+00 0. -1.
</event>
<event>
 6    1  0.2406404E-005  0.2430371E+03  0.7818608E-02  0.1128981E+00
          2   -1    0    0  502    0  0.00000000000E+00  0.00000000000E+00  0.67860318087E+03  0.67860318087E+03  0.00000000000E+00 0. -1.
          1   -1    0    0  501    0 -0.00000000000E+00 -0.00000000000E+00 -0.16155402406E+03  0.16155402406E+03  0.00000000000E+00 0. -1.
          2    1    1    2  501    0 -0.52082017854E+00  0.78718749939E+02  0.32481278885E+03  0.33421588928E+03  0.00000000000E+00 0. -1.
          1    1    1    2  502    0  0.14310510980E+03 -0.93470667651E+02 -0.68684518382E+02  0.18421020934E+03  0.00000000000E+00 0. -1.
         22    1    1    2    0    0  0.36383105927E+01 -0.12405190572E+02 -0.74394530018E+01  0.14915479143E+02  0.00000000000E+00 0.  1.
         22    1    1    2    0    0 -0.14622260021E+03  0.27157108283E+02  0.26836033934E+03  0.30681562717E+03  0.00000000000E+00 0.  1.
</event>
<event>
 6    1  0.2406404E-005  0.1427857E+03  0.7818608E-02  0.1211599E+00
          2   -1    0    0  502    0  0.00000000000E+00  0.00000000000E+00  0.58328062052E+03  0.58328062052E+03  0.00000000000E+00 0. -1.
          1   -1    0    0  501    0 -0.00000000000E+00 -0.00000000000E+00 -0.36215588318E+02  0.36215588318E+02  0.00000000000E+00 0. -1.
          2    1    1    2  501    0  0.24774782598E+02 -0.96534132096E+02  0.21956030889E+03  0.24112104377E+03  0.00000000000E+00 0. -1.
          1    1    1    2  502    0 -0.78481624126E+01  0.56367406693E+02  0.12746467808E+03  0.13959270163E+03  0.00000000000E+00 0. -1.
         22    1    1    2    0    0 -0.23730534020E+02  0.72696451392E+02  0.67052388613E+02  0.10170513806E+03  0.00000000000E+00 0.  1.
         22    1    1    2    0    0  0.68039138341E+01 -0.32529725989E+02  0.13298765662E+03  0.13707732537E+03  0.00000000000E+00 0.  1.
</event>
<event>
 6    1  0.2406404E-005  0.1578719E+03  0.7818608E-02  0.1208153E+00
          2   -1    0    0  502    0  0.00000000000E+00  0.00000000000E+00  0.93461156858E+03  0.93461156858E+03  0.00000000000E+00 0.  1.
          1   -1    0    0  501    0 -0.00000000000E+00 -0.00000000000E+00 -0.19180444126E+02  0.19180444126E+02  0.00000000000E+00 0.  1.
          2    1    1    2  501    0  0.58919209078E+02  0.46511359115E+02  0.19455017429E+03  0.20852949442E+03  0.00000000000E+00 0.  1.
          1    1    1    2  502    0  0.13465216677E+02 -0.38642554309E+02  0.20519575588E+03  0.20923636705E+03  0.00000000000E+00 0.  1.
         22    1    1    2    0    0 -0.17067212280E+02 -0.57837264058E+02  0.13138624508E+03  0.14456411811E+03  0.00000000000E+00 0.  1.
         22    1    1    2    0    0 -0.55317213475E+02  0.49968459252E+02  0.38429894920E+03  0.39146203313E+03  0.00000000000E+00 0.  1.
</event>
<event>
 6    1  0.2406404E-005  0.5539603E+02  0.7818608E-02  0.1534508E+00
          2   -1    0    0  502    0  0.00000000000E+00  0.00000000000E+00  0.17468694717E+03  0.17468694717E+03  0.00000000000E+00 0. -1.
          1   -1    0    0  501    0 -0.00000000000E+00 -0.00000000000E+00 -0.80883337840E+02  0.80883337840E+02  0.00000000000E+00 0.  1.
          2    1    1    2  501    0 -0.16210424017E+02  0.24021860063E+02  0.58586876385E+02  0.65362448640E+02  0.00000000000E+00 0. -1.
          1    1    1    2  502    0  0.43134041492E+02 -0.34557963036E+02 -0.14458243908E+02  0.57130019793E+02  0.00000000000E+00 0.  1.
         22    1    1    2    0    0 -0.17916062041E+02  0.16125806331E+02  0.89073823423E+02  0.92277694640E+02  0.00000000000E+00 0. -1.
         22    1    1    2    0    0 -0.90075554346E+01 -0.55897033578E+01 -0.39398846573E+02  0.40800121934E+02  0.00000000000E+00 0.  1.
</event>
<event>
 6    1  0.2406404E-005  0.8531402E+02  0.7818608E-02  0.1351706E+00
          2   -1    0    0  502    0  0.00000000000E+00  0.00000000000E+00  0.15152705921E+02  0.15152705921E+02  0.00000000000E+00 0.  1.
          1   -1    0    0  501    0 -0.00000000000E+00 -0.00000000000E+00 -0.92405160127E+03  0.92405160127E+03  0.00000000000E+00 0.  1.
          2    1    1    2  501    0  0.33588465437E+02  0.51924682271E+02 -0.27951558754E+03  0.28627490514E+03  0.00000000000E+00 0.  1.
          1    1    1    2  502    0 -0.29674696013E+02 -0.39974757087E+02 -0.22467261145E+03  0.23012246984E+03  0.00000000000E+00 0.  1.
         22    1    1    2    0    0  0.21992585280E+01 -0.56086904590E+02 -0.33770734870E+03  0.34234022692E+03  0.00000000000E+00 0. -1.
         22    1    1    2    0    0 -0.61130279512E+01  0.44136979406E+02 -0.67003347660E+02  0.80466705285E+02  0.00000000000E+00 0.  1.
</event>
<event>
 6    1  0.2406404E-005  0.1131492E+03  0.7818608E-02  0.1259992E+00
          2   -1    0    0  502    0  0.00000000000E+00  0.00000000000E+00  0.13356902656E+03  0.13356902656E+03  0.00000000000E+00 0.  1.
          1   -1    0    0  501    0 -0.00000000000E+00 -0.00000000000E+00 -0.20168641158E+03  0.20168641158E+03  0.00000000000E+00 0.  1.
          2    1    1    2  501    0 -0.29312665593E+02 -0.57796594966E+02  0.48387406174E+02  0.80876571577E+02  0.00000000000E+00 0.  1.
          1    1    1    2  502    0  0.45064962100E+02  0.50153288997E+02 -0.10282429069E+03  0.12295949725E+03  0.00000000000E+00 0.  1.
         22    1    1    2    0    0 -0.26137223303E+01 -0.35876693617E+02  0.44732117754E+02  0.57401489947E+02  0.00000000000E+00 0.  1.
         22    1    1    2    0    0 -0.13138574177E+02  0.43519999585E+02 -0.58412618254E+02  0.74017879371E+02  0.00000000000E+00 0.  1.
</event>
<event>
 6    1  0.2406404E-005  0.8872931E+02  0.7818608E-02  0.1312166E+00
          2   -1    0    0  502    0  0.00000000000E+00  0.00000000000E+00  0.26839012115E+03  0.26839012115E+03  0.00000000000E+00 0. -1.
          1   -1    0    0  501    0 -0.00000000000E+00 -0.00000000000E+00 -0.26394796148E+02  0.26394796148E+02  0.00000000000E+00 0. -1.
          2    1    1    2  501    0  0.10901648359E+02  0.17440753447E+02  0.19183610570E+02  0.28125375237E+02  0.00000000000E+00 0. -1.
          1    1    1    2  502    0  0.30764468647E+01 -0.20892644274E+02  0.56368360246E+02  0.60194344808E+02  0.00000000000E+00 0. -1.
         22    1    1    2    0    0 -0.42433456244E+02 -0.45322524332E+02  0.62047838796E+02  0.87776213862E+02  0.00000000000E+00 0.  1.
         22    1    1    2    0    0  0.28455361020E+02  0.48774415160E+02  0.10439551539E+03  0.11868898339E+03  0.00000000000E+00 0. -1.
</event>
<event>
 6    1  0.2406404E-005  0.5609252E+02  0.7818608E-02  0.1444001E+00
          2   -1    0    0  502    0  0.00000000000E+00  0.00000000000E+00  0.18705784860E+03  0.18705784860E+03  0.00000000000E+00 0.  1.
          1   -1    0    0  501    0 -0.00000000000E+00 -0.00000000000E+00 -0.39988875291E+03  0.39988875291E+03  0.00000000000E+00 0. -1.
          2    1    1    2  501    0 -0.49161511552E+01  0.21208362790E+02  0.44511925066E+02  0.49550728224E+02  0.00000000000E+00 0.  1.
          1    1    1    2  502    0 -0.19598139852E+02 -0.65844859636E+02 -0.36126049539E+03  0.36773465727E+03  0.00000000000E+00 0. -1.
         22    1    1    2    0    0  0.33298690812E+02  0.14007639364E+02 -0.20288972332E+02  0.41432585831E+02  0.00000000000E+00 0. -1.
         22    1    1    2    0    0 -0.87843998046E+01  0.30628857483E+02  0.12420663835E+03  0.12822863019E+03  0.00000000000E+00 0.  1.
</event>
<event>
 6    1  0.2406404E-005  0.3459632E+02  0.7818608E-02  0.1588951E+00
          2   -1    0    0  502    0  0.00000000000E+00  0.00000000000E+00  0.19946475366E+03  0.19946475366E+03  0.00000000000E+00 0. -1.
          1   -1    0    0  501    0 -0.00000000000E+00 -0.00000000000E+00 -0.28110055196E+03  0.28110055196E+03  0.00000000000E+00 0.  1.
          2    1    1    2  501    0  0.17389398758E+02 -0.16052078638E+02  0.13751700446E+03  0.13953847832E+03  0.00000000000E+00 0. -1.
          1    1    1    2  502    0 -0.38570495006E+02  0.38985895337E+02 -0.20733483350E+03  0.21446518670E+03  0.00000000000E+00 0.  1.
         22    1    1    2    0    0  0.18295177271E+02  0.11076260416E+02  0.50870495385E+02  0.55183370293E+02  0.00000000000E+00 0. -1.
         22    1    1    2    0    0  0.28859189765E+01 -0.34010077114E+02 -0.62688464641E+02  0.71378270312E+02  0.00000000000E+00 0. -1.
</event>
<event>
 6    1  0.2406404E-005  0.1737683E+03  0.7818608E-02  0.1249494E+00
          2   -1    0    0  502    0  0.00000000000E+00  0.00000000000E+00  0.34696636547E+03  0.34696636547E+03  0.00000000000E+00 0. -1.
          1   -1    0    0  501    0 -0.00000000000E+00 -0.00000000000E+00 -0.12288024589E+03  0.12288024589E+03  0.00000000000E+00 0.  1.
          2    1    1    2  501    0  0.20079501904E+02  0.10063080168E+03  0.14885886610E+03  0.18080018435E+03  0.00000000000E+00 0. -1.
          1    1    1    2  502    0 -0.28369788103E+02 -0.14263346958E+03  0.53748518482E+02  0.15504210641E+03  0.00000000000E+00 0.  1.
         22    1    1    2    0    0  0.16223867661E+02  0.75836221976E+02  0.47184916253E+02  0.90778647089E+02  0.00000000000E+00 0.  1.
         22    1    1    2    0    0 -0.79335814617E+01 -0.33833554069E+02 -0.25706181257E+02  0.43225673512E+02  0.00000000000E+00 0.  1.
</event>
<event>
 6    1  0.2406404E-005  0.6038786E+02  0.7818608E-02  0.1406340E+00
          2   -1    0    0  502    0  0.00000000000E+00  0.00000000000E+00  0.81713902014E+02  0.81713902014E+02  0.00000000000E+00 0. -1.
          1   -1    0    0  501    0 -0.00000000000E+00 -0.00000000000E+00 -0.39617441590E+03  0.39617441590E+03  0.00000000000E+00 0. -1.
          2    1    1    2  501    0 -0.91287064541E+02 -0.45869852782E+02 -0.13121621158E+02  0.10300266253E+03  0.00000000000E+00 0. -1.
          1    1    1    2  502    0  0.22808976808E+02  0.66044373632E+02 -0.53858965216E+02  0.88220727982E+02  0.00000000000E+00 0. -1.
         22    1    1    2    0    0  0.25100232440E+02 -0.28788251118E+02 -0.31044668165E+01  0.38320005026E+02  0.00000000000E+00 0. -1.
         22    1    1    2    0    0  0.43377855294E+02  0.86137302685E+01 -0.24437546070E+03  0.24834492238E+03  0.00000000000E+00 0. -1.
</event>
<event>
 6    1  0.2406404E-005  0.3576301E+02  0.7818608E-02  0.1551365E+00
          2   -1    0    0  502    0  0.00000000000E+00  0.00000000000E+00  0.56401777227E+02  0.56401777227E+02  0.00000000000E+00 0.  1.
          1   -1    0    0  501    0 -0.00000000000E+00 -0.00000000000E+00 -0.39476103366E+03  0.39476103366E+03  0.00000000000E+00 0.  1.
          2    1    1    2  501    0 -0.35224639352E+02 -0.67198649740E+01 -0.87305373318E+01  0.36907371687E+02  0.00000000000E+00 0.  1.
          1    1    1    2  502    0  0.31000257608E+02  0.12417620925E+02 -0.27453061792E+03  0.27655428664E+03  0.00000000000E+00 0.  1.
         22    1    1    2    0    0  0.26384438554E+02 -0.12193853697E+02 -0.90712442724E+02  0.95255319698E+02  0.00000000000E+00 0. -1.
         22    1    1    2    0    0 -0.22160056810E+02  0.64960977460E+01  0.35614341545E+02  0.42445832863E+02  0.00000000000E+00 0.  1.
</event>
<event>
 6    1  0.2406404E-005  0.3251598E+03  0.7818608E-02  0.1156456E+00
          2   -1    0    0  502    0  0.00000000000E+00  0.00000000000E+00  0.98550490345E+03  0.98550490345E+03  0.00000000000E+00 0. -1.
          1   -1    0    0  501    0 -0.00000000000E+00 -0.00000000000E+00 -0.12103561001E+03  0.12103561001E+03  0.00000000000E+00 0. -1.
          2    1    1    2  501    0  0.22101211483E+03 -0.23338795776E+03  0.37628666376E+03  0.49488175057E+03  0.00000000000E+00 0. -1.
          1    1    1    2  502    0 -0.10955001282E+03  0.51736868610E+02  0.17224391899E+03  0.21058460654E+03  0.00000000000E+00 0. -1.
         22    1    1    2    0    0  0.22300608815E+02  0.32877375159E+02  0.95229756590E+02  0.10318403700E+03  0.00000000000E+00 0.  1.
         22    1    1    2    0    0 -0.13376271083E+03  0.14877371399E+03  0.22070895411E+03  0.29789011935E+03  0.00000000000E+00 0. -1.
</event>
<event>
 6    1  0.2406404E-005  0.1973427E+03  0.7818608E-02  0.1190884E+00
          2   -1    0    0  502    0  0.00000000000E+00  0.00000000000E+00  0.28421134666E+03  0.28421134666E+03  0.00000000000E+00 0.  1.
          1   -1    0    0  501    0 -0.00000000000E+00 -0.00000000000E+00 -0.87482183446E+02  0.87482183446E+02  0.00000000000E+00 0.  1.
          2    1    1    2  501    0  0.31168145982E+02  0.10950713975E+02 -0.21827010319E+02  0.39595325986E+02  0.00000000000E+00 0.  1.
          1    1    1    2  502    0  0.90459613592E+01  0.57776653489E+02 -0.12510924401E+02  0.59803798664E+02  0.00000000000E+00 0.  1.
         22    1    1    2    0    0 -0.15330239320E+02  0.16675595989E+02 -0.20869364788E+01  0.22747462343E+02  0.00000000000E+00 0. -1.
         22    1    1    2    0    0 -0.24883868021E+02 -0.85402963452E+02  0.23315403441E+03  0.24954694311E+03  0.00000000000E+00 0.  1.
</event>
<event>
 6    1  0.2406404E-005  0.1153923E+03  0.7818608E-02  0.1253625E+00
          2   -1    0    0  502    0  0.00000000000E+00  0.00000000000E+00  0.30321686004E+03  0.30321686004E+03  0.00000000000E+00 0. -1.
          1   -1    0    0  501    0 -0.00000000000E+00 -0.00000000000E+00 -0.20853521259E+03  0.20853521259E+03  0.00000000000E+00 0.  1.
          2    1    1    2  501    0 -0.89600298166E+02 -0.34961326962E+02  0.24051343337E+03  0.25903130978E+03  0.00000000000E+00 0. -1.
          1    1    1    2  502    0  0.67495057972E+02  0.16996252321E+02 -0.78053417499E+02  0.10457911563E+03  0.00000000000E+00 0.  1.
         22    1    1    2    0    0 -0.13021172488E+02  0.12784311515E+01  0.35473346290E+02  0.37809305947E+02  0.00000000000E+00 0. -1.
         22    1    1    2    0    0  0.35126412682E+02  0.16686643490E+02 -0.10325171471E+03  0.11033234127E+03  0.00000000000E+00 0. -1.
</event>
<event>
 6    1  0.2406404E-005  0.6210674E+02  0.7818608E-02  0.1508145E+00
          2   -1    0    0  502    0  0.00000000000E+00  0.00000000000E+00  0.90833390637E+02  0.90833390637E+02  0.00000000000E+00 0.  1.
          1   -1    0    0  501    0 -0.00000000000E+00 -0.00000000000E+00 -0.25250870879E+03  0.25250870879E+03  0.00000000000E+00 0.  1.
          2    1    1    2  501    0  0.39079344529E+00 -0.52731991128E+02  0.44119655791E+02  0.68755797101E+02  0.00000000000E+00 0.  1.
          1    1    1    2  502    0  0.98722116009E+01  0.29005742932E+02 -0.11838381804E+03  0.12228459452E+03  0.00000000000E+00 0.  1.
         22    1    1    2    0    0 -0.69529377581E+01 -0.81276439139E+01  0.29344753093E+02  0.31233259086E+02  0.00000000000E+00 0.  1.
         22    1    1    2    0    0 -0.33100672880E+01  0.31853892110E+02 -0.11675590900E+03  0.12106844871E+03  0.00000000000E+00 0. -1.
</event>
<event>
 6    1  0.2406404E-005  0.6859756E+02  0.7818608E-02  0.1374389E+00
          2   -1    0    0  502    0  0.00000000000E+00  0.00000000000E+00  0.12621166922E+04  0.12621166922E+04  0.00000000000E+00 0.  1.
          1   -1    0    0  501    0 -0.00000000000E+00 -0.00000000000E+00 -0.18082300163E+03  0.18082300163E+03  0.00000000000E+00 0.  1.
          2    1    1    2  501    0 -0.80446717891E+02 -0.15242863144E+02  0.11101045757E+04  0.11131200242E+04  0.00000000000E+00 0.  1.
          1    1    1    2  502    0  0.83188151117E+02 -0.31562588526E+00 -0.14048050682E+03  0.16326402207E+03  0.00000000000E+00 0.  1.
         22    1    1    2    0    0 -0.32422656400E+02 -0.13665291982E+02  0.11914953667E+03  0.12423598892E+03  0.00000000000E+00 0.  1.
         22    1    1    2    0    0  0.29681223175E+02  0.29223781011E+02 -0.74799149199E+01  0.42319658705E+02  0.00000000000E+00 0.  1.
</event>
<event>
 6    1  0.2406404E-005  0.8432174E+02  0.7818608E-02  0.1321718E+00
          2   -1    0    0  502    0  0.00000000000E+00  0.00000000000E+00  0.32704530062E+03  0.32704530062E+03  0.00000000000E+00 0. -1.
          1   -1    0    0  501    0 -0.00000000000E+00 -0.00000000000E+00 -0.95008973811E+02  0.95008973811E+02  0.00000000000E+00 0.  1.
          2    1    1    2  501    0  0.62681099755E+02  0.12516770791E+02  0.22910196355E+03  0.23785142321E+03  0.00000000000E+00 0. -1.
          1    1    1    2  502    0 -0.46094184330E+02  0.37165514285E+01 -0.26868198682E+02  0.53482582997E+02  0.00000000000E+00 0.  1.
         22    1    1    2    0    0  0.10533079994E+02  0.71568707941E+01  0.73287775883E+02  0.74385917133E+02  0.00000000000E+00 0. -1.
         22    1    1    2    0    0 -0.27119995419E+02 -0.23390193014E+02 -0.43485213948E+02  0.56334351092E+02  0.00000000000E+00 0.  1.
</event>
<event>
 6    1  0.2406404E-005  0.9730707E+02  0.7818608E-02  0.1379216E+00
          2   -1    0    0  502    0  0.00000000000E+00  0.00000000000E+00  0.46318059896E+03  0.46318059896E+03  0.00000000000E+00 0.  1.
          1   -1    0    0  501    0 -0.00000000000E+00 -0.00000000000E+00 -0.17215187234E+03  0.17215187234E+03  0.00000000000E+00 0.  1.
          2    1    1    2  501    0 -0.78634760282E+02  0.79811685249E+02  0.33555820138E+03  0.35376918625E+03  0.00000000000E+00 0.  1.
          1    1    1    2  502    0  0.55492284640E+02 -0.53681415841E+02 -0.11333184444E+03  0.13713203501E+03  0.00000000000E+00 0.  1.
         22    1    1    2    0    0  0.58558809155E+01 -0.18284153987E+02 -0.34455165710E+02  0.39443124527E+02  0.00000000000E+00 0.  1.
         22    1    1    2    0    0  0.17286594726E+02 -0.78461154206E+01  0.10325753539E+03  0.10498812552E+03  0.00000000000E+00 0.  1.
</event>
<event>
 6    1  0.2406404E-005  0.6602707E+02  0.7818608E-02  0.1376494E+00
          2   -1    0    0  502    0  0.00000000000E+00  0.00000000000E+00  0.44420725921E+03  0.44420725921E+03  0.00000000000E+00 0. -1.
          1   -1    0    0  501    0 -0.00000000000E+00 -0.00000000000E+00 -0.20800580621E+03  0.20800580621E+03  0.00000000000E+00 0.  1.
          2    1    1    2  501    0  0.27836753525E+02  0.23480889122E+02  0.29772826397E+03  0.29994725564E+03  0.00000000000E+00 0. -1.
          1    1    1    2  502    0 -0.31520225322E+02 -0.37782195650E+02 -0.17355733808E+03  0.18039725195E+03  0.00000000000E+00 0.  1.
         22    1    1    2    0    0  0.84687921519E+01  0.26435565022E+02  0.13908807778E+03  0.14183107177E+03  0.00000000000E+00 0. -1.
         22    1    1    2    0    0 -0.47853203548E+01 -0.12134258493E+02 -0.27057550673E+02  0.30037486055E+02  0.00000000000E+00 0.  1.
</event>
<event>
 6    1  0.2406404E-005  0.1085091E+03  0.7818608E-02  0.1305538E+00
          2   -1    0    0  502    0  0.00000000000E+00  0.00000000000E+00  0.35194794901E+03  0.35194794901E+03  0.00000000000E+00 0. -1.
          1   -1    0    0  501    0 -0.00000000000E+00 -0.00000000000E+00 -0.17511353681E+03  0.17511353681E+03  0.00000000000E+00 0.  1.
          2    1    1    2  501    0  0.35828975911E+00  0.89083881143E+02  0.13545787524E+03  0.16212619226E+03  0.00000000000E+00 0. -1.
          1    1    1    2  502    0 -0.34888060331E+02 -0.82489674691E+02 -0.12430616696E+03  0.15321144320E+03  0.00000000000E+00 0.  1.
         22    1    1    2    0    0  0.48141079138E+02  0.85150531729E+01  0.18021531973E+03  0.18672876344E+03  0.00000000000E+00 0. -1.
         22    1    1    2    0    0 -0.13611308566E+02 -0.15109259625E+02 -0.14532615818E+02  0.24995086913E+02  0.00000000000E+00 0.  1.
</event>
<event>
 6    1  0.2406404E-005  0.1024951E+03  0.7818608E-02  0.1299921E+00
          2   -1    0    0  502    0  0.00000000000E+00  0.00000000000E+00  0.13898392500E+03  0.13898392500E+03  0.00000000000E+00 0. -1.
          1   -1    0    0  501    0 -0.00000000000E+00 -0.00000000000E+00 -0.12848517959E+03  0.12848517959E+03  0.00000000000E+00 0. -1.
          2    1    1    2  501    0 -0.38365419903E+02 -0.28200422730E+01  0.52450107553E+02  0.65045152510E+02  0.00000000000E+00 0. -1.
          1    1    1    2  502    0  0.24813290222E+02 -0.31668947290E+02 -0.62039737001E+02  0.73942887158E+02  0.00000000000E+00 0. -1.
         22    1    1    2    0    0 -0.21740445404E+02 -0.10901246232E+02  0.55749494708E+02  0.60823435417E+02  0.00000000000E+00 0.  1.
         22    1    1    2    0    0  0.35292575084E+02  0.45390235795E+02 -0.35661119844E+02  0.67657629504E+02  0.00000000000E+00 0. -1.
</event>
<event>
 6    1  0.2406404E-005  0.1069708E+03  0.7818608E-02  0.1287968E+00
          2   -1    0    0  502    0  0.00000000000E+00  0.00000000000E+00  0.12463348940E+03  0.12463348940E+03  0.00000000000E+00 0. -1.
          1   -1    0    0  501    0 -0.00000000000E+00 -0.00000000000E+00 -0.12875688557E+03  0.12875688557E+03  0.00000000000E+00 0. -1.
          2    1    1    2  501    0 -0.35565842525E+02 -0.89763756397E+00 -0.57621776620E+01  0.36040776894E+02  0.00000000000E+00 0. -1.
          1    1    1    2  502    0  0.34042251075E+02 -0.35360210645E+02 -0.53518587483E+02  0.72618582755E+02  0.00000000000E+00 0. -1.
         22    1    1    2    0    0 -0.18623130019E+02  0.37582317036E+02  0.92898714844E+02  0.10192851782E+03  0.00000000000E+00 0. -1.
         22    1    1    2    0    0  0.20146721468E+02 -0.13244688272E+01 -0.37741345876E+02  0.42802497499E+02  0.00000000000E+00 0. -1.
</event>
<event>
 6    1  0.2406404E-005  0.7993531E+02  0.7818608E-02  0.1355880E+00
          2   -1    0    0  502    0  0.00000000000E+00  0.00000000000E+00  0.65571562894E+03  0.65571562894E+03  0.00000000000E+00 0.  1.
          1   -1    0    0  501    0 -0.00000000000E+00 -0.00000000000E+00 -0.10865007994E+03  0.10865007994E+03  0.00000000000E+00 0.  1.
          2    1    1    2  501    0 -0.51847988042E+02 -0.37221559505E+02  0.52504271574E+03  0.52890784803E+03  0.00000000000E+00 0.  1.
          1    1    1    2  502    0  0.51171400768E+02  0.34809263820E+01 -0.60299373483E+02  0.79162134557E+02  0.00000000000E+00 0.  1.
         22    1    1    2    0    0  0.17176703629E+01  0.50439625611E+02 -0.18756547753E+02  0.53841566720E+02  0.00000000000E+00 0. -1.
         22    1    1    2    0    0 -0.10410830896E+01 -0.16698992488E+02  0.10107875450E+03  0.10245415958E+03  0.00000000000E+00 0.  1.
</event>
<event>
 6    1  0.2669976E-005  0.9196863E+02  0.7818608E-02  0.1299487E+00
          2   -1    0    0  502    0  0.00000000000E+00  0.00000000000E+00  0.20685274817E+03  0.20685274817E+03  0.00000000000E+00 0.  1.
          1   -1    0    0  501    0 -0.00000000000E+00 -0.00000000000E+00 -0.62327404266E+03  0.62327404266E+03  0.00000000000E+00 0. -1.
          2    1    1    2  501    0 -0.68171898261E+02  0.25673598542E+01  0.12923257889E+03  0.14613370075E+03  0.00000000000E+00 0.  1.
          1    1    1    2  502    0  0.78440893039E+02 -0.11986280660E+02 -0.55347576815E+03  0.55913510939E+03  0.00000000000E+00 0. -1.
         22    1    1    2    0    0 -0.19406145702E+02  0.18338412377E+01  0.64276881531E+02  0.67167543978E+02  0.00000000000E+00 0.  1.
         22    1    1    2    0    0  0.91371509242E+01  0.75850795686E+01 -0.56454986755E+02  0.57690436717E+02  0.00000000000E+00 0. -1.
</event>
<event>
 6    1  0.2406404E-005  0.9867305E+02  0.7818608E-02  0.1307951E+00
          2   -1    0    0  502    0  0.00000000000E+00  0.00000000000E+00  0.71468284546E+02  0.71468284546E+02  0.00000000000E+00 0.  1.
          1   -1    0    0  501    0 -0.00000000000E+00 -0.00000000000E+00 -0.20224824569E+03  0.20224824569E+03  0.00000000000E+00 0. -1.
          2    1    1    2  501    0  0.30288706561E+02  0.20729020847E+02  0.25026562141E+02  0.44423269387E+02  0.00000000000E+00 0.  1.
          1    1    1    2  502    0  0.10237213825E+02 -0.30942588259E+02 -0.22164376165E+02  0.39414513645E+02  0.00000000000E+00 0. -1.
         22    1    1    2    0    0 -0.51080632256E+02 -0.13008817236E+02 -0.15039243391E+03  0.15936230576E+03  0.00000000000E+00 0. -1.
         22    1    1    2    0    0  0.10554711869E+02  0.23222384648E+02  0.16750286789E+02  0.30516441452E+02  0.00000000000E+00 0.  1.
</event>
<event>
 6    1  0.2406404E-005  0.5728427E+02  0.7818608E-02  0.1455570E+00
          2   -1    0    0  502    0  0.00000000000E+00  0.00000000000E+00  0.35569762176E+03  0.35569762176E+03  0.00000000000E+00 0. -1.
          1   -1    0    0  501    0 -0.00000000000E+00 -0.00000000000E+00 -0.44441033055E+03  0.44441033055E+03  0.00000000000E+00 0. -1.
          2    1    1    2  501    0 -0.98280495920E+01 -0.81282667196E+02  0.22301955013E+03  0.23757353028E+03  0.00000000000E+00 0. -1.
          1    1    1    2  502    0  0.26014250867E+02  0.97759056010E+02 -0.39527543882E+03  0.40801500807E+03  0.00000000000E+00 0. -1.
         22    1    1    2    0    0 -0.31403074650E+02 -0.10221098213E+02  0.11465983521E+03  0.11932100300E+03  0.00000000000E+00 0.  1.
         22    1    1    2    0    0  0.15216873374E+02 -0.62552906018E+01 -0.31116655318E+02  0.35198410958E+02  0.00000000000E+00 0.  1.
</event>
<event>
 6    1  0.2406404E-005  0.4708790E+02  0.7818608E-02  0.1462314E+00
          2   -1    0    0  502    0  0.00000000000E+00  0.00000000000E+00  0.16716132179E+03  0.16716132179E+03  0.00000000000E+00 0. -1.
          1   -1    0    0  501    0 -0.00000000000E+00 -0.00000000000E+00 -0.17740506782E+03  0.17740506782E+03  0.00000000000E+00 0. -1.
          2    1    1    2  501    0 -0.31719489571E+02 -0.12244759224E+02  0.10588521110E+03  0.11121033260E+03  0.00000000000E+00 0. -1.
          1    1    1    2  502    0  0.31036454290E+02  0.12987490087E+01 -0.99401030126E+02  0.10414179293E+03  0.00000000000E+00 0. -1.
         22    1    1    2    0    0 -0.12121456548E+02  0.34854784277E+01  0.54766517520E+02  0.56200086388E+02  0.00000000000E+00 0. -1.
         22    1    1    2    0    0  0.12804491829E+02  0.74605317873E+01 -0.71494444525E+02  0.73014177689E+02  0.00000000000E+00 0. -1.
</event>
<event>
 6    1  0.2406404E-005  0.8614409E+02  0.7818608E-02  0.1428816E+00
          2   -1    0    0  502    0  0.00000000000E+00  0.00000000000E+00  0.20686287867E+04  0.20686287867E+04  0.00000000000E+00 0. -1.
          1   -1    0    0  501    0 -0.00000000000E+00 -0.00000000000E+00 -0.41089977436E+02  0.41089977436E+02  0.00000000000E+00 0.  1.
          2    1    1    2  501    0  0.84204150714E+02 -0.14201859485E+02  0.17092763295E+04  0.17114080759E+04  0.00000000000E+00 0. -1.
          1    1    1    2  502    0  0.20190410715E+02  0.45303281895E+02  0.13300496057E+02  0.51351175553E+02  0.00000000000E+00 0.  1.
         22    1    1    2    0    0 -0.56354946043E+01  0.11190138908E+02 -0.88023917659E+01  0.15312090289E+02  0.00000000000E+00 0.  1.
         22    1    1    2    0    0 -0.98759066824E+02 -0.42291561319E+02  0.31376437555E+03  0.33164742243E+03  0.00000000000E+00 0.  1.
</event>
<event>
 6    1  0.2406404E-005  0.2856790E+03  0.7818608E-02  0.1175144E+00
          2   -1    0    0  502    0  0.00000000000E+00  0.00000000000E+00  0.51464223206E+03  0.51464223206E+03  0.00000000000E+00 0. -1.
          1   -1    0    0  501    0 -0.00000000000E+00 -0.00000000000E+00 -0.20166492015E+03  0.20166492015E+03  0.00000000000E+00 0. -1.
          2    1    1    2  501    0 -0.25221629817E+03 -0.92178426357E+02  0.10371899528E+03  0.28786724950E+03  0.00000000000E+00 0. -1.
          1    1    1    2  502    0  0.20412452694E+03  0.39847059621E+01  0.79404076835E+02  0.21906096822E+03  0.00000000000E+00 0. -1.
         22    1    1    2    0    0 -0.14312277546E+02  0.35290244546E+02  0.12128171035E+03  0.12712000596E+03  0.00000000000E+00 0. -1.
         22    1    1    2    0    0  0.62404048782E+02  0.52903475849E+02  0.85725294409E+01  0.82258928527E+02  0.00000000000E+00 0. -1.
</event>
<event>
 6    1  0.2406404E-005  0.7080074E+02  0.7818608E-02  0.1376622E+00
          2   -1    0    0  502    0  0.00000000000E+00  0.00000000000E+00  0.21891925584E+03  0.21891925584E+03  0.00000000000E+00 0. -1.
          1   -1    0    0  501    0 -0.00000000000E+00 -0.00000000000E+00 -0.52815724572E+02  0.52815724572E+02  0.00000000000E+00 0.  1.
          2    1    1    2  501    0  0.15481425603E+02 -0.31368858085E+02  0.10532588379E+03  0.11098297884E+03  0.00000000000E+00 0. -1.
          1    1    1    2  502    0 -0.13722325274E+02  0.18382506498E+02  0.16176488352E+02  0.28069512491E+02  0.00000000000E+00 0.  1.
         22    1    1    2    0    0  0.92654824684E+01  0.21866981098E+02 -0.40209078952E+02  0.46698865702E+02  0.00000000000E+00 0.  1.
         22    1    1    2    0    0 -0.11024582797E+02 -0.88806295105E+01  0.84810238070E+02  0.85983623370E+02  0.00000000000E+00 0. -1.
</event>
<event>
 6    1  0.2406404E-005  0.3668485E+02  0.7818608E-02  0.1573319E+00
          2   -1    0    0  502    0  0.00000000000E+00  0.00000000000E+00  0.95445260310E+02  0.95445260310E+02  0.00000000000E+00 0. -1.
          1   -1    0    0  501    0 -0.00000000000E+00 -0.00000000000E+00 -0.13822445814E+03  0.13822445814E+03  0.00000000000E+00 0. -1.
          2    1    1    2  501    0 -0.36727062048E+01 -0.22042549278E+02  0.40932522993E+02  0.46635117541E+02  0.00000000000E+00 0. -1.
          1    1    1    2  502    0  0.17659151107E+02  0.15369258617E+02 -0.46248483574E+02  0.51836106733E+02  0.00000000000E+00 0. -1.
         22    1    1    2    0    0 -0.48063455641E+01 -0.13569678416E+02  0.46326002018E+02  0.48511190389E+02  0.00000000000E+00 0. -1.
         22    1    1    2    0    0 -0.91800993385E+01  0.20242969076E+02 -0.83789239267E+02  0.86687303787E+02  0.00000000000E+00 0. -1.
</event>
<event>
 6    1  0.2406404E-005  0.2039601E+03  0.7818608E-02  0.1171297E+00
          2   -1    0    0  502    0  0.00000000000E+00  0.00000000000E+00  0.80184594281E+03  0.80184594281E+03  0.00000000000E+00 0. -1.
          1   -1    0    0  501    0 -0.00000000000E+00 -0.00000000000E+00 -0.39830265178E+02  0.39830265178E+02  0.00000000000E+00 0. -1.
          2    1    1    2  501    0  0.66826456654E+02  0.94815838302E+02  0.14076106984E+03  0.18239927984E+03  0.00000000000E+00 0. -1.
          1    1    1    2  502    0 -0.17723226080E+02 -0.10349334428E+02  0.29842728711E+03  0.29913219010E+03  0.00000000000E+00 0. -1.
         22    1    1    2    0    0  0.20127940349E+02 -0.84255460556E+02  0.13982248222E+03  0.16448234905E+03  0.00000000000E+00 0. -1.
         22    1    1    2    0    0 -0.69231170922E+02 -0.21104331782E+00  0.18300483847E+03  0.19566238900E+03  0.00000000000E+00 0. -1.
</event>
<event>
 6    1  0.2406404E-005  0.5564036E+02  0.7818608E-02  0.1465002E+00
          2   -1    0    0  502    0  0.00000000000E+00  0.00000000000E+00  0.16980160680E+03  0.16980160680E+03  0.00000000000E+00 0. -1.
          1   -1    0    0  501    0 -0.00000000000E+00 -0.00000000000E+00 -0.18009582041E+03  0.18009582041E+03  0.00000000000E+00 0.  1.
          2    1    1    2  501    0 -0.35318666196E+02 -0.38089936166E+01  0.86187110387E+02  0.93220891494E+02  0.00000000000E+00 0. -1.
          1    1    1    2  502    0  0.27414582896E+02  0.11000636251E+02 -0.12824098380E+03  0.13159910060E+03  0.00000000000E+00 0.  1.
         22    1    1    2    0    0 -0.19274712873E+02 -0.57859377319E+01  0.72968583598E+02  0.75692838658E+02  0.00000000000E+00 0. -1.
         22    1    1    2    0    0  0.27178796173E+02 -0.14057049028E+01 -0.41208923795E+02  0.49384596466E+02  0.00000000000E+00 0.  1.
</event>
<event>
 6    1  0.2406404E-005  0.7339979E+02  0.7818608E-02  0.1349588E+00
          2   -1    0    0  502    0  0.00000000000E+00  0.00000000000E+00  0.40125569274E+03  0.40125569274E+03  0.00000000000E+00 0. -1.
          1   -1    0    0  501    0 -0.00000000000E+00 -0.00000000000E+00 -0.48272159420E+02  0.48272159420E+02  0.00000000000E+00 0. -1.
          2    1    1    2  501    0 -0.35851404992E+02 -0.92358197101E+01  0.26991481269E+03  0.27244197495E+03  0.00000000000E+00 0. -1.
          1    1    1    2  502    0  0.27728741616E+02  0.14965299523E+02  0.37268639624E+01  0.31729053191E+02  0.00000000000E+00 0. -1.
         22    1    1    2    0    0 -0.30141333219E+02  0.18904835009E+01  0.97683281877E+02  0.10224528084E+03  0.00000000000E+00 0.  1.
         22    1    1    2    0    0  0.38263996595E+02 -0.76199633138E+01 -0.18341425209E+02  0.43111543176E+02  0.00000000000E+00 0. -1.
</event>
<event>
 6    1  0.2406404E-005  0.9774330E+02  0.7818608E-02  0.1327389E+00
          2   -1    0    0  502    0  0.00000000000E+00  0.00000000000E+00  0.11374765736E+04  0.11374765736E+04  0.00000000000E+00 0.  1.
          1   -1    0    0  501    0 -0.00000000000E+00 -0.00000000000E+00 -0.32964519110E+02  0.32964519110E+02  0.00000000000E+00 0.  1.
          2    1    1    2  501    0  0.49671038609E+02  0.85604431635E+02  0.59636088636E+03  0.60451769004E+03  0.00000000000E+00 0.  1.
          1    1    1    2  502    0 -0.27609783973E+02  0.55967688496E+01 -0.55443877015E+01  0.28711743723E+02  0.00000000000E+00 0.  1.
         22    1    1    2    0    0 -0.91273889430E+01 -0.10104764434E+03  0.51070230064E+03  0.52068298948E+03  0.00000000000E+00 0.  1.
         22    1    1    2    0    0 -0.12933865693E+02  0.98464438517E+01  0.29932552136E+01  0.16528669488E+02  0.00000000000E+00 0. -1.
</event>
<event>
 6    1  0.2406404E-005  0.6070275E+02  0.7818608E-02  0.1422006E+00
          2   -1    0    0  502    0  0.00000000000E+00  0.00000000000E+00  0.26208038819E+03  0.26208038819E+03  0.00000000000E+00 0.  1.
          1   -1    0    0  501    0 -0.00000000000E+00 -0.00000000000E+00 -0.31217737145E+03  0.31217737145E+03  0.00000000000E+00 0. -1.
          2    1    1    2  501    0  0.18884738238E+02  0.10796601726E+03  0.17920576359E+03  0.21006665591E+03  0.00000000000E+00 0.  1.
          1    1    1    2  502    0 -0.53459615351E+02 -0.70876851563E+02 -0.21250100662E+03  0.23030010069E+03  0.00000000000E+00 0. -1.
         22    1    1    2    0    0  0.21589349655E+02 -0.57848203291E+01  0.52327544457E+02  0.56901107842E+02  0.00000000000E+00 0. -1.
         22    1    1    2    0    0  0.12985527458E+02 -0.31304345364E+02 -0.69129284687E+02  0.76989895203E+02  0.00000000000E+00 0. -1.
</event>
<event>
 6    1  0.2406404E-005  0.7862534E+02  0.7818608E-02  0.1388573E+00
          2   -1    0    0  502    0  0.00000000000E+00  0.00000000000E+00  0.12185894394E+03  0.12185894394E+03  0.00000000000E+00 0.  1.
          1   -1    0    0  501    0 -0.00000000000E+00 -0.00000000000E+00 -0.20374380903E+03  0.20374380903E+03  0.00000000000E+00 0.  1.
          2    1    1    2  501    0  0.42780494601E+02  0.17161903799E+02  0.36777286495E+02  0.58968385278E+02  0.00000000000E+00 0.  1.
          1    1    1    2  502    0 -0.64057700817E+02 -0.69442532964E+02 -0.14902043019E+02  0.95643741586E+02  0.00000000000E+00 0.  1.
         22    1    1    2    0    0  0.40478253209E+01  0.30653319164E+02 -0.12954424287E+03  0.13318303844E+03  0.00000000000E+00 0. -1.
         22    1    1    2    0    0  0.17229380895E+02  0.21627310001E+02  0.25784134298E+02  0.37807587669E+02  0.00000000000E+00 0.  1.
</event>
<event>
 6    1  0.2406404E-005  0.1465852E+03  0.7818608E-02  0.1205791E+00
          2   -1    0    0  502    0  0.00000000000E+00  0.00000000000E+00  0.71977389470E+02  0.71977389470E+02  0.00000000000E+00 0. -1.
          1   -1    0    0  501    0 -0.00000000000E+00 -0.00000000000E+00 -0.93933863631E+03  0.93933863631E+03  0.00000000000E+00 0.  1.
          2    1    1    2  501    0  0.88377844162E+02 -0.70368043544E+02 -0.13905023811E+02  0.11382290885E+03  0.00000000000E+00 0. -1.
          1    1    1    2  502    0 -0.91324249394E+02  0.19284820471E+02 -0.64038917882E+03  0.64715556335E+03  0.00000000000E+00 0.  1.
         22    1    1    2    0    0  0.28733060713E+02  0.84466742173E+01  0.15725589463E+01  0.29990132126E+02  0.00000000000E+00 0. -1.
         22    1    1    2    0    0 -0.25786655481E+02  0.42636548856E+02 -0.21463960316E+03  0.22034742146E+03  0.00000000000E+00 0.  1.
</event>
<event>
 6    1  0.2406404E-005  0.5553843E+02  0.7818608E-02  0.1418160E+00
          2   -1    0    0  502    0  0.00000000000E+00  0.00000000000E+00  0.29758266507E+03  0.29758266507E+03  0.00000000000E+00 0. -1.
          1   -1    0    0  501    0 -0.00000000000E+00 -0.00000000000E+00 -0.19917957590E+03  0.19917957590E+03  0.00000000000E+00 0.  1.
          2    1    1    2  501    0  0.25733313305E+02 -0.13739459640E+02  0.16182032348E+03  0.16442868745E+03  0.00000000000E+00 0. -1.
          1    1    1    2  502    0 -0.36758337275E+02  0.26118247143E+02 -0.16411428207E+03  0.17019646228E+03  0.00000000000E+00 0.  1.
         22    1    1    2    0    0 -0.17363875703E+01  0.10038764946E+02 -0.28564443525E+02  0.30326873847E+02  0.00000000000E+00 0. -1.
         22    1    1    2    0    0  0.12761411540E+02 -0.22417552449E+02  0.12926149128E+03  0.13181021740E+03  0.00000000000E+00 0. -1.
</event>
<event>
 6    1  0.2406404E-005  0.2111788E+03  0.7818608E-02  0.1174234E+00
          2   -1    0    0  502    0  0.00000000000E+00  0.00000000000E+00  0.18042002862E+03  0.18042002862E+03  0.00000000000E+00 0. -1.
          1   -1    0    0  501    0 -0.00000000000E+00 -0.00000000000E+00 -0.19567353192E+03  0.19567353192E+03  0.00000000000E+00 0. -1.
          2    1    1    2  501    0 -0.43887129688E+02 -0.46591946002E+02 -0.12156581609E+03  0.13738681605E+03  0.00000000000E+00 0. -1.
          1    1    1    2  502    0  0.61921073733E+02 -0.23836191060E+02  0.62585456965E+02  0.91210321785E+02  0.00000000000E+00 0. -1.
         22    1    1    2    0    0  0.15161370340E+02 -0.25473376984E+02  0.34660327217E+02  0.45608095426E+02  0.00000000000E+00 0. -1.
         22    1    1    2    0    0 -0.33195314385E+02  0.95901514047E+02  0.90665286025E+01  0.10188832727E+03  0.00000000000E+00 0. -1.
</event>
<event>
 6    1  0.2406404E-005  0.1421579E+03  0.7818608E-02  0.1212100E+00
          2   -1    0    0  502    0  0.00000000000E+00  0.00000000000E+00  0.33989524627E+03  0.33989524627E+03  0.00000000000E+00 0. -1.
          1   -1    0    0  501    0 -0.00000000000E+00 -0.00000000000E+00 -0.21881310312E+03  0.21881310312E+03  0.00000000000E+00 0.  1.
          2    1    1    2  501    0 -0.81892991443E+02 -0.96301635119E+02  0.28124584558E+03  0.30834995156E+03  0.00000000000E+00 0. -1.
          1    1    1    2  502    0  0.27449537434E+02  0.13484905193E+02 -0.21736959753E+02  0.37520863432E+02  0.00000000000E+00 0.  1.
         22    1    1    2    0    0 -0.69269738633E+00 -0.10625955704E+02  0.18919869107E+02  0.21710647418E+02  0.00000000000E+00 0. -1.
         22    1    1    2    0    0  0.55136151395E+02  0.93442685630E+02 -0.15734661178E+03  0.19112688698E+03  0.00000000000E+00 0.  1.
</event>
<event>
 6    1  0.2406404E-005  0.2977389E+03  0.7818608E-02  0.1101275E+00
          2   -1    0    0  502    0  0.00000000000E+00  0.00000000000E+00  0.67030835126E+03  0.67030835126E+03  0.00000000000E+00 0. -1.
          1   -1    0    0  501    0 -0.00000000000E+00 -0.00000000000E+00 -0.12786945045E+03  0.12786945045E+03  0.00000000000E+00 0. -1.
          2    1    1    2  501    0 -0.14369992749E+03 -0.12406065199E+03  0.40368426110E+03  0.44609606274E+03  0.00000000000E+00 0. -1.
          1    1    1    2  502    0  0.21360125921E+02  0.93009325200E+02  0.14407854856E+03  0.17281671710E+03  0.00000000000E+00 0. -1.
         22    1    1    2    0    0 -0.91371293018E+01 -0.54722712408E+01  0.35315250512E+02  0.36886309156E+02  0.00000000000E+00 0.  1.
         22    1    1    2    0    0  0.13147693087E+03  0.36523598033E+02 -0.40639159357E+02  0.14237871272E+03  0.00000000000E+00 0. -1.
</event>
<event>
 6    1  0.2406404E-005  0.2715112E+03  0.7818608E-02  0.1104143E+00
          2   -1    0    0  502    0  0.00000000000E+00  0.00000000000E+00  0.15340145283E+03  0.15340145283E+03  0.00000000000E+00 0. -1.
          1   -1    0    0  501    0 -0.00000000000E+00 -0.00000000000E+00 -0.51349782562E+03  0.51349782562E+03  0.00000000000E+00 0. -1.
          2    1    1    2  501    0  0.17000719687E+03 -0.16089315382E+03 -0.47883274365E+02  0.23891810709E+03  0.00000000000E+00 0. -1.
          1    1    1    2  502    0  0.60741079193E+01  0.38131149509E+02 -0.17481818392E+02  0.42385060153E+02  0.00000000000E+00 0. -1.
         22    1    1    2    0    0  0.98909795759E+01 -0.51702460548E+01  0.33855481360E+01  0.11662969494E+02  0.00000000000E+00 0. -1.
         22    1    1    2    0    0 -0.18597228436E+03  0.12793225037E+03 -0.29811682817E+03  0.37393314172E+03  0.00000000000E+00 0. -1.
</event>
<event>
 6    1  0.2406404E-005  0.1859992E+03  0.7818608E-02  0.1193185E+00
          2   -1    0    0  502    0  0.00000000000E+00  0.00000000000E+00  0.54693053786E+02  0.54693053786E+02  0.00000000000E+00 0. -1.
          1   -1    0    0  501    0 -0.00000000000E+00 -0.00000000000E+00 -0.50628657599E+03  0.50628657599E+03  0.00000000000E+00 0. -1.
          2    1    1    2  501    0 -0.27351098752E+02  0.13484643391E+02 -0.17281054265E+03  0.17548048855E+03  0.00000000000E+00 0. -1.
          1    1    1    2  502    0 -0.15640677479E+02 -0.58781378152E+02 -0.23059568325E+03  0.23848322865E+03  0.00000000000E+00 0. -1.
         22    1    1    2    0    0  0.20978575583E+02  0.22512697013E+02 -0.89679177474E+02  0.94811797961E+02  0.00000000000E+00 0. -1.
         22    1    1    2    0    0  0.22013200648E+02  0.22784037748E+02  0.41491881180E+02  0.52204114615E+02  0.00000000000E+00 0. -1.
</event>
<event>
 6    1  0.2406404E-005  0.6704649E+02  0.7818608E-02  0.1382870E+00
          2   -1    0    0  502    0  0.00000000000E+00  0.00000000000E+00  0.11289189560E+03  0.11289189560E+03  0.00000000000E+00 0.  1.
          1   -1    0    0  501    0 -0.00000000000E+00 -0.00000000000E+00 -0.66066949763E+02  0.66066949763E+02  0.00000000000E+00 0.  1.
          2    1    1    2  501    0  0.15394616522E+02  0.13556957605E+02  0.57108077006E+00  0.20521000234E+02  0.00000000000E+00 0.  1.
          1    1    1    2  502    0 -0.23780015002E+02  0.97740932464E+01 -0.13963415949E+00  0.25710727527E+02  0.00000000000E+00 0.  1.
         22    1    1    2    0    0  0.16484536385E+02 -0.14389281701E+02  0.87340526033E+02  0.90039762635E+02  0.00000000000E+00 0.  1.
         22    1    1    2    0    0 -0.80991379047E+01 -0.89417691505E+01 -0.40947026803E+02  0.42687354970E+02  0.00000000000E+00 0. -1.
</event>
<event>
 6    1  0.2406404E-005  0.1066596E+03  0.7818608E-02  0.1272066E+00
          2   -1    0    0  502    0  0.00000000000E+00  0.00000000000E+00  0.63704240779E+02  0.63704240779E+02  0.00000000000E+00 0.  1.
          1   -1    0    0  501    0 -0.00000000000E+00 -0.00000000000E+00 -0.29757502556E+03  0.29757502556E+03  0.00000000000E+00 0.  1.
          2    1    1    2  501    0  0.39713915568E+02 -0.19675791368E+02 -0.23252075630E+02  0.50049883884E+02  0.00000000000E+00 0.  1.
          1    1    1    2  502    0 -0.59576923763E+02  0.38556797113E+02 -0.15758881472E+03  0.17283017958E+03  0.00000000000E+00 0.  1.
         22    1    1    2    0    0 -0.96130349726E+01  0.22501442228E+02 -0.78028569856E+02  0.81775198303E+02  0.00000000000E+00 0. -1.
         22    1    1    2    0    0  0.29476043169E+02 -0.41382447973E+02  0.24998675424E+02  0.56624004575E+02  0.00000000000E+00 0.  1.
</event>
<event>
 6    1  0.2406404E-005  0.5932188E+02  0.7818608E-02  0.1435976E+00
          2   -1    0    0  502    0  0.00000000000E+00  0.00000000000E+00  0.45677537382E+03  0.45677537382E+03  0.00000000000E+00 0.  1.
          1   -1    0    0  501    0 -0.00000000000E+00 -0.00000000000E+00 -0.56981287250E+02  0.56981287250E+02  0.00000000000E+00 0. -1.
          2    1    1    2  501    0 -0.52445156804E+02  0.29712068310E+02  0.28203974768E+03  0.28840894706E+03  0.00000000000E+00 0.  1.
          1    1    1    2  502    0  0.16143357168E+02 -0.57227965955E+02  0.16633032336E+02  0.61743872835E+02  0.00000000000E+00 0. -1.
         22    1    1    2    0    0  0.67133037362E+02  0.12185452305E+02  0.10870736219E+03  0.12834570716E+03  0.00000000000E+00 0. -1.
         22    1    1    2    0    0 -0.30831237726E+02  0.15330445340E+02 -0.75860556278E+01  0.35258134012E+02  0.00000000000E+00 0. -1.
</event>
<event>
 6    1  0.2406404E-005  0.1374245E+03  0.7818608E-02  0.1220672E+00
          2   -1    0    0  502    0  0.00000000000E+00  0.00000000000E+00  0.88094334795E+03  0.88094334795E+03  0.00000000000E+00 0.  1.
          1   -1    0    0  501    0 -0.00000000000E+00 -0.00000000000E+00 -0.68849644180E+02  0.68849644180E+02  0.00000000000E+00 0. -1.
          2    1    1    2  501    0 -0.27776761084E+02  0.10327469150E+03  0.71600882952E+03  0.72395155522E+03  0.00000000000E+00 0.  1.
          1    1    1    2  502    0  0.29093856028E+02 -0.28651984828E+02 -0.14991204186E+02  0.43498562001E+02  0.00000000000E+00 0. -1.
         22    1    1    2    0    0 -0.99319090338E+01  0.15875366694E+02  0.86035696163E+02  0.88050048830E+02  0.00000000000E+00 0.  1.
         22    1    1    2    0    0  0.86148140903E+01 -0.90498073366E+02  0.25040382274E+02  0.94292826075E+02  0.00000000000E+00 0. -1.
</event>
<event>
 6    1  0.2406404E-005  0.9699900E+02  0.7818608E-02  0.1297585E+00
          2   -1    0    0  502    0  0.00000000000E+00  0.00000000000E+00  0.10181955507E+03  0.10181955507E+03  0.00000000000E+00 0. -1.
          1   -1    0    0  501    0 -0.00000000000E+00 -0.00000000000E+00 -0.96108889802E+02  0.96108889802E+02  0.00000000000E+00 0. -1.
          2    1    1    2  501    0  0.31619907593E+02  0.89580588789E+01  0.10292404016E+02  0.34438335551E+02  0.00000000000E+00 0. -1.
          1    1    1    2  502    0 -0.97171230297E+01  0.32211598449E+02  0.53876832362E+01  0.34073988397E+02  0.00000000000E+00 0. -1.
         22    1    1    2    0    0 -0.33297538516E+01 -0.63345696027E+02  0.37601935489E+02  0.73740558842E+02  0.00000000000E+00 0. -1.
         22    1    1    2    0    0 -0.18573030712E+02  0.22176038699E+02 -0.47571357469E+02  0.55675562086E+02  0.00000000000E+00 0. -1.
</event>
<event>
 6    1  0.2542507E-005  0.1401286E+03  0.7818608E-02  0.1318514E+00
          2   -1    0    0  502    0  0.00000000000E+00  0.00000000000E+00  0.11503305732E+04  0.11503305732E+04  0.00000000000E+00 0. -1.
          1   -1    0    0  501    0 -0.00000000000E+00 -0.00000000000E+00 -0.10532199400E+03  0.10532199400E+03  0.00000000000E+00 0. -1.
          2    1    1    2  501    0 -0.22281787944E+03  0.99730414262E+02  0.82352812777E+03  0.85894850844E+03  0.00000000000E+00 0. -1.
          1    1    1    2  502    0  0.13833693005E+03 -0.76994533034E+02  0.17287640103E+03  0.23441739348E+03  0.00000000000E+00 0. -1.
         22    1    1    2    0    0 -0.69745840422E+01 -0.95330512520E+01  0.67030862191E+02  0.68063649438E+02  0.00000000000E+00 0.  1.
         22    1    1    2    0    0  0.91455533425E+02 -0.13202829976E+02 -0.18426811831E+02  0.94223015806E+02  0.00000000000E+00 0. -1.
</event>
<event>
 6    1  0.2406404E-005  0.1027102E+03  0.7818608E-02  0.1360348E+00
          2   -1    0    0  502    0  0.00000000000E+00  0.00000000000E+00  0.30285486507E+03  0.30285486507E+03  0.00000000000E+00 0. -1.
          1   -1    0    0  501    0 -0.00000000000E+00 -0.00000000000E+00 -0.87754825173E+02  0.87754825173E+02  0.00000000000E+00 0. -1.
          2    1    1    2  501    0 -0.32270938815E+02  0.39580182000E+02  0.11163193070E+03  0.12275867485E+03  0.00000000000E+00 0. -1.
          1    1    1    2  502    0  0.98629902741E+01 -0.87290121402E+02 -0.10914028616E+02  0.88520957362E+02  0.00000000000E+00 0. -1.
         22    1    1    2    0    0  0.21358539285E+02 -0.55364663539E+01 -0.23069039498E+02  0.31922096476E+02  0.00000000000E+00 0. -1.
         22    1    1    2    0    0  0.10494092560E+01  0.53246405756E+02  0.13745117731E+03  0.14740796156E+03  0.00000000000E+00 0. -1.
</event>
<event>
 6    1  0.2406404E-005  0.8103651E+02  0.7818608E-02  0.1326575E+00
          2   -1    0    0  502    0  0.00000000000E+00  0.00000000000E+00  0.90087782592E+02  0.90087782592E+02  0.00000000000E+00 0. -1.
          1   -1    0    0  501    0 -0.00000000000E+00 -0.00000000000E+00 -0.28101771524E+03  0.28101771524E+03  0.00000000000E+00 0. -1.
          2    1    1    2  501    0 -0.49783602320E+02 -0.41206790550E+02  0.47414993192E+02  0.80153529097E+02  0.00000000000E+00 0. -1.
          1    1    1    2  502    0  0.24044340963E+02  0.23668644616E+02 -0.80443633718E+02  0.87232524187E+02  0.00000000000E+00 0. -1.
         22    1    1    2    0    0 -0.72216691162E+01 -0.13471005255E+02  0.17115242057E+02  0.22946720856E+02  0.00000000000E+00 0.  1.
         22    1    1    2    0    0  0.32960930473E+02  0.31009151189E+02 -0.17501653418E+03  0.18077272369E+03  0.00000000000E+00 0. -1.
</event>
<event>
 6    1  0.2406404E-005  0.6561672E+02  0.7818608E-02  0.1491621E+00
          2   -1    0    0  502    0  0.00000000000E+00  0.00000000000E+00  0.21045107630E+03  0.21045107630E+03  0.00000000000E+00 0.  1.
          1   -1    0    0  501    0 -0.00000000000E+00 -0.00000000000E+00 -0.18154079155E+03  0.18154079155E+03  0.00000000000E+00 0. -1.
          2    1    1    2  501    0  0.63524429409E+02  0.10281074020E+02  0.15285592380E+03  0.16584929018E+03  0.00000000000E+00 0.  1.
          1    1    1    2  502    0 -0.27633385132E+02 -0.68837809185E+01 -0.80729699894E+02  0.85605343634E+02  0.00000000000E+00 0. -1.
         22    1    1    2    0    0 -0.36049803278E+02  0.79837698139E+01 -0.87416571379E+02  0.94894603895E+02  0.00000000000E+00 0. -1.
         22    1    1    2    0    0  0.15875900130E+00 -0.11381062915E+02  0.44200632222E+02  0.45642630142E+02  0.00000000000E+00 0.  1.
</event>
<event>
 6    1  0.2406404E-005  0.1074024E+03  0.7818608E-02  0.1385329E+00
          2   -1    0    0  502    0  0.00000000000E+00  0.00000000000E+00  0.15149204874E+04  0.15149204874E+04  0.00000000000E+00 0.  1.
          1   -1    0    0  501    0 -0.00000000000E+00 -0.00000000000E+00 -0.16284091143E+03  0.16284091143E+03  0.00000000000E+00 0.  1.
          2    1    1    2  501    0  0.85596618801E+02 -0.35620906814E+02  0.14326721375E+04  0.14356688629E+04  0.00000000000E+00 0.  1.
          1    1    1    2  502    0 -0.47798050810E+02  0.40461927477E+02 -0.89410011140E+02  0.10916030106E+03  0.00000000000E+00 0.  1.
         22    1    1    2    0    0 -0.44207049620E+02  0.62191484709E+01 -0.53292809900E+02  0.69520246194E+02  0.00000000000E+00 0.  1.
         22    1    1    2    0    0  0.64084816288E+01 -0.11060169134E+02  0.62110259501E+02  0.63411988719E+02  0.00000000000E+00 0.  1.
</event>
<event>
 6    1  0.2406404E-005  0.5543531E+02  0.7818608E-02  0.1461064E+00
          2   -1    0    0  502    0  0.00000000000E+00  0.00000000000E+00  0.13539389474E+03  0.13539389474E+03  0.00000000000E+00 0.  1.
          1   -1    0    0  501    0 -0.00000000000E+00 -0.00000000000E+00 -0.24069409808E+03  0.24069409808E+03  0.00000000000E+00 0. -1.
          2    1    1    2  501    0 -0.64111886961E+01  0.44105117611E+02  0.65682439802E+02  0.79375989054E+02  0.00000000000E+00 0.  1.
          1    1    1    2  502    0 -0.40085800224E+02 -0.86552631118E+02 -0.90402503889E+02  0.13141857571E+03  0.00000000000E+00 0. -1.
         22    1    1    2    0    0  0.36707861095E+02  0.21419309728E+02  0.30183173396E+02  0.52127515302E+02  0.00000000000E+00 0. -1.
         22    1    1    2    0    0  0.97891278253E+01  0.21028203780E+02 -0.11076331266E+03  0.11316591275E+03  0.00000000000E+00 0. -1.
</event>
<event>
 6    1  0.2406404E-005  0.2272118E+03  0.7818608E-02  0.1263777E+00
          2   -1    0    0  502    0  0.00000000000E+00  0.00000000000E+00  0.28231874481E+03  0.28231874481E+03  0.00000000000E+00 0. -1.
          1   -1    0    0  501    0 -0.00000000000E+00 -0.00000000000E+00 -0.33518674615E+03  0.33518674615E+03  0.00000000000E+00 0.  1.
          2    1    1    2  501    0 -0.19854035729E+03  0.69344790151E+02  0.15839796702E+03  0.26328100834E+03  0.00000000000E+00 0. -1.
          1    1    1    2  502    0  0.13533037204E+03 -0.59448918897E+02 -0.11057831690E+03  0.18459698731E+03  0.00000000000E+00 0.  1.
         22    1    1    2    0    0 -0.48486580278E+01  0.10672188916E+02  0.23650990956E+02  0.26396486018E+02  0.00000000000E+00 0. -1.
         22    1    1    2    0    0  0.68058643282E+02 -0.20568060170E+02 -0.12433864242E+03  0.14323100929E+03  0.00000000000E+00 0.  1.
</event>
<event>
 6    1  0.2406404E-005  0.5822419E+02  0.7818608E-02  0.1406483E+00
          2   -1    0    0  502    0  0.00000000000E+00  0.00000000000E+00  0.24825670847E+03  0.24825670847E+03  0.00000000000E+00 0.  1.
          1   -1    0    0  501    0 -0.00000000000E+00 -0.00000000000E+00 -0.70846123320E+02  0.70846123320E+02  0.00000000000E+00 0. -1.
          2    1    1    2  501    0 -0.12599420292E+02  0.38573410018E+02  0.15392991028E+03  0.15918878928E+03  0.00000000000E+00 0.  1.
          1    1    1    2  502    0  0.13584139226E+02 -0.15199985330E+02 -0.16722647645E+02  0.26366936432E+02  0.00000000000E+00 0. -1.
         22    1    1    2    0    0  0.12467811894E+02 -0.34534398233E+02 -0.38338334804E+02  0.53083885599E+02  0.00000000000E+00 0. -1.
         22    1    1    2    0    0 -0.13452530829E+02  0.11160973544E+02  0.78541657320E+02  0.80463220485E+02  0.00000000000E+00 0. -1.
</event>
<event>
 6    1  0.2406404E-005  0.1859985E+03  0.7818608E-02  0.1167040E+00
          2   -1    0    0  502    0  0.00000000000E+00  0.00000000000E+00  0.18276658531E+04  0.18276658531E+04  0.00000000000E+00 0. -1.
          1   -1    0    0  501    0 -0.00000000000E+00 -0.00000000000E+00 -0.57586014609E+02  0.57586014609E+02  0.00000000000E+00 0. -1.
          2    1    1    2  501    0 -0.13120757285E+02 -0.13690519183E+03  0.49526568777E+02  0.14617820233E+03  0.00000000000E+00 0. -1.
          1    1    1    2  502    0  0.16032540827E+02  0.57347746679E+02  0.10797321811E+04  0.10813729187E+04  0.00000000000E+00 0. -1.
         22    1    1    2    0    0 -0.94850530811E+01  0.10221625160E+03  0.61154578096E+03  0.62010190334E+03  0.00000000000E+00 0. -1.
         22    1    1    2    0    0  0.65732695389E+01 -0.22658806452E+02  0.29275307717E+02  0.37598843389E+02  0.00000000000E+00 0.  1.
</event>
<event>
 6    1  0.2406404E-005  0.9665446E+02  0.7818608E-02  0.1292763E+00
          2   -1    0    0  502    0  0.00000000000E+00  0.00000000000E+00  0.16194747333E+03  0.16194747333E+03  0.00000000000E+00 0.  1.
          1   -1    0    0  501    0 -0.00000000000E+00 -0.00000000000E+00 -0.27814301018E+03  0.27814301018E+03  0.00000000000E+00 0.  1.
          2    1    1    2  501    0  0.68780033318E+02  0.26009674794E+02  0.10730518501E+03  0.13008304615E+03  0.00000000000E+00 0.  1.
          1    1    1    2  502    0 -0.35006039104E+02 -0.35668000599E+02 -0.14880558974E+03  0.15697366842E+03  0.00000000000E+00 0.  1.
         22    1    1    2    0    0 -0.45690826740E+02  0.59675426700E+01 -0.10802688352E+03  0.11744390481E+03  0.00000000000E+00 0.  1.
         22    1    1    2    0    0  0.11916832526E+02  0.36907831349E+01  0.33331751395E+02  0.35589864128E+02  0.00000000000E+00 0.  1.
</event>
<event>
 6    1  0.2406404E-005  0.1699913E+03  0.7818608E-02  0.1198674E+00
          2   -1    0    0  502    0  0.00000000000E+00  0.00000000000E+00  0.61443567696E+02  0.61443567696E+02  0.00000000000E+00 0.  1.
          1   -1    0    0  501    0 -0.00000000000E+00 -0.00000000000E+00 -0.35501031554E+03  0.35501031554E+03  0.00000000000E+00 0. -1.
          2    1    1    2  501    0  0.57989218431E+02 -0.10186692286E+02 -0.21579092551E+02  0.62707060124E+02  0.00000000000E+00 0.  1.
          1    1    1    2  502    0 -0.55743104850E+01 -0.65059679181E+02 -0.10221984690E+03  0.12129605060E+03  0.00000000000E+00 0. -1.
         22    1    1    2    0    0 -0.24973307931E+02  0.10581498239E+03 -0.84133603573E+02  0.13747341510E+03  0.00000000000E+00 0. -1.
         22    1    1    2    0    0 -0.27441600015E+02 -0.30568610926E+02 -0.85634204822E+02  0.94977357411E+02  0.00000000000E+00 0. -1.
</event>
<event>
 6    1  0.2406404E-005  0.5477174E+02  0.7818608E-02  0.1421958E+00
          2   -1    0    0  502    0  0.00000000000E+00  0.00000000000E+00  0.14833413453E+03  0.14833413453E+03  0.00000000000E+00 0. -1.
          1   -1    0    0  501    0 -0.00000000000E+00 -0.00000000000E+00 -0.10332442740E+03  0.10332442740E+03  0.00000000000E+00 0.  1.
          2    1    1    2  501    0  0.49972000869E+00 -0.26793652197E+02  0.54656624391E+02  0.60872786268E+02  0.00000000000E+00 0. -1.
          1    1    1    2  502    0  0.40380412973E+01  0.28587222603E+02 -0.51521901139E+02  0.59059642487E+02  0.00000000000E+00 0.  1.
         22    1    1    2    0    0  0.41665924861E+01 -0.26042945124E+02  0.80828775819E+02  0.85022858598E+02  0.00000000000E+00 0. -1.
         22    1    1    2    0    0 -0.87043537921E+01  0.24249374718E+02 -0.38953791940E+02  0.46703274571E+02  0.00000000000E+00 0.  1.
</event>
<event>
 6    1  0.2406404E-005  0.6231825E+02  0.7818608E-02  0.1449843E+00
          2   -1    0    0  502    0  0.00000000000E+00  0.00000000000E+00  0.10592469483E+03  0.10592469483E+03  0.00000000000E+00 0.  1.
          1   -1    0    0  501    0 -0.00000000000E+00 -0.00000000000E+00 -0.29248740883E+03  0.29248740883E+03  0.00000000000E+00 0. -1.
          2    1    1    2  501    0  0.16700527888E+02  0.30886153411E+02  0.76698225341E+02  0.84353303876E+02  0.00000000000E+00 0.  1.
          1    1    1    2  502    0 -0.20509385737E+02 -0.67522630272E+01 -0.13461559699E+03  0.13633630079E+03  0.00000000000E+00 0. -1.
         22    1    1    2    0    0 -0.17486004660E+02 -0.35549557391E+02 -0.14382933234E+03  0.14918581779E+03  0.00000000000E+00 0. -1.
         22    1    1    2    0    0  0.21294862509E+02  0.11415667007E+02  0.15183989988E+02  0.28536681209E+02  0.00000000000E+00 0.  1.
</event>
<event>
 6    1  0.2406404E-005  0.3197491E+03  0.7818608E-02  0.1076329E+00
          2   -1    0    0  502    0  0.00000000000E+00  0.00000000000E+00  0.30694221954E+04  0.30694221954E+04  0.00000000000E+00 0. -1.
          1   -1    0    0  501    0 -0.00000000000E+00 -0.00000000000E+00 -0.58895537293E+02  0.58895537293E+02  0.00000000000E+00 0. -1.
          2    1    1    2  501    0 -0.17374141065E+03 -0.16770273957E+03  0.30308844187E+03  0.38752147067E+03  0.00000000000E+00 0. -1.
          1    1    1    2  502    0  0.18677767026E+03  0.18332612575E+03  0.22565560457E+04  0.22716820979E+04  0.00000000000E+00 0. -1.
         22    1    1    2    0    0 -0.52257966726E+02 -0.46090297913E+02  0.16753700507E+03  0.18144932823E+03  0.00000000000E+00 0. -1.
         22    1    1    2    0    0  0.39221707123E+02  0.30466911740E+02  0.28334516547E+03  0.28766483591E+03  0.00000000000E+00 0.  1.
</event>
<event>
 6    1  0.2406404E-005  0.4388482E+02  0.7818608E-02  0.1496464E+00
          2   -1    0    0  502    0  0.00000000000E+00  0.00000000000E+00  0.11068729747E+03  0.11068729747E+03  0.00000000000E+00 0.  1.
          1   -1    0    0  501    0 -0.00000000000E+00 -0.00000000000E+00 -0.19958829597E+03  0.19958829597E+03  0.00000000000E+00 0.  1.
          2    1    1    2  501    0 -0.41952142228E+02 -0.63659943419E+01 -0.97864349096E+02  0.10666742214E+03  0.00000000000E+00 0.  1.
          1    1    1    2  502    0  0.19096965139E+02 -0.12439438768E+02 -0.53493514072E+02  0.58146279006E+02  0.00000000000E+00 0.  1.
         22    1    1    2    0    0  0.20686014981E+02 -0.16706515409E+02 -0.33704250781E+02  0.42930122218E+02  0.00000000000E+00 0. -1.
         22    1    1    2    0    0  0.21691621070E+01  0.35511948519E+02  0.96161115446E+02  0.10253177008E+03  0.00000000000E+00 0.  1.
</event>
<event>
 6    1  0.2406404E-005  0.6345720E+02  0.7818608E-02  0.1386703E+00
          2   -1    0    0  502    0  0.00000000000E+00  0.00000000000E+00  0.49584453781E+02  0.49584453781E+02  0.00000000000E+00 0.  1.
          1   -1    0    0  501    0 -0.00000000000E+00 -0.00000000000E+00 -0.30832123521E+03  0.30832123521E+03  0.00000000000E+00 0.  1.
          2    1    1    2  501    0 -0.29956648578E+02 -0.32829441355E+02  0.80055438488E+01  0.45158185814E+02  0.00000000000E+00 0.  1.
          1    1    1    2  502    0  0.24388677997E+02  0.29658398489E+01 -0.10485327572E+03  0.10769314393E+03  0.00000000000E+00 0.  1.
         22    1    1    2    0    0  0.13460488347E+02  0.36432832791E+02 -0.18004985416E+03  0.18419143855E+03  0.00000000000E+00 0. -1.
         22    1    1    2    0    0 -0.78925177655E+01 -0.65692312846E+01  0.18160804601E+02  0.20862920699E+02  0.00000000000E+00 0. -1.
</event>
<event>
 6    1  0.2406404E-005  0.3635549E+02  0.7818608E-02  0.1565169E+00
          2   -1    0    0  502    0  0.00000000000E+00  0.00000000000E+00  0.56996852171E+02  0.56996852171E+02  0.00000000000E+00 0.  1.
          1   -1    0    0  501    0 -0.00000000000E+00 -0.00000000000E+00 -0.25561546378E+03  0.25561546378E+03  0.00000000000E+00 0. -1.
          2    1    1    2  501    0  0.26179140831E+01 -0.20897784312E+02  0.17320793656E+02  0.27268677198E+02  0.00000000000E+00 0.  1.
          1    1    1    2  502    0  0.15484708928E+02  0.22302621603E+02 -0.11964397975E+03  0.12268604253E+03  0.00000000000E+00 0. -1.
         22    1    1    2    0    0 -0.22839233315E+02  0.10863201672E+02 -0.12687447856E+03  0.12937068075E+03  0.00000000000E+00 0.  1.
         22    1    1    2    0    0  0.47366103037E+01 -0.12268038963E+02  0.30579053038E+02  0.33286915476E+02  0.00000000000E+00 0.  1.
</event>
<event>
 6    1  0.2406404E-005  0.7856887E+02  0.7818608E-02  0.1334543E+00
          2   -1    0    0  502    0  0.00000000000E+00  0.00000000000E+00  0.42646560982E+03  0.42646560982E+03  0.00000000000E+00 0. -1.
          1   -1    0    0  501    0 -0.00000000000E+00 -0.00000000000E+00 -0.12245539414E+03  0.12245539414E+03  0.00000000000E+00 0.  1.
          2    1    1    2  501    0  0.53467515168E+02  0.34278392655E+02  0.33763395738E+03  0.34355563240E+03  0.00000000000E+00 0. -1.
          1    1    1    2  502    0 -0.43247042112E+02 -0.24150849645E+02 -0.54415325614E+02  0.73583951047E+02  0.00000000000E+00 0.  1.
         22    1    1    2    0    0 -0.16709895349E+02 -0.21595958626E+02 -0.51504052912E+02  0.58294712435E+02  0.00000000000E+00 0. -1.
         22    1    1    2    0    0  0.64894222935E+01  0.11468415615E+02  0.72295636832E+02  0.73486708073E+02  0.00000000000E+00 0.  1.
</event>
<event>
 6    1  0.2406404E-005  0.5720261E+02  0.7818608E-02  0.1416787E+00
          2   -1    0    0  502    0  0.00000000000E+00  0.00000000000E+00  0.78908655537E+03  0.78908655537E+03  0.00000000000E+00 0. -1.
          1   -1    0    0  501    0 -0.00000000000E+00 -0.00000000000E+00 -0.15910981968E+03  0.15910981968E+03  0.00000000000E+00 0.  1.
          2    1    1    2  501    0  0.56341456067E+01  0.56874934710E+02  0.62577680267E+03  0.62838134008E+03  0.00000000000E+00 0. -1.
          1    1    1    2  502    0  0.35773841534E+02  0.93714638210E+00 -0.12178500021E+03  0.12693396810E+03  0.00000000000E+00 0.  1.
         22    1    1    2    0    0 -0.52538675751E+02 -0.49923776412E+02  0.14924696210E+03  0.16591368719E+03  0.00000000000E+00 0. -1.
         22    1    1    2    0    0  0.11130688610E+02 -0.78883046803E+01 -0.23262028874E+02  0.26967379684E+02  0.00000000000E+00 0. -1.
</event>
<event>
 6    1  0.2406404E-005  0.7166026E+02  0.7818608E-02  0.1428927E+00
          2   -1    0    0  502    0  0.00000000000E+00  0.00000000000E+00  0.34217196739E+03  0.34217196739E+03  0.00000000000E+00 0. -1.
          1   -1    0    0  501    0 -0.00000000000E+00 -0.00000000000E+00 -0.84966104707E+02  0.84966104707E+02  0.00000000000E+00 0.  1.
          2    1    1    2  501    0 -0.18899515199E+02  0.13942756013E+02  0.73253947046E+02  0.76926802077E+02  0.00000000000E+00 0. -1.
          1    1    1    2  502    0  0.56472986645E+02 -0.29079995933E+02 -0.51931276053E+02  0.82046948856E+02  0.00000000000E+00 0.  1.
         22    1    1    2    0    0 -0.71944353210E+01 -0.20502672941E+02 -0.53911933597E+01  0.22387149510E+02  0.00000000000E+00 0.  1.
         22    1    1    2    0    0 -0.30379036125E+02  0.35639912861E+02  0.24127438505E+03  0.24577717165E+03  0.00000000000E+00 0. -1.
</event>
<event>
 6    1  0.2406404E-005  0.6240574E+02  0.7818608E-02  0.1399898E+00
          2   -1    0    0  502    0  0.00000000000E+00  0.00000000000E+00  0.18108230050E+03  0.18108230050E+03  0.00000000000E+00 0. -1.
          1   -1    0    0  501    0 -0.00000000000E+00 -0.00000000000E+00 -0.24045398363E+03  0.24045398363E+03  0.00000000000E+00 0. -1.
          2    1    1    2  501    0  0.37988863156E+02 -0.68625932816E+01  0.12069148564E+03  0.12671496998E+03  0.00000000000E+00 0. -1.
          1    1    1    2  502    0 -0.20500919000E+02 -0.19250091299E+01 -0.17101161222E+03  0.17224681377E+03  0.00000000000E+00 0. -1.
         22    1    1    2    0    0 -0.29673644174E+02  0.54101295770E+01 -0.61566704898E+02  0.68558397098E+02  0.00000000000E+00 0. -1.
         22    1    1    2    0    0  0.12185700018E+02  0.33774728345E+01  0.52515148354E+02  0.54016103287E+02  0.00000000000E+00 0. -1.
</event>
<event>
 6    1  0.2406404E-005  0.2754996E+03  0.7818608E-02  0.1204129E+00
          2   -1    0    0  502    0  0.00000000000E+00  0.00000000000E+00  0.11523598713E+04  0.11523598713E+04  0.00000000000E+00 0.  1.
          1   -1    0    0  501    0 -0.00000000000E+00 -0.00000000000E+00 -0.93650352546E+02  0.93650352546E+02  0.00000000000E+00 0.  1.
          2    1    1    2  501    0  0.16182621911E+03  0.20347807490E+03  0.47326635149E+03  0.53997415828E+03  0.00000000000E+00 0.  1.
          1    1    1    2  502    0  0.44472239289E+02  0.10708638647E+02  0.18944114078E+03  0.19488560960E+03  0.00000000000E+00 0.  1.
         22    1    1    2    0    0 -0.19137468760E+03 -0.23085027545E+03  0.37762794382E+03  0.48220222384E+03  0.00000000000E+00 0.  1.
         22    1    1    2    0    0 -0.14923770799E+02  0.16663561901E+02  0.18374082702E+02  0.28948232161E+02  0.00000000000E+00 0. -1.
</event>
<event>
 6    1  0.2406404E-005  0.6540846E+02  0.7818608E-02  0.1444136E+00
          2   -1    0    0  502    0  0.00000000000E+00  0.00000000000E+00  0.17445225876E+03  0.17445225876E+03  0.00000000000E+00 0.  1.
          1   -1    0    0  501    0 -0.00000000000E+00 -0.00000000000E+00 -0.37134282344E+03  0.37134282344E+03  0.00000000000E+00 0. -1.
          2    1    1    2  501    0  0.35938184208E+02  0.35441010016E+02  0.12157775719E+03  0.13163878349E+03  0.00000000000E+00 0.  1.
          1    1    1    2  502    0 -0.49651967853E+02 -0.17191197749E+02 -0.27725150826E+03  0.28218655890E+03  0.00000000000E+00 0. -1.
         22    1    1    2    0    0  0.14452279022E+02  0.44760294251E+01  0.42556284228E+02  0.45165700876E+02  0.00000000000E+00 0.  1.
         22    1    1    2    0    0 -0.73849537739E+00 -0.22725841692E+02 -0.83773097830E+02  0.86804038939E+02  0.00000000000E+00 0.  1.
</event>
<event>
 6    1  0.2406404E-005  0.1200226E+03  0.7818608E-02  0.1252147E+00
          2   -1    0    0  502    0  0.00000000000E+00  0.00000000000E+00  0.32486787305E+03  0.32486787305E+03  0.00000000000E+00 0.  1.
          1   -1    0    0  501    0 -0.00000000000E+00 -0.00000000000E+00 -0.84189720845E+02  0.84189720845E+02  0.00000000000E+00 0. -1.
          2    1    1    2  501    0  0.27318413362E+02  0.51494116433E+02  0.11821129937E+03  0.13180231802E+03  0.00000000000E+00 0.  1.
          1    1    1    2  502    0  0.93382447356E+01 -0.80358498822E+02 -0.18402584512E+02  0.82965934361E+02  0.00000000000E+00 0. -1.
         22    1    1    2    0    0 -0.50316201847E+02  0.34339136919E+02  0.15938991488E+03  0.17063423296E+03  0.00000000000E+00 0. -1.
         22    1    1    2    0    0  0.13659543749E+02 -0.54747545304E+01 -0.18520477536E+02  0.23655108555E+02  0.00000000000E+00 0. -1.
</event>
<event>
 6    1  0.2406404E-005  0.9671068E+02  0.7818608E-02  0.1302302E+00
          2   -1    0    0  502    0  0.00000000000E+00  0.00000000000E+00  0.98448849037E+03  0.98448849037E+03  0.00000000000E+00 0. -1.
          1   -1    0    0  501    0 -0.00000000000E+00 -0.00000000000E+00 -0.47300650344E+02  0.47300650344E+02  0.00000000000E+00 0. -1.
          2    1    1    2  501    0 -0.15784944148E+03  0.26571916896E+02  0.35841418291E+03  0.39253437997E+03  0.00000000000E+00 0. -1.
          1    1    1    2  502    0  0.13345342125E+03 -0.35404319516E+02  0.33043649445E+03  0.35812226732E+03  0.00000000000E+00 0. -1.
         22    1    1    2    0    0  0.43892441374E+02  0.52869059759E+02  0.77215255391E+02  0.10336285384E+03  0.00000000000E+00 0. -1.
         22    1    1    2    0    0 -0.19496421145E+02 -0.44036657139E+02  0.17112190727E+03  0.17776963958E+03  0.00000000000E+00 0. -1.
</event>
<event>
 6    1  0.2406404E-005  0.4299285E+03  0.7818608E-02  0.1054340E+00
          2   -1    0    0  502    0  0.00000000000E+00  0.00000000000E+00  0.56947675029E+03  0.56947675029E+03  0.00000000000E+00 0. -1.
          1   -1    0    0  501    0 -0.00000000000E+00 -0.00000000000E+00 -0.25800424191E+03  0.25800424191E+03  0.00000000000E+00 0. -1.
          2    1    1    2  501    0  0.14339920918E+03  0.12852134748E+02  0.12621075773E+03  0.19146191769E+03  0.00000000000E+00 0. -1.
          1    1    1    2  502    0 -0.24412982087E+03  0.13152403982E+03 -0.86008750643E+02  0.29033678320E+03  0.00000000000E+00 0. -1.
         22    1    1    2    0    0  0.66164840868E+02 -0.34723639626E+02  0.19201032867E+03  0.20603757820E+03  0.00000000000E+00 0.  1.
         22    1    1    2    0    0  0.34565770829E+02 -0.10965253495E+03  0.79260172623E+02  0.13964471310E+03  0.00000000000E+00 0. -1.
</event>
<event>
 6    1  0.2406404E-005  0.4092281E+02  0.7818608E-02  0.1522689E+00
          2   -1    0    0  502    0  0.00000000000E+00  0.00000000000E+00  0.14150756695E+03  0.14150756695E+03  0.00000000000E+00 0. -1.
          1   -1    0    0  501    0 -0.00000000000E+00 -0.00000000000E+00 -0.25263554403E+03  0.25263554403E+03  0.00000000000E+00 0. -1.
          2    1    1    2  501    0 -0.20793691645E+02  0.21107331348E+02  0.92304968318E+02  0.96943819942E+02  0.00000000000E+00 0. -1.
          1    1    1    2  502    0 -0.17684915967E+01 -0.49591952365E+02 -0.15393925280E+03  0.16173986167E+03  0.00000000000E+00 0. -1.
         22    1    1    2    0    0  0.25233781254E+02  0.17559947108E+02 -0.89117203609E+02  0.94270734790E+02  0.00000000000E+00 0. -1.
         22    1    1    2    0    0 -0.26715980114E+01  0.10924673909E+02  0.39623511012E+02  0.41188694576E+02  0.00000000000E+00 0.  1.
</event>
<event>
 6    1  0.2406404E-005  0.3426090E+03  0.7818608E-02  0.1066220E+00
          2   -1    0    0  502    0  0.00000000000E+00  0.00000000000E+00  0.80448045865E+03  0.80448045865E+03  0.00000000000E+00 0. -1.
          1   -1    0    0  501    0 -0.00000000000E+00 -0.00000000000E+00 -0.46662607819E+03  0.46662607819E+03  0.00000000000E+00 0. -1.
          2    1    1    2  501    0 -0.62223681239E+02 -0.24202447239E+03  0.43928920067E+03  0.50539354326E+03  0.00000000000E+00 0. -1.
          1    1    1    2  502    0  0.93733850175E+02  0.31181671986E+03 -0.34846829459E+03  0.47691283668E+03  0.00000000000E+00 0. -1.
         22    1    1    2    0    0 -0.25947991383E+02 -0.80415026770E+02  0.25865166090E+03  0.27210394425E+03  0.00000000000E+00 0. -1.
         22    1    1    2    0    0 -0.55621775529E+01  0.10622779299E+02 -0.11618186517E+02  0.16696212657E+02  0.00000000000E+00 0. -1.
</event>
<event>
 6    1  0.2406404E-005  0.1436748E+03  0.7818608E-02  0.1250276E+00
          2   -1    0    0  502    0  0.00000000000E+00  0.00000000000E+00  0.30896996489E+03  0.30896996489E+03  0.00000000000E+00 0. -1.
          1   -1    0    0  501    0 -0.00000000000E+00 -0.00000000000E+00 -0.12993718153E+03  0.12993718153E+03  0.00000000000E+00 0.  1.
          2    1    1    2  501    0  0.26648733706E+02 -0.40128071260E+02  0.20623664382E+03  0.21178755952E+03  0.00000000000E+00 0. -1.
          1    1    1    2  502    0 -0.48453571944E+02 -0.34841595230E+02 -0.53994553006E+02  0.80480414677E+02  0.00000000000E+00 0.  1.
         22    1    1    2    0    0  0.11176638638E+02 -0.51495181142E+01  0.58529733578E+02  0.59809401442E+02  0.00000000000E+00 0.  1.
         22    1    1    2    0    0  0.10628199600E+02  0.80119184605E+02 -0.31739041036E+02  0.86829770784E+02  0.00000000000E+00 0.  1.
</event>
<event>
 6    1  0.2406404E-005  0.7555524E+02  0.7818608E-02  0.1351887E+00
          2   -1    0    0  502    0  0.00000000000E+00  0.00000000000E+00  0.48718322462E+03  0.48718322462E+03  0.00000000000E+00 0.  1.
          1   -1    0    0  501    0 -0.00000000000E+00 -0.00000000000E+00 -0.61550066533E+02  0.61550066533E+02  0.00000000000E+00 0.  1.
          2    1    1    2  501    0 -0.26105607103E+02 -0.70590841531E+01  0.24533245852E+03  0.24681845270E+03  0.00000000000E+00 0.  1.
          1    1    1    2  502    0  0.22445479540E+02  0.44055499018E+02 -0.27535976374E+02  0.56594315442E+02  0.00000000000E+00 0.  1.
         22    1    1    2    0    0  0.16584606006E+02 -0.42169126408E+02  0.22133733059E+03  0.22592808213E+03  0.00000000000E+00 0.  1.
         22    1    1    2    0    0 -0.12924478443E+02  0.51727115433E+01 -0.13500654646E+02  0.19392440888E+02  0.00000000000E+00 0.  1.
</event>
<event>
 6    1  0.2406404E-005  0.7317864E+02  0.7818608E-02  0.1433393E+00
          2   -1    0    0  502    0  0.00000000000E+00  0.00000000000E+00  0.11350791142E+03  0.11350791142E+03  0.00000000000E+00 0.  1.
          1   -1    0    0  501    0 -0.00000000000E+00 -0.00000000000E+00 -0.27948217441E+03  0.27948217441E+03  0.00000000000E+00 0.  1.
          2    1    1    2  501    0 -0.10075544300E+02 -0.29380849960E+02  0.31771805505E+02  0.44431954294E+02  0.00000000000E+00 0.  1.
          1    1    1    2  502    0  0.23008076725E+02  0.56152031391E+02 -0.21035694570E+03  0.21893484608E+03  0.00000000000E+00 0.  1.
         22    1    1    2    0    0 -0.31999775329E+02 -0.27099864981E+02  0.63037770226E+02  0.75710955470E+02  0.00000000000E+00 0.  1.
         22    1    1    2    0    0  0.19067242904E+02  0.32868354968E+00 -0.50426893017E+02  0.53912329983E+02  0.00000000000E+00 0.  1.
</event>
<event>
 6    1  0.2406404E-005  0.1236612E+03  0.7818608E-02  0.1237518E+00
          2   -1    0    0  502    0  0.00000000000E+00  0.00000000000E+00  0.39796658627E+03  0.39796658627E+03  0.00000000000E+00 0. -1.
          1   -1    0    0  501    0 -0.00000000000E+00 -0.00000000000E+00 -0.39505048832E+02  0.39505048832E+02  0.00000000000E+00 0. -1.
          2    1    1    2  501    0  0.36787810792E+02 -0.95405902360E+01  0.30332907412E+02  0.48625622433E+02  0.00000000000E+00 0. -1.
          1    1    1    2  502    0 -0.72774966166E+02 -0.23687738667E+02  0.14085552041E+03  0.16030465462E+03  0.00000000000E+00 0. -1.
         22    1    1    2    0    0  0.60780563351E+02  0.41209398681E+02  0.18867056126E+03  0.20245758100E+03  0.00000000000E+00 0.  1.
         22    1    1    2    0    0 -0.24793407977E+02 -0.79810697786E+01 -0.13974516382E+01  0.26083777047E+02  0.00000000000E+00 0. -1.
</event>
<event>
 6    1  0.2406404E-005  0.2469662E+03  0.7818608E-02  0.1135514E+00
          2   -1    0    0  502    0  0.00000000000E+00  0.00000000000E+00  0.58562058819E+03  0.58562058819E+03  0.00000000000E+00 0. -1.
          1   -1    0    0  501    0 -0.00000000000E+00 -0.00000000000E+00 -0.69522625126E+02  0.69522625126E+02  0.00000000000E+00 0. -1.
          2    1    1    2  501    0 -0.33176101242E+02  0.75892439937E+01  0.21412903623E+02  0.40208988542E+02  0.00000000000E+00 0. -1.
          1    1    1    2  502    0  0.10794948813E+02 -0.13839190112E+03  0.77865527856E+02  0.15915994987E+03  0.00000000000E+00 0. -1.
         22    1    1    2    0    0  0.70874772622E+02  0.39903382861E+02  0.18196049048E+03  0.19931164906E+03  0.00000000000E+00 0. -1.
         22    1    1    2    0    0 -0.48493620193E+02  0.90899274264E+02  0.23485904111E+03  0.25646262584E+03  0.00000000000E+00 0. -1.
</event>
<event>
 6    1  0.2406404E-005  0.4605516E+02  0.7818608E-02  0.1542931E+00
          2   -1    0    0  502    0  0.00000000000E+00  0.00000000000E+00  0.10056789201E+03  0.10056789201E+03  0.00000000000E+00 0.  1.
          1   -1    0    0  501    0 -0.00000000000E+00 -0.00000000000E+00 -0.14877502600E+03  0.14877502600E+03  0.00000000000E+00 0. -1.
          2    1    1    2  501    0 -0.17789070996E+02 -0.25784656303E+02  0.26808730546E+02  0.41231148190E+02  0.00000000000E+00 0.  1.
          1    1    1    2  502    0  0.21591033770E+02  0.15266477356E+02 -0.76240057211E+02  0.80695628095E+02  0.00000000000E+00 0. -1.
         22    1    1    2    0    0 -0.14581320909E+02 -0.77842135170E+01  0.61408199550E+02  0.63593835169E+02  0.00000000000E+00 0.  1.
         22    1    1    2    0    0  0.10779358135E+02  0.18302392464E+02 -0.60184006872E+02  0.63822306562E+02  0.00000000000E+00 0. -1.
</event>
<event>
 6    1  0.2406404E-005  0.2582456E+03  0.7818608E-02  0.1108317E+00
          2   -1    0    0  502    0  0.00000000000E+00  0.00000000000E+00  0.29730369252E+03  0.29730369252E+03  0.00000000000E+00 0. -1.
          1   -1    0    0  501    0 -0.00000000000E+00 -0.00000000000E+00 -0.59254596678E+03  0.59254596678E+03  0.00000000000E+00 0. -1.
          2    1    1    2  501    0  0.13152347818E+03  0.19467042138E+03  0.18127562055E+03  0.29674205782E+03  0.00000000000E+00 0. -1.
          1    1    1    2  502    0 -0.92738087366E+02 -0.18568842099E+03 -0.36399223141E+03  0.41901179824E+03  0.00000000000E+00 0. -1.
         22    1    1    2    0    0 -0.55937405249E+01  0.22418521512E+02  0.22072224622E+02  0.31954078607E+02  0.00000000000E+00 0.  1.
         22    1    1    2    0    0 -0.33191650291E+02 -0.31400521902E+02 -0.13459788802E+03  0.14214172464E+03  0.00000000000E+00 0. -1.
</event>
<event>
 6    1  0.2406404E-005  0.7390123E+02  0.7818608E-02  0.1348342E+00
          2   -1    0    0  502    0  0.00000000000E+00  0.00000000000E+00  0.56315842203E+03  0.56315842203E+03  0.00000000000E+00 0.  1.
          1   -1    0    0  501    0 -0.00000000000E+00 -0.00000000000E+00 -0.19861544703E+03  0.19861544703E+03  0.00000000000E+00 0.  1.
          2    1    1    2  501    0 -0.52353224348E+02 -0.14934887298E+02  0.45900881719E+03  0.46222614077E+03  0.00000000000E+00 0.  1.
          1    1    1    2  502    0  0.61548275121E+02  0.94424796014E+01 -0.14896549838E+03  0.16145609403E+03  0.00000000000E+00 0.  1.
         22    1    1    2    0    0 -0.16928776555E+02 -0.20615620117E+01  0.94822940131E+02  0.96344296606E+02  0.00000000000E+00 0. -1.
         22    1    1    2    0    0  0.77337257822E+01  0.75539697081E+01 -0.40323283941E+02  0.41747337647E+02  0.00000000000E+00 0.  1.
</event>
<event>
 6    1  0.2406404E-005  0.1197318E+03  0.7818608E-02  0.1303123E+00
          2   -1    0    0  502    0  0.00000000000E+00  0.00000000000E+00  0.62043404719E+03  0.62043404719E+03  0.00000000000E+00 0.  1.
          1   -1    0    0  501    0 -0.00000000000E+00 -0.00000000000E+00 -0.34229481576E+02  0.34229481576E+02  0.00000000000E+00 0. -1.
          2    1    1    2  501    0 -0.25420964695E+02  0.26624023906E+02  0.67129215849E+02  0.76559752582E+02  0.00000000000E+00 0.  1.
          1    1    1    2  502    0  0.79104666811E+02 -0.76336891380E+02  0.23932280899E+03  0.26336339192E+03  0.00000000000E+00 0. -1.
         22    1    1    2    0    0 -0.33852333704E+02  0.82167919599E+02  0.25323183777E+03  0.26837270944E+03  0.00000000000E+00 0.  1.
         22    1    1    2    0    0 -0.19831368411E+02 -0.32455052125E+02  0.26520702994E+02  0.46367674826E+02  0.00000000000E+00 0. -1.
</event>
<event>
 6    1  0.2406404E-005  0.1021411E+03  0.7818608E-02  0.1378582E+00
          2   -1    0    0  502    0  0.00000000000E+00  0.00000000000E+00  0.23433847472E+03  0.23433847472E+03  0.00000000000E+00 0.  1.
          1   -1    0    0  501    0 -0.00000000000E+00 -0.00000000000E+00 -0.80905057122E+02  0.80905057122E+02  0.00000000000E+00 0. -1.
          2    1    1    2  501    0  0.71927685646E+02 -0.47887226129E+02  0.91345669671E+02  0.12574104245E+03  0.00000000000E+00 0.  1.
          1    1    1    2  502    0 -0.46546079928E+02  0.22121386372E+02  0.53632730236E+01  0.51813685346E+02  0.00000000000E+00 0. -1.
         22    1    1    2    0    0  0.15806189684E+02 -0.50225492301E+01  0.79670358134E+02  0.81378299308E+02  0.00000000000E+00 0.  1.
         22    1    1    2    0    0 -0.41187795403E+02  0.30788388988E+02 -0.22945883230E+02  0.56310504738E+02  0.00000000000E+00 0.  1.
</event>
<event>
 6    1  0.2406404E-005  0.1745669E+03  0.7818608E-02  0.1177858E+00
          2   -1    0    0  502    0  0.00000000000E+00  0.00000000000E+00  0.77461396949E+03  0.77461396949E+03  0.00000000000E+00 0.  1.
          1   -1    0    0  501    0 -0.00000000000E+00 -0.00000000000E+00 -0.35519575616E+02  0.35519575616E+02  0.00000000000E+00 0.  1.
          2    1    1    2  501    0  0.79853844063E+02  0.69912216933E+02  0.30120552429E+03  0.31935735838E+03  0.00000000000E+00 0.  1.
          1    1    1    2  502    0 -0.44037483277E+02 -0.27544251134E+02  0.25696682698E+03  0.26216394846E+03  0.00000000000E+00 0.  1.
         22    1    1    2    0    0 -0.74067628775E+02  0.80493232790E+01  0.78589661237E+02  0.10829192071E+03  0.00000000000E+00 0.  1.
         22    1    1    2    0    0  0.38251267989E+02 -0.50417289078E+02  0.10233238136E+03  0.12032031755E+03  0.00000000000E+00 0. -1.
</event>
<event>
 6    1  0.2406404E-005  0.4911322E+02  0.7818608E-02  0.1535727E+00
          2   -1    0    0  502    0  0.00000000000E+00  0.00000000000E+00  0.42767667636E+02  0.42767667636E+02  0.00000000000E+00 0. -1.
          1   -1    0    0  501    0 -0.00000000000E+00 -0.00000000000E+00 -0.39689781326E+03  0.39689781326E+03  0.00000000000E+00 0.  1.
          2    1    1    2  501    0  0.32059413258E+02  0.18738654555E+02 -0.44601276296E+02  0.58036342065E+02  0.00000000000E+00 0. -1.
          1    1    1    2  502    0 -0.25381722734E+02 -0.13943964584E+02 -0.23203596042E+03  0.23383616685E+03  0.00000000000E+00 0.  1.
         22    1    1    2    0    0  0.14845440570E+01  0.14897216509E+02  0.32484726566E+02  0.35768539121E+02  0.00000000000E+00 0. -1.
         22    1    1    2    0    0 -0.81622345803E+01 -0.19691906481E+02 -0.10997763547E+03  0.11202443286E+03  0.00000000000E+00 0.  1.
</event>
<event>
 6    1  0.2406404E-005  0.9117769E+02  0.7818608E-02  0.1302841E+00
          2   -1    0    0  502    0  0.00000000000E+00  0.00000000000E+00  0.64138772574E+03  0.64138772574E+03  0.00000000000E+00 0. -1.
          1   -1    0    0  501    0 -0.00000000000E+00 -0.00000000000E+00 -0.62820857333E+02  0.62820857333E+02  0.00000000000E+00 0.  1.
          2    1    1    2  501    0  0.12751335125E+02  0.27299179653E+02  0.36163645187E+03  0.36288946675E+03  0.00000000000E+00 0. -1.
          1    1    1    2  502    0 -0.63140256294E+02 -0.22064917497E+02 -0.17917118986E+02  0.69242874736E+02  0.00000000000E+00 0.  1.
         22    1    1    2    0    0  0.49695146781E+01 -0.23775573114E+02 -0.70200963479E+01  0.25283506596E+02  0.00000000000E+00 0. -1.
         22    1    1    2    0    0  0.45419406490E+02  0.18541310958E+02  0.24186763187E+03  0.24679273499E+03  0.00000000000E+00 0.  1.
</event>
<event>
 6    1  0.2406404E-005  0.5498778E+02  0.7818608E-02  0.1429948E+00
          2   -1    0    0  502    0  0.00000000000E+00  0.00000000000E+00  0.56849501685E+02  0.56849501685E+02  0.00000000000E+00 0.  1.
          1   -1    0    0  501    0 -0.00000000000E+00 -0.00000000000E+00 -0.55412552415E+03  0.55412552415E+03  0.00000000000E+00 0. -1.
          2    1    1    2  501    0  0.77112825020E+02  0.34991009012E+02 -0.46358368650E+02  0.96539405623E+02  0.00000000000E+00 0.  1.
          1    1    1    2  502    0 -0.39349132546E+02 -0.79243768002E+02 -0.28404911449E+03  0.29750937539E+03  0.00000000000E+00 0. -1.
         22    1    1    2    0    0 -0.26905145098E+02  0.12334377665E+02 -0.17874638147E+03  0.18118027650E+03  0.00000000000E+00 0.  1.
         22    1    1    2    0    0 -0.10858547376E+02  0.31918381325E+02  0.11877842144E+02  0.35745968326E+02  0.00000000000E+00 0. -1.
</event>
<event>
 6    1  0.2406404E-005  0.1172173E+03  0.7818608E-02  0.1281897E+00
          2   -1    0    0  502    0  0.00000000000E+00  0.00000000000E+00  0.82408887420E+03  0.82408887420E+03  0.00000000000E+00 0.  1.
          1   -1    0    0  501    0 -0.00000000000E+00 -0.00000000000E+00 -0.60320049461E+02  0.60320049461E+02  0.00000000000E+00 0.  1.
          2    1    1    2  501    0 -0.96492014402E+02 -0.80302524254E+01  0.13947573306E+03  0.16979008779E+03  0.00000000000E+00 0.  1.
          1    1    1    2  502    0 -0.22856559897E+02  0.44066258654E+02 -0.14208618134E+02  0.51634700651E+02  0.00000000000E+00 0.  1.
         22    1    1    2    0    0  0.12039307098E+03 -0.46434493439E+02  0.63958997572E+03  0.65247681243E+03  0.00000000000E+00 0.  1.
         22    1    1    2    0    0 -0.10444966831E+01  0.10398487211E+02 -0.10882659066E+01  0.10507322793E+02  0.00000000000E+00 0.  1.
</event>
<event>
 6    1  0.2406404E-005  0.8783317E+02  0.7818608E-02  0.1331318E+00
          2   -1    0    0  502    0  0.00000000000E+00  0.00000000000E+00  0.85490106201E+03  0.85490106201E+03  0.00000000000E+00 0. -1.
          1   -1    0    0  501    0 -0.00000000000E+00 -0.00000000000E+00 -0.23340497834E+03  0.23340497834E+03  0.00000000000E+00 0.  1.
          2    1    1    2  501    0 -0.35077461311E+02 -0.79358171427E+01  0.78135074901E+03  0.78217798387E+03  0.00000000000E+00 0. -1.
          1    1    1    2  502    0  0.73847041197E+01 -0.19153822151E+02 -0.17711298420E+03  0.17829865937E+03  0.00000000000E+00 0.  1.
         22    1    1    2    0    0  0.25152079193E+02  0.45435598425E+01 -0.50377004766E+02  0.56489942759E+02  0.00000000000E+00 0.  1.
         22    1    1    2    0    0  0.25406779982E+01  0.22546079451E+02  0.67635323633E+02  0.71339454345E+02  0.00000000000E+00 0.  1.
</event>
<event>
 6    1  0.2406404E-005  0.9003388E+02  0.7818608E-02  0.1313097E+00
          2   -1    0    0  502    0  0.00000000000E+00  0.00000000000E+00  0.93152729354E+02  0.93152729354E+02  0.00000000000E+00 0.  1.
          1   -1    0    0  501    0 -0.00000000000E+00 -0.00000000000E+00 -0.10982918724E+03  0.10982918724E+03  0.00000000000E+00 0. -1.
          2    1    1    2  501    0  0.18810554975E+02  0.12106484619E+02  0.33261957075E+02  0.40084432599E+02  0.00000000000E+00 0.  1.
          1    1    1    2  502    0  0.33069677736E+01 -0.25083616668E+02 -0.72694094799E+01  0.26324288693E+02  0.00000000000E+00 0. -1.
         22    1    1    2    0    0 -0.21568956319E+02  0.56655109202E+02  0.16686834945E+02  0.62876639031E+02  0.00000000000E+00 0. -1.
         22    1    1    2    0    0 -0.54856642896E+00 -0.43677977153E+02 -0.59355840427E+02  0.73696556270E+02  0.00000000000E+00 0. -1.
</event>
<event>
 6    1  0.2406404E-005  0.9211110E+02  0.7818608E-02  0.1306948E+00
          2   -1    0    0  502    0  0.00000000000E+00  0.00000000000E+00  0.21800409951E+02  0.21800409951E+02  0.00000000000E+00 0. -1.
          1   -1    0    0  501    0 -0.00000000000E+00 -0.00000000000E+00 -0.38292152247E+03  0.38292152247E+03  0.00000000000E+00 0. -1.
          2    1    1    2  501    0  0.10247613310E+02 -0.23554920986E+02 -0.89091507803E+02  0.92720788628E+02  0.00000000000E+00 0. -1.
          1    1    1    2  502    0 -0.23892075623E+02  0.18278941878E+02 -0.69831821964E+02  0.76035743914E+02  0.00000000000E+00 0. -1.
         22    1    1    2    0    0 -0.20819508655E+02  0.40977613399E+02 -0.17164280330E+03  0.17769037302E+03  0.00000000000E+00 0. -1.
         22    1    1    2    0    0  0.34463970968E+02 -0.35701634290E+02 -0.30554979453E+02  0.58275026858E+02  0.00000000000E+00 0. -1.
</event>
<event>
 6    1  0.2406404E-005  0.2587903E+03  0.7818608E-02  0.1159683E+00
          2   -1    0    0  502    0  0.00000000000E+00  0.00000000000E+00  0.13250157917E+04  0.13250157917E+04  0.00000000000E+00 0.  1.
          1   -1    0    0  501    0 -0.00000000000E+00 -0.00000000000E+00 -0.13799863600E+03  0.13799863600E+03  0.00000000000E+00 0.  1.
          2    1    1    2  501    0  0.42762890907E+02  0.24315605582E+03  0.82303471984E+03  0.85926694478E+03  0.00000000000E+00 0.  1.
          1    1    1    2  502    0 -0.10438967059E+03 -0.22316172791E+03  0.37620431986E+02  0.24922611627E+03  0.00000000000E+00 0.  1.
         22    1    1    2    0    0  0.72103730100E+02 -0.11909761598E+02  0.33213744242E+03  0.34008244732E+03  0.00000000000E+00 0. -1.
         22    1    1    2    0    0 -0.10476950413E+02 -0.80845663137E+01 -0.57754385120E+01  0.14438919366E+02  0.00000000000E+00 0. -1.
</event>
<event>
 6    1  0.2406404E-005  0.1184326E+03  0.7818608E-02  0.1347137E+00
          2   -1    0    0  502    0  0.00000000000E+00  0.00000000000E+00  0.10741692566E+03  0.10741692566E+03  0.00000000000E+00 0.  1.
          1   -1    0    0  501    0 -0.00000000000E+00 -0.00000000000E+00 -0.67330398616E+03  0.67330398616E+03  0.00000000000E+00 0. -1.
          2    1    1    2  501    0 -0.73278409352E+02 -0.72372653561E+02  0.58634162079E+02  0.11851367526E+03  0.00000000000E+00 0.  1.
          1    1    1    2  502    0  0.28778739924E+02  0.28157257401E+02 -0.34976248500E+03  0.35207221267E+03  0.00000000000E+00 0. -1.
         22    1    1    2    0    0  0.36921670366E+02  0.60551241994E+02 -0.28195869939E+03  0.29074107177E+03  0.00000000000E+00 0. -1.
         22    1    1    2    0    0  0.75779990621E+01 -0.16335845834E+02  0.71999618106E+01  0.19393952123E+02  0.00000000000E+00 0. -1.
</event>
<event>
 6    1  0.2406404E-005  0.1528152E+03  0.7818608E-02  0.1237727E+00
          2   -1    0    0  502    0  0.00000000000E+00  0.00000000000E+00  0.13429199004E+03  0.13429199004E+03  0.00000000000E+00 0. -1.
          1   -1    0    0  501    0 -0.00000000000E+00 -0.00000000000E+00 -0.50028955418E+03  0.50028955418E+03  0.00000000000E+00 0.  1.
          2    1    1    2  501    0  0.23727115895E+02 -0.46277681881E+02  0.98975858563E+02  0.11180706797E+03  0.00000000000E+00 0. -1.
          1    1    1    2  502    0  0.12945766750E+02 -0.26804309415E+02 -0.29417105644E+03  0.29567325602E+03  0.00000000000E+00 0.  1.
         22    1    1    2    0    0  0.79408738069E+01 -0.91642089687E+01  0.14868696412E+02  0.19186410186E+02  0.00000000000E+00 0.  1.
         22    1    1    2    0    0 -0.44613756451E+02  0.82246200265E+02 -0.18567106267E+03  0.20791481005E+03  0.00000000000E+00 0.  1.
</event>
<event>
 6    1  0.3333416E-005  0.3332674E+03  0.7818608E-02  0.1170722E+00
          2   -1    0    0  502    0  0.00000000000E+00  0.00000000000E+00  0.10871107277E+04  0.10871107277E+04  0.00000000000E+00 0.  1.
          1   -1    0    0  501    0 -0.00000000000E+00 -0.00000000000E+00 -0.35184338251E+03  0.35184338251E+03  0.00000000000E+00 0.  1.
          2    1    1    2  501    0  0.10190921782E+03  0.30331762900E+03  0.81106226268E+03  0.87189968843E+03  0.00000000000E+00 0.  1.
          1    1    1    2  502    0 -0.89879940369E+02 -0.30046069098E+03 -0.21539269480E+03  0.38045899054E+03  0.00000000000E+00 0.  1.
         22    1    1    2    0    0 -0.22065294513E+02  0.14722931512E+02  0.15741132110E+03  0.15963071742E+03  0.00000000000E+00 0.  1.
         22    1    1    2    0    0  0.10036017056E+02 -0.17579869532E+02 -0.17813543771E+02  0.26964713846E+02  0.00000000000E+00 0. -1.
</event>
<event>
 6    1  0.2406404E-005  0.7667314E+02  0.7818608E-02  0.1351313E+00
          2   -1    0    0  502    0  0.00000000000E+00  0.00000000000E+00  0.64877752234E+02  0.64877752234E+02  0.00000000000E+00 0.  1.
          1   -1    0    0  501    0 -0.00000000000E+00 -0.00000000000E+00 -0.45252843081E+03  0.45252843081E+03  0.00000000000E+00 0. -1.
          2    1    1    2  501    0  0.21785806176E+01 -0.38550148051E+02  0.38187447131E+02  0.54305996415E+02  0.00000000000E+00 0.  1.
          1    1    1    2  502    0  0.23097771115E+02  0.26493420590E+02 -0.19461185275E+03  0.19776041463E+03  0.00000000000E+00 0. -1.
         22    1    1    2    0    0 -0.24657699575E+02  0.33393489225E+02 -0.23903350034E+03  0.24261109116E+03  0.00000000000E+00 0. -1.
         22    1    1    2    0    0 -0.61865215714E+00 -0.21336761765E+02  0.78072273806E+01  0.22728680834E+02  0.00000000000E+00 0. -1.
</event>
<event>
 6    1  0.2406404E-005  0.1055248E+03  0.7818608E-02  0.1358566E+00
          2   -1    0    0  502    0  0.00000000000E+00  0.00000000000E+00  0.60943497614E+02  0.60943497614E+02  0.00000000000E+00 0. -1.
          1   -1    0    0  501    0 -0.00000000000E+00 -0.00000000000E+00 -0.55296991541E+03  0.55296991541E+03  0.00000000000E+00 0. -1.
          2    1    1    2  501    0  0.91325965129E+02  0.64560484473E+00 -0.48024158120E+02  0.10318511751E+03  0.00000000000E+00 0. -1.
          1    1    1    2  502    0 -0.77579756368E+02  0.27214212345E+02 -0.33496606718E+03  0.34490795600E+03  0.00000000000E+00 0. -1.
         22    1    1    2    0    0  0.92775593600E+01 -0.18800043803E+02  0.23211763307E+02  0.31277799004E+02  0.00000000000E+00 0.  1.
         22    1    1    2    0    0 -0.23023768121E+02 -0.90597733865E+01 -0.13224795581E+03  0.13454254051E+03  0.00000000000E+00 0.  1.
</event>
<event>
 6    1  0.2406404E-005  0.4395913E+02  0.7818608E-02  0.1497583E+00
          2   -1    0    0  502    0  0.00000000000E+00  0.00000000000E+00  0.93673733950E+02  0.93673733950E+02  0.00000000000E+00 0.  1.
          1   -1    0    0  501    0 -0.00000000000E+00 -0.00000000000E+00 -0.16001879136E+03  0.16001879136E+03  0.00000000000E+00 0.  1.
          2    1    1    2  501    0 -0.48268496479E+01 -0.45057282765E+02  0.31273238465E+01  0.45422872676E+02  0.00000000000E+00 0.  1.
          1    1    1    2  502    0  0.18400909674E+02  0.83674493594E+01 -0.70727966887E+02  0.73559859880E+02  0.00000000000E+00 0.  1.
         22    1    1    2    0    0 -0.28129714869E+02  0.37598032224E+02  0.58855739325E+02  0.75292037674E+02  0.00000000000E+00 0.  1.
         22    1    1    2    0    0  0.14555654843E+02 -0.90819881803E+00 -0.57600153695E+02  0.59417755080E+02  0.00000000000E+00 0. -1.
</event>
<event>
 6    1  0.2406404E-005  0.2867450E+02  0.7818608E-02  0.1634648E+00
          2   -1    0    0  502    0  0.00000000000E+00  0.00000000000E+00  0.37609184115E+03  0.37609184115E+03  0.00000000000E+00 0. -1.
          1   -1    0    0  501    0 -0.00000000000E+00 -0.00000000000E+00 -0.18681109964E+03  0.18681109964E+03  0.00000000000E+00 0. -1.
          2    1    1    2  501    0  0.58993034226E+02 -0.21658834555E+02  0.31904072098E+03  0.32517113163E+03  0.00000000000E+00 0. -1.
          1    1    1    2  502    0 -0.33540994243E+02  0.26880060338E+02 -0.96892351605E+02  0.10599841385E+03  0.00000000000E+00 0. -1.
         22    1    1    2    0    0 -0.14922104361E+02 -0.26160102390E+00 -0.80923404289E+02  0.82288121837E+02  0.00000000000E+00 0.  1.
         22    1    1    2    0    0 -0.10529935622E+02 -0.49596247592E+01  0.48055776415E+02  0.49445273473E+02  0.00000000000E+00 0.  1.
</event>
<event>
 6    1  0.2406404E-005  0.1125539E+03  0.7818608E-02  0.1320610E+00
          2   -1    0    0  502    0  0.00000000000E+00  0.00000000000E+00  0.38205873881E+03  0.38205873881E+03  0.00000000000E+00 0. -1.
          1   -1    0    0  501    0 -0.00000000000E+00 -0.00000000000E+00 -0.56970987791E+02  0.56970987791E+02  0.00000000000E+00 0. -1.
          2    1    1    2  501    0 -0.36197919091E+02  0.39541887912E+02  0.12206243760E+03  0.13331574895E+03  0.00000000000E+00 0. -1.
          1    1    1    2  502    0  0.64847903373E+02 -0.68104893996E+02  0.91548555078E+02  0.13124277159E+03  0.00000000000E+00 0. -1.
         22    1    1    2    0    0 -0.61620780811E+02  0.33679421975E+02  0.12088735728E+03  0.13980406733E+03  0.00000000000E+00 0. -1.
         22    1    1    2    0    0  0.32970796529E+02 -0.51164158917E+01 -0.94105989344E+01  0.34667138729E+02  0.00000000000E+00 0. -1.
</event>
<event>
 6    1  0.2406404E-005  0.7520518E+02  0.7818608E-02  0.1343558E+00
          2   -1    0    0  502    0  0.00000000000E+00  0.00000000000E+00  0.29302983099E+03  0.29302983099E+03  0.00000000000E+00 0. -1.
          1   -1    0    0  501    0 -0.00000000000E+00 -0.00000000000E+00 -0.73986473154E+02  0.73986473154E+02  0.00000000000E+00 0.  1.
          2    1    1    2  501    0  0.36576400765E+02  0.41555190712E+02  0.18437727710E+03  0.19250882390E+03  0.00000000000E+00 0. -1.
          1    1    1    2  502    0 -0.24055755169E+02 -0.25804884597E+02 -0.92725214676E+01  0.36476719702E+02  0.00000000000E+00 0.  1.
         22    1    1    2    0    0 -0.94611932462E+01 -0.34433291495E+02 -0.39046763263E+02  0.52913282474E+02  0.00000000000E+00 0.  1.
         22    1    1    2    0    0 -0.30594523498E+01  0.18682985380E+02  0.82985365459E+02  0.85117478063E+02  0.00000000000E+00 0. -1.
</event>
<event>
 6    1  0.2406404E-005  0.6822370E+02  0.7818608E-02  0.1371176E+00
          2   -1    0    0  502    0  0.00000000000E+00  0.00000000000E+00  0.11780206931E+03  0.11780206931E+03  0.00000000000E+00 0. -1.
          1   -1    0    0  501    0 -0.00000000000E+00 -0.00000000000E+00 -0.13154407167E+03  0.13154407167E+03  0.00000000000E+00 0. -1.
          2    1    1    2  501    0  0.11176569936E+01 -0.46841454989E+02  0.63784091890E+02  0.79144054993E+02  0.00000000000E+00 0. -1.
          1    1    1    2  502    0  0.81281598713E+01  0.19515977166E+02 -0.17244460872E+02  0.27282077971E+02  0.00000000000E+00 0. -1.
         22    1    1    2    0    0 -0.72768800247E+01  0.41765489564E+02 -0.95673115584E+02  0.10464537327E+03  0.00000000000E+00 0. -1.
         22    1    1    2    0    0 -0.19689368402E+01 -0.14440011742E+02  0.35391482215E+02  0.38274634744E+02  0.00000000000E+00 0. -1.
</event>
<event>
 6    1  0.2406404E-005  0.4827938E+02  0.7818608E-02  0.1478770E+00
          2   -1    0    0  502    0  0.00000000000E+00  0.00000000000E+00  0.37831428087E+03  0.37831428087E+03  0.00000000000E+00 0. -1.
          1   -1    0    0  501    0 -0.00000000000E+00 -0.00000000000E+00 -0.89257485917E+02  0.89257485917E+02  0.00000000000E+00 0.  1.
          2    1    1    2  501    0 -0.77501759438E+01 -0.54373295788E+02  0.23786451136E+03  0.24412301466E+03  0.00000000000E+00 0. -1.
          1    1    1    2  502    0  0.20256456192E+02  0.25799509353E+02 -0.49957164256E+02  0.59763341279E+02  0.00000000000E+00 0.  1.
         22    1    1    2    0    0 -0.26431706380E+02  0.21732214404E+02  0.12809796262E+03  0.13258963863E+03  0.00000000000E+00 0. -1.
         22    1    1    2    0    0  0.13925426132E+02  0.68415720312E+01 -0.26948514775E+02  0.31095772211E+02  0.00000000000E+00 0.  1.
</event>
<event>
 6    1  0.2406404E-005  0.4181796E+02  0.7818608E-02  0.1540199E+00
          2   -1    0    0  502    0  0.00000000000E+00  0.00000000000E+00  0.21760266946E+03  0.21760266946E+03  0.00000000000E+00 0.  1.
          1   -1    0    0  501    0 -0.00000000000E+00 -0.00000000000E+00 -0.82971786577E+02  0.82971786577E+02  0.00000000000E+00 0.  1.
          2    1    1    2  501    0 -0.41247206330E+02  0.59896767342E+01  0.96442881663E+02  0.10506396947E+03  0.00000000000E+00 0.  1.
          1    1    1    2  502    0  0.33809037586E+02  0.98998366122E+01 -0.32157650211E+02  0.47698765755E+02  0.00000000000E+00 0.  1.
         22    1    1    2    0    0  0.20484626523E+02 -0.29657615028E+02 -0.29254120454E+02  0.46421951881E+02  0.00000000000E+00 0.  1.
         22    1    1    2    0    0 -0.13046457779E+02  0.13768101682E+02  0.99599771887E+02  0.10138976893E+03  0.00000000000E+00 0.  1.
</event>
<event>
 6    1  0.2406404E-005  0.7546115E+02  0.7818608E-02  0.1343625E+00
          2   -1    0    0  502    0  0.00000000000E+00  0.00000000000E+00  0.36839046165E+02  0.36839046165E+02  0.00000000000E+00 0.  1.
          1   -1    0    0  501    0 -0.00000000000E+00 -0.00000000000E+00 -0.34324286273E+03  0.34324286273E+03  0.00000000000E+00 0. -1.
          2    1    1    2  501    0  0.34576222591E+02 -0.28028858261E+02 -0.74950045222E+01  0.45136539044E+02  0.00000000000E+00 0.  1.
          1    1    1    2  502    0 -0.22903240040E+02  0.13026939701E+02 -0.78781679630E+02  0.83071129808E+02  0.00000000000E+00 0. -1.
         22    1    1    2    0    0 -0.20767447698E+02  0.42956981057E+02 -0.21714600047E+03  0.22232627965E+03  0.00000000000E+00 0.  1.
         22    1    1    2    0    0  0.90944651470E+01 -0.27955062497E+02 -0.29811319456E+01  0.29547960390E+02  0.00000000000E+00 0. -1.
</event>
<event>
 6    1  0.2406404E-005  0.6396234E+02  0.7818608E-02  0.1436041E+00
          2   -1    0    0  502    0  0.00000000000E+00  0.00000000000E+00  0.25997991362E+03  0.25997991362E+03  0.00000000000E+00 0. -1.
          1   -1    0    0  501    0 -0.00000000000E+00 -0.00000000000E+00 -0.63850449378E+02  0.63850449378E+02  0.00000000000E+00 0.  1.
          2    1    1    2  501    0 -0.18985616406E+02  0.49285333079E+02  0.99965866570E+02  0.11306048013E+03  0.00000000000E+00 0. -1.
          1    1    1    2  502    0  0.25257032452E+02 -0.34375551574E+02 -0.14271986765E+02  0.44980949751E+02  0.00000000000E+00 0.  1.
         22    1    1    2    0    0 -0.25829084956E+02 -0.92696729045E+01  0.13276674516E+03  0.13557314293E+03  0.00000000000E+00 0. -1.
         22    1    1    2    0    0  0.19557668910E+02 -0.56401086001E+01 -0.22331160714E+02  0.30215790194E+02  0.00000000000E+00 0.  1.
</event>
<event>
 6    1  0.2406404E-005  0.8208171E+02  0.7818608E-02  0.1324245E+00
          2   -1    0    0  502    0  0.00000000000E+00  0.00000000000E+00  0.99777726418E+02  0.99777726418E+02  0.00000000000E+00 0.  1.
          1   -1    0    0  501    0 -0.00000000000E+00 -0.00000000000E+00 -0.16583344988E+03  0.16583344988E+03  0.00000000000E+00 0. -1.
          2    1    1    2  501    0  0.34677225290E+02 -0.41328109370E+02  0.33317402199E+02  0.63407979523E+02  0.00000000000E+00 0.  1.
          1    1    1    2  502    0 -0.17582901226E+02  0.16262878700E+02 -0.60976608980E+02  0.65511727819E+02  0.00000000000E+00 0. -1.
         22    1    1    2    0    0 -0.21161095000E+02  0.49958701253E+02 -0.74798925757E+02  0.92404237278E+02  0.00000000000E+00 0. -1.
         22    1    1    2    0    0  0.40667709367E+01 -0.24893470583E+02  0.36402409074E+02  0.44287231680E+02  0.00000000000E+00 0.  1.
</event>
<event>
 6    1  0.2406404E-005  0.9905030E+02  0.7818608E-02  0.1329479E+00
          2   -1    0    0  502    0  0.00000000000E+00  0.00000000000E+00  0.27199119174E+03  0.27199119174E+03  0.00000000000E+00 0. -1.
          1   -1    0    0  501    0 -0.00000000000E+00 -0.00000000000E+00 -0.53320895703E+02  0.53320895703E+02  0.00000000000E+00 0. -1.
          2    1    1    2  501    0 -0.15456740538E+02  0.13436682598E+02  0.13377653119E+02  0.24462560583E+02  0.00000000000E+00 0. -1.
          1    1    1    2  502    0 -0.27076169204E+02  0.14462680403E+02 -0.20095985538E+02  0.36689735593E+02  0.00000000000E+00 0. -1.
         22    1    1    2    0    0  0.50133349064E+02 -0.34631292263E+02  0.23930102038E+03  0.24693654539E+03  0.00000000000E+00 0. -1.
         22    1    1    2    0    0 -0.76004393217E+01  0.67319292628E+01 -0.13912391926E+02  0.17223245879E+02  0.00000000000E+00 0.  1.
</event>
<event>
 6    1  0.2406404E-005  0.5705080E+02  0.7818608E-02  0.1501568E+00
          2   -1    0    0  502    0  0.00000000000E+00  0.00000000000E+00  0.13833282013E+03  0.13833282013E+03  0.00000000000E+00 0. -1.
          1   -1    0    0  501    0 -0.00000000000E+00 -0.00000000000E+00 -0.18298076752E+03  0.18298076752E+03  0.00000000000E+00 0.  1.
          2    1    1    2  501    0  0.40905344081E+02 -0.85503389992E+01  0.61259440398E+02  0.74155744951E+02  0.00000000000E+00 0. -1.
          1    1    1    2  502    0 -0.41943686474E+02  0.97237962376E+00 -0.11306480834E+03  0.12059796533E+03  0.00000000000E+00 0.  1.
         22    1    1    2    0    0  0.15063833125E+02  0.97452317308E+00  0.64972236166E+02  0.66702775326E+02  0.00000000000E+00 0. -1.
         22    1    1    2    0    0 -0.14025490732E+02  0.66034362023E+01 -0.57814815612E+02  0.59857102037E+02  0.00000000000E+00 0. -1.
</event>
<event>
 6    1  0.2406404E-005  0.5106232E+02  0.7818608E-02  0.1454322E+00
          2   -1    0    0  502    0  0.00000000000E+00  0.00000000000E+00  0.42822453818E+02  0.42822453818E+02  0.00000000000E+00 0. -1.
          1   -1    0    0  501    0 -0.00000000000E+00 -0.00000000000E+00 -0.32385545381E+03  0.32385545381E+03  0.00000000000E+00 0. -1.
          2    1    1    2  501    0  0.10173083919E+02  0.23972511321E+02  0.26242682629E+01  0.26173645512E+02  0.00000000000E+00 0. -1.
          1    1    1    2  502    0  0.11319777830E+02 -0.45512768134E+02 -0.14932580129E+03  0.15651755290E+03  0.00000000000E+00 0. -1.
         22    1    1    2    0    0 -0.40873386785E+02  0.45339415341E+01 -0.14882912833E+03  0.15440628165E+03  0.00000000000E+00 0. -1.
         22    1    1    2    0    0  0.19380525036E+02  0.17006315279E+02  0.14497661368E+02  0.29580427569E+02  0.00000000000E+00 0. -1.
</event>
<event>
 6    1  0.2406404E-005  0.1133288E+03  0.7818608E-02  0.1371960E+00
          2   -1    0    0  502    0  0.00000000000E+00  0.00000000000E+00  0.49142426849E+02  0.49142426849E+02  0.00000000000E+00 0.  1.
          1   -1    0    0  501    0 -0.00000000000E+00 -0.00000000000E+00 -0.48879919792E+03  0.48879919792E+03  0.00000000000E+00 0.  1.
          2    1    1    2  501    0 -0.24475889388E+02 -0.95768496703E+02 -0.11286123887E+03  0.15002777530E+03  0.00000000000E+00 0.  1.
          1    1    1    2  502    0  0.24732637102E+02  0.64892395542E+02 -0.16231561230E+03  0.17654768289E+03  0.00000000000E+00 0.  1.
         22    1    1    2    0    0  0.16335784670E+01  0.44280854406E+02 -0.18307736357E+03  0.18836343514E+03  0.00000000000E+00 0.  1.
         22    1    1    2    0    0 -0.18903261809E+01 -0.13404753245E+02  0.18597443670E+02  0.23002731440E+02  0.00000000000E+00 0. -1.
</event>
<event>
 6    1  0.2406404E-005  0.4361045E+02  0.7818608E-02  0.1527211E+00
          2   -1    0    0  502    0  0.00000000000E+00  0.00000000000E+00  0.66652702186E+02  0.66652702186E+02  0.00000000000E+00 0.  1.
          1   -1    0    0  501    0 -0.00000000000E+00 -0.00000000000E+00 -0.22750368043E+03  0.22750368043E+03  0.00000000000E+00 0. -1.
          2    1    1    2  501    0 -0.88032151430E+01 -0.26077856771E+02 -0.62868008355E+01  0.28232518048E+02  0.00000000000E+00 0.  1.
          1    1    1    2  502    0  0.21571031813E+02  0.17549688989E+02 -0.13515975756E+03  0.13799080064E+03  0.00000000000E+00 0. -1.
         22    1    1    2    0    0  0.96872245631E+01  0.16773073862E+02 -0.69645057110E+02  0.72288396762E+02  0.00000000000E+00 0. -1.
         22    1    1    2    0    0 -0.22455041233E+02 -0.82449060804E+01  0.50240637256E+02  0.55644667174E+02  0.00000000000E+00 0.  1.
</event>
<event>
 6    1  0.2406404E-005  0.3431991E+03  0.7818608E-02  0.1197848E+00
          2   -1    0    0  502    0  0.00000000000E+00  0.00000000000E+00  0.10781174445E+04  0.10781174445E+04  0.00000000000E+00 0. -1.
          1   -1    0    0  501    0 -0.00000000000E+00 -0.00000000000E+00 -0.37378345174E+03  0.37378345174E+03  0.00000000000E+00 0. -1.
          2    1    1    2  501    0  0.28156268979E+03 -0.40357020042E+03  0.16670217217E+03  0.51955372114E+03  0.00000000000E+00 0. -1.
          1    1    1    2  502    0  0.43693005713E+01  0.27272843256E+03 -0.26511714756E+02  0.27404882728E+03  0.00000000000E+00 0. -1.
         22    1    1    2    0    0  0.10585246375E+02  0.79851014560E+01  0.62309424201E+01  0.14650390081E+02  0.00000000000E+00 0. -1.
         22    1    1    2    0    0 -0.29651723673E+03  0.12285666641E+03  0.55791259296E+03  0.64364795777E+03  0.00000000000E+00 0. -1.
</event>
<event>
 6    1  0.2406404E-005  0.5912898E+02  0.7818608E-02  0.1411055E+00
          2   -1    0    0  502    0  0.00000000000E+00  0.00000000000E+00  0.50189702574E+02  0.50189702574E+02  0.00000000000E+00 0.  1.
          1   -1    0    0  501    0 -0.00000000000E+00 -0.00000000000E+00 -0.17111798540E+03  0.17111798540E+03  0.00000000000E+00 0. -1.
          2    1    1    2  501    0 -0.19124197988E+02  0.10417067698E+02  0.89048375732E+01  0.23527566392E+02  0.00000000000E+00 0.  1.
          1    1    1    2  502    0  0.88726254511E+01 -0.20456257497E+02 -0.29507063819E+02  0.36984439544E+02  0.00000000000E+00 0. -1.
         22    1    1    2    0    0 -0.16937850527E+02  0.23081768847E+02  0.21174207398E+02  0.35609070368E+02  0.00000000000E+00 0.  1.
         22    1    1    2    0    0  0.27189423064E+02 -0.13042579048E+02 -0.12150026398E+03  0.12518661167E+03  0.00000000000E+00 0. -1.
</event>
<event>
 6    1  0.2406404E-005  0.5340874E+02  0.7818608E-02  0.1534289E+00
          2   -1    0    0  502    0  0.00000000000E+00  0.00000000000E+00  0.15811821421E+03  0.15811821421E+03  0.00000000000E+00 0. -1.
          1   -1    0    0  501    0 -0.00000000000E+00 -0.00000000000E+00 -0.11620763157E+03  0.11620763157E+03  0.00000000000E+00 0.  1.
          2    1    1    2  501    0 -0.42163090107E+02 -0.23772777252E+02  0.93559867937E+02  0.10533907155E+03  0.00000000000E+00 0. -1.
          1    1    1    2  502    0 -0.15653712237E+02 -0.12623382217E+02 -0.13447893283E+02  0.24191616712E+02  0.00000000000E+00 0.  1.
         22    1    1    2    0    0  0.69608782611E+02  0.35100228458E+02  0.23924921550E+02  0.81546370401E+02  0.00000000000E+00 0.  1.
         22    1    1    2    0    0 -0.11791980266E+02  0.12959310109E+01 -0.62126313565E+02  0.63248787126E+02  0.00000000000E+00 0.  1.
</event>
<event>
 6    1  0.2406404E-005  0.8508071E+02  0.7818608E-02  0.1315302E+00
          2   -1    0    0  502    0  0.00000000000E+00  0.00000000000E+00  0.24949501073E+03  0.24949501073E+03  0.00000000000E+00 0.  1.
          1   -1    0    0  501    0 -0.00000000000E+00 -0.00000000000E+00 -0.52542634566E+02  0.52542634566E+02  0.00000000000E+00 0. -1.
          2    1    1    2  501    0 -0.40019023024E+02  0.90201276991E+01  0.58302482525E+02  0.71288599201E+02  0.00000000000E+00 0.  1.
          1    1    1    2  502    0  0.31032046655E+02  0.24222132919E+02 -0.53259975096E+01  0.39724877498E+02  0.00000000000E+00 0. -1.
         22    1    1    2    0    0  0.41215474507E+02 -0.18838565894E+02  0.26916216342E+01  0.45396604838E+02  0.00000000000E+00 0. -1.
         22    1    1    2    0    0 -0.32228498139E+02 -0.14403694724E+02  0.14128426952E+03  0.14562756376E+03  0.00000000000E+00 0.  1.
</event>
<event>
 6    1  0.2406404E-005  0.1496191E+03  0.7818608E-02  0.1210312E+00
          2   -1    0    0  502    0  0.00000000000E+00  0.00000000000E+00  0.57790338909E+03  0.57790338909E+03  0.00000000000E+00 0.  1.
          1   -1    0    0  501    0 -0.00000000000E+00 -0.00000000000E+00 -0.98055624138E+02  0.98055624138E+02  0.00000000000E+00 0. -1.
          2    1    1    2  501    0  0.13054329863E+02 -0.17153993670E+02  0.36277961108E+03  0.36341948385E+03  0.00000000000E+00 0.  1.
          1    1    1    2  502    0 -0.69449437521E+02  0.62434491787E+02 -0.37078698194E+02  0.10047945062E+03  0.00000000000E+00 0. -1.
         22    1    1    2    0    0  0.78919130816E+02 -0.27392600356E+02  0.16197714069E+03  0.18225031651E+03  0.00000000000E+00 0. -1.
         22    1    1    2    0    0 -0.22524023158E+02 -0.17887897761E+02 -0.78302886192E+01  0.29809762250E+02  0.00000000000E+00 0. -1.
</event>
<event>
 6    1  0.2406404E-005  0.1531407E+03  0.7818608E-02  0.1283417E+00
          2   -1    0    0  502    0  0.00000000000E+00  0.00000000000E+00  0.45069332721E+03  0.45069332721E+03  0.00000000000E+00 0.  1.
          1   -1    0    0  501    0 -0.00000000000E+00 -0.00000000000E+00 -0.16697658644E+03  0.16697658644E+03  0.00000000000E+00 0.  1.
          2    1    1    2  501    0  0.12504421681E+03 -0.22544342533E+02  0.36262859272E+03  0.38424445318E+03  0.00000000000E+00 0.  1.
          1    1    1    2  502    0 -0.88589058340E+02  0.20126460788E+02 -0.36215254872E+02  0.97798979376E+02  0.00000000000E+00 0.  1.
         22    1    1    2    0    0  0.10998811736E+02 -0.23826400392E+02  0.33217843655E+02  0.42333159017E+02  0.00000000000E+00 0.  1.
         22    1    1    2    0    0 -0.47453970202E+02  0.26244282136E+02 -0.75914440740E+02  0.93293322085E+02  0.00000000000E+00 0. -1.
</event>
<event>
 6    1  0.2406404E-005  0.1566595E+03  0.7818608E-02  0.1196783E+00
          2   -1    0    0  502    0  0.00000000000E+00  0.00000000000E+00  0.10547222525E+04  0.10547222525E+04  0.00000000000E+00 0.  1.
          1   -1    0    0  501    0 -0.00000000000E+00 -0.00000000000E+00 -0.26014585860E+02  0.26014585860E+02  0.00000000000E+00 0.  1.
          2    1    1    2  501    0  0.23263563745E+02  0.30207996520E+02  0.10560886935E+03  0.11228067392E+03  0.00000000000E+00 0.  1.
          1    1    1    2  502    0 -0.59043288227E+02 -0.10364097883E+03  0.59304138800E+03  0.60491788720E+03  0.00000000000E+00 0.  1.
         22    1    1    2    0    0  0.72901447327E+02  0.69738093997E+02  0.15784368200E+03  0.18733032516E+03  0.00000000000E+00 0.  1.
         22    1    1    2    0    0 -0.37121722845E+02  0.36948883108E+01  0.17221372729E+03  0.17620795207E+03  0.00000000000E+00 0.  1.
</event>
<event>
 6    1  0.2406404E-005  0.7400435E+02  0.7818608E-02  0.1406458E+00
          2   -1    0    0  502    0  0.00000000000E+00  0.00000000000E+00  0.32953015346E+03  0.32953015346E+03  0.00000000000E+00 0.  1.
          1   -1    0    0  501    0 -0.00000000000E+00 -0.00000000000E+00 -0.14843568259E+03  0.14843568259E+03  0.00000000000E+00 0.  1.
          2    1    1    2  501    0 -0.12700236997E+02  0.36779964970E+02  0.21956512277E+03  0.22298633362E+03  0.00000000000E+00 0.  1.
          1    1    1    2  502    0  0.56699399182E+02 -0.35160298266E+02 -0.88043554126E+02  0.11046599416E+03  0.00000000000E+00 0.  1.
         22    1    1    2    0    0 -0.18835178575E+02 -0.20590125720E+02 -0.40445636150E+02  0.49138240838E+02  0.00000000000E+00 0. -1.
         22    1    1    2    0    0 -0.25163983610E+02  0.18970459016E+02  0.90018538378E+02  0.95375267434E+02  0.00000000000E+00 0.  1.
</event>
<event>
 6    1  0.2406404E-005  0.1122662E+03  0.7818608E-02  0.1280219E+00
          2   -1    0    0  502    0  0.00000000000E+00  0.00000000000E+00  0.12410393634E+03  0.12410393634E+03  0.00000000000E+00 0. -1.
          1   -1    0    0  501    0 -0.00000000000E+00 -0.00000000000E+00 -0.15032958069E+03  0.15032958069E+03  0.00000000000E+00 0. -1.
          2    1    1    2  501    0 -0.43471198811E+02  0.17989901636E+02 -0.65387069816E+02  0.80553402076E+02  0.00000000000E+00 0. -1.
          1    1    1    2  502    0  0.13140795573E+02 -0.23030283169E+02  0.59245510024E+02  0.64908434807E+02  0.00000000000E+00 0. -1.
         22    1    1    2    0    0  0.59670478998E+02 -0.20136498916E+02 -0.49736518386E+02  0.80248152088E+02  0.00000000000E+00 0.  1.
         22    1    1    2    0    0 -0.29340075760E+02  0.25176880449E+02  0.29652433822E+02  0.48723528057E+02  0.00000000000E+00 0.  1.
</event>
<event>
 6    1  0.2406404E-005  0.1032461E+03  0.7818608E-02  0.1274132E+00
          2   -1    0    0  502    0  0.00000000000E+00  0.00000000000E+00  0.52976977209E+03  0.52976977209E+03  0.00000000000E+00 0. -1.
          1   -1    0    0  501    0 -0.00000000000E+00 -0.00000000000E+00 -0.70067151506E+02  0.70067151506E+02  0.00000000000E+00 0. -1.
          2    1    1    2  501    0 -0.69296430000E+02  0.13068550848E+02  0.37625401478E+03  0.38280525841E+03  0.00000000000E+00 0. -1.
          1    1    1    2  502    0  0.65879239669E+02 -0.75010707754E+01 -0.29395416157E+01  0.66370032296E+02  0.00000000000E+00 0. -1.
         22    1    1    2    0    0  0.33451675083E+02 -0.43346423926E+01 -0.20604461180E+02  0.39526541855E+02  0.00000000000E+00 0. -1.
         22    1    1    2    0    0 -0.30034484752E+02 -0.12328376802E+01  0.10699260860E+03  0.11113509103E+03  0.00000000000E+00 0. -1.
</event>
<event>
 6    1  0.2406404E-005  0.7561130E+02  0.7818608E-02  0.1390186E+00
          2   -1    0    0  502    0  0.00000000000E+00  0.00000000000E+00  0.15017724051E+03  0.15017724051E+03  0.00000000000E+00 0. -1.
          1   -1    0    0  501    0 -0.00000000000E+00 -0.00000000000E+00 -0.10323382487E+04  0.10323382487E+04  0.00000000000E+00 0. -1.
          2    1    1    2  501    0  0.16623538638E+02 -0.62651931646E+02  0.11961557563E+03  0.13604959577E+03  0.00000000000E+00 0. -1.
          1    1    1    2  502    0 -0.15488629160E+02  0.36923036344E+02 -0.83106212892E+03  0.83202612361E+03  0.00000000000E+00 0. -1.
         22    1    1    2    0    0 -0.10113024877E+02  0.32331094186E+02 -0.18955054456E+03  0.19255384147E+03  0.00000000000E+00 0. -1.
         22    1    1    2    0    0  0.89781153983E+01 -0.66021988842E+01  0.18836089660E+02  0.21885928353E+02  0.00000000000E+00 0. -1.
</event>
<event>
 6    1  0.2406404E-005  0.3053674E+02  0.7818608E-02  0.1611764E+00
          2   -1    0    0  502    0  0.00000000000E+00  0.00000000000E+00  0.17692949830E+03  0.17692949830E+03  0.00000000000E+00 0.  1.
          1   -1    0    0  501    0 -0.00000000000E+00 -0.00000000000E+00 -0.88885859167E+02  0.88885859167E+02  0.00000000000E+00 0.  1.
          2    1    1    2  501    0 -0.12077424592E+02 -0.39702283045E+02  0.90298734035E+02  0.99378050052E+02  0.00000000000E+00 0.  1.
          1    1    1    2  502    0 -0.11066794626E+02  0.34882997664E+02  0.25596628031E+01  0.36685819372E+02  0.00000000000E+00 0.  1.
         22    1    1    2    0    0  0.18446181904E+02 -0.11411664010E+02  0.59459986810E+02  0.63292793695E+02  0.00000000000E+00 0.  1.
         22    1    1    2    0    0  0.46980373134E+01  0.16230949391E+02 -0.64274744513E+02  0.66458694351E+02  0.00000000000E+00 0.  1.
</event>
<event>
 6    1  0.2406404E-005  0.1556372E+03  0.7818608E-02  0.1232480E+00
          2   -1    0    0  502    0  0.00000000000E+00  0.00000000000E+00  0.12163802457E+03  0.12163802457E+03  0.00000000000E+00 0.  1.
          1   -1    0    0  501    0 -0.00000000000E+00 -0.00000000000E+00 -0.23531061672E+03  0.23531061672E+03  0.00000000000E+00 0.  1.
          2    1    1    2  501    0 -0.21208259308E+02 -0.14642614447E+01 -0.48385412439E+02  0.52849621204E+02  0.00000000000E+00 0.  1.
          1    1    1    2  502    0  0.28086068593E+02  0.39174960331E+02 -0.14491495752E+03  0.15272147747E+03  0.00000000000E+00 0.  1.
         22    1    1    2    0    0 -0.18143262855E+02 -0.23241469361E+02  0.11110372409E+03  0.11494947321E+03  0.00000000000E+00 0.  1.
         22    1    1    2    0    0  0.11265453571E+02 -0.14469229526E+02 -0.31475946271E+02  0.36428069409E+02  0.00000000000E+00 0. -1.
</event>
<event>
 6    1  0.2406404E-005  0.1600421E+03  0.7818608E-02  0.1208540E+00
          2   -1    0    0  502    0  0.00000000000E+00  0.00000000000E+00  0.45495784928E+03  0.45495784928E+03  0.00000000000E+00 0.  1.
          1   -1    0    0  501    0 -0.00000000000E+00 -0.00000000000E+00 -0.38696748375E+02  0.38696748375E+02  0.00000000000E+00 0.  1.
          2    1    1    2  501    0  0.52626396732E+02  0.28190061445E+02  0.64630118511E+02  0.87984483951E+02  0.00000000000E+00 0.  1.
          1    1    1    2  502    0 -0.37250177862E+02  0.13178459979E+02  0.20181687798E+03  0.20564848600E+03  0.00000000000E+00 0.  1.
         22    1    1    2    0    0  0.18178794477E+02  0.38143822163E+02  0.73682037953E+02  0.84937991822E+02  0.00000000000E+00 0. -1.
         22    1    1    2    0    0 -0.33555013347E+02 -0.79512343587E+02  0.76132066463E+02  0.11508363588E+03  0.00000000000E+00 0.  1.
</event>
<event>
 6    1  0.2406404E-005  0.1864366E+03  0.7818608E-02  0.1162574E+00
          2   -1    0    0  502    0  0.00000000000E+00  0.00000000000E+00  0.25075547192E+03  0.25075547192E+03  0.00000000000E+00 0. -1.
          1   -1    0    0  501    0 -0.00000000000E+00 -0.00000000000E+00 -0.17976817125E+03  0.17976817125E+03  0.00000000000E+00 0. -1.
          2    1    1    2  501    0 -0.43151361827E+02  0.35003364913E+02  0.58554534207E+02  0.80721180981E+02  0.00000000000E+00 0. -1.
          1    1    1    2  502    0  0.14791712478E+03 -0.58922628990E+02 -0.61223965192E+02  0.17058641776E+03  0.00000000000E+00 0. -1.
         22    1    1    2    0    0  0.10804541447E+02 -0.24960512784E+02 -0.93534612433E+01  0.28761998393E+02  0.00000000000E+00 0. -1.
         22    1    1    2    0    0 -0.11557030440E+03  0.48879776861E+02  0.83010192896E+02  0.15045404604E+03  0.00000000000E+00 0. -1.
</event>
<event>
 6    1  0.2406404E-005  0.9328312E+02  0.7818608E-02  0.1403627E+00
          2   -1    0    0  502    0  0.00000000000E+00  0.00000000000E+00  0.23883040855E+03  0.23883040855E+03  0.00000000000E+00 0. -1.
          1   -1    0    0  501    0 -0.00000000000E+00 -0.00000000000E+00 -0.82160379935E+02  0.82160379935E+02  0.00000000000E+00 0.  1.
          2    1    1    2  501    0  0.12752687838E+02 -0.17990660764E+02  0.27169330449E+02  0.34992391157E+02  0.00000000000E+00 0. -1.
          1    1    1    2  502    0 -0.69975219861E+02  0.38953762021E+02 -0.18914172816E+02  0.82290175012E+02  0.00000000000E+00 0.  1.
         22    1    1    2    0    0 -0.40558266767E+01  0.13991531571E+02 -0.17882951796E+02  0.23065399426E+02  0.00000000000E+00 0. -1.
         22    1    1    2    0    0  0.61278358700E+02 -0.34954632828E+02  0.16629782278E+03  0.18064282289E+03  0.00000000000E+00 0. -1.
</event>
<event>
 6    1  0.2406404E-005  0.1379320E+03  0.7818608E-02  0.1243506E+00
          2   -1    0    0  502    0  0.00000000000E+00  0.00000000000E+00  0.17146452240E+03  0.17146452240E+03  0.00000000000E+00 0. -1.
          1   -1    0    0  501    0 -0.00000000000E+00 -0.00000000000E+00 -0.22520936930E+03  0.22520936930E+03  0.00000000000E+00 0. -1.
          2    1    1    2  501    0  0.39523634793E+02  0.38520278435E+02  0.71772622147E+02  0.90538604185E+02  0.00000000000E+00 0. -1.
          1    1    1    2  502    0  0.98825335146E+01 -0.21854743042E+02 -0.16400226042E+03  0.16574690249E+03  0.00000000000E+00 0. -1.
         22    1    1    2    0    0  0.86829507724E+01  0.13027295390E+02  0.67280340086E+02  0.69077841753E+02  0.00000000000E+00 0. -1.
         22    1    1    2    0    0 -0.58089119080E+02 -0.29692830783E+02 -0.28795548719E+02  0.71310543270E+02  0.00000000000E+00 0. -1.
</event>
<event>
 6    1  0.2406404E-005  0.7108637E+02  0.7818608E-02  0.1418647E+00
          2   -1    0    0  502    0  0.00000000000E+00  0.00000000000E+00  0.13791687901E+03  0.13791687901E+03  0.00000000000E+00 0. -1.
          1   -1    0    0  501    0 -0.00000000000E+00 -0.00000000000E+00 -0.16774826527E+03  0.16774826527E+03  0.00000000000E+00 0.  1.
          2    1    1    2  501    0  0.23993030658E+02  0.52676193226E+02  0.85671258648E+02  0.10339251139E+03  0.00000000000E+00 0. -1.
          1    1    1    2  502    0 -0.25077875763E+02 -0.16618562678E+02 -0.42956177892E+02  0.52443395173E+02  0.00000000000E+00 0.  1.
         22    1    1    2    0    0 -0.24540211482E+02 -0.31374071766E+02 -0.10259819858E+03  0.11005882386E+03  0.00000000000E+00 0.  1.
         22    1    1    2    0    0  0.25625056587E+02 -0.46835587815E+01  0.30051731563E+02  0.39770413851E+02  0.00000000000E+00 0. -1.
</event>
<event>
 6    1  0.2406404E-005  0.4104453E+02  0.7818608E-02  0.1574726E+00
          2   -1    0    0  502    0  0.00000000000E+00  0.00000000000E+00  0.23616576269E+03  0.23616576269E+03  0.00000000000E+00 0. -1.
          1   -1    0    0  501    0 -0.00000000000E+00 -0.00000000000E+00 -0.97605210584E+02  0.97605210584E+02  0.00000000000E+00 0. -1.
          2    1    1    2  501    0 -0.21656687603E+02  0.26220948726E+02  0.33747137383E+02  0.47910536957E+02  0.00000000000E+00 0. -1.
          1    1    1    2  502    0  0.41588836647E+02 -0.54936610343E+02 -0.49410880167E+02  0.84788546210E+02  0.00000000000E+00 0. -1.
         22    1    1    2    0    0 -0.83931257500E+01  0.29160455584E+02  0.17483392150E+03  0.17744767352E+03  0.00000000000E+00 0. -1.
         22    1    1    2    0    0 -0.11539023294E+02 -0.44479396711E+00 -0.20609626612E+02  0.23624216587E+02  0.00000000000E+00 0.  1.
</event>
<event>
 6    1  0.2406404E-005  0.1322910E+03  0.7818608E-02  0.1227165E+00
          2   -1    0    0  502    0  0.00000000000E+00  0.00000000000E+00  0.93880175200E+03  0.93880175200E+03  0.00000000000E+00 0. -1.
          1   -1    0    0  501    0 -0.00000000000E+00 -0.00000000000E+00 -0.29750906200E+02  0.29750906200E+02  0.00000000000E+00 0. -1.
          2    1    1    2  501    0 -0.58268560260E+02  0.66892869711E+00  0.61956626694E+03  0.62230059594E+03  0.00000000000E+00 0. -1.
          1    1    1    2  502    0  0.32381750626E+02  0.69336449317E+01  0.16022407121E+03  0.16361053206E+03  0.00000000000E+00 0. -1.
         22    1    1    2    0    0  0.11536696860E+02  0.35641976893E+02 -0.77479996176E+01  0.38255423006E+02  0.00000000000E+00 0. -1.
         22    1    1    2    0    0  0.14350112775E+02 -0.43244550522E+02  0.13700850727E+03  0.14438610719E+03  0.00000000000E+00 0.  1.
</event>
<event>
 6    1  0.2406404E-005  0.1566683E+03  0.7818608E-02  0.1213541E+00
          2   -1    0    0  502    0  0.00000000000E+00  0.00000000000E+00  0.26048170742E+03  0.26048170742E+03  0.00000000000E+00 0. -1.
          1   -1    0    0  501    0 -0.00000000000E+00 -0.00000000000E+00 -0.95502175519E+02  0.95502175519E+02  0.00000000000E+00 0. -1.
          2    1    1    2  501    0  0.50724075614E+02  0.40375715945E+02 -0.19336220149E+02  0.67653674657E+02  0.00000000000E+00 0. -1.
          1    1    1    2  502    0 -0.53195460758E+02  0.12880624611E+02  0.13032744814E+03  0.14135385129E+03  0.00000000000E+00 0. -1.
         22    1    1    2    0    0 -0.89708580865E+00  0.34567433996E+02 -0.12502868083E+02  0.36770014500E+02  0.00000000000E+00 0. -1.
         22    1    1    2    0    0  0.33684709523E+01 -0.87823774551E+02  0.66491171999E+02  0.11020634250E+03  0.00000000000E+00 0. -1.
</event>
<event>
 6    1  0.2406404E-005  0.2391134E+03  0.7818608E-02  0.1125656E+00
          2   -1    0    0  502    0  0.00000000000E+00  0.00000000000E+00  0.65978126396E+03  0.65978126396E+03  0.00000000000E+00 0. -1.
          1   -1    0    0  501    0 -0.00000000000E+00 -0.00000000000E+00 -0.90894377992E+02  0.90894377992E+02  0.00000000000E+00 0. -1.
          2    1    1    2  501    0 -0.57864607559E+02  0.46870798461E+02  0.35932386071E+02  0.82682047175E+02  0.00000000000E+00 0. -1.
          1    1    1    2  502    0  0.16354586928E+03 -0.66581507540E+02  0.97870821288E+02  0.20188869747E+03  0.00000000000E+00 0. -1.
         22    1    1    2    0    0 -0.14361809776E+02 -0.29806112485E+02  0.20994737686E+02  0.39184753821E+02  0.00000000000E+00 0. -1.
         22    1    1    2    0    0 -0.91319451946E+02  0.49516821564E+02  0.41408894093E+03  0.42692014349E+03  0.00000000000E+00 0. -1.
</event>
<event>
 6    1  0.2406404E-005  0.5223297E+02  0.7818608E-02  0.1433871E+00
          2   -1    0    0  502    0  0.00000000000E+00  0.00000000000E+00  0.26231497264E+03  0.26231497264E+03  0.00000000000E+00 0. -1.
          1   -1    0    0  501    0 -0.00000000000E+00 -0.00000000000E+00 -0.17765164639E+03  0.17765164639E+03  0.00000000000E+00 0. -1.
          2    1    1    2  501    0 -0.24894799974E+02  0.33111603553E+02  0.20371203677E+03  0.20788151260E+03  0.00000000000E+00 0. -1.
          1    1    1    2  502    0  0.21395154933E+02 -0.17990788465E+02 -0.10664725621E+03  0.11024998132E+03  0.00000000000E+00 0. -1.
         22    1    1    2    0    0 -0.10000593779E+02  0.40914137093E+01  0.52091601457E+02  0.53200436882E+02  0.00000000000E+00 0. -1.
         22    1    1    2    0    0  0.13500238819E+02 -0.19212228797E+02 -0.64493055770E+02  0.68634688213E+02  0.00000000000E+00 0. -1.
</event>
<event>
 6    1  0.2406404E-005  0.1567682E+03  0.7818608E-02  0.1195325E+00
          2   -1    0    0  502    0  0.00000000000E+00  0.00000000000E+00  0.29800740695E+03  0.29800740695E+03  0.00000000000E+00 0.  1.
          1   -1    0    0  501    0 -0.00000000000E+00 -0.00000000000E+00 -0.12997941340E+03  0.12997941340E+03  0.00000000000E+00 0. -1.
          2    1    1    2  501    0  0.67978735029E+02  0.42995303487E+01  0.84487864661E+02  0.10852554378E+03  0.00000000000E+00 0.  1.
          1    1    1    2  502    0 -0.11168320586E+03  0.50132733729E+02 -0.38485412283E+02  0.12832597718E+03  0.00000000000E+00 0. -1.
         22    1    1    2    0    0  0.67332897208E+02 -0.56647950741E+02  0.13718124244E+03  0.16297669357E+03  0.00000000000E+00 0.  1.
         22    1    1    2    0    0 -0.23628426380E+02  0.22156866640E+01 -0.15155701273E+02  0.28158605819E+02  0.00000000000E+00 0. -1.
</event>
<event>
 6    1  0.2406404E-005  0.8227365E+02  0.7818608E-02  0.1361241E+00
          2   -1    0    0  502    0  0.00000000000E+00  0.00000000000E+00  0.18982738547E+03  0.18982738547E+03  0.00000000000E+00 0.  1.
          1   -1    0    0  501    0 -0.00000000000E+00 -0.00000000000E+00 -0.98027705010E+02  0.98027705010E+02  0.00000000000E+00 0.  1.
          2    1    1    2  501    0  0.33905841389E+02  0.52476352923E+02  0.77193060055E+02  0.99308318972E+02  0.00000000000E+00 0.  1.
          1    1    1    2  502    0 -0.26934418489E+02 -0.53680205806E+02  0.23637033112E+02  0.64542518769E+02  0.00000000000E+00 0.  1.
         22    1    1    2    0    0  0.32613342128E+02  0.16086564961E+02  0.43414747965E+02  0.56632570115E+02  0.00000000000E+00 0. -1.
         22    1    1    2    0    0 -0.39584765029E+02 -0.14882712078E+02 -0.52445160674E+02  0.67371682622E+02  0.00000000000E+00 0.  1.
</event>
<event>
 6    1  0.2406404E-005  0.8532560E+02  0.7818608E-02  0.1328337E+00
          2   -1    0    0  502    0  0.00000000000E+00  0.00000000000E+00  0.83086926764E+02  0.83086926764E+02  0.00000000000E+00 0. -1.
          1   -1    0    0  501    0 -0.00000000000E+00 -0.00000000000E+00 -0.34821545804E+03  0.34821545804E+03  0.00000000000E+00 0.  1.
          2    1    1    2  501    0 -0.24616748412E+02  0.30656002795E+02  0.46734568681E+02  0.61072864020E+02  0.00000000000E+00 0. -1.
          1    1    1    2  502    0 -0.12421740423E+02 -0.27133554069E+02 -0.17895293162E+03  0.18142403680E+03  0.00000000000E+00 0.  1.
         22    1    1    2    0    0 -0.94053703930E+01 -0.24369102497E+02  0.16543587861E+02  0.30919321597E+02  0.00000000000E+00 0. -1.
         22    1    1    2    0    0  0.46443859228E+02  0.20846653770E+02 -0.14945375620E+03  0.15788616240E+03  0.00000000000E+00 0. -1.
</event>
<event>
 6    1  0.2406404E-005  0.1340970E+03  0.7818608E-02  0.1235768E+00
          2   -1    0    0  502    0  0.00000000000E+00  0.00000000000E+00  0.31220836092E+02  0.31220836092E+02  0.00000000000E+00 0. -1.
          1   -1    0    0  501    0 -0.00000000000E+00 -0.00000000000E+00 -0.61215265419E+03  0.61215265419E+03  0.00000000000E+00 0. -1.
          2    1    1    2  501    0  0.56091962099E+02 -0.35149915527E+02 -0.24644529462E+03  0.25518054003E+03  0.00000000000E+00 0. -1.
          1    1    1    2  502    0 -0.49544403831E+02 -0.12135454064E+02 -0.36633632261E+02  0.62800797837E+02  0.00000000000E+00 0. -1.
         22    1    1    2    0    0  0.50192473622E+01 -0.31161943108E+02 -0.18375273164E+03  0.18644389485E+03  0.00000000000E+00 0.  1.
         22    1    1    2    0    0 -0.11566805630E+02  0.78447312699E+02 -0.11410015958E+03  0.13894825756E+03  0.00000000000E+00 0.  1.
</event>
<event>
 6    1  0.2406404E-005  0.5009323E+02  0.7818608E-02  0.1469493E+00
          2   -1    0    0  502    0  0.00000000000E+00  0.00000000000E+00  0.15815951212E+04  0.15815951212E+04  0.00000000000E+00 0. -1.
          1   -1    0    0  501    0 -0.00000000000E+00 -0.00000000000E+00 -0.41111506169E+02  0.41111506169E+02  0.00000000000E+00 0. -1.
          2    1    1    2  501    0 -0.47062033403E+02 -0.64829592818E+02  0.13535943706E+04  0.13559629166E+04  0.00000000000E+00 0. -1.
          1    1    1    2  502    0  0.14136937381E+02  0.28275941909E+02 -0.54611917979E+01  0.32081248498E+02  0.00000000000E+00 0. -1.
         22    1    1    2    0    0  0.72038237412E+01  0.12873377631E+02 -0.16945174501E+02  0.22466817019E+02  0.00000000000E+00 0. -1.
         22    1    1    2    0    0  0.25721272281E+02  0.23680273278E+02  0.20929561073E+03  0.21219564525E+03  0.00000000000E+00 0. -1.
</event>
<event>
 6    1  0.2406404E-005  0.4210406E+02  0.7818608E-02  0.1575522E+00
          2   -1    0    0  502    0  0.00000000000E+00  0.00000000000E+00  0.27992256429E+03  0.27992256429E+03  0.00000000000E+00 0. -1.
          1   -1    0    0  501    0 -0.00000000000E+00 -0.00000000000E+00 -0.22048464545E+03  0.22048464545E+03  0.00000000000E+00 0.  1.
          2    1    1    2  501    0 -0.16683056006E+02  0.18581546989E+02  0.17373726026E+03  0.17552274454E+03  0.00000000000E+00 0. -1.
          1    1    1    2  502    0  0.28279607545E+02 -0.30032545718E+01 -0.18137245560E+03  0.18358846203E+03  0.00000000000E+00 0.  1.
         22    1    1    2    0    0 -0.16940831667E+02 -0.23095011676E+01  0.10206814954E+03  0.10349025425E+03  0.00000000000E+00 0. -1.
         22    1    1    2    0    0  0.53442801278E+01 -0.13268791249E+02 -0.34995035365E+02  0.37805748921E+02  0.00000000000E+00 0. -1.
</event>
<event>
 6    1  0.2406404E-005  0.9529373E+02  0.7818608E-02  0.1338805E+00
          2   -1    0    0  502    0  0.00000000000E+00  0.00000000000E+00  0.50768078479E+02  0.50768078479E+02  0.00000000000E+00 0. -1.
          1   -1    0    0  501    0 -0.00000000000E+00 -0.00000000000E+00 -0.40798133896E+03  0.40798133896E+03  0.00000000000E+00 0.  1.
          2    1    1    2  501    0  0.66615407281E+02  0.27032391903E+02 -0.14925799763E+02  0.73424397837E+02  0.00000000000E+00 0. -1.
          1    1    1    2  502    0 -0.47282545354E+02 -0.73402085522E+01 -0.11641314867E+03  0.12586317547E+03  0.00000000000E+00 0.  1.
         22    1    1    2    0    0 -0.49183725886E+02  0.67992841347E+01 -0.21116970232E+03  0.21692835761E+03  0.00000000000E+00 0.  1.
         22    1    1    2    0    0  0.29850863959E+02 -0.26491467485E+02 -0.14704609734E+02  0.42533486526E+02  0.00000000000E+00 0. -1.
</event>
<event>
 6    1  0.2406404E-005  0.6610069E+02  0.7818608E-02  0.1415346E+00
          2   -1    0    0  502    0  0.00000000000E+00  0.00000000000E+00  0.25011479084E+03  0.25011479084E+03  0.00000000000E+00 0.  1.
          1   -1    0    0  501    0 -0.00000000000E+00 -0.00000000000E+00 -0.13129379267E+03  0.13129379267E+03  0.00000000000E+00 0. -1.
          2    1    1    2  501    0  0.24316062988E+02  0.52525254688E+02  0.19313166822E+03  0.20161848766E+03  0.00000000000E+00 0.  1.
          1    1    1    2  502    0 -0.30657888679E+00 -0.39695840669E+02 -0.25526501746E+02  0.47195932541E+02  0.00000000000E+00 0. -1.
         22    1    1    2    0    0 -0.23362226051E+02 -0.24832526936E+02 -0.86517113357E+02  0.92992789525E+02  0.00000000000E+00 0. -1.
         22    1    1    2    0    0 -0.64725805070E+00  0.12003112917E+02  0.37732945052E+02  0.39601373777E+02  0.00000000000E+00 0.  1.
</event>
<event>
 6    1  0.2406404E-005  0.9219660E+02  0.7818608E-02  0.1326905E+00
          2   -1    0    0  502    0  0.00000000000E+00  0.00000000000E+00  0.81798807353E+03  0.81798807353E+03  0.00000000000E+00 0. -1.
          1   -1    0    0  501    0 -0.00000000000E+00 -0.00000000000E+00 -0.47533194171E+02  0.47533194171E+02  0.00000000000E+00 0. -1.
          2    1    1    2  501    0  0.52758913668E+02  0.91719003812E+02  0.43123278121E+03  0.44402431265E+03  0.00000000000E+00 0. -1.
          1    1    1    2  502    0 -0.46057775084E+01 -0.68370960737E+02  0.17530433557E+02  0.70732719156E+02  0.00000000000E+00 0. -1.
         22    1    1    2    0    0 -0.54252513227E+02 -0.18405413100E+01  0.32379138744E+03  0.32831019686E+03  0.00000000000E+00 0. -1.
         22    1    1    2    0    0  0.60993770671E+01 -0.21507501765E+02 -0.20997228520E+01  0.22454039031E+02  0.00000000000E+00 0. -1.
</event>
<event>
 6    1  0.2406404E-005  0.6642734E+02  0.7818608E-02  0.1373425E+00
          2   -1    0    0  502    0  0.00000000000E+00  0.00000000000E+00  0.58998395844E+02  0.58998395844E+02  0.00000000000E+00 0. -1.
          1   -1    0    0  501    0 -0.00000000000E+00 -0.00000000000E+00 -0.24697952752E+03  0.24697952752E+03  0.00000000000E+00 0. -1.
          2    1    1    2  501    0 -0.25446137934E+02  0.29023855541E+02  0.22883674322E+02  0.44872627254E+02  0.00000000000E+00 0. -1.
          1    1    1    2  502    0  0.13069511437E+02 -0.20919628851E+02 -0.54307569733E+02  0.59646920547E+02  0.00000000000E+00 0. -1.
         22    1    1    2    0    0 -0.49269678408E+01  0.26383845875E+02  0.11374575868E+02  0.29150700016E+02  0.00000000000E+00 0. -1.
         22    1    1    2    0    0  0.17303594338E+02 -0.34488072565E+02 -0.16793181213E+03  0.17230767555E+03  0.00000000000E+00 0. -1.
</event>
<event>
 6    1  0.2406404E-005  0.1259785E+03  0.7818608E-02  0.1235478E+00
          2   -1    0    0  502    0  0.00000000000E+00  0.00000000000E+00  0.60528919296E+03  0.60528919296E+03  0.00000000000E+00 0.  1.
          1   -1    0    0  501    0 -0.00000000000E+00 -0.00000000000E+00 -0.33038579385E+02  0.33038579385E+02  0.00000000000E+00 0.  1.
          2    1    1    2  501    0 -0.35254584222E+01  0.46354962279E+02  0.92773763603E+02  0.10376985399E+03  0.00000000000E+00 0.  1.
          1    1    1    2  502    0  0.37452151819E+02 -0.82556131210E+02  0.12352834324E+03  0.15322346446E+03  0.00000000000E+00 0.  1.
         22    1    1    2    0    0  0.21481749596E+02 -0.29771605771E+01  0.29670156708E+01  0.21889089355E+02  0.00000000000E+00 0.  1.
         22    1    1    2    0    0 -0.55408442993E+02  0.39178329508E+02  0.35298149106E+03  0.35944536454E+03  0.00000000000E+00 0.  1.
</event>
<event>
 6    1  0.2406404E-005  0.7432884E+02  0.7818608E-02  0.1371164E+00
          2   -1    0    0  502    0  0.00000000000E+00  0.00000000000E+00  0.98029138567E+02  0.98029138567E+02  0.00000000000E+00 0.  1.
          1   -1    0    0  501    0 -0.00000000000E+00 -0.00000000000E+00 -0.15011388031E+03  0.15011388031E+03  0.00000000000E+00 0.  1.
          2    1    1    2  501    0 -0.23015420981E+02 -0.69736734366E+01  0.51529542943E+02  0.56865064144E+02  0.00000000000E+00 0.  1.
          1    1    1    2  502    0  0.13886989023E+02  0.29085221959E+02 -0.39385986103E+02  0.50892578062E+02  0.00000000000E+00 0.  1.
         22    1    1    2    0    0  0.32563665237E+02 -0.21533498038E+02 -0.94413440371E+02  0.10216644045E+03  0.00000000000E+00 0.  1.
         22    1    1    2    0    0 -0.23435233279E+02 -0.57805048375E+00  0.30185141788E+02  0.38218936222E+02  0.00000000000E+00 0.  1.
</event>
<event>
 6    1  0.2406404E-005  0.3706917E+02  0.7818608E-02  0.1591454E+00
          2   -1    0    0  502    0  0.00000000000E+00  0.00000000000E+00  0.10827532234E+03  0.10827532234E+03  0.00000000000E+00 0. -1.
          1   -1    0    0  501    0 -0.00000000000E+00 -0.00000000000E+00 -0.27195884655E+03  0.27195884655E+03  0.00000000000E+00 0. -1.
          2    1    1    2  501    0  0.37780893128E+02 -0.22411075355E+02 -0.10083795411E+03  0.10999065948E+03  0.00000000000E+00 0. -1.
          1    1    1    2  502    0 -0.12129416693E+02  0.26204992923E+02 -0.12192855494E+03  0.12530122470E+03  0.00000000000E+00 0. -1.
         22    1    1    2    0    0 -0.31955350844E+02 -0.19832137734E+02  0.96596639763E+02  0.10365987145E+03  0.00000000000E+00 0. -1.
         22    1    1    2    0    0  0.63038744095E+01  0.16038220165E+02 -0.37513654923E+02  0.41282413257E+02  0.00000000000E+00 0. -1.
</event>
<event>
 6    1  0.2406404E-005  0.5483431E+02  0.7818608E-02  0.1468743E+00
          2   -1    0    0  502    0  0.00000000000E+00  0.00000000000E+00  0.11434899193E+03  0.11434899193E+03  0.00000000000E+00 0.  1.
          1   -1    0    0  501    0 -0.00000000000E+00 -0.00000000000E+00 -0.19055755302E+03  0.19055755302E+03  0.00000000000E+00 0. -1.
          2    1    1    2  501    0 -0.55330092967E+01 -0.32585863653E+02  0.28748686456E+02  0.43805703679E+02  0.00000000000E+00 0.  1.
          1    1    1    2  502    0 -0.13099063765E+02  0.43629754164E+02 -0.12592718557E+03  0.13391339360E+03  0.00000000000E+00 0. -1.
         22    1    1    2    0    0  0.16204378685E+02 -0.21525852659E+02  0.71038222901E+02  0.75976136610E+02  0.00000000000E+00 0. -1.
         22    1    1    2    0    0  0.24276943770E+01  0.10481962148E+02 -0.50068284874E+02  0.51211311062E+02  0.00000000000E+00 0. -1.
</event>
<event>
 6    1  0.2406404E-005  0.6899182E+02  0.7818608E-02  0.1381921E+00
          2   -1    0    0  502    0  0.00000000000E+00  0.00000000000E+00  0.62073593720E+02  0.62073593720E+02  0.00000000000E+00 0. -1.
          1   -1    0    0  501    0 -0.00000000000E+00 -0.00000000000E+00 -0.50235355453E+03  0.50235355453E+03  0.00000000000E+00 0. -1.
          2    1    1    2  501    0  0.10798887811E+03 -0.18148717389E+01 -0.23407773615E+03  0.25779309168E+03  0.00000000000E+00 0. -1.
          1    1    1    2  502    0 -0.76215869857E+02 -0.51008216524E+02 -0.81847123783E+02  0.12292131078E+03  0.00000000000E+00 0. -1.
         22    1    1    2    0    0 -0.41935799968E+02 -0.42000323883E+01 -0.11817123856E+03  0.12546191938E+03  0.00000000000E+00 0. -1.
         22    1    1    2    0    0  0.10162791714E+02  0.57023120651E+02 -0.61838623036E+01  0.58250826408E+02  0.00000000000E+00 0. -1.
</event>
<event>
 6    1  0.2406404E-005  0.1455658E+03  0.7818608E-02  0.1206660E+00
          2   -1    0    0  502    0  0.00000000000E+00  0.00000000000E+00  0.12541849871E+03  0.12541849871E+03  0.00000000000E+00 0.  1.
          1   -1    0    0  501    0 -0.00000000000E+00 -0.00000000000E+00 -0.35633034414E+03  0.35633034414E+03  0.00000000000E+00 0.  1.
          2    1    1    2  501    0  0.89224971820E+02  0.95859724521E+02  0.46148307988E+02  0.13885189488E+03  0.00000000000E+00 0.  1.
          1    1    1    2  502    0 -0.42791960712E+02 -0.25094559661E+02 -0.83308723992E+02  0.96959952142E+02  0.00000000000E+00 0.  1.
         22    1    1    2    0    0 -0.58831276210E+02 -0.71984815024E+02 -0.20750548976E+03  0.22737955259E+03  0.00000000000E+00 0.  1.
         22    1    1    2    0    0  0.12398265102E+02  0.12196501648E+01  0.13754060328E+02  0.18557443239E+02  0.00000000000E+00 0. -1.
</event>
<event>
 6    1  0.2406404E-005  0.3523765E+02  0.7818608E-02  0.1575550E+00
          2   -1    0    0  502    0  0.00000000000E+00  0.00000000000E+00  0.13678440018E+03  0.13678440018E+03  0.00000000000E+00 0. -1.
          1   -1    0    0  501    0 -0.00000000000E+00 -0.00000000000E+00 -0.32444257039E+03  0.32444257039E+03  0.00000000000E+00 0. -1.
          2    1    1    2  501    0  0.15191484852E+02  0.59888966885E+02  0.78126742905E+02  0.99605509504E+02  0.00000000000E+00 0. -1.
          1    1    1    2  502    0  0.10839867421E+02 -0.54049542426E+02 -0.22120943939E+03  0.22797471754E+03  0.00000000000E+00 0. -1.
         22    1    1    2    0    0 -0.14510503900E+02 -0.12194837361E+02 -0.87097232408E+02  0.89135832721E+02  0.00000000000E+00 0. -1.
         22    1    1    2    0    0 -0.11520848373E+02  0.63554129024E+01  0.42521758677E+02  0.44510910813E+02  0.00000000000E+00 0. -1.
</event>
<event>
 6    1  0.2406404E-005  0.2717673E+03  0.7818608E-02  0.1184930E+00
          2   -1    0    0  502    0  0.00000000000E+00  0.00000000000E+00  0.31709663630E+03  0.31709663630E+03  0.00000000000E+00 0. -1.
          1   -1    0    0  501    0 -0.00000000000E+00 -0.00000000000E+00 -0.93563705273E+03  0.93563705273E+03  0.00000000000E+00 0. -1.
          2    1    1    2  501    0 -0.13134960927E+03 -0.19885596083E+03  0.21972782046E+03  0.32415540733E+03  0.00000000000E+00 0. -1.
          1    1    1    2  502    0  0.91004477734E+02  0.22374110291E+03 -0.67673205499E+03  0.71854587213E+03  0.00000000000E+00 0. -1.
         22    1    1    2    0    0  0.54540694638E+01 -0.31432554360E+02  0.11104474773E+02  0.33779604901E+02  0.00000000000E+00 0. -1.
         22    1    1    2    0    0  0.34891062073E+02  0.65474122761E+01 -0.17264065667E+03  0.17625280468E+03  0.00000000000E+00 0. -1.
</event>
<event>
 6    1  0.2406404E-005  0.8945252E+02  0.7818608E-02  0.1310477E+00
          2   -1    0    0  502    0  0.00000000000E+00  0.00000000000E+00  0.19331290947E+03  0.19331290947E+03  0.00000000000E+00 0.  1.
          1   -1    0    0  501    0 -0.00000000000E+00 -0.00000000000E+00 -0.86218472141E+02  0.86218472141E+02  0.00000000000E+00 0.  1.
          2    1    1    2  501    0 -0.21053676778E+02  0.13839730645E+02  0.10768246555E+02  0.27399828175E+02  0.00000000000E+00 0.  1.
          1    1    1    2  502    0  0.43502493394E+02 -0.28180273858E+02 -0.37793531543E+02  0.64147843243E+02  0.00000000000E+00 0.  1.
         22    1    1    2    0    0 -0.35333661065E+02 -0.89297376222E+01 -0.12836862706E+02  0.38639265810E+02  0.00000000000E+00 0. -1.
         22    1    1    2    0    0  0.12884844448E+02  0.23270280835E+02  0.14695658503E+03  0.14934444439E+03  0.00000000000E+00 0.  1.
</event>
<event>
 6    1  0.2406404E-005  0.1744805E+03  0.7818608E-02  0.1173757E+00
          2   -1    0    0  502    0  0.00000000000E+00  0.00000000000E+00  0.64088664730E+03  0.64088664730E+03  0.00000000000E+00 0.  1.
          1   -1    0    0  501    0 -0.00000000000E+00 -0.00000000000E+00 -0.11335941509E+03  0.11335941509E+03  0.00000000000E+00 0. -1.
          2    1    1    2  501    0 -0.11436969879E+03 -0.10720796126E+03  0.47932471717E+03  0.50430760400E+03  0.00000000000E+00 0.  1.
          1    1    1    2  502    0  0.46509286069E+02  0.64000275667E+02 -0.22700529523E+02  0.82307126160E+02  0.00000000000E+00 0. -1.
         22    1    1    2    0    0 -0.86856548383E+01 -0.11066657323E+02  0.72430344875E+02  0.73783916696E+02  0.00000000000E+00 0. -1.
         22    1    1    2    0    0  0.76546067555E+02  0.54274342912E+02 -0.15273003101E+01  0.93847415536E+02  0.00000000000E+00 0. -1.
</event>
<event>
 6    1  0.2406404E-005  0.1375400E+03  0.7818608E-02  0.1227703E+00
          2   -1    0    0  502    0  0.00000000000E+00  0.00000000000E+00  0.19869463351E+03  0.19869463351E+03  0.00000000000E+00 0. -1.
          1   -1    0    0  501    0 -0.00000000000E+00 -0.00000000000E+00 -0.76706330111E+02  0.76706330111E+02  0.00000000000E+00 0. -1.
          2    1    1    2  501    0 -0.25457955029E+02 -0.97226819065E+01 -0.66196073124E+01  0.28043844577E+02  0.00000000000E+00 0. -1.
          1    1    1    2  502    0  0.51399650346E+02 -0.13275459935E+02 -0.10977214655E+02  0.54209419235E+02  0.00000000000E+00 0. -1.
         22    1    1    2    0    0  0.18079314007E+02  0.67831592126E+02  0.65569447188E+02  0.96059038564E+02  0.00000000000E+00 0. -1.
         22    1    1    2    0    0 -0.44021009324E+02 -0.44833450284E+02  0.74015678183E+02  0.97088661250E+02  0.00000000000E+00 0. -1.
</event>
<event>
 6    1  0.2406404E-005  0.4993050E+02  0.7818608E-02  0.1530287E+00
          2   -1    0    0  502    0  0.00000000000E+00  0.00000000000E+00  0.23700395367E+02  0.23700395367E+02  0.00000000000E+00 0.  1.
          1   -1    0    0  501    0 -0.00000000000E+00 -0.00000000000E+00 -0.55302160080E+03  0.55302160080E+03  0.00000000000E+00 0.  1.
          2    1    1    2  501    0  0.13516529350E+02 -0.27725315053E+02 -0.18919639617E+03  0.19169419915E+03  0.00000000000E+00 0.  1.
          1    1    1    2  502    0 -0.36045165048E+02 -0.19544215473E+02 -0.73564664341E+02  0.84219891483E+02  0.00000000000E+00 0.  1.
         22    1    1    2    0    0  0.14573373313E+02  0.60342879676E+02 -0.27595464458E+03  0.28285086566E+03  0.00000000000E+00 0.  1.
         22    1    1    2    0    0  0.79552623851E+01 -0.13073349151E+02  0.93944996588E+01  0.17957039886E+02  0.00000000000E+00 0.  1.
</event>
<event>
 6    1  0.2406404E-005  0.6024236E+02  0.7818608E-02  0.1450872E+00
          2   -1    0    0  502    0  0.00000000000E+00  0.00000000000E+00  0.94392819919E+02  0.94392819919E+02  0.00000000000E+00 0. -1.
          1   -1    0    0  501    0 -0.00000000000E+00 -0.00000000000E+00 -0.30376660179E+03  0.30376660179E+03  0.00000000000E+00 0.  1.
          2    1    1    2  501    0  0.21111467210E+02  0.43237568535E+02  0.53857469138E+02  0.72220553602E+02  0.00000000000E+00 0. -1.
          1    1    1    2  502    0 -0.32725705806E+02 -0.28671028689E+02 -0.15647712506E+03  0.16241333188E+03  0.00000000000E+00 0.  1.
         22    1    1    2    0    0  0.69492162282E+01 -0.25411265105E+02 -0.13255738868E+03  0.13514986236E+03  0.00000000000E+00 0.  1.
         22    1    1    2    0    0  0.46650223672E+01  0.10844725259E+02  0.25803262735E+02  0.28375673867E+02  0.00000000000E+00 0. -1.
</event>
<event>
 6    1  0.2406404E-005  0.3272095E+02  0.7818608E-02  0.1593679E+00
          2   -1    0    0  502    0  0.00000000000E+00  0.00000000000E+00  0.86100920093E+02  0.86100920093E+02  0.00000000000E+00 0. -1.
          1   -1    0    0  501    0 -0.00000000000E+00 -0.00000000000E+00 -0.14514665370E+03  0.14514665370E+03  0.00000000000E+00 0. -1.
          2    1    1    2  501    0 -0.13084109827E+02  0.22393993487E+02 -0.30150904649E+02  0.39771370675E+02  0.00000000000E+00 0. -1.
          1    1    1    2  502    0  0.23360635248E+02  0.12120409303E+00 -0.56772192741E+02  0.61390682015E+02  0.00000000000E+00 0. -1.
         22    1    1    2    0    0  0.10426201334E+02 -0.96247723973E+01 -0.48173611466E+02  0.50219904019E+02  0.00000000000E+00 0.  1.
         22    1    1    2    0    0 -0.20702726756E+02 -0.12890425182E+02  0.76050975247E+02  0.79865617086E+02  0.00000000000E+00 0. -1.
</event>
<event>
 6    1  0.2406404E-005  0.1049514E+03  0.7818608E-02  0.1271712E+00
          2   -1    0    0  502    0  0.00000000000E+00  0.00000000000E+00  0.13598782474E+03  0.13598782474E+03  0.00000000000E+00 0. -1.
          1   -1    0    0  501    0 -0.00000000000E+00 -0.00000000000E+00 -0.17986630609E+03  0.17986630609E+03  0.00000000000E+00 0. -1.
          2    1    1    2  501    0  0.52393140025E+02 -0.10914232162E+00  0.22822248754E+02  0.57148123958E+02  0.00000000000E+00 0. -1.
          1    1    1    2  502    0 -0.59840550753E+02  0.22466741356E+02 -0.10756788030E+03  0.12512591599E+03  0.00000000000E+00 0. -1.
         22    1    1    2    0    0 -0.34060155747E+02 -0.10078142886E+02 -0.32663164564E+02  0.48255004848E+02  0.00000000000E+00 0. -1.
         22    1    1    2    0    0  0.41507566475E+02 -0.12279456148E+02  0.73530314762E+02  0.85325086036E+02  0.00000000000E+00 0. -1.
</event>
<event>
 6    1  0.2406404E-005  0.1242571E+03  0.7818608E-02  0.1275385E+00
          2   -1    0    0  502    0  0.00000000000E+00  0.00000000000E+00  0.71924814140E+02  0.71924814140E+02  0.00000000000E+00 0.  1.
          1   -1    0    0  501    0 -0.00000000000E+00 -0.00000000000E+00 -0.48450696616E+03  0.48450696616E+03  0.00000000000E+00 0.  1.
          2    1    1    2  501    0 -0.18577691537E+02  0.73044716621E+02  0.13486243530E+02  0.76567225454E+02  0.00000000000E+00 0.  1.
          1    1    1    2  502    0  0.47392619976E+02 -0.74299650353E+02 -0.19682083594E+03  0.21565004041E+03  0.00000000000E+00 0.  1.
         22    1    1    2    0    0  0.16837565410E+02 -0.33288681237E+02 -0.19273775976E+03  0.19631475733E+03  0.00000000000E+00 0. -1.
         22    1    1    2    0    0 -0.45652493849E+02  0.34543614969E+02 -0.36509799852E+02  0.67899757105E+02  0.00000000000E+00 0. -1.
</event>
<event>
 6    1  0.2406404E-005  0.1112882E+03  0.7818608E-02  0.1260279E+00
          2   -1    0    0  502    0  0.00000000000E+00  0.00000000000E+00  0.16309152926E+03  0.16309152926E+03  0.00000000000E+00 0.  1.
          1   -1    0    0  501    0 -0.00000000000E+00 -0.00000000000E+00 -0.69408117010E+03  0.69408117010E+03  0.00000000000E+00 0.  1.
          2    1    1    2  501    0 -0.56603206487E+02 -0.32284439540E+02  0.10432546752E+03  0.12300411048E+03  0.00000000000E+00 0.  1.
          1    1    1    2  502    0  0.82733615081E+02  0.33457628146E+02 -0.59330942775E+03  0.59998361728E+03  0.00000000000E+00 0.  1.
         22    1    1    2    0    0 -0.42803328780E+02 -0.17463664280E+01  0.35045991499E+02  0.55347956335E+02  0.00000000000E+00 0.  1.
         22    1    1    2    0    0  0.16672920186E+02  0.57317782112E+00 -0.77051672114E+02  0.78837015265E+02  0.00000000000E+00 0. -1.
</event>
<event>
 6    1  0.2406404E-005  0.8001094E+02  0.7818608E-02  0.1337095E+00
          2   -1    0    0  502    0  0.00000000000E+00  0.00000000000E+00  0.11279133105E+03  0.11279133105E+03  0.00000000000E+00 0. -1.
          1   -1    0    0  501    0 -0.00000000000E+00 -0.00000000000E+00 -0.13829517148E+03  0.13829517148E+03  0.00000000000E+00 0. -1.
          2    1    1    2  501    0 -0.55586884559E+01  0.28823409787E+02 -0.86804749584E+00  0.29367353908E+02  0.00000000000E+00 0. -1.
          1    1    1    2  502    0 -0.69200223302E+02 -0.60376281594E+01 -0.97315058708E+01  0.70141471794E+02  0.00000000000E+00 0. -1.
         22    1    1    2    0    0  0.86508602582E+02 -0.59276258631E+02 -0.31943859556E+02  0.10962583327E+03  0.00000000000E+00 0. -1.
         22    1    1    2    0    0 -0.11749690824E+02  0.36490477003E+02  0.17039572497E+02  0.41951843550E+02  0.00000000000E+00 0. -1.
</event>
<event>
 6    1  0.2406404E-005  0.1075408E+03  0.7818608E-02  0.1275869E+00
          2   -1    0    0  502    0  0.00000000000E+00  0.00000000000E+00  0.19701991680E+03  0.19701991680E+03  0.00000000000E+00 0.  1.
          1   -1    0    0  501    0 -0.00000000000E+00 -0.00000000000E+00 -0.30273515665E+03  0.30273515665E+03  0.00000000000E+00 0.  1.
          2    1    1    2  501    0  0.27243130716E+02 -0.65831464436E+02  0.15746731584E+03  0.17283496590E+03  0.00000000000E+00 0.  1.
          1    1    1    2  502    0  0.18512114435E+02  0.30917682451E+02 -0.12611142631E+03  0.13115903825E+03  0.00000000000E+00 0.  1.
         22    1    1    2    0    0  0.28855684320E+01 -0.14673073319E+02  0.19441418493E+02  0.24527420142E+02  0.00000000000E+00 0.  1.
         22    1    1    2    0    0 -0.48640813583E+02  0.49586855303E+02 -0.15651254787E+03  0.17123364916E+03  0.00000000000E+00 0.  1.
</event>
<event>
 6    1  0.2406404E-005  0.6117044E+02  0.7818608E-02  0.1396408E+00
          2   -1    0    0  502    0  0.00000000000E+00  0.00000000000E+00  0.47468547368E+02  0.47468547368E+02  0.00000000000E+00 0.  1.
          1   -1    0    0  501    0 -0.00000000000E+00 -0.00000000000E+00 -0.39263987989E+03  0.39263987989E+03  0.00000000000E+00 0.  1.
          2    1    1    2  501    0 -0.14167191151E+02  0.37666612125E+02  0.17039272659E+01  0.40278857261E+02  0.00000000000E+00 0.  1.
          1    1    1    2  502    0  0.14273294159E+02 -0.15659346125E+02 -0.22495501283E+03  0.22595065799E+03  0.00000000000E+00 0.  1.
         22    1    1    2    0    0  0.70711535817E+01  0.92654536452E+01  0.22820378268E+02  0.25624587968E+02  0.00000000000E+00 0.  1.
         22    1    1    2    0    0 -0.71772565897E+01 -0.31272719645E+02 -0.14474062523E+03  0.14825432404E+03  0.00000000000E+00 0.  1.
</event>
<event>
 6    1  0.2406404E-005  0.7589878E+02  0.7818608E-02  0.1465196E+00
          2   -1    0    0  502    0  0.00000000000E+00  0.00000000000E+00  0.62848127307E+03  0.62848127307E+03  0.00000000000E+00 0. -1.
          1   -1    0    0  501    0 -0.00000000000E+00 -0.00000000000E+00 -0.18415918240E+03  0.18415918240E+03  0.00000000000E+00 0. -1.
          2    1    1    2  501    0  0.47214494129E+02 -0.42611626364E+02  0.55656524884E+03  0.56018732168E+03  0.00000000000E+00 0. -1.
          1    1    1    2  502    0 -0.39569529819E+02  0.24327710492E+02 -0.12097020058E+03  0.12958153655E+03  0.00000000000E+00 0. -1.
         22    1    1    2    0    0 -0.35626664275E+01 -0.10081062837E+02  0.61713065182E+02  0.62632442346E+02  0.00000000000E+00 0. -1.
         22    1    1    2    0    0 -0.40822978826E+01  0.28364978710E+02 -0.52986022767E+02  0.60239154890E+02  0.00000000000E+00 0. -1.
</event>
<event>
 6    1  0.2406404E-005  0.1146957E+03  0.7818608E-02  0.1252759E+00
          2   -1    0    0  502    0  0.00000000000E+00  0.00000000000E+00  0.38385201924E+02  0.38385201924E+02  0.00000000000E+00 0. -1.
          1   -1    0    0  501    0 -0.00000000000E+00 -0.00000000000E+00 -0.60969289447E+03  0.60969289447E+03  0.00000000000E+00 0.  1.
          2    1    1    2  501    0 -0.47992990502E+02 -0.61234159251E+02 -0.79344972941E+02  0.11112413837E+03  0.00000000000E+00 0. -1.
          1    1    1    2  502    0  0.12992746456E+02  0.38766612561E+02 -0.30359636726E+03  0.30633709524E+03  0.00000000000E+00 0.  1.
         22    1    1    2    0    0 -0.16787044486E+02 -0.13879270011E+02  0.88419749642E+01  0.23507860811E+02  0.00000000000E+00 0. -1.
         22    1    1    2    0    0  0.51787288532E+02  0.36346816701E+02 -0.19720832732E+03  0.20710900198E+03  0.00000000000E+00 0. -1.
</event>
<event>
 6    1  0.2406404E-005  0.4337657E+02  0.7818608E-02  0.1499199E+00
          2   -1    0    0  502    0  0.00000000000E+00  0.00000000000E+00  0.27473040947E+03  0.27473040947E+03  0.00000000000E+00 0.  1.
          1   -1    0    0  501    0 -0.00000000000E+00 -0.00000000000E+00 -0.24676533084E+03  0.24676533084E+03  0.00000000000E+00 0. -1.
          2    1    1    2  501    0  0.46481096969E+02  0.56977236817E+02  0.15111447115E+03  0.16805499481E+03  0.00000000000E+00 0.  1.
          1    1    1    2  502    0 -0.32988874918E+02 -0.53051069735E+02 -0.19899176795E+03  0.20856750845E+03  0.00000000000E+00 0. -1.
         22    1    1    2    0    0  0.60183189363E+01 -0.19321521828E+02 -0.29980309956E+02  0.36171264198E+02  0.00000000000E+00 0. -1.
         22    1    1    2    0    0 -0.19510540987E+02  0.15395354746E+02  0.10582268540E+03  0.10870197285E+03  0.00000000000E+00 0.  1.
</event>
<event>
 6    1  0.2406404E-005  0.6535376E+02  0.7818608E-02  0.1380441E+00
          2   -1    0    0  502    0  0.00000000000E+00  0.00000000000E+00  0.24979337642E+03  0.24979337642E+03  0.00000000000E+00 0.  1.
          1   -1    0    0  501    0 -0.00000000000E+00 -0.00000000000E+00 -0.15303168588E+03  0.15303168588E+03  0.00000000000E+00 0.  1.
          2    1    1    2  501    0  0.29177499997E+01  0.19962799241E+02  0.13010768411E+03  0.13166258422E+03  0.00000000000E+00 0.  1.
          1    1    1    2  502    0 -0.62418720816E+01 -0.50097958715E+02 -0.10815158035E+03  0.11935464284E+03  0.00000000000E+00 0.  1.
         22    1    1    2    0    0 -0.33773013006E+01 -0.96124814299E+01 -0.34148757159E+02  0.35636267745E+02  0.00000000000E+00 0.  1.
         22    1    1    2    0    0  0.67014233825E+01  0.39747640903E+02  0.10895434393E+03  0.11617156749E+03  0.00000000000E+00 0.  1.
</event>
<event>
 6    1  0.2406404E-005  0.1343379E+03  0.7818608E-02  0.1242999E+00
          2   -1    0    0  502    0  0.00000000000E+00  0.00000000000E+00  0.80114242778E+02  0.80114242778E+02  0.00000000000E+00 0. -1.
          1   -1    0    0  501    0 -0.00000000000E+00 -0.00000000000E+00 -0.16453494085E+03  0.16453494085E+03  0.00000000000E+00 0.  1.
          2    1    1    2  501    0  0.42566185985E+02 -0.92467232888E+01 -0.24277260465E+02  0.49867499001E+02  0.00000000000E+00 0. -1.
          1    1    1    2  502    0 -0.26871120142E+02 -0.28519950107E+02  0.12452271621E+02  0.41115735678E+02  0.00000000000E+00 0.  1.
         22    1    1    2    0    0  0.15312606086E+02 -0.20838878790E+02  0.24809349950E+02  0.35836275188E+02  0.00000000000E+00 0. -1.
         22    1    1    2    0    0 -0.31007671929E+02  0.58605552186E+02 -0.97405059178E+02  0.11782967376E+03  0.00000000000E+00 0.  1.
</event>
<event>
 6    1  0.2406404E-005  0.7614718E+02  0.7818608E-02  0.1376727E+00
          2   -1    0    0  502    0  0.00000000000E+00  0.00000000000E+00  0.14951039355E+03  0.14951039355E+03  0.00000000000E+00 0. -1.
          1   -1    0    0  501    0 -0.00000000000E+00 -0.00000000000E+00 -0.10337989338E+03  0.10337989338E+03  0.00000000000E+00 0.  1.
          2    1    1    2  501    0  0.68879049538E+01 -0.41468879625E+02  0.64577743391E+02  0.77054501189E+02  0.00000000000E+00 0. -1.
          1    1    1    2  502    0 -0.83223500053E+00  0.44958453701E+02  0.10808206426E+02  0.46246864763E+02  0.00000000000E+00 0.  1.
         22    1    1    2    0    0 -0.26773325400E+02 -0.39172406586E+02  0.30914734134E+02  0.56630461567E+02  0.00000000000E+00 0. -1.
         22    1    1    2    0    0  0.20717655447E+02  0.35682832510E+02 -0.60170183781E+02  0.72958459410E+02  0.00000000000E+00 0.  1.
</event>
<event>
 6    1  0.2406404E-005  0.9568004E+02  0.7818608E-02  0.1324343E+00
          2   -1    0    0  502    0  0.00000000000E+00  0.00000000000E+00  0.13907489275E+03  0.13907489275E+03  0.00000000000E+00 0. -1.
          1   -1    0    0  501    0 -0.00000000000E+00 -0.00000000000E+00 -0.12682172197E+03  0.12682172197E+03  0.00000000000E+00 0.  1.
          2    1    1    2  501    0 -0.32536443523E+02 -0.16317167835E+02  0.46810944963E+02  0.59297004070E+02  0.00000000000E+00 0. -1.
          1    1    1    2  502    0  0.54967409643E+02  0.36275520826E+02 -0.47582503024E+02  0.81249148476E+02  0.00000000000E+00 0.  1.
         22    1    1    2    0    0 -0.64290354709E+02  0.88644229474E+01  0.30364876057E+02  0.71650913468E+02  0.00000000000E+00 0. -1.
         22    1    1    2    0    0  0.41859388590E+02 -0.28822775938E+02 -0.17340147218E+02  0.53699548708E+02  0.00000000000E+00 0.  1.
</event>
<event>
 6    1  0.2406404E-005  0.4319605E+02  0.7818608E-02  0.1519315E+00
          2   -1    0    0  502    0  0.00000000000E+00  0.00000000000E+00  0.56849710366E+02  0.56849710366E+02  0.00000000000E+00 0. -1.
          1   -1    0    0  501    0 -0.00000000000E+00 -0.00000000000E+00 -0.23743522701E+03  0.23743522701E+03  0.00000000000E+00 0. -1.
          2    1    1    2  501    0  0.32285062034E+02 -0.21252435776E+01  0.19181726066E+01  0.32411745972E+02  0.00000000000E+00 0. -1.
          1    1    1    2  502    0 -0.22590489347E+02  0.12335239767E+02 -0.10899561114E+03  0.11199344444E+03  0.00000000000E+00 0. -1.
         22    1    1    2    0    0 -0.13789968656E+01 -0.27309885153E+02  0.32332181939E+02  0.42345028614E+02  0.00000000000E+00 0. -1.
         22    1    1    2    0    0 -0.83155758218E+01  0.17099888964E+02 -0.10584026004E+03  0.10753471835E+03  0.00000000000E+00 0. -1.
</event>
<event>
 6    1  0.2406404E-005  0.1318600E+03  0.7818608E-02  0.1228324E+00
          2   -1    0    0  502    0  0.00000000000E+00  0.00000000000E+00  0.49852995061E+02  0.49852995061E+02  0.00000000000E+00 0.  1.
          1   -1    0    0  501    0 -0.00000000000E+00 -0.00000000000E+00 -0.32519413006E+03  0.32519413006E+03  0.00000000000E+00 0.  1.
          2    1    1    2  501    0  0.13700582261E+02 -0.57807289729E+02 -0.99296497890E+02  0.11571163811E+03  0.00000000000E+00 0.  1.
          1    1    1    2  502    0 -0.38702097761E+02  0.50002083730E+02 -0.61263602605E+02  0.88041409306E+02  0.00000000000E+00 0.  1.
         22    1    1    2    0    0  0.40680789372E+02 -0.47866457390E+02 -0.32523564552E+02  0.70738296687E+02  0.00000000000E+00 0.  1.
         22    1    1    2    0    0 -0.15679273872E+02  0.55671663389E+02 -0.82257469949E+02  0.10055578102E+03  0.00000000000E+00 0.  1.
</event>
<event>
 6    1  0.2406404E-005  0.8737950E+02  0.7818608E-02  0.1321936E+00
          2   -1    0    0  502    0  0.00000000000E+00  0.00000000000E+00  0.79956288874E+03  0.79956288874E+03  0.00000000000E+00 0.  1.
          1   -1    0    0  501    0 -0.00000000000E+00 -0.00000000000E+00 -0.62919524962E+02  0.62919524962E+02  0.00000000000E+00 0.  1.
          2    1    1    2  501    0 -0.47817068189E+00  0.83964215920E+02  0.60792723280E+03  0.61369841012E+03  0.00000000000E+00 0.  1.
          1    1    1    2  502    0  0.31673847859E+02  0.10133959359E+02 -0.10452303061E+02  0.34859437887E+02  0.00000000000E+00 0.  1.
         22    1    1    2    0    0  0.19424498811E+02  0.24720767699E+02  0.15267501665E+02  0.34950309252E+02  0.00000000000E+00 0.  1.
         22    1    1    2    0    0 -0.50620175989E+02 -0.11881894298E+03  0.12390093238E+03  0.17897425645E+03  0.00000000000E+00 0.  1.
</event>
<event>
 6    1  0.2406404E-005  0.6372576E+02  0.7818608E-02  0.1398493E+00
          2   -1    0    0  502    0  0.00000000000E+00  0.00000000000E+00  0.21184936356E+03  0.21184936356E+03  0.00000000000E+00 0. -1.
          1   -1    0    0  501    0 -0.00000000000E+00 -0.00000000000E+00 -0.66358000586E+02  0.66358000586E+02  0.00000000000E+00 0.  1.
          2    1    1    2  501    0 -0.29652485214E+02 -0.13689065055E+00  0.10390273202E+03  0.10805122091E+03  0.00000000000E+00 0. -1.
          1    1    1    2  502    0  0.19738700831E+02  0.50433188333E+01 -0.22573186663E+02  0.30407238143E+02  0.00000000000E+00 0.  1.
         22    1    1    2    0    0  0.39558955211E+01 -0.33432243961E+02  0.92905532933E+02  0.98817013187E+02  0.00000000000E+00 0. -1.
         22    1    1    2    0    0  0.59578888621E+01  0.28525815778E+02 -0.28743715313E+02  0.40931891912E+02  0.00000000000E+00 0.  1.
</event>
<event>
 6    1  0.2406404E-005  0.3741530E+02  0.7818608E-02  0.1608026E+00
          2   -1    0    0  502    0  0.00000000000E+00  0.00000000000E+00  0.25286147946E+03  0.25286147946E+03  0.00000000000E+00 0.  1.
          1   -1    0    0  501    0 -0.00000000000E+00 -0.00000000000E+00 -0.27353550267E+03  0.27353550267E+03  0.00000000000E+00 0.  1.
          2    1    1    2  501    0 -0.77846329972E+01 -0.35058117828E+02  0.15477929049E+03  0.15889084587E+03  0.00000000000E+00 0.  1.
          1    1    1    2  502    0 -0.24955781410E+02  0.34887590997E+02 -0.22353914939E+03  0.22761741221E+03  0.00000000000E+00 0.  1.
         22    1    1    2    0    0  0.50997204633E+01  0.94062169467E+01 -0.42970419282E+02  0.44282513471E+02  0.00000000000E+00 0.  1.
         22    1    1    2    0    0  0.27640693944E+02 -0.92356901149E+01  0.91056254971E+02  0.95606210587E+02  0.00000000000E+00 0.  1.
</event>
<event>
 6    1  0.2406404E-005  0.1330539E+03  0.7818608E-02  0.1223856E+00
          2   -1    0    0  502    0  0.00000000000E+00  0.00000000000E+00  0.58660681433E+03  0.58660681433E+03  0.00000000000E+00 0.  1.
          1   -1    0    0  501    0 -0.00000000000E+00 -0.00000000000E+00 -0.17826687680E+03  0.17826687680E+03  0.00000000000E+00 0. -1.
          2    1    1    2  501    0 -0.53219943608E+01 -0.11832867737E+03  0.51932284389E+03  0.53265956830E+03  0.00000000000E+00 0.  1.
          1    1    1    2  502    0 -0.28348001272E+01  0.40065188299E+02 -0.65063266493E+02  0.76462304778E+02  0.00000000000E+00 0. -1.
         22    1    1    2    0    0  0.12518812563E+01 -0.11388568574E+02  0.33734552837E+02  0.35627050902E+02  0.00000000000E+00 0. -1.
         22    1    1    2    0    0  0.69049132316E+01  0.89652057650E+02 -0.79654192709E+02  0.12012476715E+03  0.00000000000E+00 0.  1.
</event>
<event>
 6    1  0.2406404E-005  0.1337903E+03  0.7818608E-02  0.1240628E+00
          2   -1    0    0  502    0  0.00000000000E+00  0.00000000000E+00  0.23263883593E+03  0.23263883593E+03  0.00000000000E+00 0.  1.
          1   -1    0    0  501    0 -0.00000000000E+00 -0.00000000000E+00 -0.30098675121E+03  0.30098675121E+03  0.00000000000E+00 0. -1.
          2    1    1    2  501    0  0.23607573445E+02  0.25083042599E+02 -0.14862740863E+01  0.34477319510E+02  0.00000000000E+00 0.  1.
          1    1    1    2  502    0 -0.27213969506E+02 -0.69749955889E+02 -0.25654163230E+03  0.26724383170E+03  0.00000000000E+00 0. -1.
         22    1    1    2    0    0  0.13610614408E+02  0.37246108163E+02  0.20689202917E+03  0.21065809534E+03  0.00000000000E+00 0.  1.
         22    1    1    2    0    0 -0.10004218347E+02  0.74208051272E+01 -0.17212038068E+02  0.21246340577E+02  0.00000000000E+00 0.  1.
</event>
<event>
 6    1  0.2406404E-005  0.1808410E+03  0.7818608E-02  0.1183566E+00
          2   -1    0    0  502    0  0.00000000000E+00  0.00000000000E+00  0.71682372177E+03  0.71682372177E+03  0.00000000000E+00 0. -1.
          1   -1    0    0  501    0 -0.00000000000E+00 -0.00000000000E+00 -0.53233374488E+02  0.53233374488E+02  0.00000000000E+00 0.  1.
          2    1    1    2  501    0  0.21958477144E+02 -0.53002660843E+02  0.32045961005E+03  0.32555463205E+03  0.00000000000E+00 0. -1.
          1    1    1    2  502    0  0.60028432793E+02  0.70316773542E+02  0.32895321208E+02  0.98132377645E+02  0.00000000000E+00 0.  1.
         22    1    1    2    0    0  0.25191853211E+02  0.16763694017E+02  0.23330731360E+02  0.38209605220E+02  0.00000000000E+00 0. -1.
         22    1    1    2    0    0 -0.10717876315E+03 -0.34077806717E+02  0.28690468467E+03  0.30816048135E+03  0.00000000000E+00 0. -1.
</event>
<event>
 6    1  0.2406404E-005  0.1050147E+03  0.7818608E-02  0.1272024E+00
          2   -1    0    0  502    0  0.00000000000E+00  0.00000000000E+00  0.46950332763E+03  0.46950332763E+03  0.00000000000E+00 0. -1.
          1   -1    0    0  501    0 -0.00000000000E+00 -0.00000000000E+00 -0.31307254936E+02  0.31307254936E+02  0.00000000000E+00 0. -1.
          2    1    1    2  501    0  0.28079367806E+01 -0.37123861287E+02  0.11671262850E+03  0.12250674772E+03  0.00000000000E+00 0. -1.
          1    1    1    2  502    0  0.32750247261E+02  0.48546063758E+02  0.45963806602E+02  0.74444412278E+02  0.00000000000E+00 0. -1.
         22    1    1    2    0    0 -0.28290634875E+02 -0.57079910761E+02  0.23119518013E+03  0.23981177526E+03  0.00000000000E+00 0. -1.
         22    1    1    2    0    0 -0.72675491659E+01  0.45657708289E+02  0.44324457457E+02  0.64047647310E+02  0.00000000000E+00 0. -1.
</event>
<event>
 6    1  0.2406404E-005  0.1545939E+03  0.7818608E-02  0.1196378E+00
          2   -1    0    0  502    0  0.00000000000E+00  0.00000000000E+00  0.42763127963E+03  0.42763127963E+03  0.00000000000E+00 0.  1.
          1   -1    0    0  501    0 -0.00000000000E+00 -0.00000000000E+00 -0.64119802660E+02  0.64119802660E+02  0.00000000000E+00 0.  1.
          2    1    1    2  501    0 -0.73727744216E+02 -0.58967028939E+02  0.18157570807E+03  0.20465245792E+03  0.00000000000E+00 0.  1.
          1    1    1    2  502    0  0.69018155554E+02  0.71038288503E+02  0.85266714163E+02  0.13069183897E+03  0.00000000000E+00 0.  1.
         22    1    1    2    0    0  0.26217637995E+02  0.38783743959E+02  0.20546145308E+01  0.46858988235E+02  0.00000000000E+00 0.  1.
         22    1    1    2    0    0 -0.21508049333E+02 -0.50855003522E+02  0.94614440199E+02  0.10954779716E+03  0.00000000000E+00 0. -1.
</event>
<event>
 6    1  0.2406404E-005  0.2044895E+03  0.7818608E-02  0.1168018E+00
          2   -1    0    0  502    0  0.00000000000E+00  0.00000000000E+00  0.89073495280E+02  0.89073495280E+02  0.00000000000E+00 0. -1.
          1   -1    0    0  501    0 -0.00000000000E+00 -0.00000000000E+00 -0.36922121677E+03  0.36922121677E+03  0.00000000000E+00 0. -1.
          2    1    1    2  501    0  0.87052150857E+02 -0.29847886413E+02 -0.28856429883E+01  0.92072255472E+02  0.00000000000E+00 0. -1.
          1    1    1    2  502    0 -0.36317019237E+02 -0.55099318796E+02 -0.30226306288E+02  0.72584367531E+02  0.00000000000E+00 0. -1.
         22    1    1    2    0    0 -0.79434759826E+02  0.85152307977E+02 -0.23547626182E+03  0.26269729063E+03  0.00000000000E+00 0. -1.
         22    1    1    2    0    0  0.28699628206E+02 -0.20510276798E+00 -0.11559510393E+02  0.30940798420E+02  0.00000000000E+00 0.  1.
</event>
<event>
 6    1  0.2406404E-005  0.4669608E+02  0.7818608E-02  0.1468831E+00
          2   -1    0    0  502    0  0.00000000000E+00  0.00000000000E+00  0.13669232636E+03  0.13669232636E+03  0.00000000000E+00 0. -1.
          1   -1    0    0  501    0 -0.00000000000E+00 -0.00000000000E+00 -0.20627766573E+03  0.20627766573E+03  0.00000000000E+00 0. -1.
          2    1    1    2  501    0 -0.96454508155E+01  0.25672715335E+02  0.10194462930E+03  0.10556907917E+03  0.00000000000E+00 0. -1.
          1    1    1    2  502    0  0.17704605741E+02 -0.11138358801E+02 -0.78022704715E+02  0.80777834536E+02  0.00000000000E+00 0. -1.
         22    1    1    2    0    0  0.15029003219E+01 -0.25390261488E+02 -0.12202404915E+03  0.12464667127E+03  0.00000000000E+00 0. -1.
         22    1    1    2    0    0 -0.95620552476E+01  0.10855904954E+02  0.28516785206E+02  0.31976407106E+02  0.00000000000E+00 0. -1.
</event>
<event>
 6    1  0.2406404E-005  0.4111566E+02  0.7818608E-02  0.1524938E+00
          2   -1    0    0  502    0  0.00000000000E+00  0.00000000000E+00  0.63214240256E+02  0.63214240256E+02  0.00000000000E+00 0.  1.
          1   -1    0    0  501    0 -0.00000000000E+00 -0.00000000000E+00 -0.22968458740E+03  0.22968458740E+03  0.00000000000E+00 0. -1.
          2    1    1    2  501    0  0.49856426298E+02 -0.31478914387E+02 -0.52446541485E+01  0.59195368834E+02  0.00000000000E+00 0.  1.
          1    1    1    2  502    0 -0.40136798963E+02  0.16296506962E+02 -0.60629296366E+02  0.74514765973E+02  0.00000000000E+00 0. -1.
         22    1    1    2    0    0  0.19981671021E+02  0.74225135846E+01  0.23280420437E+02  0.31564835821E+02  0.00000000000E+00 0. -1.
         22    1    1    2    0    0 -0.29701298356E+02  0.77598938399E+01 -0.12387681706E+03  0.12762385702E+03  0.00000000000E+00 0.  1.
</event>
<event>
 6    1  0.2406404E-005  0.1682584E+03  0.7818608E-02  0.1179893E+00
          2   -1    0    0  502    0  0.00000000000E+00  0.00000000000E+00  0.16692639279E+04  0.16692639279E+04  0.00000000000E+00 0. -1.
          1   -1    0    0  501    0 -0.00000000000E+00 -0.00000000000E+00 -0.17174026321E+02  0.17174026321E+02  0.00000000000E+00 0. -1.
          2    1    1    2  501    0 -0.50325012664E+02 -0.50503295806E+02  0.48334646602E+03  0.48857649964E+03  0.00000000000E+00 0. -1.
          1    1    1    2  502    0  0.11094007612E+03  0.47503593797E+02  0.61554161307E+03  0.62726052748E+03  0.00000000000E+00 0. -1.
         22    1    1    2    0    0 -0.92419241590E+02 -0.20385080405E+02  0.45544951215E+03  0.46517859564E+03  0.00000000000E+00 0. -1.
         22    1    1    2    0    0  0.31804178130E+02  0.23384782414E+02  0.97752310342E+02  0.10542233147E+03  0.00000000000E+00 0. -1.
</event>
<event>
 6    1  0.2406404E-005  0.1149302E+03  0.7818608E-02  0.1272518E+00
          2   -1    0    0  502    0  0.00000000000E+00  0.00000000000E+00  0.66875651100E+02  0.66875651100E+02  0.00000000000E+00 0. -1.
          1   -1    0    0  501    0 -0.00000000000E+00 -0.00000000000E+00 -0.20314856468E+03  0.20314856468E+03  0.00000000000E+00 0. -1.
          2    1    1    2  501    0  0.42857445399E+02  0.19697545221E+02 -0.46887932529E+02  0.66507384032E+02  0.00000000000E+00 0. -1.
          1    1    1    2  502    0 -0.25001850361E+02  0.69919929649E+01 -0.72695818890E+02  0.77192373789E+02  0.00000000000E+00 0. -1.
         22    1    1    2    0    0  0.15050199882E+02  0.66387386543E+01  0.45551469450E+02  0.48430545490E+02  0.00000000000E+00 0. -1.
         22    1    1    2    0    0 -0.32905794919E+02 -0.33328276840E+02 -0.62240631608E+02  0.77893912467E+02  0.00000000000E+00 0. -1.
</event>
<event>
 6    1  0.2406404E-005  0.6097131E+02  0.7818608E-02  0.1402249E+00
          2   -1    0    0  502    0  0.00000000000E+00  0.00000000000E+00  0.24910160796E+03  0.24910160796E+03  0.00000000000E+00 0. -1.
          1   -1    0    0  501    0 -0.00000000000E+00 -0.00000000000E+00 -0.10854184640E+03  0.10854184640E+03  0.00000000000E+00 0.  1.
          2    1    1    2  501    0 -0.32693248271E+02 -0.10067211478E+02  0.18776330660E+03  0.19085401891E+03  0.00000000000E+00 0. -1.
          1    1    1    2  502    0  0.96303215375E+01  0.22149976144E+02 -0.31418479007E+02  0.39629349720E+02  0.00000000000E+00 0.  1.
         22    1    1    2    0    0  0.36252668890E+02 -0.14049805069E+01 -0.65363878730E+02  0.74757385016E+02  0.00000000000E+00 0.  1.
         22    1    1    2    0    0 -0.13189742157E+02 -0.10677784159E+02  0.49578812701E+02  0.52402700709E+02  0.00000000000E+00 0. -1.
</event>
<event>
 6    1  0.2406404E-005  0.2395260E+02  0.7818608E-02  0.1694993E+00
          2   -1    0    0  502    0  0.00000000000E+00  0.00000000000E+00  0.19182496013E+03  0.19182496013E+03  0.00000000000E+00 0.  1.
          1   -1    0    0  501    0 -0.00000000000E+00 -0.00000000000E+00 -0.10381266777E+03  0.10381266777E+03  0.00000000000E+00 0.  1.
          2    1    1    2  501    0  0.30577688134E+02 -0.19143633364E+02  0.12157037952E+03  0.12681021602E+03  0.00000000000E+00 0.  1.
          1    1    1    2  502    0 -0.40640871127E+01  0.26822759463E+02 -0.33447233420E+02  0.43066165986E+02  0.00000000000E+00 0.  1.
         22    1    1    2    0    0 -0.16581427386E+02  0.17895368934E+01 -0.61054719058E+02  0.63291586294E+02  0.00000000000E+00 0.  1.
         22    1    1    2    0    0 -0.99321736356E+01 -0.94686629920E+01  0.60943865313E+02  0.62469659606E+02  0.00000000000E+00 0.  1.
</event>
<event>
 6    1  0.2406404E-005  0.2719466E+03  0.7818608E-02  0.1143401E+00
          2   -1    0    0  502    0  0.00000000000E+00  0.00000000000E+00  0.13932579115E+03  0.13932579115E+03  0.00000000000E+00 0. -1.
          1   -1    0    0  501    0 -0.00000000000E+00 -0.00000000000E+00 -0.25218387867E+03  0.25218387867E+03  0.00000000000E+00 0. -1.
          2    1    1    2  501    0 -0.45818194919E+02  0.22075379399E+02  0.81149016550E+01  0.51502242573E+02  0.00000000000E+00 0. -1.
          1    1    1    2  502    0 -0.58539288196E+02 -0.58497360800E+01  0.67806042262E+02  0.89770412954E+02  0.00000000000E+00 0. -1.
         22    1    1    2    0    0  0.31563362499E+02  0.26988309444E+02  0.19404268267E+01  0.41573789281E+02  0.00000000000E+00 0.  1.
         22    1    1    2    0    0  0.72794120615E+02 -0.43213952764E+02 -0.19071945827E+03  0.20866322501E+03  0.00000000000E+00 0. -1.
</event>
<event>
 6    1  0.2406404E-005  0.2189788E+02  0.7818608E-02  0.1730118E+00
          2   -1    0    0  502    0  0.00000000000E+00  0.00000000000E+00  0.17165355358E+03  0.17165355358E+03  0.00000000000E+00 0.  1.
          1   -1    0    0  501    0 -0.00000000000E+00 -0.00000000000E+00 -0.69568056676E+02  0.69568056676E+02  0.00000000000E+00 0.  1.
          2    1    1    2  501    0  0.13345199099E+02 -0.25255296575E+02  0.41707842361E+02  0.50551641501E+02  0.00000000000E+00 0.  1.
          1    1    1    2  502    0 -0.30968404128E+02 -0.46549727520E+01 -0.17948878150E+02  0.36095332834E+02  0.00000000000E+00 0.  1.
         22    1    1    2    0    0  0.77010077934E+01  0.13717613425E+02 -0.35681628351E+02  0.38995602840E+02  0.00000000000E+00 0.  1.
         22    1    1    2    0    0  0.99221972364E+01  0.16192655902E+02  0.11400816104E+03  0.11557903308E+03  0.00000000000E+00 0.  1.
</event>
<event>
 6    1  0.2406404E-005  0.8166511E+02  0.7818608E-02  0.1360899E+00
          2   -1    0    0  502    0  0.00000000000E+00  0.00000000000E+00  0.38981507683E+02  0.38981507683E+02  0.00000000000E+00 0. -1.
          1   -1    0    0  501    0 -0.00000000000E+00 -0.00000000000E+00 -0.49458093639E+03  0.49458093639E+03  0.00000000000E+00 0. -1.
          2    1    1    2  501    0  0.18405483693E+02 -0.23854349985E+02 -0.23354636961E+02  0.38121265860E+02  0.00000000000E+00 0. -1.
          1    1    1    2  502    0 -0.45637980817E+02  0.21740836439E+02 -0.31727171297E+03  0.32127376039E+03  0.00000000000E+00 0. -1.
         22    1    1    2    0    0 -0.47820388872E+01  0.43228025807E+02 -0.11403821146E+03  0.12205016913E+03  0.00000000000E+00 0. -1.
         22    1    1    2    0    0  0.32014536011E+02 -0.41114512262E+02 -0.93486731020E+00  0.52117248693E+02  0.00000000000E+00 0. -1.
</event>
<event>
 6    1  0.2406404E-005  0.9049734E+02  0.7818608E-02  0.1302330E+00
          2   -1    0    0  502    0  0.00000000000E+00  0.00000000000E+00  0.27077794341E+03  0.27077794341E+03  0.00000000000E+00 0.  1.
          1   -1    0    0  501    0 -0.00000000000E+00 -0.00000000000E+00 -0.11628878413E+03  0.11628878413E+03  0.00000000000E+00 0. -1.
          2    1    1    2  501    0  0.53867227612E+02 -0.47241822109E+02  0.18563823985E+03  0.19898498451E+03  0.00000000000E+00 0.  1.
          1    1    1    2  502    0 -0.35159960475E+02  0.31604378671E+02 -0.33968120794E+02  0.58214197599E+02  0.00000000000E+00 0. -1.
         22    1    1    2    0    0 -0.34955893048E+02  0.21558377851E+02 -0.55497418097E+02  0.69040868547E+02  0.00000000000E+00 0. -1.
         22    1    1    2    0    0  0.16248625911E+02 -0.59209344134E+01  0.58316458321E+02  0.60826676873E+02  0.00000000000E+00 0.  1.
</event>
<event>
 6    1  0.2406404E-005  0.1089280E+03  0.7818608E-02  0.1262886E+00
          2   -1    0    0  502    0  0.00000000000E+00  0.00000000000E+00  0.32276480309E+03  0.32276480309E+03  0.00000000000E+00 0. -1.
          1   -1    0    0  501    0 -0.00000000000E+00 -0.00000000000E+00 -0.44638333076E+02  0.44638333076E+02  0.00000000000E+00 0. -1.
          2    1    1    2  501    0 -0.34527505438E+02  0.31629967212E+02  0.41491150263E+01  0.47008707843E+02  0.00000000000E+00 0. -1.
          1    1    1    2  502    0  0.11906219418E+02 -0.26810039057E+02  0.86814870092E+02  0.91637099060E+02  0.00000000000E+00 0. -1.
         22    1    1    2    0    0  0.74865161676E+02 -0.14396364145E+02  0.13016959775E+03  0.15085148959E+03  0.00000000000E+00 0.  1.
         22    1    1    2    0    0 -0.52243875656E+02  0.95764359904E+01  0.56992887149E+02  0.77905839675E+02  0.00000000000E+00 0. -1.
</event>
<event>
 6    1  0.2406404E-005  0.2424081E+02  0.7818608E-02  0.1683867E+00
          2   -1    0    0  502    0  0.00000000000E+00  0.00000000000E+00  0.38613049820E+03  0.38613049820E+03  0.00000000000E+00 0. -1.
          1   -1    0    0  501    0 -0.00000000000E+00 -0.00000000000E+00 -0.11858289686E+03  0.11858289686E+03  0.00000000000E+00 0. -1.
          2    1    1    2  501    0  0.28631476932E+02  0.16425176016E+02  0.32016710207E+03  0.32186413458E+03  0.00000000000E+00 0. -1.
          1    1    1    2  502    0 -0.19961207955E+02 -0.16866969716E+02 -0.50264357557E+02  0.56652009064E+02  0.00000000000E+00 0. -1.
         22    1    1    2    0    0 -0.73383387055E+01  0.14405263248E+02  0.60074197311E+02  0.62211510244E+02  0.00000000000E+00 0. -1.
         22    1    1    2    0    0 -0.13319302715E+01 -0.13963469548E+02 -0.62429340485E+02  0.63985741173E+02  0.00000000000E+00 0. -1.
</event>
<event>
 6    1  0.2406404E-005  0.1487659E+03  0.7818608E-02  0.1262686E+00
          2   -1    0    0  502    0  0.00000000000E+00  0.00000000000E+00  0.37704628062E+03  0.37704628062E+03  0.00000000000E+00 0.  1.
          1   -1    0    0  501    0 -0.00000000000E+00 -0.00000000000E+00 -0.25417256350E+03  0.25417256350E+03  0.00000000000E+00 0. -1.
          2    1    1    2  501    0  0.78809256172E+02  0.87372700262E+02  0.24640366930E+03  0.27305614048E+03  0.00000000000E+00 0.  1.
          1    1    1    2  502    0 -0.45779417658E+02 -0.12196229631E+03 -0.17113095617E+03  0.21507292010E+03  0.00000000000E+00 0. -1.
         22    1    1    2    0    0 -0.42511199916E+02  0.35840522642E+01 -0.34469428538E+02  0.54846960286E+02  0.00000000000E+00 0. -1.
         22    1    1    2    0    0  0.94813614016E+01  0.31005543785E+02  0.82070432530E+02  0.88242823250E+02  0.00000000000E+00 0. -1.
</event>
<event>
 6    1  0.2406404E-005  0.2506935E+03  0.7818608E-02  0.1121408E+00
          2   -1    0    0  502    0  0.00000000000E+00  0.00000000000E+00  0.11963954330E+04  0.11963954330E+04  0.00000000000E+00 0.  1.
          1   -1    0    0  501    0 -0.00000000000E+00 -0.00000000000E+00 -0.95054595781E+02  0.95054595781E+02  0.00000000000E+00 0.  1.
          2    1    1    2  501    0 -0.70647512876E+02  0.76350423786E+02  0.43405034126E+03  0.44634085298E+03  0.00000000000E+00 0.  1.
          1    1    1    2  502    0  0.18186673208E+03  0.25060278885E+00  0.33750905305E+02  0.18497214560E+03  0.00000000000E+00 0.  1.
         22    1    1    2    0    0  0.49510827521E+00  0.18430789071E+02  0.13150277851E+02  0.22646609582E+02  0.00000000000E+00 0.  1.
         22    1    1    2    0    0 -0.11171432748E+03 -0.95031815646E+02  0.62038931278E+03  0.63749042060E+03  0.00000000000E+00 0.  1.
</event>
<event>
 6    1  0.2406404E-005  0.4347907E+02  0.7818608E-02  0.1504506E+00
          2   -1    0    0  502    0  0.00000000000E+00  0.00000000000E+00  0.50644484147E+02  0.50644484147E+02  0.00000000000E+00 0. -1.
          1   -1    0    0  501    0 -0.00000000000E+00 -0.00000000000E+00 -0.28546119515E+03  0.28546119515E+03  0.00000000000E+00 0. -1.
          2    1    1    2  501    0  0.25475534059E+02  0.46224885721E+02 -0.21643266998E+02  0.57045367050E+02  0.00000000000E+00 0. -1.
          1    1    1    2  502    0  0.24708527973E+01 -0.50381070336E+02 -0.67504256816E+02  0.84268511616E+02  0.00000000000E+00 0. -1.
         22    1    1    2    0    0 -0.29215782500E+02 -0.22744761870E+02 -0.16003958501E+03  0.16426671881E+03  0.00000000000E+00 0. -1.
         22    1    1    2    0    0  0.12693956432E+01  0.26900946485E+02  0.14370397814E+02  0.30525081825E+02  0.00000000000E+00 0. -1.
</event>
<event>
 6    1  0.2406404E-005  0.8869985E+02  0.7818608E-02  0.1326607E+00
          2   -1    0    0  502    0  0.00000000000E+00  0.00000000000E+00  0.14802513380E+03  0.14802513380E+03  0.00000000000E+00 0.  1.
          1   -1    0    0  501    0 -0.00000000000E+00 -0.00000000000E+00 -0.86998990549E+03  0.86998990549E+03  0.00000000000E+00 0.  1.
          2    1    1    2  501    0 -0.33785046176E+02 -0.36026341691E+02  0.11823317930E+03  0.12813434874E+03  0.00000000000E+00 0.  1.
          1    1    1    2  502    0  0.13010095365E+02  0.22082591018E+02 -0.70488850053E+03  0.70535430926E+03  0.00000000000E+00 0.  1.
         22    1    1    2    0    0 -0.11384630635E+02 -0.22294309369E+01  0.21072539239E+02  0.24054772645E+02  0.00000000000E+00 0. -1.
         22    1    1    2    0    0  0.32159581446E+02  0.16173181609E+02 -0.15638198970E+03  0.16047160865E+03  0.00000000000E+00 0. -1.
</event>
<event>
 6    1  0.2406404E-005  0.1145536E+03  0.7818608E-02  0.1252519E+00
          2   -1    0    0  502    0  0.00000000000E+00  0.00000000000E+00  0.49418828172E+03  0.49418828172E+03  0.00000000000E+00 0. -1.
          1   -1    0    0  501    0 -0.00000000000E+00 -0.00000000000E+00 -0.11445347319E+03  0.11445347319E+03  0.00000000000E+00 0.  1.
          2    1    1    2  501    0  0.20704283206E+02  0.84170925466E+02  0.37228050432E+03  0.38223838888E+03  0.00000000000E+00 0. -1.
          1    1    1    2  502    0 -0.30285219837E+02 -0.75762874990E+02 -0.39861597136E+02  0.90808340441E+02  0.00000000000E+00 0.  1.
         22    1    1    2    0    0  0.18116946325E+02  0.19521135809E+02  0.84336521099E+02  0.88441773379E+02  0.00000000000E+00 0. -1.
         22    1    1    2    0    0 -0.85360096939E+01 -0.27929186285E+02 -0.37020619745E+02  0.47153252214E+02  0.00000000000E+00 0. -1.
</event>
<event>
 6    1  0.2406404E-005  0.8162915E+02  0.7818608E-02  0.1325468E+00
          2   -1    0    0  502    0  0.00000000000E+00  0.00000000000E+00  0.45157919091E+03  0.45157919091E+03  0.00000000000E+00 0.  1.
          1   -1    0    0  501    0 -0.00000000000E+00 -0.00000000000E+00 -0.22907362954E+03  0.22907362954E+03  0.00000000000E+00 0.  1.
          2    1    1    2  501    0  0.23507344591E+02  0.58841842105E+02  0.36217137771E+03  0.36767249620E+03  0.00000000000E+00 0.  1.
          1    1    1    2  502    0 -0.19920914244E+02 -0.63751011137E+02 -0.16913114340E+03  0.18184162866E+03  0.00000000000E+00 0.  1.
         22    1    1    2    0    0  0.10846772384E+00 -0.12516456903E+02 -0.49053176193E+02  0.50624969662E+02  0.00000000000E+00 0.  1.
         22    1    1    2    0    0 -0.36948980710E+01  0.17425625935E+02  0.78518503247E+02  0.80513725930E+02  0.00000000000E+00 0.  1.
</event>
<event>
 6    1  0.2406404E-005  0.1105709E+03  0.7818608E-02  0.1325926E+00
          2   -1    0    0  502    0  0.00000000000E+00  0.00000000000E+00  0.61880293502E+02  0.61880293502E+02  0.00000000000E+00 0. -1.
          1   -1    0    0  501    0 -0.00000000000E+00 -0.00000000000E+00 -0.11014436750E+04  0.11014436750E+04  0.00000000000E+00 0. -1.
          2    1    1    2  501    0  0.43488783471E+02  0.10319312162E+02  0.69993127756E+01  0.45241052934E+02  0.00000000000E+00 0. -1.
          1    1    1    2  502    0 -0.84745592253E+02  0.24333488014E+02 -0.94998690935E+03  0.95406973644E+03  0.00000000000E+00 0. -1.
         22    1    1    2    0    0 -0.23826117693E+02 -0.21390332621E+02 -0.92025788660E+02  0.97437036041E+02  0.00000000000E+00 0.  1.
         22    1    1    2    0    0  0.65082926475E+02 -0.13262467555E+02 -0.45499962738E+01  0.66576143102E+02  0.00000000000E+00 0. -1.
</event>
<event>
 6    1  0.2406404E-005  0.9441437E+02  0.7818608E-02  0.1307998E+00
          2   -1    0    0  502    0  0.00000000000E+00  0.00000000000E+00  0.14693810256E+03  0.14693810256E+03  0.00000000000E+00 0. -1.
          1   -1    0    0  501    0 -0.00000000000E+00 -0.00000000000E+00 -0.94880447599E+02  0.94880447599E+02  0.00000000000E+00 0. -1.
          2    1    1    2  501    0  0.16000754668E+02 -0.19736796734E+02  0.30080116909E+00  0.25409757508E+02  0.00000000000E+00 0. -1.
          1    1    1    2  502    0 -0.18372392739E+02  0.46329929601E+02 -0.34336182148E+02  0.60522562704E+02  0.00000000000E+00 0. -1.
         22    1    1    2    0    0 -0.34090813070E+01  0.19047624498E+02 -0.27330822784E+02  0.33487426125E+02  0.00000000000E+00 0. -1.
         22    1    1    2    0    0  0.57807193781E+01 -0.45640757365E+02  0.11342385873E+03  0.12239880383E+03  0.00000000000E+00 0. -1.
</event>
<event>
 6    1  0.2406404E-005  0.8898359E+02  0.7818608E-02  0.1334931E+00
          2   -1    0    0  502    0  0.00000000000E+00  0.00000000000E+00  0.39817848769E+03  0.39817848769E+03  0.00000000000E+00 0.  1.
          1   -1    0    0  501    0 -0.00000000000E+00 -0.00000000000E+00 -0.48420089385E+02  0.48420089385E+02  0.00000000000E+00 0.  1.
          2    1    1    2  501    0 -0.56866813434E+02 -0.20778689134E+02  0.98718533958E+02  0.11580560150E+03  0.00000000000E+00 0.  1.
          1    1    1    2  502    0  0.58814055750E+02 -0.57214295321E+01  0.15865688939E+02  0.61184540492E+02  0.00000000000E+00 0.  1.
         22    1    1    2    0    0 -0.49839735096E+02  0.16301075276E+02  0.20608838195E+03  0.21265499153E+03  0.00000000000E+00 0.  1.
         22    1    1    2    0    0  0.47892492779E+02  0.10199043390E+02  0.29085793454E+02  0.56953443544E+02  0.00000000000E+00 0. -1.
</event>
<event>
 6    1  0.2406404E-005  0.9224117E+02  0.7818608E-02  0.1302558E+00
          2   -1    0    0  502    0  0.00000000000E+00  0.00000000000E+00  0.11999601648E+03  0.11999601648E+03  0.00000000000E+00 0. -1.
          1   -1    0    0  501    0 -0.00000000000E+00 -0.00000000000E+00 -0.11695136958E+03  0.11695136958E+03  0.00000000000E+00 0. -1.
          2    1    1    2  501    0 -0.27148203502E+02  0.95126399953E+01  0.51144508804E+02  0.58679434676E+02  0.00000000000E+00 0. -1.
          1    1    1    2  502    0  0.14595957760E+02 -0.36051225578E+02 -0.11113070792E+02  0.40450379368E+02  0.00000000000E+00 0. -1.
         22    1    1    2    0    0  0.11899562747E+02 -0.30082258648E+02 -0.66508785369E+02  0.73959180703E+02  0.00000000000E+00 0. -1.
         22    1    1    2    0    0  0.65268299464E+00  0.56620844231E+02  0.29521994253E+02  0.63858391314E+02  0.00000000000E+00 0. -1.
</event>
<event>
 6    1  0.2406404E-005  0.3302158E+03  0.7818608E-02  0.1125773E+00
          2   -1    0    0  502    0  0.00000000000E+00  0.00000000000E+00  0.58308679634E+03  0.58308679634E+03  0.00000000000E+00 0. -1.
          1   -1    0    0  501    0 -0.00000000000E+00 -0.00000000000E+00 -0.75356946902E+03  0.75356946902E+03  0.00000000000E+00 0.  1.
          2    1    1    2  501    0 -0.21178968710E+03  0.21791840394E+03  0.45386436981E+03  0.54620158231E+03  0.00000000000E+00 0. -1.
          1    1    1    2  502    0  0.27413660980E+03 -0.17531976029E+03 -0.51494840421E+03  0.60914674601E+03  0.00000000000E+00 0.  1.
         22    1    1    2    0    0 -0.48535899037E+02 -0.62839589848E+02 -0.12794243501E+03  0.15057826611E+03  0.00000000000E+00 0.  1.
         22    1    1    2    0    0 -0.13811023669E+02  0.20240946201E+02  0.18543796729E+02  0.30729670923E+02  0.00000000000E+00 0.  1.
</event>
<event>
 6    1  0.2406404E-005  0.6425262E+02  0.7818608E-02  0.1392788E+00
          2   -1    0    0  502    0  0.00000000000E+00  0.00000000000E+00  0.15440724851E+03  0.15440724851E+03  0.00000000000E+00 0. -1.
          1   -1    0    0  501    0 -0.00000000000E+00 -0.00000000000E+00 -0.82354108029E+02  0.82354108029E+02  0.00000000000E+00 0. -1.
          2    1    1    2  501    0  0.13249441353E+01  0.21872814365E+02  0.17464848450E+02  0.28021356437E+02  0.00000000000E+00 0. -1.
          1    1    1    2  502    0 -0.71732896951E+00 -0.35620591861E+02 -0.39855603917E+02  0.53458491271E+02  0.00000000000E+00 0. -1.
         22    1    1    2    0    0  0.79552293771E+01 -0.14971566154E+02 -0.26069667526E+02  0.31097604931E+02  0.00000000000E+00 0. -1.
         22    1    1    2    0    0 -0.85628445429E+01  0.28719343651E+02  0.12051356348E+03  0.12418390390E+03  0.00000000000E+00 0. -1.
</event>
<event>
 6    1  0.2406404E-005  0.1096388E+03  0.7818608E-02  0.1261448E+00
          2   -1    0    0  502    0  0.00000000000E+00  0.00000000000E+00  0.39665305858E+03  0.39665305858E+03  0.00000000000E+00 0. -1.
          1   -1    0    0  501    0 -0.00000000000E+00 -0.00000000000E+00 -0.12820115627E+03  0.12820115627E+03  0.00000000000E+00 0.  1.
          2    1    1    2  501    0 -0.95562393609E+02 -0.21175783949E+02  0.31226990624E+03  0.32725078952E+03  0.00000000000E+00 0. -1.
          1    1    1    2  502    0  0.42560823304E+02 -0.27895513581E+01 -0.42718601026E+02  0.60366250096E+02  0.00000000000E+00 0.  1.
         22    1    1    2    0    0  0.63151599974E+02  0.21320664367E+02 -0.52456643345E+02  0.84819777997E+02  0.00000000000E+00 0.  1.
         22    1    1    2    0    0 -0.10150029669E+02  0.26446709399E+01  0.51357240452E+02  0.52417397241E+02  0.00000000000E+00 0.  1.
</event>
<event>
 6    1  0.2406404E-005  0.9587255E+02  0.7818608E-02  0.1311187E+00
          2   -1    0    0  502    0  0.00000000000E+00  0.00000000000E+00  0.47968624129E+03  0.47968624129E+03  0.00000000000E+00 0.  1.
          1   -1    0    0  501    0 -0.00000000000E+00 -0.00000000000E+00 -0.44323681787E+02  0.44323681787E+02  0.00000000000E+00 0. -1.
          2    1    1    2  501    0 -0.10983179094E+02  0.21954221431E+02  0.77804460221E+02  0.81585244327E+02  0.00000000000E+00 0.  1.
          1    1    1    2  502    0  0.19506958039E+02  0.35615523656E+02 -0.15484388171E+02  0.43459788475E+02  0.00000000000E+00 0. -1.
         22    1    1    2    0    0 -0.18998007854E+02  0.10543937896E+02  0.22742743860E+01  0.21846538690E+02  0.00000000000E+00 0. -1.
         22    1    1    2    0    0  0.10474228909E+02 -0.68113682982E+02  0.37076821306E+03  0.37711835158E+03  0.00000000000E+00 0.  1.
</event>
<event>
 6    1  0.2406404E-005  0.1343119E+03  0.7818608E-02  0.1245270E+00
          2   -1    0    0  502    0  0.00000000000E+00  0.00000000000E+00  0.99971176875E+03  0.99971176875E+03  0.00000000000E+00 0.  1.
          1   -1    0    0  501    0 -0.00000000000E+00 -0.00000000000E+00 -0.22952413798E+02  0.22952413798E+02  0.00000000000E+00 0.  1.
          2    1    1    2  501    0 -0.37329101664E+02  0.80210853466E+00  0.35806554990E+03  0.36000700442E+03  0.00000000000E+00 0.  1.
          1    1    1    2  502    0 -0.70756976340E+01  0.63690145576E+02  0.69384501383E+02  0.94449505942E+02  0.00000000000E+00 0.  1.
         22    1    1    2    0    0 -0.54366330234E+01  0.14782071818E+02  0.59468385488E+01  0.16835424395E+02  0.00000000000E+00 0.  1.
         22    1    1    2    0    0  0.49841432321E+02 -0.79274325928E+02  0.54336246512E+03  0.55137224778E+03  0.00000000000E+00 0.  1.
</event>
<event>
 6    1  0.2406404E-005  0.3909350E+03  0.7818608E-02  0.1109926E+00
          2   -1    0    0  502    0  0.00000000000E+00  0.00000000000E+00  0.14541730318E+04  0.14541730318E+04  0.00000000000E+00 0. -1.
          1   -1    0    0  501    0 -0.00000000000E+00 -0.00000000000E+00 -0.44032519355E+03  0.44032519355E+03  0.00000000000E+00 0.  1.
          2    1    1    2  501    0 -0.28664431844E+03  0.23750626674E+03  0.12649386336E+04  0.13185764820E+04  0.00000000000E+00 0. -1.
          1    1    1    2  502    0  0.23660307294E+03 -0.25664278110E+03 -0.27186150740E+03  0.44244232440E+03  0.00000000000E+00 0.  1.
         22    1    1    2    0    0 -0.20098076273E+02  0.66763233657E+01  0.51660604098E+02  0.55833000809E+02  0.00000000000E+00 0.  1.
         22    1    1    2    0    0  0.70139321780E+02  0.12460190992E+02 -0.30889892063E+02  0.77646418147E+02  0.00000000000E+00 0.  1.
</event>
<event>
 6    1  0.2406404E-005  0.5562548E+02  0.7818608E-02  0.1495705E+00
          2   -1    0    0  502    0  0.00000000000E+00  0.00000000000E+00  0.30661403600E+03  0.30661403600E+03  0.00000000000E+00 0. -1.
          1   -1    0    0  501    0 -0.00000000000E+00 -0.00000000000E+00 -0.25839210522E+03  0.25839210522E+03  0.00000000000E+00 0. -1.
          2    1    1    2  501    0  0.10052256538E+02  0.49872152666E+02  0.17101053223E+03  0.17841771663E+03  0.00000000000E+00 0. -1.
          1    1    1    2  502    0  0.40255420667E+02 -0.65791690810E+02 -0.20894335761E+03  0.22272487998E+03  0.00000000000E+00 0. -1.
         22    1    1    2    0    0 -0.37361090996E+02  0.19446511221E+02  0.12014852935E+03  0.12731726915E+03  0.00000000000E+00 0. -1.
         22    1    1    2    0    0 -0.12946586209E+02 -0.35269730768E+01 -0.33993773200E+02  0.36546275459E+02  0.00000000000E+00 0.  1.
</event>
<event>
 6    1  0.2406404E-005  0.8667712E+02  0.7818608E-02  0.1311686E+00
          2   -1    0    0  502    0  0.00000000000E+00  0.00000000000E+00  0.40220760196E+03  0.40220760196E+03  0.00000000000E+00 0.  1.
          1   -1    0    0  501    0 -0.00000000000E+00 -0.00000000000E+00 -0.52647376468E+02  0.52647376468E+02  0.00000000000E+00 0.  1.
          2    1    1    2  501    0 -0.55868148207E+02  0.19957535335E+02  0.22128994383E+03  0.22910432654E+03  0.00000000000E+00 0.  1.
          1    1    1    2  502    0  0.41188748348E+02 -0.16255635482E+01 -0.39900995223E+01  0.41413480191E+02  0.00000000000E+00 0.  1.
         22    1    1    2    0    0 -0.24998049200E+02  0.38476584047E+01  0.13637023894E+03  0.13869588677E+03  0.00000000000E+00 0. -1.
         22    1    1    2    0    0  0.39677449059E+02 -0.22179630191E+02 -0.41098577478E+01  0.45641284929E+02  0.00000000000E+00 0.  1.
</event>
<event>
 6    1  0.2406404E-005  0.1280933E+03  0.7818608E-02  0.1292996E+00
          2   -1    0    0  502    0  0.00000000000E+00  0.00000000000E+00  0.65476257400E+02  0.65476257400E+02  0.00000000000E+00 0. -1.
          1   -1    0    0  501    0 -0.00000000000E+00 -0.00000000000E+00 -0.82755267631E+03  0.82755267631E+03  0.00000000000E+00 0. -1.
          2    1    1    2  501    0 -0.22684988694E+02 -0.40383149964E+02 -0.55763912980E+01  0.46653013332E+02  0.00000000000E+00 0. -1.
          1    1    1    2  502    0  0.34591897276E+02  0.10187339253E+03 -0.67373505309E+03  0.68227099398E+03  0.00000000000E+00 0. -1.
         22    1    1    2    0    0 -0.31965497561E+02  0.19529529264E+02 -0.70376316732E+02  0.79724660578E+02  0.00000000000E+00 0. -1.
         22    1    1    2    0    0  0.20058588978E+02 -0.81019771829E+02 -0.12388657795E+02  0.84380265827E+02  0.00000000000E+00 0. -1.
</event>
<event>
 6    1  0.2406404E-005  0.5668473E+02  0.7818608E-02  0.1481125E+00
          2   -1    0    0  502    0  0.00000000000E+00  0.00000000000E+00  0.42114305140E+02  0.42114305140E+02  0.00000000000E+00 0. -1.
          1   -1    0    0  501    0 -0.00000000000E+00 -0.00000000000E+00 -0.40610677164E+03  0.40610677164E+03  0.00000000000E+00 0.  1.
          2    1    1    2  501    0  0.33885713949E+02 -0.72327482841E+01  0.59116203739E+00  0.34654057918E+02  0.00000000000E+00 0. -1.
          1    1    1    2  502    0 -0.31003377767E+02  0.11849560710E+02 -0.23080665132E+03  0.23318089934E+03  0.00000000000E+00 0.  1.
         22    1    1    2    0    0 -0.21347083926E+02 -0.13407095266E+02 -0.15134253523E+03  0.15342754370E+03  0.00000000000E+00 0.  1.
         22    1    1    2    0    0  0.18464747744E+02  0.87902828402E+01  0.17565558020E+02  0.26958575819E+02  0.00000000000E+00 0. -1.
</event>
<event>
 6    1  0.2406404E-005  0.4351849E+02  0.7818608E-02  0.1544677E+00
          2   -1    0    0  502    0  0.00000000000E+00  0.00000000000E+00  0.40879409156E+03  0.40879409156E+03  0.00000000000E+00 0.  1.
          1   -1    0    0  501    0 -0.00000000000E+00 -0.00000000000E+00 -0.31705840910E+02  0.31705840910E+02  0.00000000000E+00 0. -1.
          2    1    1    2  501    0  0.36487497149E+02 -0.11683313692E+02  0.86660071616E+02  0.94751281150E+02  0.00000000000E+00 0.  1.
          1    1    1    2  502    0  0.29557601451E+02  0.28215141199E+02  0.38056753013E+02  0.55839613594E+02  0.00000000000E+00 0. -1.
         22    1    1    2    0    0 -0.47041315179E+02 -0.14145285745E+02  0.26330977302E+03  0.26785259194E+03  0.00000000000E+00 0. -1.
         22    1    1    2    0    0 -0.19003783421E+02 -0.23865417624E+01 -0.10938346994E+02  0.22056445789E+02  0.00000000000E+00 0. -1.
</event>
<event>
 6    1  0.2406404E-005  0.1624647E+03  0.7818608E-02  0.1231344E+00
          2   -1    0    0  502    0  0.00000000000E+00  0.00000000000E+00  0.10530030921E+04  0.10530030921E+04  0.00000000000E+00 0. -1.
          1   -1    0    0  501    0 -0.00000000000E+00 -0.00000000000E+00 -0.13499673845E+02  0.13499673845E+02  0.00000000000E+00 0. -1.
          2    1    1    2  501    0 -0.64288958251E+02  0.29787013420E+02  0.42324674173E+03  0.42913650592E+03  0.00000000000E+00 0. -1.
          1    1    1    2  502    0  0.23461795168E+02  0.10995067433E+02  0.63122348206E+02  0.68233263028E+02  0.00000000000E+00 0. -1.
         22    1    1    2    0    0 -0.12231969692E+02  0.33372126547E+02  0.83845820050E+02  0.91068333973E+02  0.00000000000E+00 0. -1.
         22    1    1    2    0    0  0.53059132775E+02 -0.74154207399E+02  0.46928850824E+03  0.47806466300E+03  0.00000000000E+00 0. -1.
</event>
<event>
 6    1  0.2406404E-005  0.9693131E+02  0.7818608E-02  0.1299276E+00
          2   -1    0    0  502    0  0.00000000000E+00  0.00000000000E+00  0.42779736482E+03  0.42779736482E+03  0.00000000000E+00 0.  1.
          1   -1    0    0  501    0 -0.00000000000E+00 -0.00000000000E+00 -0.84150816583E+02  0.84150816583E+02  0.00000000000E+00 0. -1.
          2    1    1    2  501    0 -0.46814757223E+01 -0.38963154289E+02  0.24207430010E+03  0.24523460273E+03  0.00000000000E+00 0.  1.
          1    1    1    2  502    0 -0.36754199230E+02  0.49183054382E+02 -0.41570010531E+02  0.74147891237E+02  0.00000000000E+00 0. -1.
         22    1    1    2    0    0  0.46761074114E+02 -0.23793132457E+02  0.16110337210E+03  0.16943142479E+03  0.00000000000E+00 0.  1.
         22    1    1    2    0    0 -0.53253991620E+01  0.13573232364E+02 -0.17961113425E+02  0.23134262653E+02  0.00000000000E+00 0.  1.
</event>
<event>
 6    1  0.2406404E-005  0.1962944E+03  0.7818608E-02  0.1168655E+00
          2   -1    0    0  502    0  0.00000000000E+00  0.00000000000E+00  0.40738232095E+03  0.40738232095E+03  0.00000000000E+00 0.  1.
          1   -1    0    0  501    0 -0.00000000000E+00 -0.00000000000E+00 -0.15732080502E+03  0.15732080502E+03  0.00000000000E+00 0.  1.
          2    1    1    2  501    0  0.19251259587E+02  0.11549109362E+03  0.30601834849E+03  0.32765230553E+03  0.00000000000E+00 0.  1.
          1    1    1    2  502    0 -0.13406438255E+00 -0.55839757530E+02  0.41202792887E+02  0.69395724911E+02  0.00000000000E+00 0.  1.
         22    1    1    2    0    0 -0.18204268925E+02 -0.75826945567E+02 -0.11788820360E+03  0.14134620486E+03  0.00000000000E+00 0.  1.
         22    1    1    2    0    0 -0.91292627969E+00  0.16175609476E+02  0.20728578149E+02  0.26308890672E+02  0.00000000000E+00 0.  1.
</event>
<event>
 6    1  0.2406404E-005  0.1756064E+03  0.7818608E-02  0.1172371E+00
          2   -1    0    0  502    0  0.00000000000E+00  0.00000000000E+00  0.68488912014E+03  0.68488912014E+03  0.00000000000E+00 0. -1.
          1   -1    0    0  501    0 -0.00000000000E+00 -0.00000000000E+00 -0.45309874387E+02  0.45309874387E+02  0.00000000000E+00 0. -1.
          2    1    1    2  501    0 -0.19854332601E+02  0.13637410842E+03  0.25238919066E+03  0.28756285493E+03  0.00000000000E+00 0. -1.
          1    1    1    2  502    0  0.11893379365E+02 -0.62564531561E+02  0.14339785686E+03  0.15690353225E+03  0.00000000000E+00 0. -1.
         22    1    1    2    0    0  0.16326384837E+02 -0.10598459225E+03  0.13755471806E+03  0.17441497956E+03  0.00000000000E+00 0. -1.
         22    1    1    2    0    0 -0.83654316009E+01  0.32175015387E+02  0.10623748018E+03  0.11131762779E+03  0.00000000000E+00 0. -1.
</event>
<event>
 6    1  0.2406404E-005  0.1217827E+03  0.7818608E-02  0.1265429E+00
          2   -1    0    0  502    0  0.00000000000E+00  0.00000000000E+00  0.87769142434E+02  0.87769142434E+02  0.00000000000E+00 0. -1.
          1   -1    0    0  501    0 -0.00000000000E+00 -0.00000000000E+00 -0.31551891033E+03  0.31551891033E+03  0.00000000000E+00 0. -1.
          2    1    1    2  501    0 -0.38530329527E+02  0.19690249293E+02 -0.19611326435E+03  0.20083003925E+03  0.00000000000E+00 0. -1.
          1    1    1    2  502    0  0.58710977625E+02  0.27127785859E+02 -0.19364917233E+01  0.64704293980E+02  0.00000000000E+00 0. -1.
         22    1    1    2    0    0  0.75159109288E+01 -0.47994280278E+02  0.39881836028E+02  0.62853008691E+02  0.00000000000E+00 0. -1.
         22    1    1    2    0    0 -0.27696559026E+02  0.11762451256E+01 -0.69581847852E+02  0.74900710845E+02  0.00000000000E+00 0.  1.
</event>
<event>
 6    1  0.2406404E-005  0.5523915E+02  0.7818608E-02  0.1442070E+00
          2   -1    0    0  502    0  0.00000000000E+00  0.00000000000E+00  0.30157057968E+03  0.30157057968E+03  0.00000000000E+00 0. -1.
          1   -1    0    0  501    0 -0.00000000000E+00 -0.00000000000E+00 -0.95388355386E+02  0.95388355386E+02  0.00000000000E+00 0. -1.
          2    1    1    2  501    0  0.19010120559E+02 -0.18912252866E+02  0.16193808703E+03  0.16414323630E+03  0.00000000000E+00 0. -1.
          1    1    1    2  502    0 -0.23225143407E+02  0.33174016804E+01 -0.65288898614E+02  0.69376168259E+02  0.00000000000E+00 0. -1.
         22    1    1    2    0    0 -0.12747658016E+02 -0.67290259715E+01 -0.23453799014E+02  0.27529316439E+02  0.00000000000E+00 0. -1.
         22    1    1    2    0    0  0.16962680864E+02  0.22323877157E+02  0.13298683489E+03  0.13591021407E+03  0.00000000000E+00 0. -1.
</event>
<event>
 6    1  0.2406404E-005  0.1154842E+03  0.7818608E-02  0.1285236E+00
          2   -1    0    0  502    0  0.00000000000E+00  0.00000000000E+00  0.11014883954E+04  0.11014883954E+04  0.00000000000E+00 0. -1.
          1   -1    0    0  501    0 -0.00000000000E+00 -0.00000000000E+00 -0.31436219452E+02  0.31436219452E+02  0.00000000000E+00 0.  1.
          2    1    1    2  501    0 -0.11582366838E+03 -0.19589626933E+02  0.71924703954E+03  0.72877649491E+03  0.00000000000E+00 0. -1.
          1    1    1    2  502    0  0.16950073172E+02 -0.23134401692E+02  0.94684200936E+02  0.98932317415E+02  0.00000000000E+00 0.  1.
         22    1    1    2    0    0  0.92936204591E+02  0.72153787253E+02  0.12899950417E+03  0.17459719131E+03  0.00000000000E+00 0.  1.
         22    1    1    2    0    0  0.59373906142E+01 -0.29429758628E+02  0.12712143133E+03  0.13061861125E+03  0.00000000000E+00 0.  1.
</event>
<event>
 6    1  0.5747119E-005  0.7803269E+02  0.7818608E-02  0.1435343E+00
          2   -1    0    0  502    0  0.00000000000E+00  0.00000000000E+00  0.90485659242E+02  0.90485659242E+02  0.00000000000E+00 0. -1.
          1   -1    0    0  501    0 -0.00000000000E+00 -0.00000000000E+00 -0.25909387220E+04  0.25909387220E+04  0.00000000000E+00 0. -1.
          2    1    1    2  501    0 -0.47167643763E+02 -0.54826940549E+02 -0.19762953119E+03  0.21044764581E+03  0.00000000000E+00 0. -1.
          1    1    1    2  502    0  0.10986387711E+03  0.50436100535E+01 -0.23216660990E+04  0.23242695594E+04  0.00000000000E+00 0. -1.
         22    1    1    2    0    0 -0.11499626353E+02  0.63792057045E+01 -0.49321460803E+02  0.51044511629E+02  0.00000000000E+00 0.  1.
         22    1    1    2    0    0 -0.51196606995E+02  0.43404124792E+02  0.68164028234E+02  0.95662664408E+02  0.00000000000E+00 0. -1.
</event>
<event>
 6    1  0.2406404E-005  0.5733127E+02  0.7818608E-02  0.1414458E+00
          2   -1    0    0  502    0  0.00000000000E+00  0.00000000000E+00  0.14520868301E+03  0.14520868301E+03  0.00000000000E+00 0.  1.
          1   -1    0    0  501    0 -0.00000000000E+00 -0.00000000000E+00 -0.10825530798E+03  0.10825530798E+03  0.00000000000E+00 0.  1.
          2    1    1    2  501    0  0.22749517156E+02  0.89917696275E+01  0.30497680465E+02  0.39096047954E+02  0.00000000000E+00 0.  1.
          1    1    1    2  502    0 -0.16949150190E+02 -0.18532030450E+02 -0.62377120533E+02  0.67242955102E+02  0.00000000000E+00 0.  1.
         22    1    1    2    0    0  0.13589631722E+02 -0.12197731368E+02  0.10163121929E+03  0.10325874043E+03  0.00000000000E+00 0.  1.
         22    1    1    2    0    0 -0.19389998689E+02  0.21737992190E+02 -0.32798404188E+02  0.43866247513E+02  0.00000000000E+00 0.  1.
</event>
<event>
 6    1  0.2406404E-005  0.6496566E+02  0.7818608E-02  0.1411443E+00
          2   -1    0    0  502    0  0.00000000000E+00  0.00000000000E+00  0.28891418043E+03  0.28891418043E+03  0.00000000000E+00 0.  1.
          1   -1    0    0  501    0 -0.00000000000E+00 -0.00000000000E+00 -0.53473530610E+03  0.53473530610E+03  0.00000000000E+00 0.  1.
          2    1    1    2  501    0  0.85845617268E+02  0.95135073169E+01  0.11505083860E+03  0.14386338063E+03  0.00000000000E+00 0.  1.
          1    1    1    2  502    0 -0.10381207976E+03 -0.22614852048E+01 -0.48708195069E+03  0.49802699617E+03  0.00000000000E+00 0.  1.
         22    1    1    2    0    0  0.25858451659E+02 -0.28255551091E+02  0.14655127782E+03  0.15147380209E+03  0.00000000000E+00 0.  1.
         22    1    1    2    0    0 -0.78919891658E+01  0.21003528979E+02 -0.20341291398E+02  0.30285307631E+02  0.00000000000E+00 0. -1.
</event>
<event>
 6    1  0.2406404E-005  0.4121248E+02  0.7818608E-02  0.1555844E+00
          2   -1    0    0  502    0  0.00000000000E+00  0.00000000000E+00  0.13666500007E+03  0.13666500007E+03  0.00000000000E+00 0. -1.
          1   -1    0    0  501    0 -0.00000000000E+00 -0.00000000000E+00 -0.76974738557E+02  0.76974738557E+02  0.00000000000E+00 0. -1.
          2    1    1    2  501    0 -0.26924620370E+02 -0.54121612268E+01  0.52355226819E+02  0.59121032184E+02  0.00000000000E+00 0. -1.
          1    1    1    2  502    0  0.25165555554E+02 -0.54065992081E+01 -0.42430664956E+00  0.25743281404E+02  0.00000000000E+00 0. -1.
         22    1    1    2    0    0  0.15841228172E+02  0.11437249322E+02 -0.58166042295E+02  0.61359951584E+02  0.00000000000E+00 0. -1.
         22    1    1    2    0    0 -0.14082163355E+02 -0.61848888685E+00  0.65925383641E+02  0.67415473457E+02  0.00000000000E+00 0. -1.
</event>
<event>
 6    1  0.2406404E-005  0.9780460E+02  0.7818608E-02  0.1395798E+00
          2   -1    0    0  502    0  0.00000000000E+00  0.00000000000E+00  0.39617903193E+03  0.39617903193E+03  0.00000000000E+00 0.  1.
          1   -1    0    0  501    0 -0.00000000000E+00 -0.00000000000E+00 -0.18222088076E+03  0.18222088076E+03  0.00000000000E+00 0. -1.
          2    1    1    2  501    0  0.47530754077E+02  0.29556440882E+02  0.24321397264E+03  0.24957121682E+03  0.00000000000E+00 0.  1.
          1    1    1    2  502    0 -0.93336693197E+02 -0.25293039121E+02 -0.12968553848E+03  0.16177087196E+03  0.00000000000E+00 0. -1.
         22    1    1    2    0    0  0.60323346835E+01 -0.12974321501E+02 -0.28479274688E+02  0.31871478894E+02  0.00000000000E+00 0. -1.
         22    1    1    2    0    0  0.39773604436E+02  0.87109197403E+01  0.12890899170E+03  0.13518634500E+03  0.00000000000E+00 0.  1.
</event>
<event>
 6    1  0.2406404E-005  0.9301555E+02  0.7818608E-02  0.1296299E+00
          2   -1    0    0  502    0  0.00000000000E+00  0.00000000000E+00  0.42277047123E+03  0.42277047123E+03  0.00000000000E+00 0. -1.
          1   -1    0    0  501    0 -0.00000000000E+00 -0.00000000000E+00 -0.17822599298E+03  0.17822599298E+03  0.00000000000E+00 0.  1.
          2    1    1    2  501    0 -0.41018891585E+02 -0.69163011567E+02  0.37341758150E+03  0.38197743625E+03  0.00000000000E+00 0. -1.
          1    1    1    2  502    0  0.24314384639E+02  0.24083283648E+02 -0.67917364714E+02  0.76052365390E+02  0.00000000000E+00 0.  1.
         22    1    1    2    0    0  0.23203232513E+02  0.53574845714E+02 -0.92652911278E+02  0.10951354282E+03  0.00000000000E+00 0. -1.
         22    1    1    2    0    0 -0.64987255677E+01 -0.84951177955E+01  0.31697172754E+02  0.33453119749E+02  0.00000000000E+00 0.  1.
</event>
<event>
 6    1  0.2406404E-005  0.4784818E+02  0.7818608E-02  0.1509197E+00
          2   -1    0    0  502    0  0.00000000000E+00  0.00000000000E+00  0.15656569053E+03  0.15656569053E+03  0.00000000000E+00 0.  1.
          1   -1    0    0  501    0 -0.00000000000E+00 -0.00000000000E+00 -0.10278061951E+03  0.10278061951E+03  0.00000000000E+00 0. -1.
          2    1    1    2  501    0  0.24861617321E+02 -0.14177052397E+02  0.16711007401E+02  0.33141312569E+02  0.00000000000E+00 0.  1.
          1    1    1    2  502    0 -0.31133158482E+02  0.14688224873E+02 -0.58203249585E+02  0.67621267137E+02  0.00000000000E+00 0. -1.
         22    1    1    2    0    0 -0.15508695211E+02 -0.80815694393E+01 -0.28085113036E+02  0.33084814734E+02  0.00000000000E+00 0.  1.
         22    1    1    2    0    0  0.21780236373E+02  0.75703969625E+01  0.12336242625E+03  0.12549891560E+03  0.00000000000E+00 0.  1.
</event>
<event>
 6    1  0.2406404E-005  0.5210642E+02  0.7818608E-02  0.1475015E+00
          2   -1    0    0  502    0  0.00000000000E+00  0.00000000000E+00  0.16952609480E+04  0.16952609480E+04  0.00000000000E+00 0. -1.
          1   -1    0    0  501    0 -0.00000000000E+00 -0.00000000000E+00 -0.10313179599E+03  0.10313179599E+03  0.00000000000E+00 0. -1.
          2    1    1    2  501    0 -0.70264335902E+02  0.58440165936E+02  0.15922297073E+04  0.15948503913E+04  0.00000000000E+00 0. -1.
          1    1    1    2  502    0  0.38645973368E+02 -0.64226993559E+02 -0.17945865819E+02  0.77075755327E+02  0.00000000000E+00 0. -1.
         22    1    1    2    0    0  0.49727756493E+01  0.14651103267E+02  0.67592620126E+02  0.69340793334E+02  0.00000000000E+00 0. -1.
         22    1    1    2    0    0  0.26645586885E+02 -0.88642756438E+01 -0.49747309540E+02  0.57125804061E+02  0.00000000000E+00 0. -1.
</event>
<event>
 6    1  0.2406404E-005  0.2626279E+02  0.7818608E-02  0.1669368E+00
          2   -1    0    0  502    0  0.00000000000E+00  0.00000000000E+00  0.19566645822E+03  0.19566645822E+03  0.00000000000E+00 0. -1.
          1   -1    0    0  501    0 -0.00000000000E+00 -0.00000000000E+00 -0.42600554045E+02  0.42600554045E+02  0.00000000000E+00 0. -1.
          2    1    1    2  501    0  0.67761178887E+01 -0.25374186806E+02  0.37203037377E+02  0.45539335962E+02  0.00000000000E+00 0. -1.
          1    1    1    2  502    0 -0.15011721666E+02  0.23021547730E+02  0.30939106882E+02  0.41383230685E+02  0.00000000000E+00 0. -1.
         22    1    1    2    0    0  0.22236207428E+02  0.15833491999E+02 -0.26615063918E+02  0.38124926452E+02  0.00000000000E+00 0. -1.
         22    1    1    2    0    0 -0.14000603650E+02 -0.13480852922E+02  0.11153882383E+03  0.11321951917E+03  0.00000000000E+00 0.  1.
</event>
<event>
 6    1  0.2406404E-005  0.1206809E+03  0.7818608E-02  0.1259208E+00
          2   -1    0    0  502    0  0.00000000000E+00  0.00000000000E+00  0.52906928829E+03  0.52906928829E+03  0.00000000000E+00 0.  1.
          1   -1    0    0  501    0 -0.00000000000E+00 -0.00000000000E+00 -0.75423398853E+02  0.75423398853E+02  0.00000000000E+00 0.  1.
          2    1    1    2  501    0  0.55384484989E+01 -0.19634635995E+02  0.31099680254E+03  0.31166521226E+03  0.00000000000E+00 0.  1.
          1    1    1    2  502    0  0.52789863217E+02  0.36812583370E+02 -0.32217810447E+02  0.71971683757E+02  0.00000000000E+00 0.  1.
         22    1    1    2    0    0 -0.61911301152E+02 -0.38045178067E+02  0.18397585942E+03  0.19780687965E+03  0.00000000000E+00 0.  1.
         22    1    1    2    0    0  0.35829894365E+01  0.20867230692E+02 -0.91089620830E+01  0.23048911477E+02  0.00000000000E+00 0.  1.
</event>
<event>
 6    1  0.2406404E-005  0.9868576E+02  0.7818608E-02  0.1288936E+00
          2   -1    0    0  502    0  0.00000000000E+00  0.00000000000E+00  0.10653752591E+03  0.10653752591E+03  0.00000000000E+00 0. -1.
          1   -1    0    0  501    0 -0.00000000000E+00 -0.00000000000E+00 -0.19579465174E+03  0.19579465174E+03  0.00000000000E+00 0.  1.
          2    1    1    2  501    0  0.58563966570E+02  0.34166340268E+02  0.46990528897E+02  0.82493556074E+02  0.00000000000E+00 0. -1.
          1    1    1    2  502    0 -0.42107883192E+02 -0.11247114343E+02 -0.38765072728E+02  0.58329257424E+02  0.00000000000E+00 0.  1.
         22    1    1    2    0    0  0.17760662751E+02  0.75017753202E+01  0.24523857925E+02  0.31195149973E+02  0.00000000000E+00 0. -1.
         22    1    1    2    0    0 -0.34216746129E+02 -0.30421001245E+02 -0.12200643993E+03  0.13031421418E+03  0.00000000000E+00 0.  1.
</event>
<event>
 6    1  0.2406404E-005  0.7929319E+02  0.7818608E-02  0.1331673E+00
          2   -1    0    0  502    0  0.00000000000E+00  0.00000000000E+00  0.19552010656E+03  0.19552010656E+03  0.00000000000E+00 0. -1.
          1   -1    0    0  501    0 -0.00000000000E+00 -0.00000000000E+00 -0.49949850083E+03  0.49949850083E+03  0.00000000000E+00 0. -1.
          2    1    1    2  501    0 -0.11950964494E+02  0.47722579099E+02  0.13797691753E+03  0.14648515242E+03  0.00000000000E+00 0. -1.
          1    1    1    2  502    0  0.21616301568E+02 -0.52470920349E+02 -0.41414166039E+03  0.41801169462E+03  0.00000000000E+00 0. -1.
         22    1    1    2    0    0 -0.17088459946E+02  0.22218559514E+02  0.46240932428E+02  0.54073132718E+02  0.00000000000E+00 0.  1.
         22    1    1    2    0    0  0.74231228723E+01 -0.17470218264E+02 -0.74054583842E+02  0.76448627635E+02  0.00000000000E+00 0. -1.
</event>
<event>
 6    1  0.2406404E-005  0.1251642E+03  0.7818608E-02  0.1254897E+00
          2   -1    0    0  502    0  0.00000000000E+00  0.00000000000E+00  0.38480810970E+03  0.38480810970E+03  0.00000000000E+00 0.  1.
          1   -1    0    0  501    0 -0.00000000000E+00 -0.00000000000E+00 -0.55931497185E+02  0.55931497185E+02  0.00000000000E+00 0. -1.
          2    1    1    2  501    0 -0.38086341279E+02  0.37289114266E+02  0.21034402833E+03  0.21699229868E+03  0.00000000000E+00 0.  1.
          1    1    1    2  502    0 -0.96281774759E+01 -0.49065121196E+02  0.13097028454E+02  0.51687716856E+02  0.00000000000E+00 0. -1.
         22    1    1    2    0    0  0.75096929118E+02  0.41891016769E+00  0.14593354370E+02  0.76502877335E+02  0.00000000000E+00 0. -1.
         22    1    1    2    0    0 -0.27382410363E+02  0.11357096762E+02  0.90842201363E+02  0.95556714011E+02  0.00000000000E+00 0. -1.
</event>
<event>
 6    1  0.2406404E-005  0.1131621E+03  0.7818608E-02  0.1267056E+00
          2   -1    0    0  502    0  0.00000000000E+00  0.00000000000E+00  0.43935360894E+03  0.43935360894E+03  0.00000000000E+00 0. -1.
          1   -1    0    0  501    0 -0.00000000000E+00 -0.00000000000E+00 -0.35867164356E+02  0.35867164356E+02  0.00000000000E+00 0.  1.
          2    1    1    2  501    0  0.20264812532E+02 -0.74895717776E+01  0.17694061389E+02  0.27925546025E+02  0.00000000000E+00 0. -1.
          1    1    1    2  502    0 -0.39931514457E+02  0.50782192768E+02  0.41062216404E+02  0.76547126433E+02  0.00000000000E+00 0.  1.
         22    1    1    2    0    0  0.26941622186E+02 -0.65213820523E+02  0.33990658831E+03  0.34715296652E+03  0.00000000000E+00 0. -1.
         22    1    1    2    0    0 -0.72749202608E+01  0.21921199533E+02  0.48235784822E+01  0.23595134311E+02  0.00000000000E+00 0.  1.
</event>
<event>
 6    1  0.2406404E-005  0.8086040E+02  0.7818608E-02  0.1395699E+00
          2   -1    0    0  502    0  0.00000000000E+00  0.00000000000E+00  0.40107078728E+03  0.40107078728E+03  0.00000000000E+00 0. -1.
          1   -1    0    0  501    0 -0.00000000000E+00 -0.00000000000E+00 -0.10132697353E+03  0.10132697353E+03  0.00000000000E+00 0. -1.
          2    1    1    2  501    0  0.25746090905E+01 -0.22434902190E+02  0.11219525493E+03  0.11444530867E+03  0.00000000000E+00 0. -1.
          1    1    1    2  502    0 -0.24390789579E+02  0.48616059082E+02 -0.75489206498E+02  0.93043280868E+02  0.00000000000E+00 0. -1.
         22    1    1    2    0    0 -0.14699410714E+02  0.20664314959E+02  0.11346168695E+00  0.25359405782E+02  0.00000000000E+00 0.  1.
         22    1    1    2    0    0  0.36515591203E+02 -0.46845471852E+02  0.26292430363E+03  0.26954976549E+03  0.00000000000E+00 0. -1.
</event>
<event>
 6    1  0.2406404E-005  0.1036862E+03  0.7818608E-02  0.1276596E+00
          2   -1    0    0  502    0  0.00000000000E+00  0.00000000000E+00  0.64003332129E+02  0.64003332129E+02  0.00000000000E+00 0. -1.
          1   -1    0    0  501    0 -0.00000000000E+00 -0.00000000000E+00 -0.33251173860E+03  0.33251173860E+03  0.00000000000E+00 0. -1.
          2    1    1    2  501    0 -0.55340967558E+02 -0.41592668439E+01 -0.17238076227E+03  0.18109403467E+03  0.00000000000E+00 0. -1.
          1    1    1    2  502    0  0.27230426211E+02 -0.47293799465E+01  0.26699082842E+02  0.38427908750E+02  0.00000000000E+00 0. -1.
         22    1    1    2    0    0 -0.32930903142E+02  0.23406512847E+02 -0.10386536721E+03  0.11144650614E+03  0.00000000000E+00 0. -1.
         22    1    1    2    0    0  0.61041444489E+02 -0.14517866057E+02 -0.18961359832E+02  0.65546621171E+02  0.00000000000E+00 0. -1.
</event>
<event>
 6    1  0.2406404E-005  0.6973663E+02  0.7818608E-02  0.1370691E+00
          2   -1    0    0  502    0  0.00000000000E+00  0.00000000000E+00  0.50570005011E+03  0.50570005011E+03  0.00000000000E+00 0.  1.
          1   -1    0    0  501    0 -0.00000000000E+00 -0.00000000000E+00 -0.55108706818E+02  0.55108706818E+02  0.00000000000E+00 0. -1.
          2    1    1    2  501    0  0.64886481305E+01 -0.35762499267E+02  0.29912651388E+03  0.30132661716E+03  0.00000000000E+00 0.  1.
          1    1    1    2  502    0  0.29371843423E+01 -0.26853176620E+02 -0.23326730909E+02  0.35691126647E+02  0.00000000000E+00 0. -1.
         22    1    1    2    0    0 -0.20137854356E+01  0.32290091905E+02  0.18736362220E+03  0.19013635184E+03  0.00000000000E+00 0. -1.
         22    1    1    2    0    0 -0.74120470372E+01  0.30325583982E+02 -0.12572061882E+02  0.33654661268E+02  0.00000000000E+00 0. -1.
</event>
<event>
 6    1  0.2406404E-005  0.1892622E+03  0.7818608E-02  0.1181889E+00
          2   -1    0    0  502    0  0.00000000000E+00  0.00000000000E+00  0.26371046646E+03  0.26371046646E+03  0.00000000000E+00 0. -1.
          1   -1    0    0  501    0 -0.00000000000E+00 -0.00000000000E+00 -0.35009894954E+03  0.35009894954E+03  0.00000000000E+00 0. -1.
          2    1    1    2  501    0 -0.67008142785E+02 -0.62168526562E+00 -0.24320121632E+03  0.25226436394E+03  0.00000000000E+00 0. -1.
          1    1    1    2  502    0  0.35222339150E+02  0.11406484983E+02  0.21402836179E+03  0.21720695367E+03  0.00000000000E+00 0. -1.
         22    1    1    2    0    0 -0.32940738126E+02  0.19885734559E+02 -0.61543575638E+02  0.72581997558E+02  0.00000000000E+00 0. -1.
         22    1    1    2    0    0  0.64726541761E+02 -0.30670534277E+02  0.43279470902E+01  0.71756100836E+02  0.00000000000E+00 0.  1.
</event>
<event>
 6    1  0.2406404E-005  0.1322411E+03  0.7818608E-02  0.1225079E+00
          2   -1    0    0  502    0  0.00000000000E+00  0.00000000000E+00  0.87669569105E+03  0.87669569105E+03  0.00000000000E+00 0.  1.
          1   -1    0    0  501    0 -0.00000000000E+00 -0.00000000000E+00 -0.20503087807E+03  0.20503087807E+03  0.00000000000E+00 0.  1.
          2    1    1    2  501    0 -0.37471120931E+02  0.60662090857E+02  0.52461634086E+03  0.52943958982E+03  0.00000000000E+00 0.  1.
          1    1    1    2  502    0  0.41090259638E+02 -0.10854067367E+03 -0.17166563919E+03  0.20721626132E+03  0.00000000000E+00 0.  1.
         22    1    1    2    0    0  0.31834627572E+01 -0.11282225014E+02 -0.72023059228E+01  0.13758497266E+02  0.00000000000E+00 0.  1.
         22    1    1    2    0    0 -0.68026014639E+01  0.59160807823E+02  0.32591641723E+03  0.33131222071E+03  0.00000000000E+00 0. -1.
</event>
<event>
 6    1  0.2406404E-005  0.1691566E+03  0.7818608E-02  0.1187835E+00
          2   -1    0    0  502    0  0.00000000000E+00  0.00000000000E+00  0.68675822310E+03  0.68675822310E+03  0.00000000000E+00 0. -1.
          1   -1    0    0  501    0 -0.00000000000E+00 -0.00000000000E+00 -0.34350047994E+02  0.34350047994E+02  0.00000000000E+00 0. -1.
          2    1    1    2  501    0  0.13580633860E+02  0.99349848997E+02  0.19648666966E+03  0.22059428248E+03  0.00000000000E+00 0. -1.
          1    1    1    2  502    0 -0.38869263226E+02 -0.24678160317E+02  0.54262506744E+02  0.71163550070E+02  0.00000000000E+00 0. -1.
         22    1    1    2    0    0 -0.13923206323E+02  0.33676399200E+02  0.10020376755E+03  0.10662434323E+03  0.00000000000E+00 0.  1.
         22    1    1    2    0    0  0.39211835689E+02 -0.10834808788E+03  0.30145523116E+03  0.32272609531E+03  0.00000000000E+00 0. -1.
</event>
<event>
 6    1  0.2406404E-005  0.1048385E+03  0.7818608E-02  0.1272858E+00
          2   -1    0    0  502    0  0.00000000000E+00  0.00000000000E+00  0.44989856303E+03  0.44989856303E+03  0.00000000000E+00 0.  1.
          1   -1    0    0  501    0 -0.00000000000E+00 -0.00000000000E+00 -0.11275746961E+03  0.11275746961E+03  0.00000000000E+00 0. -1.
          2    1    1    2  501    0 -0.37119876182E+02 -0.60677351407E+02  0.30261165975E+03  0.31085920093E+03  0.00000000000E+00 0.  1.
          1    1    1    2  502    0  0.19512779462E+02  0.61793777636E+02 -0.66367645747E+02  0.92757123278E+02  0.00000000000E+00 0. -1.
         22    1    1    2    0    0  0.68647866953E+01 -0.32610477694E+02  0.11729913108E+03  0.12194119363E+03  0.00000000000E+00 0.  1.
         22    1    1    2    0    0  0.10742310025E+02  0.31494051465E+02 -0.16402051658E+02  0.37098514808E+02  0.00000000000E+00 0. -1.
</event>
<event>
 6    1  0.2406404E-005  0.9538264E+02  0.7818608E-02  0.1297422E+00
          2   -1    0    0  502    0  0.00000000000E+00  0.00000000000E+00  0.12487360647E+03  0.12487360647E+03  0.00000000000E+00 0.  1.
          1   -1    0    0  501    0 -0.00000000000E+00 -0.00000000000E+00 -0.16787199289E+03  0.16787199289E+03  0.00000000000E+00 0.  1.
          2    1    1    2  501    0  0.40348955987E+02  0.50597091500E+01  0.17225927626E+02  0.44163010410E+02  0.00000000000E+00 0.  1.
          1    1    1    2  502    0 -0.42442303785E+02 -0.21192580754E+02 -0.10553365136E+03  0.11570577427E+03  0.00000000000E+00 0.  1.
         22    1    1    2    0    0  0.19387347748E+02  0.42599284432E+02  0.75714770456E+02  0.89012890932E+02  0.00000000000E+00 0. -1.
         22    1    1    2    0    0 -0.17293999950E+02 -0.26466412829E+02 -0.30405433140E+02  0.43863923750E+02  0.00000000000E+00 0. -1.
</event>
<event>
 6    1  0.2406404E-005  0.6404085E+03  0.7818608E-02  0.1027861E+00
          2   -1    0    0  502    0  0.00000000000E+00  0.00000000000E+00  0.13512369618E+03  0.13512369618E+03  0.00000000000E+00 0. -1.
          1   -1    0    0  501    0 -0.00000000000E+00 -0.00000000000E+00 -0.12464471989E+04  0.12464471989E+04  0.00000000000E+00 0. -1.
          2    1    1    2  501    0  0.37574829825E+02  0.13732921531E+03 -0.84941796663E+02  0.16578989726E+03  0.00000000000E+00 0. -1.
          1    1    1    2  502    0 -0.98174785016E+02  0.19420939790E+03 -0.13717332311E+03  0.25723938116E+03  0.00000000000E+00 0. -1.
         22    1    1    2    0    0  0.69593074835E+02 -0.33825068591E+03 -0.87305743026E+03  0.93887485807E+03  0.00000000000E+00 0. -1.
         22    1    1    2    0    0 -0.89931196442E+01  0.67120727033E+01 -0.16150952681E+02  0.19666758589E+02  0.00000000000E+00 0. -1.
</event>
<event>
 6    1  0.2406404E-005  0.1862908E+03  0.7818608E-02  0.1162229E+00
          2   -1    0    0  502    0  0.00000000000E+00  0.00000000000E+00  0.11455395804E+03  0.11455395804E+03  0.00000000000E+00 0.  1.
          1   -1    0    0  501    0 -0.00000000000E+00 -0.00000000000E+00 -0.68431090168E+03  0.68431090168E+03  0.00000000000E+00 0. -1.
          2    1    1    2  501    0  0.15853641781E+03  0.15567738208E+02  0.33382691566E+01  0.15933390815E+03  0.00000000000E+00 0.  1.
          1    1    1    2  502    0 -0.14453128739E+03 -0.54025415286E+01 -0.40845520101E+03  0.43330604856E+03  0.00000000000E+00 0. -1.
         22    1    1    2    0    0  0.23188967604E+02 -0.10899513084E+01  0.11545890554E+02  0.25927279092E+02  0.00000000000E+00 0.  1.
         22    1    1    2    0    0 -0.37194098023E+02 -0.90752453709E+01 -0.17618590234E+03  0.18029762392E+03  0.00000000000E+00 0.  1.
</event>
<event>
 6    1  0.2406404E-005  0.9761623E+02  0.7818608E-02  0.1286401E+00
          2   -1    0    0  502    0  0.00000000000E+00  0.00000000000E+00  0.67659699705E+03  0.67659699705E+03  0.00000000000E+00 0.  1.
          1   -1    0    0  501    0 -0.00000000000E+00 -0.00000000000E+00 -0.94535075140E+02  0.94535075140E+02  0.00000000000E+00 0. -1.
          2    1    1    2  501    0 -0.44570756835E+02  0.37760873308E+02  0.46496774620E+03  0.46862291976E+03  0.00000000000E+00 0.  1.
          1    1    1    2  502    0  0.66629146305E+02 -0.42851080012E+02 -0.49904954339E+02  0.93627787879E+02  0.00000000000E+00 0. -1.
         22    1    1    2    0    0  0.10324031366E+02 -0.12293950076E+02 -0.15740032853E+02  0.22482781552E+02  0.00000000000E+00 0. -1.
         22    1    1    2    0    0 -0.32382420835E+02  0.17384156781E+02  0.18273916291E+03  0.18639858300E+03  0.00000000000E+00 0.  1.
</event>
<event>
 6    1  0.2406404E-005  0.1433595E+03  0.7818608E-02  0.1273029E+00
          2   -1    0    0  502    0  0.00000000000E+00  0.00000000000E+00  0.30985054342E+03  0.30985054342E+03  0.00000000000E+00 0. -1.
          1   -1    0    0  501    0 -0.00000000000E+00 -0.00000000000E+00 -0.23369757374E+03  0.23369757374E+03  0.00000000000E+00 0. -1.
          2    1    1    2  501    0  0.45899061216E+01 -0.10056855027E+03  0.17280105149E+03  0.19998825950E+03  0.00000000000E+00 0. -1.
          1    1    1    2  502    0  0.38500634039E+02  0.11443569018E+03 -0.15577228889E+03  0.19708584930E+03  0.00000000000E+00 0. -1.
         22    1    1    2    0    0 -0.27041320475E+02  0.28108044418E+02 -0.28291202037E+02  0.48183890324E+02  0.00000000000E+00 0.  1.
         22    1    1    2    0    0 -0.16049219686E+02 -0.41975184321E+02  0.87415409124E+02  0.98290118037E+02  0.00000000000E+00 0.  1.
</event>
<event>
 6    1  0.2406404E-005  0.9166999E+02  0.7818608E-02  0.1315193E+00
          2   -1    0    0  502    0  0.00000000000E+00  0.00000000000E+00  0.39328630861E+03  0.39328630861E+03  0.00000000000E+00 0.  1.
          1   -1    0    0  501    0 -0.00000000000E+00 -0.00000000000E+00 -0.23706422756E+02  0.23706422756E+02  0.00000000000E+00 0.  1.
          2    1    1    2  501    0 -0.15960167875E+02  0.28600394019E+02  0.64673881704E+02  0.72494278886E+02  0.00000000000E+00 0.  1.
          1    1    1    2  502    0 -0.11492595377E+02 -0.29249984988E+02  0.47741685568E+02  0.57156888571E+02  0.00000000000E+00 0.  1.
         22    1    1    2    0    0 -0.19943881257E+02 -0.18338536862E+02  0.20533555233E+01  0.27171245881E+02  0.00000000000E+00 0.  1.
         22    1    1    2    0    0  0.47396644508E+02  0.18988127830E+02  0.25511096306E+03  0.26017031803E+03  0.00000000000E+00 0.  1.
</event>
<event>
 6    1  0.2406404E-005  0.1442814E+03  0.7818608E-02  0.1297943E+00
          2   -1    0    0  502    0  0.00000000000E+00  0.00000000000E+00  0.11488686725E+04  0.11488686725E+04  0.00000000000E+00 0.  1.
          1   -1    0    0  501    0 -0.00000000000E+00 -0.00000000000E+00 -0.34941292689E+02  0.34941292689E+02  0.00000000000E+00 0.  1.
          2    1    1    2  501    0 -0.46827089740E+02  0.93806538400E+02  0.67257588002E+03  0.68069872731E+03  0.00000000000E+00 0.  1.
          1    1    1    2  502    0  0.73818152879E+02 -0.89939594967E+02  0.20394237755E+03  0.23479936925E+03  0.00000000000E+00 0.  1.
         22    1    1    2    0    0  0.16055593172E+02 -0.17719883052E+02 -0.26247684913E+01  0.24055472083E+02  0.00000000000E+00 0. -1.
         22    1    1    2    0    0 -0.43046656311E+02  0.13852939619E+02  0.24003389076E+03  0.24425639658E+03  0.00000000000E+00 0.  1.
</event>
<event>
 6    1  0.2406404E-005  0.1277059E+03  0.7818608E-02  0.1231370E+00
          2   -1    0    0  502    0  0.00000000000E+00  0.00000000000E+00  0.58237598602E+02  0.58237598602E+02  0.00000000000E+00 0.  1.
          1   -1    0    0  501    0 -0.00000000000E+00 -0.00000000000E+00 -0.41103716938E+03  0.41103716938E+03  0.00000000000E+00 0.  1.
          2    1    1    2  501    0  0.59576896517E+02  0.45947931937E+02 -0.24777822384E+02  0.79212117318E+02  0.00000000000E+00 0.  1.
          1    1    1    2  502    0 -0.34591281090E+02 -0.59736747059E+02 -0.18668055892E+03  0.19903433562E+03  0.00000000000E+00 0.  1.
         22    1    1    2    0    0  0.19938864863E+02  0.48526025634E+02 -0.18383708936E+02  0.55590415092E+02  0.00000000000E+00 0.  1.
         22    1    1    2    0    0 -0.44924480289E+02 -0.34737210512E+02 -0.12295748053E+03  0.13543789995E+03  0.00000000000E+00 0.  1.
</event>
<event>
 6    1  0.3456500E-005  0.2285128E+03  0.7818608E-02  0.1201868E+00
          2   -1    0    0  502    0  0.00000000000E+00  0.00000000000E+00  0.28487195019E+03  0.28487195019E+03  0.00000000000E+00 0. -1.
          1   -1    0    0  501    0 -0.00000000000E+00 -0.00000000000E+00 -0.10702230064E+04  0.10702230064E+04  0.00000000000E+00 0. -1.
          2    1    1    2  501    0  0.18868807108E+03 -0.83930394200E+01  0.11667707524E+03  0.22200714214E+03  0.00000000000E+00 0. -1.
          1    1    1    2  502    0 -0.21755445080E+03  0.36634290930E+01 -0.96739810169E+03  0.99156565437E+03  0.00000000000E+00 0. -1.
         22    1    1    2    0    0  0.39831179727E+02  0.10385181430E+02  0.98185060112E+02  0.10646445839E+03  0.00000000000E+00 0. -1.
         22    1    1    2    0    0 -0.10964800007E+02 -0.56555711033E+01 -0.32815089897E+02  0.35057701702E+02  0.00000000000E+00 0.  1.
</event>
<event>
 6    1  0.2406404E-005  0.7903640E+02  0.7818608E-02  0.1339873E+00
          2   -1    0    0  502    0  0.00000000000E+00  0.00000000000E+00  0.14844792547E+03  0.14844792547E+03  0.00000000000E+00 0.  1.
          1   -1    0    0  501    0 -0.00000000000E+00 -0.00000000000E+00 -0.18511899742E+03  0.18511899742E+03  0.00000000000E+00 0. -1.
          2    1    1    2  501    0 -0.23602012446E+02 -0.10105517260E+02  0.22374160588E+02  0.34055536005E+02  0.00000000000E+00 0.  1.
          1    1    1    2  502    0  0.31639314804E+02  0.47701982315E+02 -0.13363963561E+03  0.14538252152E+03  0.00000000000E+00 0. -1.
         22    1    1    2    0    0 -0.32734536709E+01  0.10665726328E+02 -0.33685257800E+02  0.35484782796E+02  0.00000000000E+00 0.  1.
         22    1    1    2    0    0 -0.47638486865E+01 -0.48262191383E+02  0.10827966087E+03  0.11864408257E+03  0.00000000000E+00 0.  1.
</event>
<event>
 6    1  0.2406404E-005  0.4910920E+02  0.7818608E-02  0.1451005E+00
          2   -1    0    0  502    0  0.00000000000E+00  0.00000000000E+00  0.20585664489E+03  0.20585664489E+03  0.00000000000E+00 0.  1.
          1   -1    0    0  501    0 -0.00000000000E+00 -0.00000000000E+00 -0.10274656415E+03  0.10274656415E+03  0.00000000000E+00 0. -1.
          2    1    1    2  501    0  0.23437185527E+02  0.12749783616E+02  0.82494878472E+02  0.86702154655E+02  0.00000000000E+00 0.  1.
          1    1    1    2  502    0 -0.25695066245E+02 -0.89042029097E+01 -0.62526083125E+02  0.68183812813E+02  0.00000000000E+00 0. -1.
         22    1    1    2    0    0 -0.12502295609E+02 -0.16920647814E+02 -0.31231760434E+02  0.37656852999E+02  0.00000000000E+00 0. -1.
         22    1    1    2    0    0  0.14760176327E+02  0.13075067108E+02  0.11437304582E+03  0.11606038857E+03  0.00000000000E+00 0. -1.
</event>
<event>
 6    1  0.2406404E-005  0.5379583E+02  0.7818608E-02  0.1501321E+00
          2   -1    0    0  502    0  0.00000000000E+00  0.00000000000E+00  0.29259666107E+03  0.29259666107E+03  0.00000000000E+00 0.  1.
          1   -1    0    0  501    0 -0.00000000000E+00 -0.00000000000E+00 -0.70980686355E+02  0.70980686355E+02  0.00000000000E+00 0.  1.
          2    1    1    2  501    0  0.44758449992E+02 -0.42499361002E+02  0.17274504821E+03  0.18344036145E+03  0.00000000000E+00 0.  1.
          1    1    1    2  502    0 -0.23440692932E+02  0.85646492075E+01 -0.19121884654E+02  0.31439875539E+02  0.00000000000E+00 0.  1.
         22    1    1    2    0    0 -0.22582609246E+02  0.15913420029E+02 -0.34741356676E+02  0.44386631333E+02  0.00000000000E+00 0.  1.
         22    1    1    2    0    0  0.12648521859E+01  0.18021291765E+02  0.10273416784E+03  0.10431047910E+03  0.00000000000E+00 0. -1.
</event>
<event>
 6    1  0.2406404E-005  0.8642206E+02  0.7818608E-02  0.1322014E+00
          2   -1    0    0  502    0  0.00000000000E+00  0.00000000000E+00  0.64048724408E+02  0.64048724408E+02  0.00000000000E+00 0. -1.
          1   -1    0    0  501    0 -0.00000000000E+00 -0.00000000000E+00 -0.24882027806E+03  0.24882027806E+03  0.00000000000E+00 0.  1.
          2    1    1    2  501    0  0.48828199334E+02 -0.21199823055E+02  0.14889948900E+02  0.55275094988E+02  0.00000000000E+00 0. -1.
          1    1    1    2  502    0  0.10408513992E+00  0.21403129498E+02 -0.73487382781E+02  0.76540840171E+02  0.00000000000E+00 0.  1.
         22    1    1    2    0    0  0.14593368133E+02 -0.57258823089E+01  0.17722583118E+02  0.23660982103E+02  0.00000000000E+00 0.  1.
         22    1    1    2    0    0 -0.63525652607E+02  0.55225758655E+01 -0.14389670288E+03  0.15739208520E+03  0.00000000000E+00 0.  1.
</event>
<event>
 6    1  0.2406404E-005  0.5519662E+02  0.7818608E-02  0.1434738E+00
          2   -1    0    0  502    0  0.00000000000E+00  0.00000000000E+00  0.88213881290E+02  0.88213881290E+02  0.00000000000E+00 0.  1.
          1   -1    0    0  501    0 -0.00000000000E+00 -0.00000000000E+00 -0.32206639553E+03  0.32206639553E+03  0.00000000000E+00 0.  1.
          2    1    1    2  501    0 -0.62732729345E+01 -0.31859462711E+02  0.56899335662E+02  0.65512698893E+02  0.00000000000E+00 0.  1.
          1    1    1    2  502    0  0.16615602584E+02  0.13631220934E+02 -0.16892144642E+03  0.17028312745E+03  0.00000000000E+00 0.  1.
         22    1    1    2    0    0 -0.14438982228E+02  0.28383364397E+02 -0.14521354433E+03  0.14866429645E+03  0.00000000000E+00 0.  1.
         22    1    1    2    0    0  0.40966525785E+01 -0.10155122620E+02  0.23383140851E+02  0.25820154024E+02  0.00000000000E+00 0.  1.
</event>
<event>
 6    1  0.2406404E-005  0.9328534E+02  0.7818608E-02  0.1363764E+00
          2   -1    0    0  502    0  0.00000000000E+00  0.00000000000E+00  0.67400494376E+03  0.67400494376E+03  0.00000000000E+00 0.  1.
          1   -1    0    0  501    0 -0.00000000000E+00 -0.00000000000E+00 -0.36702141494E+02  0.36702141494E+02  0.00000000000E+00 0.  1.
          2    1    1    2  501    0 -0.59628588853E+02 -0.20466542466E+02  0.40465070475E+03  0.40953222196E+03  0.00000000000E+00 0.  1.
          1    1    1    2  502    0  0.66921438393E+02 -0.11042039460E+01  0.73013214521E+02  0.99048612699E+02  0.00000000000E+00 0.  1.
         22    1    1    2    0    0  0.26096945089E+02  0.96166090181E+01 -0.94377752688E+01  0.29370075145E+02  0.00000000000E+00 0.  1.
         22    1    1    2    0    0 -0.33389794630E+02  0.11954137393E+02  0.16907665826E+03  0.17275617545E+03  0.00000000000E+00 0.  1.
</event>
<event>
 6    1  0.2406404E-005  0.2844223E+03  0.7818608E-02  0.1150682E+00
          2   -1    0    0  502    0  0.00000000000E+00  0.00000000000E+00  0.67593485222E+03  0.67593485222E+03  0.00000000000E+00 0. -1.
          1   -1    0    0  501    0 -0.00000000000E+00 -0.00000000000E+00 -0.26964918877E+03  0.26964918877E+03  0.00000000000E+00 0. -1.
          2    1    1    2  501    0  0.15725255322E+03  0.20105501865E+03  0.47880646594E+03  0.54259295779E+03  0.00000000000E+00 0. -1.
          1    1    1    2  502    0 -0.10162947854E+03 -0.22790858278E+03 -0.88755788273E+02  0.26485555113E+03  0.00000000000E+00 0. -1.
         22    1    1    2    0    0 -0.67639224839E+02 -0.70253380519E+01 -0.34265279685E+02  0.76148076164E+02  0.00000000000E+00 0. -1.
         22    1    1    2    0    0  0.12016150160E+02  0.33878902184E+02  0.50500265468E+02  0.61987455910E+02  0.00000000000E+00 0. -1.
</event>
<event>
 6    1  0.2406404E-005  0.8547628E+02  0.7818608E-02  0.1316974E+00
          2   -1    0    0  502    0  0.00000000000E+00  0.00000000000E+00  0.19531227410E+03  0.19531227410E+03  0.00000000000E+00 0.  1.
          1   -1    0    0  501    0 -0.00000000000E+00 -0.00000000000E+00 -0.95462019071E+02  0.95462019071E+02  0.00000000000E+00 0.  1.
          2    1    1    2  501    0 -0.54501895940E+02 -0.19600382801E+02  0.86022787867E+02  0.10370415469E+03  0.00000000000E+00 0.  1.
          1    1    1    2  502    0  0.12413836602E+02  0.29621644273E+02 -0.31710602488E+02  0.45134326834E+02  0.00000000000E+00 0.  1.
         22    1    1    2    0    0  0.52576283276E+02 -0.17864948935E+00 -0.33010956323E+02  0.62080759629E+02  0.00000000000E+00 0.  1.
         22    1    1    2    0    0 -0.10488223938E+02 -0.98426119830E+01  0.78549025973E+02  0.79855052021E+02  0.00000000000E+00 0.  1.
</event>
<event>
 6    1  0.2406404E-005  0.1597478E+03  0.7818608E-02  0.1194400E+00
          2   -1    0    0  502    0  0.00000000000E+00  0.00000000000E+00  0.15043256923E+03  0.15043256923E+03  0.00000000000E+00 0. -1.
          1   -1    0    0  501    0 -0.00000000000E+00 -0.00000000000E+00 -0.15288723875E+03  0.15288723875E+03  0.00000000000E+00 0. -1.
          2    1    1    2  501    0  0.89604656777E+02  0.11686421059E+02 -0.23630633074E+02  0.93402215031E+02  0.00000000000E+00 0. -1.
          1    1    1    2  502    0 -0.67993423288E+02 -0.18264298181E+02  0.44455467040E+02  0.83264510737E+02  0.00000000000E+00 0. -1.
         22    1    1    2    0    0 -0.70406960875E+02  0.11884965571E+02 -0.29341639105E+02  0.77196660107E+02  0.00000000000E+00 0.  1.
         22    1    1    2    0    0  0.48795727387E+02 -0.53070884492E+01  0.60621356148E+01  0.49456422103E+02  0.00000000000E+00 0. -1.
</event>
<event>
 6    1  0.2406404E-005  0.1774925E+03  0.7818608E-02  0.1170886E+00
          2   -1    0    0  502    0  0.00000000000E+00  0.00000000000E+00  0.10158358271E+04  0.10158358271E+04  0.00000000000E+00 0.  1.
          1   -1    0    0  501    0 -0.00000000000E+00 -0.00000000000E+00 -0.37311253056E+02  0.37311253056E+02  0.00000000000E+00 0.  1.
          2    1    1    2  501    0  0.85706815539E+02 -0.10364867432E+03  0.49102666104E+03  0.50911284384E+03  0.00000000000E+00 0.  1.
          1    1    1    2  502    0 -0.82612800462E+02  0.71182360864E+02  0.19840606447E+03  0.22639957976E+03  0.00000000000E+00 0.  1.
         22    1    1    2    0    0 -0.31427967471E+02  0.56646913686E+02  0.69909542820E+02  0.95309674990E+02  0.00000000000E+00 0.  1.
         22    1    1    2    0    0  0.28333952395E+02 -0.24180600231E+02  0.21918230576E+03  0.22232498160E+03  0.00000000000E+00 0.  1.
</event>
<event>
 6    1  0.2406404E-005  0.5588104E+02  0.7818608E-02  0.1418512E+00
          2   -1    0    0  502    0  0.00000000000E+00  0.00000000000E+00  0.70831262980E+02  0.70831262980E+02  0.00000000000E+00 0.  1.
          1   -1    0    0  501    0 -0.00000000000E+00 -0.00000000000E+00 -0.16097098675E+03  0.16097098675E+03  0.00000000000E+00 0.  1.
          2    1    1    2  501    0 -0.11961324973E+01 -0.25718348896E+02  0.19932890175E+02  0.32560471643E+02  0.00000000000E+00 0.  1.
          1    1    1    2  502    0  0.17667075751E+02  0.23063438969E+02 -0.43718896255E+02  0.52491805765E+02  0.00000000000E+00 0.  1.
         22    1    1    2    0    0 -0.23046402194E+02 -0.14388894767E+02  0.34692735247E+02  0.44065437994E+02  0.00000000000E+00 0.  1.
         22    1    1    2    0    0  0.65754589396E+01  0.17043804694E+02 -0.10104645293E+03  0.10268453432E+03  0.00000000000E+00 0.  1.
</event>
<event>
 6    1  0.2406404E-005  0.2202252E+02  0.7818608E-02  0.1766730E+00
          2   -1    0    0  502    0  0.00000000000E+00  0.00000000000E+00  0.30146265445E+03  0.30146265445E+03  0.00000000000E+00 0.  1.
          1   -1    0    0  501    0 -0.00000000000E+00 -0.00000000000E+00 -0.14984497517E+03  0.14984497517E+03  0.00000000000E+00 0. -1.
          2    1    1    2  501    0 -0.46524740108E+01 -0.31176504615E+02  0.22233239852E+03  0.22455581797E+03  0.00000000000E+00 0.  1.
          1    1    1    2  502    0  0.22679574807E+02  0.84533168447E+01 -0.95881214037E+02  0.98888972511E+02  0.00000000000E+00 0. -1.
         22    1    1    2    0    0 -0.44963398018E+01  0.94680429243E+01 -0.49619993080E+02  0.50714934898E+02  0.00000000000E+00 0. -1.
         22    1    1    2    0    0 -0.13530760994E+02  0.13255144846E+02  0.74786487882E+02  0.77147904234E+02  0.00000000000E+00 0. -1.
</event>
<event>
 6    1  0.2406404E-005  0.1033184E+03  0.7818608E-02  0.1274637E+00
          2   -1    0    0  502    0  0.00000000000E+00  0.00000000000E+00  0.29960554218E+03  0.29960554218E+03  0.00000000000E+00 0. -1.
          1   -1    0    0  501    0 -0.00000000000E+00 -0.00000000000E+00 -0.12025342137E+03  0.12025342137E+03  0.00000000000E+00 0.  1.
          2    1    1    2  501    0 -0.27725281000E+02 -0.30678561085E+00  0.74354105239E+02  0.79355644347E+02  0.00000000000E+00 0. -1.
          1    1    1    2  502    0  0.67253652081E+02  0.52852181658E+02 -0.75254942246E+02  0.11392854408E+03  0.00000000000E+00 0.  1.
         22    1    1    2    0    0  0.16684748281E+02 -0.55149912816E+01 -0.11695974411E+02  0.21109044778E+02  0.00000000000E+00 0.  1.
         22    1    1    2    0    0 -0.56213119362E+02 -0.47030404766E+02  0.19194893223E+03  0.20546573034E+03  0.00000000000E+00 0. -1.
</event>
<event>
 6    1  0.2406404E-005  0.5641411E+02  0.7818608E-02  0.1416181E+00
          2   -1    0    0  502    0  0.00000000000E+00  0.00000000000E+00  0.17467177985E+03  0.17467177985E+03  0.00000000000E+00 0.  1.
          1   -1    0    0  501    0 -0.00000000000E+00 -0.00000000000E+00 -0.25323730865E+03  0.25323730865E+03  0.00000000000E+00 0. -1.
          2    1    1    2  501    0  0.29890151070E+02  0.18725533134E+02  0.81217951091E+02  0.88546159157E+02  0.00000000000E+00 0.  1.
          1    1    1    2  502    0 -0.34208721975E+02 -0.24252254387E+02 -0.20420482000E+03  0.20846586534E+03  0.00000000000E+00 0. -1.
         22    1    1    2    0    0 -0.26172113577E+01 -0.11459757625E+02 -0.41451482941E+02  0.43085975423E+02  0.00000000000E+00 0. -1.
         22    1    1    2    0    0  0.69357822633E+01  0.16986478879E+02  0.85872823042E+02  0.87811088580E+02  0.00000000000E+00 0.  1.
</event>
<event>
 6    1  0.2406404E-005  0.7412397E+02  0.7818608E-02  0.1348974E+00
          2   -1    0    0  502    0  0.00000000000E+00  0.00000000000E+00  0.41073702510E+02  0.41073702510E+02  0.00000000000E+00 0.  1.
          1   -1    0    0  501    0 -0.00000000000E+00 -0.00000000000E+00 -0.20924728150E+03  0.20924728150E+03  0.00000000000E+00 0. -1.
          2    1    1    2  501    0  0.34413690616E+02 -0.34827501809E+01 -0.23168616794E+02  0.41631916300E+02  0.00000000000E+00 0.  1.
          1    1    1    2  502    0 -0.17907754921E+02 -0.14833107169E+02 -0.25207227897E+02  0.34294505286E+02  0.00000000000E+00 0. -1.
         22    1    1    2    0    0  0.24073154793E+02  0.15858700938E+02  0.15772529838E+02  0.32860125907E+02  0.00000000000E+00 0.  1.
         22    1    1    2    0    0 -0.40579090488E+02  0.24571564122E+01 -0.13557026413E+03  0.14153443651E+03  0.00000000000E+00 0. -1.
</event>
<event>
 6    1  0.2406404E-005  0.5687930E+02  0.7818608E-02  0.1413322E+00
          2   -1    0    0  502    0  0.00000000000E+00  0.00000000000E+00  0.21623205537E+03  0.21623205537E+03  0.00000000000E+00 0. -1.
          1   -1    0    0  501    0 -0.00000000000E+00 -0.00000000000E+00 -0.76122682262E+02  0.76122682262E+02  0.00000000000E+00 0. -1.
          2    1    1    2  501    0 -0.75991825238E+01 -0.35621568836E+02  0.11319018084E+03  0.11890610068E+03  0.00000000000E+00 0. -1.
          1    1    1    2  502    0  0.14246966686E+02  0.28458766657E+02 -0.23519455489E+02  0.39573251646E+02  0.00000000000E+00 0. -1.
         22    1    1    2    0    0 -0.81940614809E+01 -0.15451465134E+02  0.88154207856E+02  0.89872436159E+02  0.00000000000E+00 0. -1.
         22    1    1    2    0    0  0.15462773189E+01  0.22614267313E+02 -0.37715560099E+02  0.44002949143E+02  0.00000000000E+00 0. -1.
</event>
<event>
 6    1  0.2406404E-005  0.7512767E+02  0.7818608E-02  0.1370007E+00
          2   -1    0    0  502    0  0.00000000000E+00  0.00000000000E+00  0.17020660692E+04  0.17020660692E+04  0.00000000000E+00 0. -1.
          1   -1    0    0  501    0 -0.00000000000E+00 -0.00000000000E+00 -0.81149495739E+02  0.81149495739E+02  0.00000000000E+00 0. -1.
          2    1    1    2  501    0  0.21267983011E+02  0.92688607830E+02  0.14446306135E+04  0.14477572706E+04  0.00000000000E+00 0. -1.
          1    1    1    2  502    0 -0.26548916913E+02 -0.61748314314E+02 -0.45169243857E+02  0.80981231780E+02  0.00000000000E+00 0. -1.
         22    1    1    2    0    0 -0.34273682471E+02  0.10342107150E+02  0.18083062047E+03  0.18434033143E+03  0.00000000000E+00 0. -1.
         22    1    1    2    0    0  0.39554616373E+02 -0.41282400665E+02  0.40624583342E+02  0.70136731124E+02  0.00000000000E+00 0. -1.
</event>
<event>
 6    1  0.2406404E-005  0.1057864E+03  0.7818608E-02  0.1270849E+00
          2   -1    0    0  502    0  0.00000000000E+00  0.00000000000E+00  0.17797867746E+03  0.17797867746E+03  0.00000000000E+00 0. -1.
          1   -1    0    0  501    0 -0.00000000000E+00 -0.00000000000E+00 -0.61277129783E+03  0.61277129783E+03  0.00000000000E+00 0.  1.
          2    1    1    2  501    0  0.52855369384E+02 -0.57016699392E+02  0.14638617098E+03  0.16575133525E+03  0.00000000000E+00 0. -1.
          1    1    1    2  502    0 -0.43411585173E+02  0.37624577648E+02 -0.40193602429E+03  0.40602061794E+03  0.00000000000E+00 0.  1.
         22    1    1    2    0    0 -0.26428903499E+02  0.32208016286E+02 -0.19043287213E+03  0.19493722589E+03  0.00000000000E+00 0. -1.
         22    1    1    2    0    0  0.16985119288E+02 -0.12815894543E+02  0.11190105068E+02  0.24040796193E+02  0.00000000000E+00 0.  1.
</event>
<event>
 6    1  0.2406404E-005  0.3788546E+02  0.7818608E-02  0.1540747E+00
          2   -1    0    0  502    0  0.00000000000E+00  0.00000000000E+00  0.10970672130E+03  0.10970672130E+03  0.00000000000E+00 0.  1.
          1   -1    0    0  501    0 -0.00000000000E+00 -0.00000000000E+00 -0.19542629752E+03  0.19542629752E+03  0.00000000000E+00 0. -1.
          2    1    1    2  501    0  0.43089058507E+02  0.41549736276E+01  0.35418997983E+02  0.55932425184E+02  0.00000000000E+00 0.  1.
          1    1    1    2  502    0 -0.35247819321E+02  0.23928051768E+01 -0.12305168884E+03  0.12802285894E+03  0.00000000000E+00 0. -1.
         22    1    1    2    0    0 -0.87551232480E+01 -0.34098949435E+02  0.52708506729E+02  0.63384360983E+02  0.00000000000E+00 0. -1.
         22    1    1    2    0    0  0.91388406202E+00  0.27551170631E+02 -0.50795392090E+02  0.57793373710E+02  0.00000000000E+00 0. -1.
</event>
<event>
 6    1  0.2406404E-005  0.5180415E+02  0.7818608E-02  0.1465851E+00
          2   -1    0    0  502    0  0.00000000000E+00  0.00000000000E+00  0.30951406209E+03  0.30951406209E+03  0.00000000000E+00 0.  1.
          1   -1    0    0  501    0 -0.00000000000E+00 -0.00000000000E+00 -0.72860806393E+02  0.72860806393E+02  0.00000000000E+00 0.  1.
          2    1    1    2  501    0 -0.31613996089E+01  0.63896581698E+02  0.15910801074E+03  0.17148797824E+03  0.00000000000E+00 0.  1.
          1    1    1    2  502    0 -0.22421280895E+02 -0.59592344843E+02  0.26330632830E+01  0.63725147494E+02  0.00000000000E+00 0.  1.
         22    1    1    2    0    0 -0.74417059272E+01 -0.21982488798E+02 -0.28744828824E+02  0.36944200966E+02  0.00000000000E+00 0.  1.
         22    1    1    2    0    0  0.33024386431E+02  0.17678251944E+02  0.10365701049E+03  0.11021754178E+03  0.00000000000E+00 0.  1.
</event>
<event>
 6    1  0.2406404E-005  0.1035858E+03  0.7818608E-02  0.1278601E+00
          2   -1    0    0  502    0  0.00000000000E+00  0.00000000000E+00  0.67899277028E+03  0.67899277028E+03  0.00000000000E+00 0. -1.
          1   -1    0    0  501    0 -0.00000000000E+00 -0.00000000000E+00 -0.66317805793E+02  0.66317805793E+02  0.00000000000E+00 0. -1.
          2    1    1    2  501    0 -0.28081509659E+02 -0.87427125715E+01 -0.31099725199E+02  0.42804195066E+02  0.00000000000E+00 0. -1.
          1    1    1    2  502    0  0.68469216639E+02  0.16644536911E+01  0.50225256428E+03  0.50690082103E+03  0.00000000000E+00 0. -1.
         22    1    1    2    0    0 -0.56926041291E+02  0.24091879872E+02  0.10803722762E+02  0.62751201410E+02  0.00000000000E+00 0. -1.
         22    1    1    2    0    0  0.16538334310E+02 -0.17013620992E+02  0.13071840264E+03  0.13285435857E+03  0.00000000000E+00 0. -1.
</event>
<event>
 6    1  0.2406404E-005  0.4523366E+02  0.7818608E-02  0.1565646E+00
          2   -1    0    0  502    0  0.00000000000E+00  0.00000000000E+00  0.88020275210E+02  0.88020275210E+02  0.00000000000E+00 0.  1.
          1   -1    0    0  501    0 -0.00000000000E+00 -0.00000000000E+00 -0.18337789135E+03  0.18337789135E+03  0.00000000000E+00 0.  1.
          2    1    1    2  501    0 -0.44510656651E+02  0.24309860687E+02  0.15461208405E+01  0.50740106147E+02  0.00000000000E+00 0.  1.
          1    1    1    2  502    0  0.26052227873E+02 -0.14542100419E+01 -0.84320022973E+02  0.88264939689E+02  0.00000000000E+00 0.  1.
         22    1    1    2    0    0  0.33025231482E+01 -0.12627436118E+02  0.58014995854E+02  0.59465103599E+02  0.00000000000E+00 0.  1.
         22    1    1    2    0    0  0.15155905630E+02 -0.10228214527E+02 -0.70598709861E+02  0.72928017126E+02  0.00000000000E+00 0.  1.
</event>
<event>
 6    1  0.2406404E-005  0.7914705E+02  0.7818608E-02  0.1365641E+00
          2   -1    0    0  502    0  0.00000000000E+00  0.00000000000E+00  0.59890504976E+02  0.59890504976E+02  0.00000000000E+00 0. -1.
          1   -1    0    0  501    0 -0.00000000000E+00 -0.00000000000E+00 -0.14152776299E+03  0.14152776299E+03  0.00000000000E+00 0. -1.
          2    1    1    2  501    0  0.21050357275E+02 -0.16798867829E+02 -0.16506070292E+02  0.31587495283E+02  0.00000000000E+00 0. -1.
          1    1    1    2  502    0 -0.22550681034E+02 -0.54445941734E-01 -0.36050322368E+02  0.42522487255E+02  0.00000000000E+00 0. -1.
         22    1    1    2    0    0 -0.17220834496E+02 -0.41685303103E+01 -0.73012590648E+02  0.75131698895E+02  0.00000000000E+00 0. -1.
         22    1    1    2    0    0  0.18721158256E+02  0.21021844081E+02  0.43931725295E+02  0.52176586534E+02  0.00000000000E+00 0. -1.
</event>
<event>
 6    1  0.2406404E-005  0.5355401E+02  0.7818608E-02  0.1429823E+00
          2   -1    0    0  502    0  0.00000000000E+00  0.00000000000E+00  0.13363394001E+03  0.13363394001E+03  0.00000000000E+00 0.  1.
          1   -1    0    0  501    0 -0.00000000000E+00 -0.00000000000E+00 -0.22340693087E+03  0.22340693087E+03  0.00000000000E+00 0. -1.
          2    1    1    2  501    0  0.33623793879E+02 -0.16768017850E+02  0.72944007769E+02  0.82052143219E+02  0.00000000000E+00 0.  1.
          1    1    1    2  502    0 -0.34550964194E+02  0.75392881571E+01 -0.14006194774E+03  0.14445746501E+03  0.00000000000E+00 0. -1.
         22    1    1    2    0    0  0.14091967612E+02  0.44158065513E+00  0.52174588824E+02  0.54045964360E+02  0.00000000000E+00 0.  1.
         22    1    1    2    0    0 -0.13164797297E+02  0.87871490375E+01 -0.74829639712E+02  0.76485298296E+02  0.00000000000E+00 0. -1.
</event>
<event>
 6    1  0.2406404E-005  0.1087210E+03  0.7818608E-02  0.1301408E+00
          2   -1    0    0  502    0  0.00000000000E+00  0.00000000000E+00  0.84772459678E+03  0.84772459678E+03  0.00000000000E+00 0. -1.
          1   -1    0    0  501    0 -0.00000000000E+00 -0.00000000000E+00 -0.25169608627E+02  0.25169608627E+02  0.00000000000E+00 0. -1.
          2    1    1    2  501    0  0.65090524060E+02  0.29764103703E+02  0.32216851167E+03  0.33002307208E+03  0.00000000000E+00 0. -1.
          1    1    1    2  502    0 -0.28330673412E+02 -0.68220282351E+02  0.20906850169E+03  0.22173468917E+03  0.00000000000E+00 0. -1.
         22    1    1    2    0    0 -0.49169199147E+02 -0.18190322120E+02  0.48260945138E+02  0.71257398136E+02  0.00000000000E+00 0.  1.
         22    1    1    2    0    0  0.12409348499E+02  0.56646500768E+02  0.24305702966E+03  0.24987904603E+03  0.00000000000E+00 0.  1.
</event>
<event>
 6    1  0.2406404E-005  0.3400652E+02  0.7818608E-02  0.1604848E+00
          2   -1    0    0  502    0  0.00000000000E+00  0.00000000000E+00  0.16949066789E+03  0.16949066789E+03  0.00000000000E+00 0.  1.
          1   -1    0    0  501    0 -0.00000000000E+00 -0.00000000000E+00 -0.16714173735E+03  0.16714173735E+03  0.00000000000E+00 0.  1.
          2    1    1    2  501    0  0.30222660394E+02  0.29165985752E+02  0.98242908413E+02  0.10684443355E+03  0.00000000000E+00 0.  1.
          1    1    1    2  502    0 -0.98405759174E+01 -0.17936265740E+02 -0.10444383411E+03  0.10642866647E+03  0.00000000000E+00 0.  1.
         22    1    1    2    0    0 -0.18886000022E+02  0.19911023905E+01  0.63780978490E+02  0.66548168289E+02  0.00000000000E+00 0. -1.
         22    1    1    2    0    0 -0.14960844542E+01 -0.13220822402E+02 -0.55231122250E+02  0.56811136925E+02  0.00000000000E+00 0. -1.
</event>
<event>
 6    1  0.2406404E-005  0.1438826E+03  0.7818608E-02  0.1258170E+00
          2   -1    0    0  502    0  0.00000000000E+00  0.00000000000E+00  0.21288086498E+03  0.21288086498E+03  0.00000000000E+00 0. -1.
          1   -1    0    0  501    0 -0.00000000000E+00 -0.00000000000E+00 -0.57209867077E+02  0.57209867077E+02  0.00000000000E+00 0. -1.
          2    1    1    2  501    0 -0.18075303667E+02 -0.17440512396E+02  0.34563727099E+02  0.42726330362E+02  0.00000000000E+00 0. -1.
          1    1    1    2  502    0 -0.25941266430E+02  0.41854879605E+02  0.64105302573E+02  0.80834832026E+02  0.00000000000E+00 0. -1.
         22    1    1    2    0    0  0.66910351366E+02 -0.20195888065E+02 -0.14459587322E+02  0.71371903997E+02  0.00000000000E+00 0. -1.
         22    1    1    2    0    0 -0.22893781269E+02 -0.42184791437E+01  0.71461555549E+02  0.75157665667E+02  0.00000000000E+00 0. -1.
</event>
<event>
 6    1  0.2406404E-005  0.4917714E+02  0.7818608E-02  0.1454564E+00
          2   -1    0    0  502    0  0.00000000000E+00  0.00000000000E+00  0.97055554825E+02  0.97055554825E+02  0.00000000000E+00 0. -1.
          1   -1    0    0  501    0 -0.00000000000E+00 -0.00000000000E+00 -0.14903725706E+03  0.14903725706E+03  0.00000000000E+00 0. -1.
          2    1    1    2  501    0 -0.28054574983E+02 -0.83059133550E+01  0.43735773704E+02  0.52620008320E+02  0.00000000000E+00 0. -1.
          1    1    1    2  502    0  0.21437862701E+02  0.10566886120E+02 -0.60020947179E+02  0.64604606180E+02  0.00000000000E+00 0. -1.
         22    1    1    2    0    0  0.14970272047E+02  0.14995133481E+02 -0.78850189323E+02  0.81647507185E+02  0.00000000000E+00 0. -1.
         22    1    1    2    0    0 -0.83535597655E+01 -0.17256106246E+02  0.43153660560E+02  0.47220690203E+02  0.00000000000E+00 0. -1.
</event>
<event>
 6    1  0.2406404E-005  0.5757913E+02  0.7818608E-02  0.1428962E+00
          2   -1    0    0  502    0  0.00000000000E+00  0.00000000000E+00  0.10426401256E+03  0.10426401256E+03  0.00000000000E+00 0.  1.
          1   -1    0    0  501    0 -0.00000000000E+00 -0.00000000000E+00 -0.12943915143E+03  0.12943915143E+03  0.00000000000E+00 0. -1.
          2    1    1    2  501    0 -0.54960909671E+02 -0.16833533974E+02  0.26199631220E+02  0.63170326372E+02  0.00000000000E+00 0.  1.
          1    1    1    2  502    0  0.22961733052E+01  0.21164247918E+02 -0.19210057776E+02  0.28674450675E+02  0.00000000000E+00 0. -1.
         22    1    1    2    0    0  0.29563428362E+02 -0.29640710285E+02  0.42530675832E+02  0.59677687535E+02  0.00000000000E+00 0.  1.
         22    1    1    2    0    0  0.23101308004E+02  0.25309996341E+02 -0.74695388141E+02  0.82180699411E+02  0.00000000000E+00 0. -1.
</event>
<event>
 6    1  0.2406404E-005  0.1188417E+03  0.7818608E-02  0.1292123E+00
          2   -1    0    0  502    0  0.00000000000E+00  0.00000000000E+00  0.15784315935E+03  0.15784315935E+03  0.00000000000E+00 0. -1.
          1   -1    0    0  501    0 -0.00000000000E+00 -0.00000000000E+00 -0.12970804973E+03  0.12970804973E+03  0.00000000000E+00 0. -1.
          2    1    1    2  501    0 -0.20709074554E+02 -0.32359942086E+02 -0.22344318099E+01  0.38484078607E+02  0.00000000000E+00 0. -1.
          1    1    1    2  502    0 -0.75313236602E+01  0.34238120605E+02 -0.77037892787E+02  0.84639273767E+02  0.00000000000E+00 0. -1.
         22    1    1    2    0    0  0.37260423691E+02 -0.10611151403E+02  0.13159317173E+03  0.13717761681E+03  0.00000000000E+00 0. -1.
         22    1    1    2    0    0 -0.90200254764E+01  0.87329728842E+01 -0.24185737514E+02  0.27250239890E+02  0.00000000000E+00 0. -1.
</event>
<event>
 6    1  0.2406404E-005  0.1473137E+03  0.7818608E-02  0.1211595E+00
          2   -1    0    0  502    0  0.00000000000E+00  0.00000000000E+00  0.44889242141E+03  0.44889242141E+03  0.00000000000E+00 0. -1.
          1   -1    0    0  501    0 -0.00000000000E+00 -0.00000000000E+00 -0.71859004882E+02  0.71859004882E+02  0.00000000000E+00 0. -1.
          2    1    1    2  501    0 -0.45600622780E+02  0.44986243730E+02  0.23949063052E+03  0.24790913865E+03  0.00000000000E+00 0. -1.
          1    1    1    2  502    0  0.87505797740E+02 -0.28345374510E+02  0.16336264615E+02  0.93421616534E+02  0.00000000000E+00 0. -1.
         22    1    1    2    0    0 -0.72805802984E+02 -0.14734907022E+02  0.12775090212E+03  0.14777718168E+03  0.00000000000E+00 0. -1.
         22    1    1    2    0    0  0.30900628024E+02 -0.19059621983E+01 -0.65443807190E+01  0.31643489428E+02  0.00000000000E+00 0.  1.
</event>
<event>
 6    1  0.2406404E-005  0.5320705E+02  0.7818608E-02  0.1448157E+00
          2   -1    0    0  502    0  0.00000000000E+00  0.00000000000E+00  0.56262222124E+02  0.56262222124E+02  0.00000000000E+00 0.  1.
          1   -1    0    0  501    0 -0.00000000000E+00 -0.00000000000E+00 -0.90138636242E+03  0.90138636242E+03  0.00000000000E+00 0.  1.
          2    1    1    2  501    0 -0.11548781790E+02  0.36954589013E+02  0.24980504202E+02  0.46076475561E+02  0.00000000000E+00 0.  1.
          1    1    1    2  502    0  0.55062013294E+02 -0.31582504590E+02 -0.65873106010E+03  0.66178235806E+03  0.00000000000E+00 0.  1.
         22    1    1    2    0    0 -0.76204827508E+01  0.11823356227E+02  0.14637787016E+02  0.20300943785E+02  0.00000000000E+00 0.  1.
         22    1    1    2    0    0 -0.35892748753E+02 -0.17195440650E+02 -0.22601137142E+03  0.22948880714E+03  0.00000000000E+00 0.  1.
</event>
<event>
 6    1  0.2406404E-005  0.1227248E+03  0.7818608E-02  0.1243148E+00
          2   -1    0    0  502    0  0.00000000000E+00  0.00000000000E+00  0.60371693814E+03  0.60371693814E+03  0.00000000000E+00 0.  1.
          1   -1    0    0  501    0 -0.00000000000E+00 -0.00000000000E+00 -0.23499147593E+02  0.23499147593E+02  0.00000000000E+00 0. -1.
          2    1    1    2  501    0  0.31037917740E+02 -0.51492715841E+02  0.13273665542E+03  0.14571846765E+03  0.00000000000E+00 0.  1.
          1    1    1    2  502    0 -0.38039062906E+02  0.20716739630E+02  0.16459419797E+03  0.17019813046E+03  0.00000000000E+00 0. -1.
         22    1    1    2    0    0 -0.30394536226E+02  0.59248536102E+02  0.85381094440E+02  0.10827810559E+03  0.00000000000E+00 0. -1.
         22    1    1    2    0    0  0.37395681392E+02 -0.28472559891E+02  0.19750584273E+03  0.20302138204E+03  0.00000000000E+00 0.  1.
</event>
<event>
 6    1  0.2406404E-005  0.2721525E+03  0.7818608E-02  0.1100143E+00
          2   -1    0    0  502    0  0.00000000000E+00  0.00000000000E+00  0.13258805340E+04  0.13258805340E+04  0.00000000000E+00 0. -1.
          1   -1    0    0  501    0 -0.00000000000E+00 -0.00000000000E+00 -0.81026047930E+02  0.81026047930E+02  0.00000000000E+00 0. -1.
          2    1    1    2  501    0 -0.14426744310E+03  0.16247433725E+03  0.74043225097E+03  0.77165466607E+03  0.00000000000E+00 0. -1.
          1    1    1    2  502    0  0.15922046436E+03 -0.14454319588E+03  0.16468613422E+03  0.27086050756E+03  0.00000000000E+00 0. -1.
         22    1    1    2    0    0 -0.40436189657E+02  0.30328972594E+02  0.27551562552E+03  0.28011389098E+03  0.00000000000E+00 0. -1.
         22    1    1    2    0    0  0.25483168397E+02 -0.48260113963E+02  0.64220475373E+02  0.84277517336E+02  0.00000000000E+00 0. -1.
</event>
<event>
 6    1  0.2406404E-005  0.2063506E+03  0.7818608E-02  0.1197684E+00
          2   -1    0    0  502    0  0.00000000000E+00  0.00000000000E+00  0.13437317196E+04  0.13437317196E+04  0.00000000000E+00 0.  1.
          1   -1    0    0  501    0 -0.00000000000E+00 -0.00000000000E+00 -0.53590680906E+03  0.53590680906E+03  0.00000000000E+00 0. -1.
          2    1    1    2  501    0  0.17055516280E+03  0.38937865803E+03  0.10517499451E+04  0.11344085463E+04  0.00000000000E+00 0.  1.
          1    1    1    2  502    0 -0.13227090540E+03 -0.45284782722E+03 -0.33241932822E+03  0.57712161353E+03  0.00000000000E+00 0. -1.
         22    1    1    2    0    0  0.14297529296E+02 -0.26920934698E+02  0.46108087102E+02  0.55273065459E+02  0.00000000000E+00 0. -1.
         22    1    1    2    0    0 -0.52581786702E+02  0.90390103885E+02  0.42386206514E+02  0.11283530332E+03  0.00000000000E+00 0. -1.
</event>
<event>
 6    1  0.2406404E-005  0.6345871E+02  0.7818608E-02  0.1387842E+00
          2   -1    0    0  502    0  0.00000000000E+00  0.00000000000E+00  0.16960486061E+03  0.16960486061E+03  0.00000000000E+00 0. -1.
          1   -1    0    0  501    0 -0.00000000000E+00 -0.00000000000E+00 -0.63186996188E+02  0.63186996188E+02  0.00000000000E+00 0. -1.
          2    1    1    2  501    0 -0.18482404129E+02 -0.18177365931E+02  0.82263187878E+02  0.86251075207E+02  0.00000000000E+00 0. -1.
          1    1    1    2  502    0  0.57831490771E+01  0.19714329690E+02 -0.67201907336E+01  0.21616210859E+02  0.00000000000E+00 0. -1.
         22    1    1    2    0    0  0.15373189661E+02  0.33962212842E+02 -0.34301661619E+02  0.50659360944E+02  0.00000000000E+00 0. -1.
         22    1    1    2    0    0 -0.26739346091E+01 -0.35499176602E+02  0.65176528895E+02  0.74265209785E+02  0.00000000000E+00 0. -1.
</event>
<event>
 6    1  0.2406404E-005  0.9641500E+02  0.7818608E-02  0.1302506E+00
          2   -1    0    0  502    0  0.00000000000E+00  0.00000000000E+00  0.31441002204E+03  0.31441002204E+03  0.00000000000E+00 0.  1.
          1   -1    0    0  501    0 -0.00000000000E+00 -0.00000000000E+00 -0.43391860288E+02  0.43391860288E+02  0.00000000000E+00 0. -1.
          2    1    1    2  501    0  0.43415280820E+02  0.67347366126E+01  0.13398805519E+03  0.14100724172E+03  0.00000000000E+00 0.  1.
          1    1    1    2  502    0 -0.41669300898E+02  0.10084828761E+02  0.33984320680E+02  0.54708029215E+02  0.00000000000E+00 0. -1.
         22    1    1    2    0    0  0.22343054755E+02  0.18877375637E+02  0.11396546087E+03  0.11765922692E+03  0.00000000000E+00 0.  1.
         22    1    1    2    0    0 -0.24089034678E+02 -0.35696941011E+02 -0.10919674987E+02  0.44427384473E+02  0.00000000000E+00 0. -1.
</event>
<event>
 6    1  0.2406404E-005  0.6977104E+02  0.7818608E-02  0.1362790E+00
          2   -1    0    0  502    0  0.00000000000E+00  0.00000000000E+00  0.57961925601E+03  0.57961925601E+03  0.00000000000E+00 0. -1.
          1   -1    0    0  501    0 -0.00000000000E+00 -0.00000000000E+00 -0.95347153478E+02  0.95347153478E+02  0.00000000000E+00 0.  1.
          2    1    1    2  501    0 -0.25669329903E+01  0.43207414971E+02  0.44148683916E+03  0.44360353809E+03  0.00000000000E+00 0. -1.
          1    1    1    2  502    0 -0.60928173189E+01 -0.33911706220E+02 -0.61197816257E+02  0.70230327895E+02  0.00000000000E+00 0.  1.
         22    1    1    2    0    0  0.35870721387E+01 -0.30474944907E+02 -0.19095671359E+02  0.36141859640E+02  0.00000000000E+00 0. -1.
         22    1    1    2    0    0  0.50726781704E+01  0.21179236155E+02  0.12307875098E+03  0.12499068386E+03  0.00000000000E+00 0.  1.
</event>
<event>
 6    1  0.2406404E-005  0.1100635E+03  0.7818608E-02  0.1261332E+00
          2   -1    0    0  502    0  0.00000000000E+00  0.00000000000E+00  0.65746035521E+02  0.65746035521E+02  0.00000000000E+00 0.  1.
          1   -1    0    0  501    0 -0.00000000000E+00 -0.00000000000E+00 -0.79159593953E+03  0.79159593953E+03  0.00000000000E+00 0. -1.
          2    1    1    2  501    0 -0.16019521204E+02  0.62508242002E+02 -0.39294060724E+01  0.64647858509E+02  0.00000000000E+00 0.  1.
          1    1    1    2  502    0  0.42402190041E+02 -0.70701814438E+02 -0.61996092519E+03  0.62541845276E+03  0.00000000000E+00 0. -1.
         22    1    1    2    0    0 -0.28524769446E+02  0.32199785466E+02  0.16735712535E+02  0.46158127454E+02  0.00000000000E+00 0.  1.
         22    1    1    2    0    0  0.21421006092E+01 -0.24006213029E+02 -0.11869528528E+03  0.12111753633E+03  0.00000000000E+00 0.  1.
</event>
<event>
 6    1  0.2406404E-005  0.8671832E+02  0.7818608E-02  0.1339799E+00
          2   -1    0    0  502    0  0.00000000000E+00  0.00000000000E+00  0.13696368069E+03  0.13696368069E+03  0.00000000000E+00 0.  1.
          1   -1    0    0  501    0 -0.00000000000E+00 -0.00000000000E+00 -0.22575365380E+03  0.22575365380E+03  0.00000000000E+00 0.  1.
          2    1    1    2  501    0  0.88142453846E+02  0.98004139237E+02 -0.53466481608E+02  0.14224123218E+03  0.00000000000E+00 0.  1.
          1    1    1    2  502    0 -0.34136337395E+02 -0.65959026411E+02 -0.19743353665E+01  0.74295226603E+02  0.00000000000E+00 0.  1.
         22    1    1    2    0    0  0.34423357617E+02 -0.33354291605E+02  0.79281090102E+01  0.48583240223E+02  0.00000000000E+00 0. -1.
         22    1    1    2    0    0 -0.88429474068E+02  0.13091787798E+01 -0.41277265155E+02  0.97597635482E+02  0.00000000000E+00 0.  1.
</event>
<event>
 6    1  0.2406404E-005  0.8322776E+02  0.7818608E-02  0.1413015E+00
          2   -1    0    0  502    0  0.00000000000E+00  0.00000000000E+00  0.28466171137E+03  0.28466171137E+03  0.00000000000E+00 0.  1.
          1   -1    0    0  501    0 -0.00000000000E+00 -0.00000000000E+00 -0.97455711272E+02  0.97455711272E+02  0.00000000000E+00 0. -1.
          2    1    1    2  501    0 -0.46779747162E+02  0.23991584428E+02  0.16957820069E+03  0.17754071932E+03  0.00000000000E+00 0.  1.
          1    1    1    2  502    0  0.49195641815E+02 -0.57106428675E+02 -0.14597445954E+01  0.75388899872E+02  0.00000000000E+00 0. -1.
         22    1    1    2    0    0  0.15639467350E+02  0.83080425429E+01 -0.50296259217E+02  0.53322886279E+02  0.00000000000E+00 0. -1.
         22    1    1    2    0    0 -0.18055362003E+02  0.24806801704E+02  0.69383803216E+02  0.75864917166E+02  0.00000000000E+00 0.  1.
</event>
<event>
 6    1  0.2406404E-005  0.9265002E+02  0.7818608E-02  0.1296774E+00
          2   -1    0    0  502    0  0.00000000000E+00  0.00000000000E+00  0.15420396345E+03  0.15420396345E+03  0.00000000000E+00 0. -1.
          1   -1    0    0  501    0 -0.00000000000E+00 -0.00000000000E+00 -0.79041289777E+02  0.79041289777E+02  0.00000000000E+00 0. -1.
          2    1    1    2  501    0  0.30714259393E+02 -0.98338072293E+01  0.10886450219E+01  0.32268477539E+02  0.00000000000E+00 0. -1.
          1    1    1    2  502    0 -0.44550688175E+02 -0.23861910888E+02 -0.48665403353E+00  0.50540987725E+02  0.00000000000E+00 0. -1.
         22    1    1    2    0    0  0.35680916908E+02  0.11215551399E+02 -0.25705730238E+02  0.45383928782E+02  0.00000000000E+00 0. -1.
         22    1    1    2    0    0 -0.21844488126E+02  0.22480166718E+02  0.10026641292E+03  0.10505185918E+03  0.00000000000E+00 0. -1.
</event>
<event>
 6    1  0.2406404E-005  0.5623877E+02  0.7818608E-02  0.1416507E+00
          2   -1    0    0  502    0  0.00000000000E+00  0.00000000000E+00  0.24240752074E+03  0.24240752074E+03  0.00000000000E+00 0. -1.
          1   -1    0    0  501    0 -0.00000000000E+00 -0.00000000000E+00 -0.24359420832E+03  0.24359420832E+03  0.00000000000E+00 0.  1.
          2    1    1    2  501    0  0.43490364827E+02  0.42504671462E+01  0.18106692268E+03  0.18626515722E+03  0.00000000000E+00 0. -1.
          1    1    1    2  502    0 -0.42173826176E+02  0.53352775077E+01 -0.16387272082E+03  0.16929667873E+03  0.00000000000E+00 0.  1.
         22    1    1    2    0    0 -0.11302649806E+02 -0.65171211780E+01 -0.73342653091E+02  0.74494077104E+02  0.00000000000E+00 0.  1.
         22    1    1    2    0    0  0.99861111555E+01 -0.30686234758E+01  0.54961763649E+02  0.55945816013E+02  0.00000000000E+00 0. -1.
</event>
<event>
 6    1  0.2406404E-005  0.1151019E+03  0.7818608E-02  0.1253537E+00
          2   -1    0    0  502    0  0.00000000000E+00  0.00000000000E+00  0.22921430282E+03  0.22921430282E+03  0.00000000000E+00 0.  1.
          1   -1    0    0  501    0 -0.00000000000E+00 -0.00000000000E+00 -0.71313603240E+02  0.71313603240E+02  0.00000000000E+00 0.  1.
          2    1    1    2  501    0 -0.23906120266E+02 -0.95411677351E+01  0.22010833749E+02  0.33867584358E+02  0.00000000000E+00 0.  1.
          1    1    1    2  502    0  0.76569317146E+02 -0.20408485818E+02  0.16074212968E+02  0.80856335213E+02  0.00000000000E+00 0.  1.
         22    1    1    2    0    0 -0.80300786454E+02  0.35322246336E+02  0.12916328020E+03  0.15613785686E+03  0.00000000000E+00 0.  1.
         22    1    1    2    0    0  0.27637589574E+02 -0.53725927829E+01 -0.93476273367E+01  0.29666129634E+02  0.00000000000E+00 0.  1.
</event>
<event>
 6    1  0.2406404E-005  0.6469256E+02  0.7818608E-02  0.1410175E+00
          2   -1    0    0  502    0  0.00000000000E+00  0.00000000000E+00  0.31104726761E+02  0.31104726761E+02  0.00000000000E+00 0. -1.
          1   -1    0    0  501    0 -0.00000000000E+00 -0.00000000000E+00 -0.72109419510E+03  0.72109419510E+03  0.00000000000E+00 0.  1.
          2    1    1    2  501    0  0.40232124999E+01 -0.19958508479E+02 -0.25168146873E+01  0.20514937380E+02  0.00000000000E+00 0. -1.
          1    1    1    2  502    0 -0.36339877157E+02 -0.48626561022E+02 -0.43904624708E+03  0.44322312235E+03  0.00000000000E+00 0.  1.
         22    1    1    2    0    0  0.13767827759E+02 -0.10821594145E+02  0.80937261176E+01  0.19291666167E+02  0.00000000000E+00 0. -1.
         22    1    1    2    0    0  0.18548836898E+02  0.79406663646E+02 -0.25652013269E+03  0.26916919596E+03  0.00000000000E+00 0.  1.
</event>
<event>
 6    1  0.2406404E-005  0.1091699E+03  0.7818608E-02  0.1276397E+00
          2   -1    0    0  502    0  0.00000000000E+00  0.00000000000E+00  0.10201410930E+04  0.10201410930E+04  0.00000000000E+00 0.  1.
          1   -1    0    0  501    0 -0.00000000000E+00 -0.00000000000E+00 -0.96718006338E+01  0.96718006338E+01  0.00000000000E+00 0.  1.
          2    1    1    2  501    0 -0.40966094418E+01  0.24889778947E+02  0.71994504966E+02  0.76285595299E+02  0.00000000000E+00 0.  1.
          1    1    1    2  502    0 -0.25004581052E+02 -0.26973298178E+02  0.30759377493E+03  0.30978495487E+03  0.00000000000E+00 0.  1.
         22    1    1    2    0    0  0.48982173306E+02 -0.50651954453E+02  0.39384485432E+03  0.40009829175E+03  0.00000000000E+00 0.  1.
         22    1    1    2    0    0 -0.19880982813E+02  0.52735473685E+02  0.23703615818E+03  0.24364405174E+03  0.00000000000E+00 0.  1.
</event>
<event>
 6    1  0.2406404E-005  0.4870505E+02  0.7818608E-02  0.1559899E+00
          2   -1    0    0  502    0  0.00000000000E+00  0.00000000000E+00  0.46888870124E+03  0.46888870124E+03  0.00000000000E+00 0. -1.
          1   -1    0    0  501    0 -0.00000000000E+00 -0.00000000000E+00 -0.10006862206E+03  0.10006862206E+03  0.00000000000E+00 0.  1.
          2    1    1    2  501    0  0.21582397192E+02 -0.48315492831E+02  0.39281128898E+03  0.39635955327E+03  0.00000000000E+00 0. -1.
          1    1    1    2  502    0 -0.32936274557E+02  0.12761354865E+02 -0.27236570277E+02  0.44603599856E+02  0.00000000000E+00 0.  1.
         22    1    1    2    0    0  0.21763408906E+02  0.39801514963E+02  0.57129754023E+02  0.72949402707E+02  0.00000000000E+00 0. -1.
         22    1    1    2    0    0 -0.10409531540E+02 -0.42473769969E+01 -0.53884393540E+02  0.55044767466E+02  0.00000000000E+00 0. -1.
</event>
<event>
 6    1  0.2406404E-005  0.1491322E+03  0.7818608E-02  0.1260819E+00
          2   -1    0    0  502    0  0.00000000000E+00  0.00000000000E+00  0.86979141012E+03  0.86979141012E+03  0.00000000000E+00 0.  1.
          1   -1    0    0  501    0 -0.00000000000E+00 -0.00000000000E+00 -0.28309763330E+03  0.28309763330E+03  0.00000000000E+00 0.  1.
          2    1    1    2  501    0  0.15208465041E+03 -0.19414030697E+02  0.66497402871E+03  0.68242003512E+03  0.00000000000E+00 0.  1.
          1    1    1    2  502    0 -0.12696809413E+03 -0.23243721818E+02 -0.23098155558E+03  0.26460091940E+03  0.00000000000E+00 0.  1.
         22    1    1    2    0    0 -0.64422994332E+01  0.43452516402E+02  0.17287371149E+03  0.17836744246E+03  0.00000000000E+00 0.  1.
         22    1    1    2    0    0 -0.18674256841E+02 -0.79476388733E+00 -0.20172407801E+02  0.27500646441E+02  0.00000000000E+00 0.  1.
</event>
<event>
 6    1  0.2406404E-005  0.4106652E+02  0.7818608E-02  0.1597361E+00
          2   -1    0    0  502    0  0.00000000000E+00  0.00000000000E+00  0.36490400399E+03  0.36490400399E+03  0.00000000000E+00 0.  1.
          1   -1    0    0  501    0 -0.00000000000E+00 -0.00000000000E+00 -0.18537954250E+03  0.18537954250E+03  0.00000000000E+00 0. -1.
          2    1    1    2  501    0  0.29916929393E+02 -0.10233415939E+02  0.29925640570E+03  0.30092215243E+03  0.00000000000E+00 0.  1.
          1    1    1    2  502    0 -0.20788411040E+02  0.30822732912E+01 -0.12151164087E+03  0.12331560043E+03  0.00000000000E+00 0. -1.
         22    1    1    2    0    0  0.94191504748E+01  0.71057093607E+01  0.61959328305E+02  0.63072734721E+02  0.00000000000E+00 0. -1.
         22    1    1    2    0    0 -0.18547668828E+02  0.45433287047E-01 -0.60179631650E+02  0.62973058911E+02  0.00000000000E+00 0. -1.
</event>
<event>
 6    1  0.2406404E-005  0.2332526E+03  0.7818608E-02  0.1168413E+00
          2   -1    0    0  502    0  0.00000000000E+00  0.00000000000E+00  0.20928302143E+03  0.20928302143E+03  0.00000000000E+00 0. -1.
          1   -1    0    0  501    0 -0.00000000000E+00 -0.00000000000E+00 -0.17789504306E+03  0.17789504306E+03  0.00000000000E+00 0. -1.
          2    1    1    2  501    0 -0.58161307015E+02  0.60500463566E+01  0.96020510561E+02  0.11242454867E+03  0.00000000000E+00 0. -1.
          1    1    1    2  502    0  0.15929082987E+02 -0.21315966444E+02  0.77547871971E+02  0.81986453499E+02  0.00000000000E+00 0. -1.
         22    1    1    2    0    0  0.93853986307E-01  0.21054315405E+02  0.17587797279E+02  0.27433986565E+02  0.00000000000E+00 0. -1.
         22    1    1    2    0    0  0.42138370042E+02 -0.57883953176E+01 -0.15976820144E+03  0.16533307576E+03  0.00000000000E+00 0. -1.
</event>
<event>
 6    1  0.2406404E-005  0.8564627E+02  0.7818608E-02  0.1434139E+00
          2   -1    0    0  502    0  0.00000000000E+00  0.00000000000E+00  0.13598884976E+03  0.13598884976E+03  0.00000000000E+00 0.  1.
          1   -1    0    0  501    0 -0.00000000000E+00 -0.00000000000E+00 -0.43369479714E+03  0.43369479714E+03  0.00000000000E+00 0. -1.
          2    1    1    2  501    0 -0.17576467669E+02  0.71472403196E+02  0.82359911427E+02  0.11045538305E+03  0.00000000000E+00 0.  1.
          1    1    1    2  502    0  0.18655478078E+02 -0.60117664440E+02 -0.31543166987E+03  0.32165089585E+03  0.00000000000E+00 0. -1.
         22    1    1    2    0    0 -0.53494545855E+01 -0.22314450831E+02 -0.98807182969E+02  0.10143673293E+03  0.00000000000E+00 0. -1.
         22    1    1    2    0    0  0.42704441765E+01  0.10959712075E+02  0.34172994042E+02  0.36140635081E+02  0.00000000000E+00 0. -1.
</event>
<event>
 6    1  0.2406404E-005  0.9007557E+02  0.7818608E-02  0.1304422E+00
          2   -1    0    0  502    0  0.00000000000E+00  0.00000000000E+00  0.14902688664E+03  0.14902688664E+03  0.00000000000E+00 0. -1.
          1   -1    0    0  501    0 -0.00000000000E+00 -0.00000000000E+00 -0.35594559339E+03  0.35594559339E+03  0.00000000000E+00 0.  1.
          2    1    1    2  501    0  0.97989120767E+01  0.71885424798E+02  0.10209176785E+03  0.12524480843E+03  0.00000000000E+00 0. -1.
          1    1    1    2  502    0 -0.11671956321E+02 -0.65453912606E+02 -0.21454339959E+03  0.22460925971E+03  0.00000000000E+00 0.  1.
         22    1    1    2    0    0  0.46850681660E+01 -0.20361890873E+02 -0.12219089184E+03  0.12396439212E+03  0.00000000000E+00 0.  1.
         22    1    1    2    0    0 -0.28120239215E+01  0.13930378682E+02  0.27723816827E+02  0.31154019776E+02  0.00000000000E+00 0. -1.
</event>
<event>
 6    1  0.2406404E-005  0.8761360E+02  0.7818608E-02  0.1363707E+00
          2   -1    0    0  502    0  0.00000000000E+00  0.00000000000E+00  0.31803558591E+03  0.31803558591E+03  0.00000000000E+00 0.  1.
          1   -1    0    0  501    0 -0.00000000000E+00 -0.00000000000E+00 -0.51909370695E+03  0.51909370695E+03  0.00000000000E+00 0.  1.
          2    1    1    2  501    0  0.10813481064E+03  0.24530161868E+02  0.21813801652E+03  0.24470198275E+03  0.00000000000E+00 0.  1.
          1    1    1    2  502    0 -0.76433100750E+02  0.46221885237E+01 -0.45174522757E+03  0.45818897209E+03  0.00000000000E+00 0.  1.
         22    1    1    2    0    0 -0.22039540849E+02 -0.25365078560E+02  0.79417978111E+02  0.86234238087E+02  0.00000000000E+00 0.  1.
         22    1    1    2    0    0 -0.96621690366E+01 -0.37872718326E+01 -0.46868888103E+02  0.48004099934E+02  0.00000000000E+00 0.  1.
</event>
<event>
 6    1  0.2406404E-005  0.3574298E+03  0.7818608E-02  0.1164638E+00
          2   -1    0    0  502    0  0.00000000000E+00  0.00000000000E+00  0.15656533792E+03  0.15656533792E+03  0.00000000000E+00 0. -1.
          1   -1    0    0  501    0 -0.00000000000E+00 -0.00000000000E+00 -0.91240723459E+03  0.91240723459E+03  0.00000000000E+00 0. -1.
          2    1    1    2  501    0 -0.15681967949E+03  0.20157734624E+02 -0.35361589622E+03  0.38735377654E+03  0.00000000000E+00 0. -1.
          1    1    1    2  502    0  0.33157709267E+03 -0.12106176613E+02 -0.19504993751E+03  0.38488232749E+03  0.00000000000E+00 0. -1.
         22    1    1    2    0    0 -0.18719616713E+03  0.13318752928E+02 -0.18109744473E+03  0.26079892380E+03  0.00000000000E+00 0. -1.
         22    1    1    2    0    0  0.12438753953E+02 -0.21370310938E+02 -0.26078618218E+02  0.35937544681E+02  0.00000000000E+00 0. -1.
</event>
<event>
 6    1  0.2406404E-005  0.1185914E+03  0.7818608E-02  0.1298215E+00
          2   -1    0    0  502    0  0.00000000000E+00  0.00000000000E+00  0.31127333025E+03  0.31127333025E+03  0.00000000000E+00 0.  1.
          1   -1    0    0  501    0 -0.00000000000E+00 -0.00000000000E+00 -0.97033866076E+02  0.97033866076E+02  0.00000000000E+00 0. -1.
          2    1    1    2  501    0  0.83713213115E+01 -0.19305065321E+02  0.88173942841E+02  0.90649924234E+02  0.00000000000E+00 0.  1.
          1    1    1    2  502    0 -0.35838080746E+02 -0.10005413500E+03  0.11306910341E+02  0.10687864231E+03  0.00000000000E+00 0. -1.
         22    1    1    2    0    0 -0.62723428352E-01 -0.20466931396E+02  0.50424151132E+02  0.54419612571E+02  0.00000000000E+00 0. -1.
         22    1    1    2    0    0  0.27529482863E+02  0.13982613171E+03  0.64334459858E+02  0.15635901721E+03  0.00000000000E+00 0.  1.
</event>
<event>
 6    1  0.2406404E-005  0.8252877E+02  0.7818608E-02  0.1353836E+00
          2   -1    0    0  502    0  0.00000000000E+00  0.00000000000E+00  0.11956943567E+03  0.11956943567E+03  0.00000000000E+00 0.  1.
          1   -1    0    0  501    0 -0.00000000000E+00 -0.00000000000E+00 -0.11416227003E+03  0.11416227003E+03  0.00000000000E+00 0. -1.
          2    1    1    2  501    0 -0.32294591993E+02 -0.18411874809E+01  0.58031871405E+02  0.66438157275E+02  0.00000000000E+00 0.  1.
          1    1    1    2  502    0  0.12814380997E+02  0.30775291823E+02 -0.10226234114E+02  0.34869797982E+02  0.00000000000E+00 0. -1.
         22    1    1    2    0    0  0.28707566145E+02 -0.18066861273E+02 -0.82854789823E+02  0.89529056886E+02  0.00000000000E+00 0. -1.
         22    1    1    2    0    0 -0.92273551486E+01 -0.10867243070E+02  0.40456318170E+02  0.42894693551E+02  0.00000000000E+00 0. -1.
</event>
<event>
 6    1  0.2406404E-005  0.1113579E+03  0.7818608E-02  0.1341222E+00
          2   -1    0    0  502    0  0.00000000000E+00  0.00000000000E+00  0.21824953326E+03  0.21824953326E+03  0.00000000000E+00 0.  1.
          1   -1    0    0  501    0 -0.00000000000E+00 -0.00000000000E+00 -0.99539009371E+02  0.99539009371E+02  0.00000000000E+00 0.  1.
          2    1    1    2  501    0 -0.63748300913E+02  0.86019871952E+01  0.48307542602E+02  0.80445377277E+02  0.00000000000E+00 0.  1.
          1    1    1    2  502    0  0.92741065579E+02 -0.34274778713E+02  0.32919231472E+02  0.10420816427E+03  0.00000000000E+00 0.  1.
         22    1    1    2    0    0  0.19401667377E+02  0.14101450566E+02 -0.36679866401E+02  0.43825656918E+02  0.00000000000E+00 0. -1.
         22    1    1    2    0    0 -0.48394432044E+02  0.11571340951E+02  0.74163616216E+02  0.89309344161E+02  0.00000000000E+00 0.  1.
</event>
<event>
 6    1  0.2406404E-005  0.5941214E+02  0.7818608E-02  0.1415948E+00
          2   -1    0    0  502    0  0.00000000000E+00  0.00000000000E+00  0.42716268235E+03  0.42716268235E+03  0.00000000000E+00 0.  1.
          1   -1    0    0  501    0 -0.00000000000E+00 -0.00000000000E+00 -0.39754063862E+02  0.39754063862E+02  0.00000000000E+00 0.  1.
          2    1    1    2  501    0  0.68329514421E+01  0.23202042031E+02  0.20926455798E+03  0.21065772999E+03  0.00000000000E+00 0.  1.
          1    1    1    2  502    0 -0.40035809864E+02  0.25292154571E+02  0.55584422698E+02  0.73021826881E+02  0.00000000000E+00 0.  1.
         22    1    1    2    0    0  0.25526198751E+02 -0.67868015572E+02  0.15473655858E+02  0.74142352174E+02  0.00000000000E+00 0.  1.
         22    1    1    2    0    0  0.76766596710E+01  0.19373818970E+02  0.10708598196E+03  0.10909483717E+03  0.00000000000E+00 0.  1.
</event>
<event>
 6    1  0.2406404E-005  0.1348151E+03  0.7818608E-02  0.1220597E+00
          2   -1    0    0  502    0  0.00000000000E+00  0.00000000000E+00  0.95611344975E+02  0.95611344975E+02  0.00000000000E+00 0.  1.
          1   -1    0    0  501    0 -0.00000000000E+00 -0.00000000000E+00 -0.37313746562E+03  0.37313746562E+03  0.00000000000E+00 0. -1.
          2    1    1    2  501    0 -0.33031054950E+02 -0.67371912067E+02 -0.22537204623E+00  0.75033831831E+02  0.00000000000E+00 0.  1.
          1    1    1    2  502    0  0.43293794389E+02  0.10179583700E+03 -0.22611496584E+03  0.25172350475E+03  0.00000000000E+00 0. -1.
         22    1    1    2    0    0  0.11925926668E+02  0.17641555609E+02 -0.76924337598E+02  0.79817328483E+02  0.00000000000E+00 0. -1.
         22    1    1    2    0    0 -0.22188666108E+02 -0.52065480545E+02  0.25738554841E+02  0.62174145537E+02  0.00000000000E+00 0.  1.
</event>
<event>
 6    1  0.2406404E-005  0.3925985E+02  0.7818608E-02  0.1559884E+00
          2   -1    0    0  502    0  0.00000000000E+00  0.00000000000E+00  0.11371127679E+03  0.11371127679E+03  0.00000000000E+00 0. -1.
          1   -1    0    0  501    0 -0.00000000000E+00 -0.00000000000E+00 -0.10638795495E+03  0.10638795495E+03  0.00000000000E+00 0. -1.
          2    1    1    2  501    0 -0.19931639048E+02  0.90277579641E+01  0.43608690721E+02  0.48790250618E+02  0.00000000000E+00 0. -1.
          1    1    1    2  502    0  0.25794412161E+02  0.15250560082E+02 -0.30743126971E+02  0.42931004385E+02  0.00000000000E+00 0. -1.
         22    1    1    2    0    0 -0.16273518152E+02 -0.55012573856E+01  0.58427997384E+02  0.60900920389E+02  0.00000000000E+00 0. -1.
         22    1    1    2    0    0  0.10410745038E+02 -0.18777060661E+02 -0.63970239290E+02  0.67477056354E+02  0.00000000000E+00 0. -1.
</event>
<event>
 6    1  0.2406404E-005  0.1101076E+03  0.7818608E-02  0.1264904E+00
          2   -1    0    0  502    0  0.00000000000E+00  0.00000000000E+00  0.11416343272E+03  0.11416343272E+03  0.00000000000E+00 0. -1.
          1   -1    0    0  501    0 -0.00000000000E+00 -0.00000000000E+00 -0.15856933664E+03  0.15856933664E+03  0.00000000000E+00 0.  1.
          2    1    1    2  501    0  0.91138955850E+01  0.57280496756E+02  0.45067926269E+02  0.73452272800E+02  0.00000000000E+00 0. -1.
          1    1    1    2  502    0  0.92878032535E+01 -0.31098000407E+02 -0.53806152551E+02  0.62836700828E+02  0.00000000000E+00 0.  1.
         22    1    1    2    0    0  0.18989804432E+02  0.37123844803E+02  0.17998121955E+02  0.45417231523E+02  0.00000000000E+00 0. -1.
         22    1    1    2    0    0 -0.37391503270E+02 -0.63306341152E+02 -0.53665799583E+02  0.91026564209E+02  0.00000000000E+00 0.  1.
</event>
<event>
 6    1  0.2406404E-005  0.7111397E+02  0.7818608E-02  0.1356455E+00
          2   -1    0    0  502    0  0.00000000000E+00  0.00000000000E+00  0.24252009034E+03  0.24252009034E+03  0.00000000000E+00 0.  1.
          1   -1    0    0  501    0 -0.00000000000E+00 -0.00000000000E+00 -0.81237370044E+02  0.81237370044E+02  0.00000000000E+00 0.  1.
          2    1    1    2  501    0 -0.41337674922E+02  0.32083493070E+01  0.11312427983E+03  0.12048319203E+03  0.00000000000E+00 0.  1.
          1    1    1    2  502    0  0.46957839254E+02 -0.82724662297E+01 -0.29895245685E+02  0.56277864916E+02  0.00000000000E+00 0.  1.
         22    1    1    2    0    0  0.11502171376E+02 -0.18061376248E+02 -0.29053285027E+02  0.36091642096E+02  0.00000000000E+00 0.  1.
         22    1    1    2    0    0 -0.17122335707E+02  0.23125493171E+02  0.10710697118E+03  0.11090476135E+03  0.00000000000E+00 0.  1.
</event>
<event>
 6    1  0.2406404E-005  0.8632893E+02  0.7818608E-02  0.1353065E+00
          2   -1    0    0  502    0  0.00000000000E+00  0.00000000000E+00  0.23550158633E+04  0.23550158633E+04  0.00000000000E+00 0. -1.
          1   -1    0    0  501    0 -0.00000000000E+00 -0.00000000000E+00 -0.18565660347E+02  0.18565660347E+02  0.00000000000E+00 0. -1.
          2    1    1    2  501    0 -0.71297418116E+02 -0.38804817146E+02  0.15003310227E+03  0.17058448769E+03  0.00000000000E+00 0. -1.
          1    1    1    2  502    0  0.37052969975E+02  0.86862979963E+02  0.14474889566E+04  0.14505662271E+04  0.00000000000E+00 0. -1.
         22    1    1    2    0    0 -0.34897792753E+02  0.23410401579E+02  0.24759993152E+03  0.25114065566E+03  0.00000000000E+00 0. -1.
         22    1    1    2    0    0  0.69142240893E+02 -0.71468564396E+02  0.49132821258E+03  0.50129015315E+03  0.00000000000E+00 0. -1.
</event>
<event>
 6    1  0.2406404E-005  0.5235814E+02  0.7818608E-02  0.1509288E+00
          2   -1    0    0  502    0  0.00000000000E+00  0.00000000000E+00  0.16397188086E+03  0.16397188086E+03  0.00000000000E+00 0.  1.
          1   -1    0    0  501    0 -0.00000000000E+00 -0.00000000000E+00 -0.12676166754E+03  0.12676166754E+03  0.00000000000E+00 0. -1.
          2    1    1    2  501    0 -0.36337597821E+02 -0.13589134776E+02  0.10321609372E+03  0.11026625777E+03  0.00000000000E+00 0.  1.
          1    1    1    2  502    0  0.24812746075E+02  0.22464973683E+02 -0.39802309666E+02  0.52005492644E+02  0.00000000000E+00 0. -1.
         22    1    1    2    0    0 -0.53700105585E+01 -0.13724510136E+02  0.49032686712E+02  0.51199644121E+02  0.00000000000E+00 0.  1.
         22    1    1    2    0    0  0.16894862304E+02  0.48486712288E+01 -0.75236257452E+02  0.77262153868E+02  0.00000000000E+00 0. -1.
</event>
<event>
 6    1  0.2406404E-005  0.8528743E+02  0.7818608E-02  0.1410485E+00
          2   -1    0    0  502    0  0.00000000000E+00  0.00000000000E+00  0.78019516450E+02  0.78019516450E+02  0.00000000000E+00 0. -1.
          1   -1    0    0  501    0 -0.00000000000E+00 -0.00000000000E+00 -0.25027026636E+03  0.25027026636E+03  0.00000000000E+00 0.  1.
          2    1    1    2  501    0  0.11950011644E+02 -0.26178197148E+02  0.26272436035E+02  0.38965904062E+02  0.00000000000E+00 0. -1.
          1    1    1    2  502    0 -0.49640117486E+02  0.42533566306E+02 -0.12302297921E+03  0.13931223543E+03  0.00000000000E+00 0.  1.
         22    1    1    2    0    0 -0.95067330423E+01  0.14235526926E+02 -0.90255700992E+02  0.91864681797E+02  0.00000000000E+00 0. -1.
         22    1    1    2    0    0  0.47196838884E+02 -0.30590896084E+02  0.14755494254E+02  0.58146961524E+02  0.00000000000E+00 0. -1.
</event>
<event>
 6    1  0.2406404E-005  0.1669944E+03  0.7818608E-02  0.1293582E+00
          2   -1    0    0  502    0  0.00000000000E+00  0.00000000000E+00  0.11948040533E+04  0.11948040533E+04  0.00000000000E+00 0. -1.
          1   -1    0    0  501    0 -0.00000000000E+00 -0.00000000000E+00 -0.29611406320E+03  0.29611406320E+03  0.00000000000E+00 0. -1.
          2    1    1    2  501    0  0.33929366642E+02  0.71879323798E+02  0.73874278857E+03  0.74300655904E+03  0.00000000000E+00 0. -1.
          1    1    1    2  502    0 -0.48937896518E+02 -0.13492600675E+03 -0.26497317803E+03  0.30134818746E+03  0.00000000000E+00 0. -1.
         22    1    1    2    0    0 -0.75907628570E+01 -0.14900085307E+02  0.31004217165E+01  0.17007199585E+02  0.00000000000E+00 0.  1.
         22    1    1    2    0    0  0.22599292732E+02  0.77946768255E+02  0.42181995782E+03  0.42955617040E+03  0.00000000000E+00 0.  1.
</event>
<event>
 6    1  0.2638080E-005  0.2535386E+03  0.7818608E-02  0.1111371E+00
          2   -1    0    0  502    0  0.00000000000E+00  0.00000000000E+00  0.57667149757E+03  0.57667149757E+03  0.00000000000E+00 0.  1.
          1   -1    0    0  501    0 -0.00000000000E+00 -0.00000000000E+00 -0.65220173275E+03  0.65220173275E+03  0.00000000000E+00 0.  1.
          2    1    1    2  501    0 -0.21107663858E+03 -0.13949241658E+02  0.46216328180E+03  0.50827436266E+03  0.00000000000E+00 0.  1.
          1    1    1    2  502    0  0.23829557985E+03  0.96321485585E+01 -0.54078042670E+03  0.59103386668E+03  0.00000000000E+00 0.  1.
         22    1    1    2    0    0 -0.36825699172E+02  0.11889041210E+02  0.59975579831E+02  0.71376127637E+02  0.00000000000E+00 0. -1.
         22    1    1    2    0    0  0.96067578942E+01 -0.75719481109E+01 -0.56888670109E+02  0.58188873354E+02  0.00000000000E+00 0. -1.
</event>
<event>
 6    1  0.2406404E-005  0.1931767E+03  0.7818608E-02  0.1182382E+00
          2   -1    0    0  502    0  0.00000000000E+00  0.00000000000E+00  0.11842205833E+04  0.11842205833E+04  0.00000000000E+00 0.  1.
          1   -1    0    0  501    0 -0.00000000000E+00 -0.00000000000E+00 -0.91802761099E+02  0.91802761099E+02  0.00000000000E+00 0.  1.
          2    1    1    2  501    0  0.61209028421E+02  0.77582883364E+02  0.10065922555E+04  0.10114314696E+04  0.00000000000E+00 0.  1.
          1    1    1    2  502    0  0.43638539133E-01  0.22470054080E+02 -0.43640567412E+02  0.49085683847E+02  0.00000000000E+00 0.  1.
         22    1    1    2    0    0 -0.50219124914E+02 -0.44220731397E+02 -0.73587474796E+01  0.67317046555E+02  0.00000000000E+00 0.  1.
         22    1    1    2    0    0 -0.11033542046E+02 -0.55832206046E+02  0.13682488161E+03  0.14818914437E+03  0.00000000000E+00 0. -1.
</event>
<event>
 6    1  0.2406404E-005  0.6894790E+02  0.7818608E-02  0.1439365E+00
          2   -1    0    0  502    0  0.00000000000E+00  0.00000000000E+00  0.34773056237E+03  0.34773056237E+03  0.00000000000E+00 0.  1.
          1   -1    0    0  501    0 -0.00000000000E+00 -0.00000000000E+00 -0.15499900391E+03  0.15499900391E+03  0.00000000000E+00 0.  1.
          2    1    1    2  501    0 -0.33741672841E+02  0.59138713247E+02  0.21166727510E+03  0.22234865244E+03  0.00000000000E+00 0.  1.
          1    1    1    2  502    0  0.42777529861E+02 -0.24297183277E+02 -0.10848066217E+03  0.11911475241E+03  0.00000000000E+00 0.  1.
         22    1    1    2    0    0 -0.13330386696E+02 -0.16024152653E+02  0.12185780163E+03  0.12362765264E+03  0.00000000000E+00 0. -1.
         22    1    1    2    0    0  0.42945296759E+01 -0.18817377317E+02 -0.32312856111E+02  0.37638508795E+02  0.00000000000E+00 0. -1.
</event>
<event>
 6    1  0.2406404E-005  0.1043250E+03  0.7818608E-02  0.1273283E+00
          2   -1    0    0  502    0  0.00000000000E+00  0.00000000000E+00  0.19771920247E+03  0.19771920247E+03  0.00000000000E+00 0. -1.
          1   -1    0    0  501    0 -0.00000000000E+00 -0.00000000000E+00 -0.28737513819E+03  0.28737513819E+03  0.00000000000E+00 0. -1.
          2    1    1    2  501    0  0.18761727110E+02 -0.83171605441E+02  0.13172332231E+03  0.15690937510E+03  0.00000000000E+00 0. -1.
          1    1    1    2  502    0  0.74449044362E-01  0.60312231143E+02 -0.18122890291E+03  0.19100127230E+03  0.00000000000E+00 0. -1.
         22    1    1    2    0    0 -0.25228356791E+02  0.33701763798E+02 -0.82707016812E+02  0.92804792438E+02  0.00000000000E+00 0.  1.
         22    1    1    2    0    0  0.63921806374E+01 -0.10842389500E+02  0.42556661697E+02  0.44378900822E+02  0.00000000000E+00 0.  1.
</event>
<event>
 6    1  0.2406404E-005  0.1887888E+03  0.7818608E-02  0.1168452E+00
          2   -1    0    0  502    0  0.00000000000E+00  0.00000000000E+00  0.41059685336E+03  0.41059685336E+03  0.00000000000E+00 0. -1.
          1   -1    0    0  501    0 -0.00000000000E+00 -0.00000000000E+00 -0.45856089840E+03  0.45856089840E+03  0.00000000000E+00 0. -1.
          2    1    1    2  501    0 -0.25449654220E+02 -0.28294866909E+02  0.91351070879E+02  0.98961116324E+02  0.00000000000E+00 0. -1.
          1    1    1    2  502    0 -0.10426092835E+03  0.79823836681E+02 -0.41656707961E+03  0.43677261578E+03  0.00000000000E+00 0. -1.
         22    1    1    2    0    0  0.14109962543E+03 -0.50946892396E+02  0.28326150384E+03  0.32053357032E+03  0.00000000000E+00 0. -1.
         22    1    1    2    0    0 -0.11389042860E+02 -0.58207737658E+00 -0.60095401515E+01  0.12890449339E+02  0.00000000000E+00 0.  1.
</event>
<event>
 6    1  0.2406404E-005  0.4885889E+02  0.7818608E-02  0.1451645E+00
          2   -1    0    0  502    0  0.00000000000E+00  0.00000000000E+00  0.15366930818E+03  0.15366930818E+03  0.00000000000E+00 0. -1.
          1   -1    0    0  501    0 -0.00000000000E+00 -0.00000000000E+00 -0.23155357223E+03  0.23155357223E+03  0.00000000000E+00 0.  1.
          2    1    1    2  501    0 -0.11732885163E+02  0.28402495579E+02  0.79458097104E+02  0.85193612112E+02  0.00000000000E+00 0. -1.
          1    1    1    2  502    0  0.11341071883E+01 -0.35006297392E+02 -0.17443149539E+03  0.17791310699E+03  0.00000000000E+00 0.  1.
         22    1    1    2    0    0  0.83721769257E+01 -0.10508105201E+02 -0.50552836679E+02  0.52307771103E+02  0.00000000000E+00 0.  1.
         22    1    1    2    0    0  0.22266010485E+01  0.17111907015E+02  0.67641970910E+02  0.69808390202E+02  0.00000000000E+00 0. -1.
</event>
<event>
 6    1  0.2406404E-005  0.6662856E+02  0.7818608E-02  0.1480744E+00
          2   -1    0    0  502    0  0.00000000000E+00  0.00000000000E+00  0.36450166555E+03  0.36450166555E+03  0.00000000000E+00 0. -1.
          1   -1    0    0  501    0 -0.00000000000E+00 -0.00000000000E+00 -0.35027849396E+03  0.35027849396E+03  0.00000000000E+00 0.  1.
          2    1    1    2  501    0  0.22852463966E+02  0.53665290428E+02  0.28567484646E+03  0.29156871644E+03  0.00000000000E+00 0. -1.
          1    1    1    2  502    0 -0.25448965713E+02 -0.42494406430E+02 -0.29137745436E+03  0.29555751614E+03  0.00000000000E+00 0.  1.
         22    1    1    2    0    0 -0.10052079666E+02 -0.11720147267E+02 -0.52194700623E+02  0.54430624934E+02  0.00000000000E+00 0. -1.
         22    1    1    2    0    0  0.12648581413E+02  0.54926326843E+00  0.72120480116E+02  0.73223301988E+02  0.00000000000E+00 0.  1.
</event>
<event>
 6    1  0.2406404E-005  0.1664417E+03  0.7818608E-02  0.1183819E+00
          2   -1    0    0  502    0  0.00000000000E+00  0.00000000000E+00  0.77339832042E+02  0.77339832042E+02  0.00000000000E+00 0.  1.
          1   -1    0    0  501    0 -0.00000000000E+00 -0.00000000000E+00 -0.34902539512E+03  0.34902539512E+03  0.00000000000E+00 0. -1.
          2    1    1    2  501    0  0.11635513614E+03  0.35998065802E+02 -0.68447890458E+02  0.13971217612E+03  0.00000000000E+00 0.  1.
          1    1    1    2  502    0 -0.43157610008E+02 -0.32737498699E+02 -0.25435102518E+02  0.59843692756E+02  0.00000000000E+00 0. -1.
         22    1    1    2    0    0 -0.10041819236E+03 -0.26180645898E+02 -0.14573173380E+03  0.17890494072E+03  0.00000000000E+00 0. -1.
         22    1    1    2    0    0  0.27220666226E+02  0.22920078794E+02 -0.32070836306E+02  0.47904417573E+02  0.00000000000E+00 0.  1.
</event>
<event>
 6    1  0.2406404E-005  0.1406131E+03  0.7818608E-02  0.1213293E+00
          2   -1    0    0  502    0  0.00000000000E+00  0.00000000000E+00  0.25691588489E+03  0.25691588489E+03  0.00000000000E+00 0.  1.
          1   -1    0    0  501    0 -0.00000000000E+00 -0.00000000000E+00 -0.79775964412E+02  0.79775964412E+02  0.00000000000E+00 0. -1.
          2    1    1    2  501    0  0.10641079449E+03  0.39117560599E+01  0.73911538798E+02  0.12962050219E+03  0.00000000000E+00 0.  1.
          1    1    1    2  502    0 -0.25814879769E+02 -0.10352794278E+02  0.21287739837E+02  0.35025080074E+02  0.00000000000E+00 0. -1.
         22    1    1    2    0    0  0.27123752952E+02 -0.43447273842E+01  0.53459728770E+02  0.60104219739E+02  0.00000000000E+00 0.  1.
         22    1    1    2    0    0 -0.10771966768E+03  0.10785765603E+02  0.28480913068E+02  0.11194204730E+03  0.00000000000E+00 0. -1.
</event>
<event>
 6    1  0.2406404E-005  0.1879573E+03  0.7818608E-02  0.1160405E+00
          2   -1    0    0  502    0  0.00000000000E+00  0.00000000000E+00  0.97177586828E+03  0.97177586828E+03  0.00000000000E+00 0. -1.
          1   -1    0    0  501    0 -0.00000000000E+00 -0.00000000000E+00 -0.38616058386E+02  0.38616058386E+02  0.00000000000E+00 0. -1.
          2    1    1    2  501    0 -0.77314451357E+02 -0.98392543269E+02  0.24492625489E+03  0.27504088295E+03  0.00000000000E+00 0. -1.
          1    1    1    2  502    0  0.30860390136E+02  0.10537898952E+03  0.42837853859E+03  0.44222761948E+03  0.00000000000E+00 0. -1.
         22    1    1    2    0    0  0.28585528799E+00 -0.62086205367E+02  0.97840158725E+02  0.11587698335E+03  0.00000000000E+00 0. -1.
         22    1    1    2    0    0  0.46168205934E+02  0.55099759117E+02  0.16201485770E+03  0.17724644089E+03  0.00000000000E+00 0. -1.
</event>
<event>
 6    1  0.2406404E-005  0.1080829E+03  0.7818608E-02  0.1305542E+00
          2   -1    0    0  502    0  0.00000000000E+00  0.00000000000E+00  0.86747661045E+02  0.86747661045E+02  0.00000000000E+00 0. -1.
          1   -1    0    0  501    0 -0.00000000000E+00 -0.00000000000E+00 -0.20105734474E+03  0.20105734474E+03  0.00000000000E+00 0. -1.
          2    1    1    2  501    0  0.39373341415E+01 -0.22116122447E+02 -0.30140269329E+02  0.37590707727E+02  0.00000000000E+00 0. -1.
          1    1    1    2  502    0 -0.26419851818E+01  0.19886674736E+02 -0.11924835698E+03  0.12092406940E+03  0.00000000000E+00 0. -1.
         22    1    1    2    0    0  0.92069898510E+01 -0.18063946916E+02  0.78039846061E+02  0.80630592293E+02  0.00000000000E+00 0. -1.
         22    1    1    2    0    0 -0.10502338811E+02  0.20293394627E+02 -0.42960903439E+02  0.48659636356E+02  0.00000000000E+00 0. -1.
</event>
<event>
 6    1  0.2406404E-005  0.7581864E+02  0.7818608E-02  0.1347346E+00
          2   -1    0    0  502    0  0.00000000000E+00  0.00000000000E+00  0.23332671644E+03  0.23332671644E+03  0.00000000000E+00 0. -1.
          1   -1    0    0  501    0 -0.00000000000E+00 -0.00000000000E+00 -0.10915161926E+03  0.10915161926E+03  0.00000000000E+00 0.  1.
          2    1    1    2  501    0  0.24559090995E+02 -0.49498306320E+02  0.16403522279E+03  0.17309184151E+03  0.00000000000E+00 0. -1.
          1    1    1    2  502    0  0.34938070031E+01  0.25605809588E+02 -0.24760949829E+02  0.35790624589E+02  0.00000000000E+00 0.  1.
         22    1    1    2    0    0 -0.38920987836E+02  0.30576210233E+02 -0.65221310152E+02  0.81875315110E+02  0.00000000000E+00 0.  1.
         22    1    1    2    0    0  0.10868089839E+02 -0.66837135008E+01  0.50122134367E+02  0.51720554487E+02  0.00000000000E+00 0. -1.
</event>
<event>
 6    1  0.2406404E-005  0.9851065E+02  0.7818608E-02  0.1302907E+00
          2   -1    0    0  502    0  0.00000000000E+00  0.00000000000E+00  0.40694898195E+03  0.40694898195E+03  0.00000000000E+00 0. -1.
          1   -1    0    0  501    0 -0.00000000000E+00 -0.00000000000E+00 -0.82654174758E+02  0.82654174758E+02  0.00000000000E+00 0.  1.
          2    1    1    2  501    0 -0.53929222794E+02  0.62082417061E+01  0.30953331260E+03  0.31425749783E+03  0.00000000000E+00 0. -1.
          1    1    1    2  502    0 -0.27251661121E+01 -0.27512369669E+02 -0.14056064527E+02  0.31014995811E+02  0.00000000000E+00 0.  1.
         22    1    1    2    0    0 -0.12572514653E+02  0.61700063662E+01  0.63789565684E+02  0.65308849273E+02  0.00000000000E+00 0. -1.
         22    1    1    2    0    0  0.69226903559E+02  0.15134121597E+02 -0.34972006558E+02  0.79021813795E+02  0.00000000000E+00 0.  1.
</event>
<event>
 6    1  0.2406404E-005  0.1237597E+03  0.7818608E-02  0.1259252E+00
          2   -1    0    0  502    0  0.00000000000E+00  0.00000000000E+00  0.24500997503E+03  0.24500997503E+03  0.00000000000E+00 0. -1.
          1   -1    0    0  501    0 -0.00000000000E+00 -0.00000000000E+00 -0.75903620893E+02  0.75903620893E+02  0.00000000000E+00 0.  1.
          2    1    1    2  501    0 -0.13149857592E+02 -0.54435437831E+02  0.67226891799E+02  0.87496232077E+02  0.00000000000E+00 0. -1.
          1    1    1    2  502    0 -0.38888601469E+02  0.31853304922E+02 -0.19034680675E+02  0.53751980680E+02  0.00000000000E+00 0.  1.
         22    1    1    2    0    0 -0.12504317728E+02  0.26141015857E+02 -0.12389938159E+02  0.31515412729E+02  0.00000000000E+00 0.  1.
         22    1    1    2    0    0  0.64542776789E+02 -0.35588829480E+01  0.13330408117E+03  0.14814997043E+03  0.00000000000E+00 0. -1.
</event>
<event>
 6    1  0.2406404E-005  0.9053328E+02  0.7818608E-02  0.1320303E+00
          2   -1    0    0  502    0  0.00000000000E+00  0.00000000000E+00  0.58339052216E+03  0.58339052216E+03  0.00000000000E+00 0.  1.
          1   -1    0    0  501    0 -0.00000000000E+00 -0.00000000000E+00 -0.24422883448E+03  0.24422883448E+03  0.00000000000E+00 0. -1.
          2    1    1    2  501    0  0.86901147044E+02 -0.41951851306E+02  0.46564788640E+03  0.47554150323E+03  0.00000000000E+00 0.  1.
          1    1    1    2  502    0 -0.26096324951E+02  0.53378243862E+02 -0.18973244183E+03  0.19881814448E+03  0.00000000000E+00 0. -1.
         22    1    1    2    0    0 -0.53903145792E+02 -0.35359580939E+02  0.93814046748E+02  0.11382848702E+03  0.00000000000E+00 0.  1.
         22    1    1    2    0    0 -0.69016763012E+01  0.23933188383E+02 -0.30567803634E+02  0.39431221905E+02  0.00000000000E+00 0. -1.
</event>
<event>
 6    1  0.2406404E-005  0.4384560E+02  0.7818608E-02  0.1548867E+00
          2   -1    0    0  502    0  0.00000000000E+00  0.00000000000E+00  0.16261612560E+03  0.16261612560E+03  0.00000000000E+00 0.  1.
          1   -1    0    0  501    0 -0.00000000000E+00 -0.00000000000E+00 -0.50400746853E+03  0.50400746853E+03  0.00000000000E+00 0.  1.
          2    1    1    2  501    0 -0.88565971563E+00  0.32862075873E+02  0.10766989449E+03  0.11257666988E+03  0.00000000000E+00 0.  1.
          1    1    1    2  502    0  0.97226065279E+01 -0.30726823214E+02 -0.42279334760E+03  0.42401990698E+03  0.00000000000E+00 0.  1.
         22    1    1    2    0    0  0.45875738126E+01  0.94650178261E+01  0.50321738524E+02  0.51409238119E+02  0.00000000000E+00 0. -1.
         22    1    1    2    0    0 -0.13424520625E+02 -0.11600270485E+02 -0.76589628339E+02  0.78617779150E+02  0.00000000000E+00 0.  1.
</event>
<event>
 6    1  0.2406404E-005  0.8760586E+02  0.7818608E-02  0.1309610E+00
          2   -1    0    0  502    0  0.00000000000E+00  0.00000000000E+00  0.42046387656E+02  0.42046387656E+02  0.00000000000E+00 0. -1.
          1   -1    0    0  501    0 -0.00000000000E+00 -0.00000000000E+00 -0.51003023356E+03  0.51003023356E+03  0.00000000000E+00 0. -1.
          2    1    1    2  501    0 -0.13783102744E+02 -0.24925041873E+02 -0.11519893138E+03  0.11866771012E+03  0.00000000000E+00 0. -1.
          1    1    1    2  502    0 -0.33104983814E+02  0.35996686756E+02  0.80048025509E+01  0.49555809696E+02  0.00000000000E+00 0. -1.
         22    1    1    2    0    0 -0.72676910676E+01 -0.31281025504E+02 -0.19218875898E+02  0.37425754245E+02  0.00000000000E+00 0. -1.
         22    1    1    2    0    0  0.54155777626E+02  0.20209380621E+02 -0.34157084117E+03  0.34642734715E+03  0.00000000000E+00 0. -1.
</event>
<event>
 6    1  0.2406404E-005  0.1155009E+03  0.7818608E-02  0.1309425E+00
          2   -1    0    0  502    0  0.00000000000E+00  0.00000000000E+00  0.65809265137E+03  0.65809265137E+03  0.00000000000E+00 0.  1.
          1   -1    0    0  501    0 -0.00000000000E+00 -0.00000000000E+00 -0.51896583654E+02  0.51896583654E+02  0.00000000000E+00 0.  1.
          2    1    1    2  501    0  0.59175980180E+02  0.66126182224E+02  0.36936072133E+03  0.37987078206E+03  0.00000000000E+00 0.  1.
          1    1    1    2  502    0 -0.54865183654E+02 -0.85900962983E+02  0.84122182286E+02  0.13215788047E+03  0.00000000000E+00 0.  1.
         22    1    1    2    0    0  0.28726411021E+02  0.14787417595E+01  0.15730868356E+03  0.15991690121E+03  0.00000000000E+00 0.  1.
         22    1    1    2    0    0 -0.33037207547E+02  0.18296039000E+02 -0.45955194567E+01  0.38043671283E+02  0.00000000000E+00 0.  1.
</event>
<event>
 6    1  0.2406404E-005  0.2336155E+03  0.7818608E-02  0.1171962E+00
          2   -1    0    0  502    0  0.00000000000E+00  0.00000000000E+00  0.38448625943E+03  0.38448625943E+03  0.00000000000E+00 0. -1.
          1   -1    0    0  501    0 -0.00000000000E+00 -0.00000000000E+00 -0.12409623598E+03  0.12409623598E+03  0.00000000000E+00 0.  1.
          2    1    1    2  501    0 -0.32791495584E+02  0.59712343617E+02  0.31648690582E+03  0.32373570659E+03  0.00000000000E+00 0. -1.
          1    1    1    2  502    0  0.21385302093E+02  0.16041321628E+02 -0.26511335880E+02  0.37649781877E+02  0.00000000000E+00 0.  1.
         22    1    1    2    0    0  0.47925089950E+02 -0.42056004151E+01 -0.44454455065E+02  0.65503434236E+02  0.00000000000E+00 0.  1.
         22    1    1    2    0    0 -0.36518896459E+02 -0.71548064830E+02  0.14868908581E+02  0.81693572709E+02  0.00000000000E+00 0.  1.
</event>
<event>
 6    1  0.2406404E-005  0.5322097E+02  0.7818608E-02  0.1509321E+00
          2   -1    0    0  502    0  0.00000000000E+00  0.00000000000E+00  0.50248528278E+03  0.50248528278E+03  0.00000000000E+00 0.  1.
          1   -1    0    0  501    0 -0.00000000000E+00 -0.00000000000E+00 -0.18694150019E+03  0.18694150019E+03  0.00000000000E+00 0.  1.
          2    1    1    2  501    0 -0.22207022517E+02 -0.38547190409E+02  0.40706677849E+03  0.40949041489E+03  0.00000000000E+00 0.  1.
          1    1    1    2  502    0  0.16891653594E+01  0.41365390493E+02 -0.14051672766E+03  0.14648856461E+03  0.00000000000E+00 0.  1.
         22    1    1    2    0    0  0.82598607131E+01  0.85648939946E+01 -0.40598999561E+02  0.42306754467E+02  0.00000000000E+00 0. -1.
         22    1    1    2    0    0  0.12257996444E+02 -0.11383094079E+02  0.89592731312E+02  0.91141048993E+02  0.00000000000E+00 0.  1.
</event>
<event>
 6    1  0.2406404E-005  0.5990142E+02  0.7818608E-02  0.1425890E+00
          2   -1    0    0  502    0  0.00000000000E+00  0.00000000000E+00  0.19159321361E+03  0.19159321361E+03  0.00000000000E+00 0. -1.
          1   -1    0    0  501    0 -0.00000000000E+00 -0.00000000000E+00 -0.95314635410E+02  0.95314635410E+02  0.00000000000E+00 0. -1.
          2    1    1    2  501    0 -0.23719213153E+02  0.16010085808E+01  0.36516727354E+02  0.43573336775E+02  0.00000000000E+00 0. -1.
          1    1    1    2  502    0  0.22219217461E+02  0.14771562717E+02 -0.61836922089E+02  0.67347588102E+02  0.00000000000E+00 0. -1.
         22    1    1    2    0    0 -0.48469620081E+01 -0.26800586087E+02  0.14609788258E+03  0.14861478981E+03  0.00000000000E+00 0. -1.
         22    1    1    2    0    0  0.63469576997E+01  0.10428014789E+02 -0.24499109647E+02  0.27372134334E+02  0.00000000000E+00 0. -1.
</event>
<event>
 6    1  0.2406404E-005  0.1652394E+03  0.7818608E-02  0.1187889E+00
          2   -1    0    0  502    0  0.00000000000E+00  0.00000000000E+00  0.18931160159E+03  0.18931160159E+03  0.00000000000E+00 0.  1.
          1   -1    0    0  501    0 -0.00000000000E+00 -0.00000000000E+00 -0.15784042347E+03  0.15784042347E+03  0.00000000000E+00 0.  1.
          2    1    1    2  501    0 -0.11110647109E+03  0.61126525917E+02 -0.45512048691E+02  0.13473101597E+03  0.00000000000E+00 0.  1.
          1    1    1    2  502    0  0.17054427636E+02 -0.33247420415E+02  0.26380332789E+02  0.45740205775E+02  0.00000000000E+00 0.  1.
         22    1    1    2    0    0  0.88495463427E+02 -0.65857315962E+02  0.62129896096E+02  0.12660472780E+03  0.00000000000E+00 0.  1.
         22    1    1    2    0    0  0.55565800268E+01  0.37978210460E+02 -0.11527002083E+02  0.40076075511E+02  0.00000000000E+00 0. -1.
</event>
<event>
 6    1  0.2406404E-005  0.1172741E+03  0.7818608E-02  0.1268854E+00
          2   -1    0    0  502    0  0.00000000000E+00  0.00000000000E+00  0.50299152170E+02  0.50299152170E+02  0.00000000000E+00 0. -1.
          1   -1    0    0  501    0 -0.00000000000E+00 -0.00000000000E+00 -0.37667751622E+03  0.37667751622E+03  0.00000000000E+00 0. -1.
          2    1    1    2  501    0  0.34116856718E+02  0.13697001815E+02  0.12581319998E+02  0.38856883353E+02  0.00000000000E+00 0. -1.
          1    1    1    2  502    0 -0.52903916111E+02  0.15282643275E+02 -0.13702634598E+03  0.14767736123E+03  0.00000000000E+00 0. -1.
         22    1    1    2    0    0  0.18077983509E+02  0.32551551750E+02 -0.95250000729E+01  0.38433613354E+02  0.00000000000E+00 0. -1.
         22    1    1    2    0    0  0.70907588409E+00 -0.61531196839E+02 -0.19240833800E+03  0.20200881046E+03  0.00000000000E+00 0. -1.
</event>
<event>
 6    1  0.2406404E-005  0.1004924E+03  0.7818608E-02  0.1284095E+00
          2   -1    0    0  502    0  0.00000000000E+00  0.00000000000E+00  0.13070288720E+03  0.13070288720E+03  0.00000000000E+00 0.  1.
          1   -1    0    0  501    0 -0.00000000000E+00 -0.00000000000E+00 -0.95208226860E+02  0.95208226860E+02  0.00000000000E+00 0. -1.
          2    1    1    2  501    0 -0.42558749662E+02  0.19270303971E+02  0.49015793210E+02  0.67713660157E+02  0.00000000000E+00 0.  1.
          1    1    1    2  502    0  0.17297537859E+02 -0.20293869146E+02  0.16242450442E+01  0.26714866889E+02  0.00000000000E+00 0. -1.
         22    1    1    2    0    0  0.33968375887E+02 -0.49844085659E+02 -0.41811692650E+02  0.73392786280E+02  0.00000000000E+00 0. -1.
         22    1    1    2    0    0 -0.87071640846E+01  0.50867650834E+02  0.26666314736E+02  0.58089800735E+02  0.00000000000E+00 0.  1.
</event>
<event>
 6    1  0.2406404E-005  0.5799839E+02  0.7818608E-02  0.1409417E+00
          2   -1    0    0  502    0  0.00000000000E+00  0.00000000000E+00  0.14925227216E+03  0.14925227216E+03  0.00000000000E+00 0. -1.
          1   -1    0    0  501    0 -0.00000000000E+00 -0.00000000000E+00 -0.18587340403E+03  0.18587340403E+03  0.00000000000E+00 0. -1.
          2    1    1    2  501    0 -0.39209349940E+02 -0.13173589413E+02  0.79353587692E+02  0.89486917817E+02  0.00000000000E+00 0. -1.
          1    1    1    2  502    0  0.28047951316E+02  0.18238698258E+02 -0.11694036694E+03  0.12163217957E+03  0.00000000000E+00 0. -1.
         22    1    1    2    0    0 -0.10055161623E+02 -0.87476397515E+01  0.59846003137E+02  0.61312083377E+02  0.00000000000E+00 0.  1.
         22    1    1    2    0    0  0.21216560247E+02  0.36825309067E+01 -0.58880355763E+02  0.62694495431E+02  0.00000000000E+00 0. -1.
</event>
<event>
 6    1  0.2406404E-005  0.3372168E+02  0.7818608E-02  0.1653086E+00
          2   -1    0    0  502    0  0.00000000000E+00  0.00000000000E+00  0.54952817078E+02  0.54952817078E+02  0.00000000000E+00 0. -1.
          1   -1    0    0  501    0 -0.00000000000E+00 -0.00000000000E+00 -0.26210897657E+03  0.26210897657E+03  0.00000000000E+00 0. -1.
          2    1    1    2  501    0  0.25564657473E+01 -0.30625688329E+02  0.10176864964E+02  0.32373397771E+02  0.00000000000E+00 0. -1.
          1    1    1    2  502    0  0.22594965685E+02  0.23920441057E+02 -0.12543968107E+03  0.12968359018E+03  0.00000000000E+00 0. -1.
         22    1    1    2    0    0 -0.26442134850E+02  0.16795669968E+02 -0.12057230573E+03  0.12457512566E+03  0.00000000000E+00 0. -1.
         22    1    1    2    0    0  0.12907034182E+01 -0.10090422695E+02  0.28678962348E+02  0.30429680031E+02  0.00000000000E+00 0. -1.
</event>
<event>
 6    1  0.2406404E-005  0.5724778E+02  0.7818608E-02  0.1410216E+00
          2   -1    0    0  502    0  0.00000000000E+00  0.00000000000E+00  0.25112539057E+03  0.25112539057E+03  0.00000000000E+00 0.  1.
          1   -1    0    0  501    0 -0.00000000000E+00 -0.00000000000E+00 -0.19831982555E+03  0.19831982555E+03  0.00000000000E+00 0.  1.
          2    1    1    2  501    0 -0.76055527987E+01 -0.33158683231E+02  0.13474021366E+03  0.13896858596E+03  0.00000000000E+00 0.  1.
          1    1    1    2  502    0 -0.14494287774E+01  0.44484761556E+02 -0.15461035858E+03  0.16088927197E+03  0.00000000000E+00 0.  1.
         22    1    1    2    0    0  0.30177479818E+01 -0.22365732827E+02  0.10891353028E+03  0.11122719939E+03  0.00000000000E+00 0.  1.
         22    1    1    2    0    0  0.60372335943E+01  0.11039654501E+02 -0.36237820328E+02  0.38360158799E+02  0.00000000000E+00 0.  1.
</event>
<event>
 6    1  0.2406404E-005  0.1279655E+03  0.7818608E-02  0.1255439E+00
          2   -1    0    0  502    0  0.00000000000E+00  0.00000000000E+00  0.72993364855E+02  0.72993364855E+02  0.00000000000E+00 0.  1.
          1   -1    0    0  501    0 -0.00000000000E+00 -0.00000000000E+00 -0.43865346866E+03  0.43865346866E+03  0.00000000000E+00 0. -1.
          2    1    1    2  501    0 -0.57861659204E+02 -0.29036373779E+02  0.27184427447E+02  0.70214497817E+02  0.00000000000E+00 0.  1.
          1    1    1    2  502    0  0.84022578827E+01  0.59440744493E+02 -0.15530873209E+03  0.16650706383E+03  0.00000000000E+00 0. -1.
         22    1    1    2    0    0 -0.10607347061E+02 -0.34358277504E+01  0.12274966347E+02  0.16582988960E+02  0.00000000000E+00 0.  1.
         22    1    1    2    0    0  0.60066748383E+02 -0.26968542964E+02 -0.24981076551E+03  0.25834228291E+03  0.00000000000E+00 0. -1.
</event>
<event>
 6    1  0.2406404E-005  0.2030908E+03  0.7818608E-02  0.1167601E+00
          2   -1    0    0  502    0  0.00000000000E+00  0.00000000000E+00  0.18033400456E+02  0.18033400456E+02  0.00000000000E+00 0. -1.
          1   -1    0    0  501    0 -0.00000000000E+00 -0.00000000000E+00 -0.15020391971E+04  0.15020391971E+04  0.00000000000E+00 0. -1.
          2    1    1    2  501    0 -0.60431090257E+01 -0.37438079369E+02 -0.24380294206E+03  0.24673468242E+03  0.00000000000E+00 0. -1.
          1    1    1    2  502    0  0.82743915262E+02  0.57006873679E+02 -0.83223271971E+03  0.83827658855E+03  0.00000000000E+00 0. -1.
         22    1    1    2    0    0 -0.45005684581E+02 -0.70578104480E+02 -0.30060396840E+03  0.31204090484E+03  0.00000000000E+00 0. -1.
         22    1    1    2    0    0 -0.31695121655E+02  0.51009310170E+02 -0.10736616645E+03  0.12302042172E+03  0.00000000000E+00 0. -1.
</event>
<event>
 6    1  0.2406404E-005  0.9859064E+02  0.7818608E-02  0.1284827E+00
          2   -1    0    0  502    0  0.00000000000E+00  0.00000000000E+00  0.18929902781E+03  0.18929902781E+03  0.00000000000E+00 0.  1.
          1   -1    0    0  501    0 -0.00000000000E+00 -0.00000000000E+00 -0.28928853098E+03  0.28928853098E+03  0.00000000000E+00 0.  1.
          2    1    1    2  501    0  0.31734016480E+02 -0.72612860134E+02  0.12481601903E+03  0.14784692714E+03  0.00000000000E+00 0.  1.
          1    1    1    2  502    0 -0.20465228436E+02  0.73760114781E+02 -0.18758649933E+03  0.20260324489E+03  0.00000000000E+00 0.  1.
         22    1    1    2    0    0 -0.36438133190E+01  0.15681695642E+02 -0.79964940701E+02  0.81569508366E+02  0.00000000000E+00 0.  1.
         22    1    1    2    0    0 -0.76249747253E+01 -0.16828950289E+02  0.42745917831E+02  0.46567878399E+02  0.00000000000E+00 0.  1.
</event>
<event>
 6    1  0.2406404E-005  0.1862470E+03  0.7818608E-02  0.1182714E+00
          2   -1    0    0  502    0  0.00000000000E+00  0.00000000000E+00  0.66726535964E+03  0.66726535964E+03  0.00000000000E+00 0. -1.
          1   -1    0    0  501    0 -0.00000000000E+00 -0.00000000000E+00 -0.19041869180E+03  0.19041869180E+03  0.00000000000E+00 0. -1.
          2    1    1    2  501    0  0.64424865477E+01 -0.35533648802E+02 -0.12096712188E+03  0.12624258555E+03  0.00000000000E+00 0. -1.
          1    1    1    2  502    0  0.79840582888E+02  0.55522650257E+02  0.56407515393E+03  0.57239677030E+03  0.00000000000E+00 0. -1.
         22    1    1    2    0    0 -0.10049039178E+03 -0.27683864999E+02 -0.17165449419E+02  0.10563790927E+03  0.00000000000E+00 0.  1.
         22    1    1    2    0    0  0.14207322346E+02  0.76948635445E+01  0.50904085209E+02  0.53406786312E+02  0.00000000000E+00 0. -1.
</event>
<event>
 6    1  0.2406404E-005  0.6060289E+02  0.7818608E-02  0.1437343E+00
          2   -1    0    0  502    0  0.00000000000E+00  0.00000000000E+00  0.14809693101E+03  0.14809693101E+03  0.00000000000E+00 0.  1.
          1   -1    0    0  501    0 -0.00000000000E+00 -0.00000000000E+00 -0.21543702748E+03  0.21543702748E+03  0.00000000000E+00 0. -1.
          2    1    1    2  501    0 -0.24569104631E+02 -0.27809079650E+02  0.56497105101E+02  0.67593703095E+02  0.00000000000E+00 0.  1.
          1    1    1    2  502    0  0.18994109058E+02  0.45999427572E+02 -0.15784123838E+03  0.16550099713E+03  0.00000000000E+00 0. -1.
         22    1    1    2    0    0  0.88162296980E+01 -0.30385196238E+02  0.78263301798E+02  0.84416411111E+02  0.00000000000E+00 0.  1.
         22    1    1    2    0    0 -0.32412341245E+01  0.12194848316E+02 -0.44259264985E+02  0.46022847164E+02  0.00000000000E+00 0. -1.
</event>
<event>
 6    1  0.2406404E-005  0.5756817E+02  0.7818608E-02  0.1418365E+00
          2   -1    0    0  502    0  0.00000000000E+00  0.00000000000E+00  0.43627482005E+03  0.43627482005E+03  0.00000000000E+00 0. -1.
          1   -1    0    0  501    0 -0.00000000000E+00 -0.00000000000E+00 -0.40028193999E+02  0.40028193999E+02  0.00000000000E+00 0.  1.
          2    1    1    2  501    0  0.27129725936E+02  0.28318400475E+01  0.26713569949E+03  0.26852471634E+03  0.00000000000E+00 0. -1.
          1    1    1    2  502    0 -0.13785888740E+02 -0.17781960247E+02 -0.27555080887E+01  0.22668075864E+02  0.00000000000E+00 0.  1.
         22    1    1    2    0    0  0.83420401583E+01  0.26629978894E+02  0.15122742049E+03  0.15378061685E+03  0.00000000000E+00 0. -1.
         22    1    1    2    0    0 -0.21685877355E+02 -0.11679858695E+02 -0.19360985844E+02  0.31329604987E+02  0.00000000000E+00 0.  1.
</event>
<event>
 6    1  0.2406404E-005  0.1499271E+03  0.7818608E-02  0.1242498E+00
          2   -1    0    0  502    0  0.00000000000E+00  0.00000000000E+00  0.12156380942E+04  0.12156380942E+04  0.00000000000E+00 0.  1.
          1   -1    0    0  501    0 -0.00000000000E+00 -0.00000000000E+00 -0.26910086373E+02  0.26910086373E+02  0.00000000000E+00 0.  1.
          2    1    1    2  501    0  0.58781909684E+02 -0.84466777875E+02  0.32197872774E+03  0.33802403848E+03  0.00000000000E+00 0.  1.
          1    1    1    2  502    0 -0.98571726224E+02  0.78487424057E+02  0.34949335807E+03  0.37151348331E+03  0.00000000000E+00 0.  1.
         22    1    1    2    0    0  0.24736292616E+02 -0.54453416151E+02  0.33783016585E+03  0.34308348788E+03  0.00000000000E+00 0.  1.
         22    1    1    2    0    0  0.15053523924E+02  0.60432769969E+02  0.17942575613E+03  0.18992717086E+03  0.00000000000E+00 0. -1.
</event>
<event>
 6    1  0.2406404E-005  0.7114206E+02  0.7818608E-02  0.1357306E+00
          2   -1    0    0  502    0  0.00000000000E+00  0.00000000000E+00  0.12667749783E+03  0.12667749783E+03  0.00000000000E+00 0.  1.
          1   -1    0    0  501    0 -0.00000000000E+00 -0.00000000000E+00 -0.18653294191E+03  0.18653294191E+03  0.00000000000E+00 0. -1.
          2    1    1    2  501    0  0.29264678525E+02  0.36139777379E+02  0.67131821049E+02  0.81665086270E+02  0.00000000000E+00 0.  1.
          1    1    1    2  502    0 -0.10262253619E+02 -0.34021009219E+02 -0.98748801175E+02  0.10494793305E+03  0.00000000000E+00 0. -1.
         22    1    1    2    0    0 -0.24837305803E+02 -0.24442723640E+02 -0.70390098700E+02  0.78543647060E+02  0.00000000000E+00 0. -1.
         22    1    1    2    0    0  0.58348808976E+01  0.22323955480E+02  0.42151634746E+02  0.48053773370E+02  0.00000000000E+00 0.  1.
</event>
<event>
 6    1  0.2406404E-005  0.1199032E+03  0.7818608E-02  0.1288360E+00
          2   -1    0    0  502    0  0.00000000000E+00  0.00000000000E+00  0.65951100852E+02  0.65951100852E+02  0.00000000000E+00 0. -1.
          1   -1    0    0  501    0 -0.00000000000E+00 -0.00000000000E+00 -0.28708665674E+03  0.28708665674E+03  0.00000000000E+00 0. -1.
          2    1    1    2  501    0  0.12584839112E+02  0.35951430993E+02  0.20824809212E+02  0.43411475955E+02  0.00000000000E+00 0. -1.
          1    1    1    2  502    0 -0.14226093298E+02  0.27175999692E+02 -0.12016482352E+03  0.12401814989E+03  0.00000000000E+00 0. -1.
         22    1    1    2    0    0  0.16662021711E+02 -0.73436097258E+02 -0.14385881419E+02  0.76664443728E+02  0.00000000000E+00 0. -1.
         22    1    1    2    0    0 -0.15020767525E+02  0.10308666573E+02 -0.10740966016E+03  0.10894368802E+03  0.00000000000E+00 0. -1.
</event>
<event>
 6    1  0.2406404E-005  0.1643328E+03  0.7818608E-02  0.1191896E+00
          2   -1    0    0  502    0  0.00000000000E+00  0.00000000000E+00  0.99956939440E+03  0.99956939440E+03  0.00000000000E+00 0. -1.
          1   -1    0    0  501    0 -0.00000000000E+00 -0.00000000000E+00 -0.39039536235E+02  0.39039536235E+02  0.00000000000E+00 0.  1.
          2    1    1    2  501    0 -0.93549996271E+02 -0.58767127817E+02  0.67046515004E+03  0.67950621376E+03  0.00000000000E+00 0. -1.
          1    1    1    2  502    0  0.57858753646E+02  0.29300576925E+02  0.14858050372E+03  0.16211824471E+03  0.00000000000E+00 0.  1.
         22    1    1    2    0    0  0.49278976306E+02  0.51933347650E+02  0.22362995291E+02  0.75003957645E+02  0.00000000000E+00 0.  1.
         22    1    1    2    0    0 -0.13587733681E+02 -0.22466796758E+02  0.11912120911E+03  0.12198051452E+03  0.00000000000E+00 0. -1.
</event>
<event>
 6    1  0.2406404E-005  0.1056982E+03  0.7818608E-02  0.1270367E+00
          2   -1    0    0  502    0  0.00000000000E+00  0.00000000000E+00  0.85087143386E+02  0.85087143386E+02  0.00000000000E+00 0.  1.
          1   -1    0    0  501    0 -0.00000000000E+00 -0.00000000000E+00 -0.63843011326E+03  0.63843011326E+03  0.00000000000E+00 0. -1.
          2    1    1    2  501    0 -0.52195625704E+02  0.23336319257E+02  0.37221321802E+02  0.68223118778E+02  0.00000000000E+00 0.  1.
          1    1    1    2  502    0  0.62925874859E+02 -0.22899350059E+02 -0.48217273632E+03  0.48680036320E+03  0.00000000000E+00 0. -1.
         22    1    1    2    0    0 -0.42316290085E+02  0.10377448286E+02  0.10655205919E+02  0.44854133061E+02  0.00000000000E+00 0.  1.
         22    1    1    2    0    0  0.31586040930E+02 -0.10814417484E+02 -0.11904676127E+03  0.12363964161E+03  0.00000000000E+00 0. -1.
</event>
<event>
 6    1  0.2406404E-005  0.2126429E+03  0.7818608E-02  0.1240345E+00
          2   -1    0    0  502    0  0.00000000000E+00  0.00000000000E+00  0.43617165110E+03  0.43617165110E+03  0.00000000000E+00 0. -1.
          1   -1    0    0  501    0 -0.00000000000E+00 -0.00000000000E+00 -0.62542294204E+03  0.62542294204E+03  0.00000000000E+00 0. -1.
          2    1    1    2  501    0 -0.10262583873E+03 -0.16931122264E+03  0.37774869601E+03  0.42648848779E+03  0.00000000000E+00 0. -1.
          1    1    1    2  502    0  0.73136447768E+02  0.12599454084E+03 -0.36316220300E+03  0.39129317654E+03  0.00000000000E+00 0. -1.
         22    1    1    2    0    0 -0.22679700568E+02  0.23612954638E+01  0.61357429978E+01  0.23613383414E+02  0.00000000000E+00 0. -1.
         22    1    1    2    0    0  0.52169091527E+02  0.40955386333E+02 -0.20997352694E+03  0.22019954540E+03  0.00000000000E+00 0.  1.
</event>
<event>
 6    1  0.2406404E-005  0.2622844E+03  0.7818608E-02  0.1115303E+00
          2   -1    0    0  502    0  0.00000000000E+00  0.00000000000E+00  0.27605929006E+04  0.27605929006E+04  0.00000000000E+00 0. -1.
          1   -1    0    0  501    0 -0.00000000000E+00 -0.00000000000E+00 -0.20319412540E+02  0.20319412540E+02  0.00000000000E+00 0.  1.
          2    1    1    2  501    0  0.28047108761E+02  0.17612005710E+03  0.14323771021E+04  0.14434365512E+04  0.00000000000E+00 0. -1.
          1    1    1    2  502    0  0.38280440277E+02 -0.10551641928E+03  0.67349567750E+03  0.68278513052E+03  0.00000000000E+00 0.  1.
         22    1    1    2    0    0 -0.71360879741E+02  0.17220203364E+02  0.31013407222E+03  0.31870370772E+03  0.00000000000E+00 0.  1.
         22    1    1    2    0    0  0.50333307027E+01 -0.87823841191E+02  0.32426663627E+03  0.33598692370E+03  0.00000000000E+00 0.  1.
</event>
<event>
 6    1  0.2406404E-005  0.1127143E+03  0.7818608E-02  0.1300273E+00
          2   -1    0    0  502    0  0.00000000000E+00  0.00000000000E+00  0.89290544982E+03  0.89290544982E+03  0.00000000000E+00 0. -1.
          1   -1    0    0  501    0 -0.00000000000E+00 -0.00000000000E+00 -0.61452956928E+02  0.61452956928E+02  0.00000000000E+00 0. -1.
          2    1    1    2  501    0 -0.40210401985E+02  0.23911037785E+02 -0.91813350737E+01  0.47675057100E+02  0.00000000000E+00 0. -1.
          1    1    1    2  502    0  0.76780373120E+02 -0.56928340420E+02  0.71094679290E+03  0.71734329576E+03  0.00000000000E+00 0. -1.
         22    1    1    2    0    0  0.46078740171E+02  0.13597682716E+02  0.72510912846E+02  0.86982640525E+02  0.00000000000E+00 0. -1.
         22    1    1    2    0    0 -0.82648711306E+02  0.19419619920E+02  0.57176122226E+02  0.10235741337E+03  0.00000000000E+00 0. -1.
</event>
<event>
 6    1  0.2406404E-005  0.1335086E+03  0.7818608E-02  0.1265269E+00
          2   -1    0    0  502    0  0.00000000000E+00  0.00000000000E+00  0.47128749853E+02  0.47128749853E+02  0.00000000000E+00 0. -1.
          1   -1    0    0  501    0 -0.00000000000E+00 -0.00000000000E+00 -0.24901559312E+03  0.24901559312E+03  0.00000000000E+00 0. -1.
          2    1    1    2  501    0 -0.18103422656E+02  0.10853960355E+02 -0.98443507347E+02  0.10068101363E+03  0.00000000000E+00 0. -1.
          1    1    1    2  502    0  0.27087178678E+02 -0.28603212107E+01 -0.47710929354E+02  0.54938415212E+02  0.00000000000E+00 0. -1.
         22    1    1    2    0    0  0.25996572354E+02 -0.50621905749E+01 -0.88577264256E+02  0.92452037785E+02  0.00000000000E+00 0.  1.
         22    1    1    2    0    0 -0.34980328376E+02 -0.29314485695E+01  0.32844857686E+02  0.48072876348E+02  0.00000000000E+00 0. -1.
</event>
<event>
 6    1  0.2406404E-005  0.1399359E+03  0.7818608E-02  0.1215105E+00
          2   -1    0    0  502    0  0.00000000000E+00  0.00000000000E+00  0.11242658117E+03  0.11242658117E+03  0.00000000000E+00 0.  1.
          1   -1    0    0  501    0 -0.00000000000E+00 -0.00000000000E+00 -0.56359725601E+03  0.56359725601E+03  0.00000000000E+00 0.  1.
          2    1    1    2  501    0 -0.86680844851E+02 -0.56456036224E+02  0.56240002124E+02  0.11774459958E+03  0.00000000000E+00 0.  1.
          1    1    1    2  502    0  0.78566477955E+02  0.29100867807E+02 -0.30700009800E+03  0.31822729634E+03  0.00000000000E+00 0.  1.
         22    1    1    2    0    0 -0.20768815907E+02 -0.20796717558E+02  0.25173561253E+01  0.29498885694E+02  0.00000000000E+00 0. -1.
         22    1    1    2    0    0  0.28883182803E+02  0.48151885974E+02 -0.20292793509E+03  0.21055305557E+03  0.00000000000E+00 0.  1.
</event>
<event>
 6    1  0.2406404E-005  0.2470019E+02  0.7818608E-02  0.1712037E+00
          2   -1    0    0  502    0  0.00000000000E+00  0.00000000000E+00  0.33335902740E+03  0.33335902740E+03  0.00000000000E+00 0. -1.
          1   -1    0    0  501    0 -0.00000000000E+00 -0.00000000000E+00 -0.58876034993E+02  0.58876034993E+02  0.00000000000E+00 0.  1.
          2    1    1    2  501    0 -0.24379941971E+02 -0.12507759012E+02  0.21114988991E+03  0.21292041145E+03  0.00000000000E+00 0. -1.
          1    1    1    2  502    0  0.22391286670E+02 -0.10634516179E+02 -0.17259374986E+02  0.30205110130E+02  0.00000000000E+00 0.  1.
         22    1    1    2    0    0 -0.81562074914E+01  0.17414166634E+02  0.11302440188E+03  0.11464856013E+03  0.00000000000E+00 0.  1.
         22    1    1    2    0    0  0.10144862793E+02  0.57281085575E+01 -0.32431924398E+02  0.34460980672E+02  0.00000000000E+00 0.  1.
</event>
<event>
 6    1  0.2406404E-005  0.3006493E+02  0.7818608E-02  0.1661311E+00
          2   -1    0    0  502    0  0.00000000000E+00  0.00000000000E+00  0.81736751193E+02  0.81736751193E+02  0.00000000000E+00 0.  1.
          1   -1    0    0  501    0 -0.00000000000E+00 -0.00000000000E+00 -0.12271121952E+03  0.12271121952E+03  0.00000000000E+00 0.  1.
          2    1    1    2  501    0 -0.68279895574E+01 -0.20682557198E+02 -0.13081264523E+02  0.25406871022E+02  0.00000000000E+00 0.  1.
          1    1    1    2  502    0  0.16420485743E+02  0.30290380568E+02 -0.42454411255E+02  0.54676471558E+02  0.00000000000E+00 0.  1.
         22    1    1    2    0    0  0.96601319177E+01  0.10577301318E+02  0.65089957640E+02  0.66647580882E+02  0.00000000000E+00 0.  1.
         22    1    1    2    0    0 -0.19252628104E+02 -0.20185124688E+02 -0.50528750189E+02  0.57717047250E+02  0.00000000000E+00 0. -1.
</event>
<event>
 6    1  0.2406404E-005  0.2725907E+02  0.7818608E-02  0.1631886E+00
          2   -1    0    0  502    0  0.00000000000E+00  0.00000000000E+00  0.15698999577E+03  0.15698999577E+03  0.00000000000E+00 0.  1.
          1   -1    0    0  501    0 -0.00000000000E+00 -0.00000000000E+00 -0.10923524768E+03  0.10923524768E+03  0.00000000000E+00 0.  1.
          2    1    1    2  501    0  0.25982154833E+02 -0.30487135777E+02  0.61097551843E+02  0.73057844609E+02  0.00000000000E+00 0.  1.
          1    1    1    2  502    0 -0.49831687381E+02  0.24481860447E+02 -0.32858429253E+02  0.64515385228E+02  0.00000000000E+00 0.  1.
         22    1    1    2    0    0  0.13741555600E+02 -0.45906860887E+01  0.72370270417E+02  0.73806238146E+02  0.00000000000E+00 0.  1.
         22    1    1    2    0    0  0.10107976948E+02  0.10595961418E+02 -0.52854644920E+02  0.54845775461E+02  0.00000000000E+00 0. -1.
</event>
<event>
 6    1  0.2406404E-005  0.8955617E+02  0.7818608E-02  0.1312131E+00
          2   -1    0    0  502    0  0.00000000000E+00  0.00000000000E+00  0.70590159461E+02  0.70590159461E+02  0.00000000000E+00 0. -1.
          1   -1    0    0  501    0 -0.00000000000E+00 -0.00000000000E+00 -0.25804330252E+03  0.25804330252E+03  0.00000000000E+00 0.  1.
          2    1    1    2  501    0 -0.33044763103E+02 -0.47652198219E+02  0.20558141614E+02  0.61524999392E+02  0.00000000000E+00 0. -1.
          1    1    1    2  502    0 -0.13683473373E+00  0.32948974917E+02 -0.54704358530E+02  0.63860946705E+02  0.00000000000E+00 0.  1.
         22    1    1    2    0    0 -0.12588713205E+02 -0.11626741080E+02  0.17483222769E+02  0.24481010736E+02  0.00000000000E+00 0.  1.
         22    1    1    2    0    0  0.45770311041E+02  0.26329964381E+02 -0.17079014891E+03  0.17876650514E+03  0.00000000000E+00 0.  1.
</event>
<event>
 6    1  0.2406404E-005  0.8487965E+02  0.7818608E-02  0.1320141E+00
          2   -1    0    0  502    0  0.00000000000E+00  0.00000000000E+00  0.46672094870E+03  0.46672094870E+03  0.00000000000E+00 0. -1.
          1   -1    0    0  501    0 -0.00000000000E+00 -0.00000000000E+00 -0.40151643086E+02  0.40151643086E+02  0.00000000000E+00 0. -1.
          2    1    1    2  501    0 -0.40804572742E+01 -0.32046048920E+02  0.27654848501E+03  0.27842892081E+03  0.00000000000E+00 0. -1.
          1    1    1    2  502    0 -0.25932412068E+02  0.25457816723E+02  0.84906380926E+01  0.37318646320E+02  0.00000000000E+00 0. -1.
         22    1    1    2    0    0  0.19332602813E+02  0.44302247002E+02  0.44388088062E+01  0.48540103466E+02  0.00000000000E+00 0. -1.
         22    1    1    2    0    0  0.10680266530E+02 -0.37714014805E+02  0.13709137370E+03  0.14258492119E+03  0.00000000000E+00 0. -1.
</event>
<event>
 6    1  0.2406404E-005  0.1051270E+03  0.7818608E-02  0.1297150E+00
          2   -1    0    0  502    0  0.00000000000E+00  0.00000000000E+00  0.29271012774E+03  0.29271012774E+03  0.00000000000E+00 0.  1.
          1   -1    0    0  501    0 -0.00000000000E+00 -0.00000000000E+00 -0.33022658300E+02  0.33022658300E+02  0.00000000000E+00 0.  1.
          2    1    1    2  501    0 -0.21084845015E+02 -0.16596081125E+02  0.18059704962E+02  0.32344296891E+02  0.00000000000E+00 0.  1.
          1    1    1    2  502    0  0.58625261003E+01 -0.25480053207E+02  0.91583860413E+01  0.27703399766E+02  0.00000000000E+00 0.  1.
         22    1    1    2    0    0 -0.18215225992E+02  0.56905495897E+02  0.21851288887E+03  0.22653457247E+03  0.00000000000E+00 0.  1.
         22    1    1    2    0    0  0.33437544907E+02 -0.14829361565E+02  0.13956489569E+02  0.39150516918E+02  0.00000000000E+00 0.  1.
</event>
<event>
 6    1  0.2406404E-005  0.1283612E+03  0.7818608E-02  0.1316087E+00
          2   -1    0    0  502    0  0.00000000000E+00  0.00000000000E+00  0.59720149281E+03  0.59720149281E+03  0.00000000000E+00 0. -1.
          1   -1    0    0  501    0 -0.00000000000E+00 -0.00000000000E+00 -0.83095127237E+02  0.83095127237E+02  0.00000000000E+00 0. -1.
          2    1    1    2  501    0 -0.67479476015E+02 -0.26705918542E+02  0.29626063873E+03  0.30501975646E+03  0.00000000000E+00 0. -1.
          1    1    1    2  502    0  0.11057946877E+03 -0.12452882412E+02 -0.58198979095E+01  0.11143053623E+03  0.00000000000E+00 0. -1.
         22    1    1    2    0    0 -0.54440902040E+02  0.17562532010E+02  0.23131416009E+03  0.23828238500E+03  0.00000000000E+00 0. -1.
         22    1    1    2    0    0  0.11340909289E+02  0.21596268944E+02 -0.76485353393E+01  0.25563942353E+02  0.00000000000E+00 0. -1.
</event>
<event>
 6    1  0.2406404E-005  0.9065008E+02  0.7818608E-02  0.1375222E+00
          2   -1    0    0  502    0  0.00000000000E+00  0.00000000000E+00  0.27017071814E+03  0.27017071814E+03  0.00000000000E+00 0. -1.
          1   -1    0    0  501    0 -0.00000000000E+00 -0.00000000000E+00 -0.26435087131E+03  0.26435087131E+03  0.00000000000E+00 0. -1.
          2    1    1    2  501    0 -0.10339799319E+03 -0.19682278317E+02  0.14486658814E+03  0.17906665081E+03  0.00000000000E+00 0. -1.
          1    1    1    2  502    0  0.16551280037E+02 -0.40339204523E+02 -0.18056506506E+03  0.18575505111E+03  0.00000000000E+00 0. -1.
         22    1    1    2    0    0  0.24377170135E+02  0.58454406709E+01 -0.44064477626E+02  0.50696092442E+02  0.00000000000E+00 0. -1.
         22    1    1    2    0    0  0.62469543016E+02  0.54176042169E+02  0.85582801383E+02  0.11900379508E+03  0.00000000000E+00 0. -1.
</event>
<event>
 6    1  0.2406404E-005  0.9431479E+02  0.7818608E-02  0.1375765E+00
          2   -1    0    0  502    0  0.00000000000E+00  0.00000000000E+00  0.63606615589E+03  0.63606615589E+03  0.00000000000E+00 0.  1.
          1   -1    0    0  501    0 -0.00000000000E+00 -0.00000000000E+00 -0.75515298795E+02  0.75515298795E+02  0.00000000000E+00 0. -1.
          2    1    1    2  501    0 -0.72507934714E+02 -0.60895940516E+01  0.48221024623E+03  0.48766915560E+03  0.00000000000E+00 0.  1.
          1    1    1    2  502    0  0.72380706671E+02 -0.74835711259E+01 -0.25697122045E+01  0.72811908063E+02  0.00000000000E+00 0. -1.
         22    1    1    2    0    0  0.21360053838E+02  0.55146994327E+01 -0.30364190102E+02  0.37531957720E+02  0.00000000000E+00 0.  1.
         22    1    1    2    0    0 -0.21232825795E+02  0.80584657448E+01  0.11127451316E+03  0.11356843330E+03  0.00000000000E+00 0.  1.
</event>
<event>
 6    1  0.2459380E-005  0.4056316E+02  0.7818608E-02  0.1563829E+00
          2   -1    0    0  502    0  0.00000000000E+00  0.00000000000E+00  0.11790869799E+03  0.11790869799E+03  0.00000000000E+00 0. -1.
          1   -1    0    0  501    0 -0.00000000000E+00 -0.00000000000E+00 -0.64675708332E+03  0.64675708332E+03  0.00000000000E+00 0.  1.
          2    1    1    2  501    0 -0.33384491105E+02 -0.25652651723E+02 -0.12985127113E+02  0.44059009441E+02  0.00000000000E+00 0. -1.
          1    1    1    2  502    0  0.55944774928E+02  0.14738596110E+02 -0.57766177015E+03  0.58055160387E+03  0.00000000000E+00 0.  1.
         22    1    1    2    0    0 -0.20016030380E+02  0.25458966081E+02  0.96796198462E+02  0.10207009583E+03  0.00000000000E+00 0. -1.
         22    1    1    2    0    0 -0.25442534434E+01 -0.14544910468E+02 -0.34997686525E+02  0.37985072176E+02  0.00000000000E+00 0.  1.
</event>
<event>
 6    1  0.2406404E-005  0.9411249E+02  0.7818608E-02  0.1313793E+00
          2   -1    0    0  502    0  0.00000000000E+00  0.00000000000E+00  0.12738832540E+03  0.12738832540E+03  0.00000000000E+00 0. -1.
          1   -1    0    0  501    0 -0.00000000000E+00 -0.00000000000E+00 -0.14648177574E+03  0.14648177574E+03  0.00000000000E+00 0. -1.
          2    1    1    2  501    0 -0.26961124294E+02  0.62435812962E+02  0.34824792930E+01  0.68097434794E+02  0.00000000000E+00 0. -1.
          1    1    1    2  502    0 -0.63616668319E+01 -0.71371985017E+02 -0.19700594432E+02  0.74313824226E+02  0.00000000000E+00 0. -1.
         22    1    1    2    0    0 -0.18252208879E+02 -0.29797793223E+02 -0.43067728204E+02  0.55460624072E+02  0.00000000000E+00 0. -1.
         22    1    1    2    0    0  0.51575000005E+02  0.38733965277E+02  0.40192393003E+02  0.75998218051E+02  0.00000000000E+00 0. -1.
</event>
<event>
 6    1  0.2406404E-005  0.1249877E+03  0.7818608E-02  0.1238659E+00
          2   -1    0    0  502    0  0.00000000000E+00  0.00000000000E+00  0.30287213251E+03  0.30287213251E+03  0.00000000000E+00 0. -1.
          1   -1    0    0  501    0 -0.00000000000E+00 -0.00000000000E+00 -0.56085823772E+02  0.56085823772E+02  0.00000000000E+00 0. -1.
          2    1    1    2  501    0 -0.15526342679E+02 -0.83408968014E+02  0.62965012466E+02  0.10565375553E+03  0.00000000000E+00 0. -1.
          1    1    1    2  502    0 -0.10296728027E+02  0.34134020389E+02  0.44467737570E+02  0.56995908982E+02  0.00000000000E+00 0. -1.
         22    1    1    2    0    0  0.14029299557E+02 -0.29237894348E+02 -0.37607254889E+01  0.32646879915E+02  0.00000000000E+00 0. -1.
         22    1    1    2    0    0  0.11793771149E+02  0.78512841973E+02  0.14311428420E+03  0.16366141186E+03  0.00000000000E+00 0. -1.
</event>
<event>
 6    1  0.2406404E-005  0.7927725E+02  0.7818608E-02  0.1332440E+00
          2   -1    0    0  502    0  0.00000000000E+00  0.00000000000E+00  0.14970533548E+03  0.14970533548E+03  0.00000000000E+00 0. -1.
          1   -1    0    0  501    0 -0.00000000000E+00 -0.00000000000E+00 -0.55821447545E+03  0.55821447545E+03  0.00000000000E+00 0.  1.
          2    1    1    2  501    0 -0.31117328044E+02  0.35614820736E+02  0.99999921216E+02  0.11061956339E+03  0.00000000000E+00 0. -1.
          1    1    1    2  502    0  0.44062733425E+02 -0.38908285342E+02 -0.45428614774E+03  0.45807344736E+03  0.00000000000E+00 0.  1.
         22    1    1    2    0    0  0.12719932010E+02 -0.12131778342E+02 -0.90497988096E+02  0.92189275762E+02  0.00000000000E+00 0.  1.
         22    1    1    2    0    0 -0.25665337392E+02  0.15425242948E+02  0.36275074653E+02  0.47037524430E+02  0.00000000000E+00 0.  1.
</event>
<event>
 6    1  0.2406404E-005  0.1615293E+03  0.7818608E-02  0.1260991E+00
          2   -1    0    0  502    0  0.00000000000E+00  0.00000000000E+00  0.10468527642E+03  0.10468527642E+03  0.00000000000E+00 0.  1.
          1   -1    0    0  501    0 -0.00000000000E+00 -0.00000000000E+00 -0.40984891951E+03  0.40984891951E+03  0.00000000000E+00 0.  1.
          2    1    1    2  501    0 -0.81635621535E+02  0.11586617888E+03 -0.25243449558E+03  0.28950392169E+03  0.00000000000E+00 0.  1.
          1    1    1    2  502    0  0.54801133513E+02 -0.35461736475E+02 -0.14062753879E+02  0.66771700853E+02  0.00000000000E+00 0.  1.
         22    1    1    2    0    0 -0.18186283212E+01  0.34405266930E+02 -0.25917209011E+01  0.34550641365E+02  0.00000000000E+00 0. -1.
         22    1    1    2    0    0  0.28653116343E+02 -0.11480970933E+03 -0.36074672726E+02  0.12370793203E+03  0.00000000000E+00 0.  1.
</event>
<event>
 6    1  0.2406404E-005  0.7036658E+02  0.7818608E-02  0.1406771E+00
          2   -1    0    0  502    0  0.00000000000E+00  0.00000000000E+00  0.11171137210E+03  0.11171137210E+03  0.00000000000E+00 0. -1.
          1   -1    0    0  501    0 -0.00000000000E+00 -0.00000000000E+00 -0.16878097378E+03  0.16878097378E+03  0.00000000000E+00 0. -1.
          2    1    1    2  501    0  0.16197571909E+02  0.14471229224E+02  0.72966404684E+02  0.76130637877E+02  0.00000000000E+00 0. -1.
          1    1    1    2  502    0  0.19678267429E+02 -0.16554583124E+02 -0.34144398581E+02  0.42744922341E+02  0.00000000000E+00 0. -1.
         22    1    1    2    0    0 -0.39334022415E+02 -0.77845939566E+01 -0.12469019982E+03  0.13097866679E+03  0.00000000000E+00 0. -1.
         22    1    1    2    0    0  0.34581830775E+01  0.98679478573E+01  0.28798592032E+02  0.30638118874E+02  0.00000000000E+00 0. -1.
</event>
<event>
 6    1  0.2406404E-005  0.9986194E+02  0.7818608E-02  0.1288314E+00
          2   -1    0    0  502    0  0.00000000000E+00  0.00000000000E+00  0.27149818837E+02  0.27149818837E+02  0.00000000000E+00 0.  1.
          1   -1    0    0  501    0 -0.00000000000E+00 -0.00000000000E+00 -0.59429463439E+03  0.59429463439E+03  0.00000000000E+00 0.  1.
          2    1    1    2  501    0 -0.48050117091E+02 -0.22917508577E+02 -0.52862173582E+02  0.75022898822E+02  0.00000000000E+00 0.  1.
          1    1    1    2  502    0  0.18675155247E+02  0.37183249042E+02 -0.25965707273E+03  0.26296986681E+03  0.00000000000E+00 0.  1.
         22    1    1    2    0    0  0.56661035786E+02 -0.26289791413E+01 -0.24614983122E+03  0.25260072034E+03  0.00000000000E+00 0.  1.
         22    1    1    2    0    0 -0.27286073943E+02 -0.11636761323E+02 -0.84757380209E+01  0.30850967251E+02  0.00000000000E+00 0.  1.
</event>
<event>
 6    1  0.2406404E-005  0.6226841E+02  0.7818608E-02  0.1442858E+00
          2   -1    0    0  502    0  0.00000000000E+00  0.00000000000E+00  0.18829281754E+03  0.18829281754E+03  0.00000000000E+00 0.  1.
          1   -1    0    0  501    0 -0.00000000000E+00 -0.00000000000E+00 -0.10119390319E+03  0.10119390319E+03  0.00000000000E+00 0. -1.
          2    1    1    2  501    0 -0.25076560195E+02  0.32213622124E+02  0.18602162677E+02  0.44861919016E+02  0.00000000000E+00 0.  1.
          1    1    1    2  502    0  0.41973492709E+02 -0.28414219587E+02 -0.47767232928E+02  0.69648047399E+02  0.00000000000E+00 0. -1.
         22    1    1    2    0    0 -0.22980581354E+02  0.13904413395E+02  0.14123591211E+03  0.14376725183E+03  0.00000000000E+00 0.  1.
         22    1    1    2    0    0  0.60836488402E+01 -0.17703815932E+02 -0.24971927503E+02  0.31209502478E+02  0.00000000000E+00 0.  1.
</event>
<event>
 6    1  0.2406404E-005  0.5846552E+02  0.7818608E-02  0.1426824E+00
          2   -1    0    0  502    0  0.00000000000E+00  0.00000000000E+00  0.38239883649E+02  0.38239883649E+02  0.00000000000E+00 0. -1.
          1   -1    0    0  501    0 -0.00000000000E+00 -0.00000000000E+00 -0.81097245988E+03  0.81097245988E+03  0.00000000000E+00 0.  1.
          2    1    1    2  501    0  0.11058471758E+02  0.33058946525E+02 -0.63934250578E+00  0.34865348153E+02  0.00000000000E+00 0. -1.
          1    1    1    2  502    0  0.17458917531E+02 -0.42217772991E+02 -0.57701961224E+03  0.57882535109E+03  0.00000000000E+00 0.  1.
         22    1    1    2    0    0 -0.39838844265E+02 -0.10924441470E+02 -0.20593451418E+03  0.21003690406E+03  0.00000000000E+00 0. -1.
         22    1    1    2    0    0  0.11321454977E+02  0.20083267936E+02  0.10860892704E+02  0.25484740221E+02  0.00000000000E+00 0. -1.
</event>
<event>
 6    1  0.2406404E-005  0.8332617E+02  0.7818608E-02  0.1321934E+00
          2   -1    0    0  502    0  0.00000000000E+00  0.00000000000E+00  0.82244297357E+02  0.82244297357E+02  0.00000000000E+00 0.  1.
          1   -1    0    0  501    0 -0.00000000000E+00 -0.00000000000E+00 -0.25031978929E+03  0.25031978929E+03  0.00000000000E+00 0.  1.
          2    1    1    2  501    0  0.49320758402E+02  0.26512761125E+02  0.21677057968E+02  0.60044638012E+02  0.00000000000E+00 0.  1.
          1    1    1    2  502    0 -0.46618007071E+02 -0.19157955322E+02 -0.11675859988E+03  0.12717246746E+03  0.00000000000E+00 0.  1.
         22    1    1    2    0    0  0.22602528882E+02  0.51029561896E+01  0.30372080268E+02  0.38201802752E+02  0.00000000000E+00 0. -1.
         22    1    1    2    0    0 -0.25305280213E+02 -0.12457761992E+02 -0.10336603029E+03  0.10714517842E+03  0.00000000000E+00 0.  1.
</event>
<event>
 6    1  0.2406404E-005  0.8174664E+02  0.7818608E-02  0.1325681E+00
          2   -1    0    0  502    0  0.00000000000E+00  0.00000000000E+00  0.20765315700E+03  0.20765315700E+03  0.00000000000E+00 0.  1.
          1   -1    0    0  501    0 -0.00000000000E+00 -0.00000000000E+00 -0.14511475086E+03  0.14511475086E+03  0.00000000000E+00 0. -1.
          2    1    1    2  501    0  0.23063347901E+02 -0.13653743132E+02  0.61647947537E+02  0.67222110599E+02  0.00000000000E+00 0.  1.
          1    1    1    2  502    0 -0.51949935953E+02  0.43609230375E+02 -0.10035425475E+03  0.12112612132E+03  0.00000000000E+00 0. -1.
         22    1    1    2    0    0  0.29548710331E+02 -0.43720930463E+02  0.12571185517E+03  0.13633824325E+03  0.00000000000E+00 0. -1.
         22    1    1    2    0    0 -0.66212227932E+00  0.13765443220E+02 -0.24467141822E+02  0.28081432689E+02  0.00000000000E+00 0. -1.
</event>
<event>
 6    1  0.2406404E-005  0.6453657E+02  0.7818608E-02  0.1423395E+00
          2   -1    0    0  502    0  0.00000000000E+00  0.00000000000E+00  0.18760631837E+03  0.18760631837E+03  0.00000000000E+00 0. -1.
          1   -1    0    0  501    0 -0.00000000000E+00 -0.00000000000E+00 -0.15094854348E+03  0.15094854348E+03  0.00000000000E+00 0.  1.
          2    1    1    2  501    0 -0.39556696569E+02  0.39797910100E+02  0.12253171377E+03  0.13476879005E+03  0.00000000000E+00 0. -1.
          1    1    1    2  502    0  0.31363185692E+02 -0.15364178434E+02 -0.66950965227E+02  0.75512509828E+02  0.00000000000E+00 0.  1.
         22    1    1    2    0    0  0.30342466400E+02 -0.83528415511E+00 -0.65132018009E+02  0.71857795240E+02  0.00000000000E+00 0.  1.
         22    1    1    2    0    0 -0.22148955522E+02 -0.23598447511E+02  0.46209044351E+02  0.56415766728E+02  0.00000000000E+00 0.  1.
</event>
<event>
 6    1  0.2406404E-005  0.2742839E+03  0.7818608E-02  0.1206319E+00
          2   -1    0    0  502    0  0.00000000000E+00  0.00000000000E+00  0.22313052884E+04  0.22313052884E+04  0.00000000000E+00 0.  1.
          1   -1    0    0  501    0 -0.00000000000E+00 -0.00000000000E+00 -0.10630415624E+03  0.10630415624E+03  0.00000000000E+00 0. -1.
          2    1    1    2  501    0 -0.24510040359E+03  0.17811525498E+03  0.12956698194E+04  0.13306237383E+04  0.00000000000E+00 0.  1.
          1    1    1    2  502    0 -0.46504704653E+01 -0.12087387741E+03 -0.94447543245E+01  0.12133146541E+03  0.00000000000E+00 0. -1.
         22    1    1    2    0    0 -0.62299092080E+01 -0.20707493251E+02  0.33419153680E+02  0.39805174012E+02  0.00000000000E+00 0. -1.
         22    1    1    2    0    0  0.25598078326E+03 -0.36533884318E+02  0.80535691340E+03  0.84584906695E+03  0.00000000000E+00 0.  1.
</event>
<event>
 6    1  0.2406404E-005  0.1475641E+03  0.7818608E-02  0.1205820E+00
          2   -1    0    0  502    0  0.00000000000E+00  0.00000000000E+00  0.27287642461E+03  0.27287642461E+03  0.00000000000E+00 0. -1.
          1   -1    0    0  501    0 -0.00000000000E+00 -0.00000000000E+00 -0.27059795179E+03  0.27059795179E+03  0.00000000000E+00 0. -1.
          2    1    1    2  501    0 -0.97798467488E+02  0.26822183890E+02  0.20031433413E+03  0.22452127349E+03  0.00000000000E+00 0. -1.
          1    1    1    2  502    0  0.10854712817E+03  0.53813663698E+01 -0.14941904743E+03  0.18476333477E+03  0.00000000000E+00 0. -1.
         22    1    1    2    0    0  0.23165415924E+02 -0.28487093408E+02 -0.79880230489E+02  0.87914743978E+02  0.00000000000E+00 0.  1.
         22    1    1    2    0    0 -0.33914076606E+02 -0.37164568523E+01  0.31263416618E+02  0.46275024173E+02  0.00000000000E+00 0. -1.
</event>
<event>
 6    1  0.2406404E-005  0.5849822E+02  0.7818608E-02  0.1431262E+00
          2   -1    0    0  502    0  0.00000000000E+00  0.00000000000E+00  0.12675946891E+03  0.12675946891E+03  0.00000000000E+00 0.  1.
          1   -1    0    0  501    0 -0.00000000000E+00 -0.00000000000E+00 -0.98523081758E+02  0.98523081758E+02  0.00000000000E+00 0.  1.
          2    1    1    2  501    0  0.24997617355E+02 -0.85067023216E+01  0.38374422473E+02  0.46581553838E+02  0.00000000000E+00 0.  1.
          1    1    1    2  502    0 -0.48207997635E+01  0.22372355930E+02 -0.41631271529E+02  0.47507106724E+02  0.00000000000E+00 0.  1.
         22    1    1    2    0    0 -0.13917485520E+02 -0.26960449737E+02  0.77353855289E+02  0.83091402572E+02  0.00000000000E+00 0.  1.
         22    1    1    2    0    0 -0.62593320715E+01  0.13094796129E+02 -0.45860619085E+02  0.48102487529E+02  0.00000000000E+00 0.  1.
</event>
<event>
 6    1  0.2406404E-005  0.1495630E+03  0.7818608E-02  0.1206424E+00
          2   -1    0    0  502    0  0.00000000000E+00  0.00000000000E+00  0.41824682608E+02  0.41824682608E+02  0.00000000000E+00 0. -1.
          1   -1    0    0  501    0 -0.00000000000E+00 -0.00000000000E+00 -0.82565132841E+03  0.82565132841E+03  0.00000000000E+00 0.  1.
          2    1    1    2  501    0  0.84104967798E+02  0.75164418456E+02 -0.77399642031E+02  0.13679926899E+03  0.00000000000E+00 0. -1.
          1    1    1    2  502    0  0.12934279450E+01 -0.19975467711E+02 -0.37842446753E+02  0.42810548261E+02  0.00000000000E+00 0.  1.
         22    1    1    2    0    0 -0.10443198154E+03 -0.60527945448E+02 -0.64867437817E+03  0.65980915410E+03  0.00000000000E+00 0.  1.
         22    1    1    2    0    0  0.19033585796E+02  0.53389947030E+01 -0.19910178850E+02  0.28057039661E+02  0.00000000000E+00 0. -1.
</event>
<event>
 6    1  0.2406404E-005  0.4674360E+02  0.7818608E-02  0.1469364E+00
          2   -1    0    0  502    0  0.00000000000E+00  0.00000000000E+00  0.14570904924E+03  0.14570904924E+03  0.00000000000E+00 0.  1.
          1   -1    0    0  501    0 -0.00000000000E+00 -0.00000000000E+00 -0.59333773300E+02  0.59333773300E+02  0.00000000000E+00 0. -1.
          2    1    1    2  501    0 -0.54404145530E+01  0.19323333121E+02  0.54310462085E+02  0.57901775494E+02  0.00000000000E+00 0.  1.
          1    1    1    2  502    0 -0.74899183901E+01 -0.19389517527E+02 -0.32467534858E+01  0.21037910439E+02  0.00000000000E+00 0. -1.
         22    1    1    2    0    0 -0.76006939662E+01 -0.97545323474E+01 -0.42900401435E+02  0.44647126373E+02  0.00000000000E+00 0. -1.
         22    1    1    2    0    0  0.20531026909E+02  0.98207167533E+01  0.78211968779E+02  0.81456010237E+02  0.00000000000E+00 0.  1.
</event>
<event>
 6    1  0.2406404E-005  0.7122422E+02  0.7818608E-02  0.1358209E+00
          2   -1    0    0  502    0  0.00000000000E+00  0.00000000000E+00  0.26642611591E+03  0.26642611591E+03  0.00000000000E+00 0. -1.
          1   -1    0    0  501    0 -0.00000000000E+00 -0.00000000000E+00 -0.80010464170E+02  0.80010464170E+02  0.00000000000E+00 0.  1.
          2    1    1    2  501    0 -0.89820610361E+01 -0.35300576620E+02  0.17077590362E+03  0.17461734560E+03  0.00000000000E+00 0. -1.
          1    1    1    2  502    0  0.76424013588E+01  0.25634757919E+02 -0.30585386268E+02  0.40632658851E+02  0.00000000000E+00 0.  1.
         22    1    1    2    0    0  0.14402232714E+00 -0.31293528862E+02  0.74899011526E+02  0.81173687970E+02  0.00000000000E+00 0. -1.
         22    1    1    2    0    0  0.11956373501E+01  0.40959347563E+02 -0.28673877135E+02  0.50012887654E+02  0.00000000000E+00 0.  1.
</event>
<event>
 6    1  0.2406404E-005  0.1161859E+03  0.7818608E-02  0.1250201E+00
          2   -1    0    0  502    0  0.00000000000E+00  0.00000000000E+00  0.12862609255E+03  0.12862609255E+03  0.00000000000E+00 0.  1.
          1   -1    0    0  501    0 -0.00000000000E+00 -0.00000000000E+00 -0.13461114683E+03  0.13461114683E+03  0.00000000000E+00 0.  1.
          2    1    1    2  501    0  0.68040930343E+02  0.58221861946E+02  0.30561211025E+02  0.94622095885E+02  0.00000000000E+00 0.  1.
          1    1    1    2  502    0 -0.66478742055E+01 -0.20772999030E+02 -0.81157776859E+01  0.23271819173E+02  0.00000000000E+00 0.  1.
         22    1    1    2    0    0 -0.76365918076E+02 -0.51929819077E+02 -0.58089742196E+02  0.10910031027E+03  0.00000000000E+00 0.  1.
         22    1    1    2    0    0  0.14972861938E+02  0.14480956161E+02  0.29659254576E+02  0.36243014057E+02  0.00000000000E+00 0.  1.
</event>
<event>
 6    1  0.2406404E-005  0.1133074E+03  0.7818608E-02  0.1281601E+00
          2   -1    0    0  502    0  0.00000000000E+00  0.00000000000E+00  0.32556113419E+03  0.32556113419E+03  0.00000000000E+00 0.  1.
          1   -1    0    0  501    0 -0.00000000000E+00 -0.00000000000E+00 -0.24754294236E+03  0.24754294236E+03  0.00000000000E+00 0. -1.
          2    1    1    2  501    0  0.25223634060E+02  0.49616693232E+02  0.25017759196E+03  0.25629450927E+03  0.00000000000E+00 0.  1.
          1    1    1    2  502    0  0.12561356279E+02 -0.38608993753E+02 -0.18492029958E+03  0.18932500962E+03  0.00000000000E+00 0. -1.
         22    1    1    2    0    0 -0.46419212931E+02 -0.18307520983E+02 -0.45866759187E+02  0.67776605492E+02  0.00000000000E+00 0.  1.
         22    1    1    2    0    0  0.86342225926E+01  0.72998215040E+01  0.58627658637E+02  0.59707952159E+02  0.00000000000E+00 0. -1.
</event>
<event>
 6    1  0.2406404E-005  0.1718502E+03  0.7818608E-02  0.1177767E+00
          2   -1    0    0  502    0  0.00000000000E+00  0.00000000000E+00  0.85591079154E+02  0.85591079154E+02  0.00000000000E+00 0. -1.
          1   -1    0    0  501    0 -0.00000000000E+00 -0.00000000000E+00 -0.73742582302E+03  0.73742582302E+03  0.00000000000E+00 0.  1.
          2    1    1    2  501    0 -0.94992514941E+02 -0.29770000577E+02 -0.23193790807E+02  0.10221439606E+03  0.00000000000E+00 0. -1.
          1    1    1    2  502    0  0.12660244810E+03  0.69618415427E+02 -0.54828640542E+03  0.56700342680E+03  0.00000000000E+00 0.  1.
         22    1    1    2    0    0  0.12409554317E+02  0.16164856800E+02 -0.80003026541E+02  0.82557760928E+02  0.00000000000E+00 0. -1.
         22    1    1    2    0    0 -0.44019487480E+02 -0.56013271650E+02 -0.35152109625E+00  0.71241318390E+02  0.00000000000E+00 0. -1.
</event>
<event>
 6    1  0.2406404E-005  0.9399872E+02  0.7818608E-02  0.1293548E+00
          2   -1    0    0  502    0  0.00000000000E+00  0.00000000000E+00  0.17837071550E+03  0.17837071550E+03  0.00000000000E+00 0.  1.
          1   -1    0    0  501    0 -0.00000000000E+00 -0.00000000000E+00 -0.57555185706E+02  0.57555185706E+02  0.00000000000E+00 0.  1.
          2    1    1    2  501    0 -0.29058874677E+02  0.44868537368E+02  0.41649754142E+02  0.67766554163E+02  0.00000000000E+00 0.  1.
          1    1    1    2  502    0  0.51137617864E+01 -0.20957660867E+02  0.15932037602E+02  0.26817977754E+02  0.00000000000E+00 0.  1.
         22    1    1    2    0    0 -0.12209661505E+02  0.34342444901E+02  0.62995521407E+02  0.72779908444E+02  0.00000000000E+00 0.  1.
         22    1    1    2    0    0  0.36154774396E+02 -0.58253321402E+02  0.23821664425E+00  0.68561460845E+02  0.00000000000E+00 0. -1.
</event>
<event>
 6    1  0.2406404E-005  0.7163913E+02  0.7818608E-02  0.1355187E+00
          2   -1    0    0  502    0  0.00000000000E+00  0.00000000000E+00  0.20973064888E+03  0.20973064888E+03  0.00000000000E+00 0. -1.
          1   -1    0    0  501    0 -0.00000000000E+00 -0.00000000000E+00 -0.13712894621E+03  0.13712894621E+03  0.00000000000E+00 0.  1.
          2    1    1    2  501    0 -0.24437828710E+02 -0.27639359754E+02  0.73235727155E+02  0.82003740229E+02  0.00000000000E+00 0. -1.
          1    1    1    2  502    0  0.29191078862E+02  0.29182183902E+02 -0.97188304309E+02  0.10559017680E+03  0.00000000000E+00 0.  1.
         22    1    1    2    0    0 -0.26404912236E+02 -0.15380092396E+02  0.12039575445E+03  0.12421314070E+03  0.00000000000E+00 0. -1.
         22    1    1    2    0    0  0.21651662083E+02  0.13837268249E+02 -0.23841474627E+02  0.35052537368E+02  0.00000000000E+00 0. -1.
</event>
<event>
 6    1  0.2406404E-005  0.1501677E+03  0.7818608E-02  0.1200969E+00
          2   -1    0    0  502    0  0.00000000000E+00  0.00000000000E+00  0.34390686722E+03  0.34390686722E+03  0.00000000000E+00 0. -1.
          1   -1    0    0  501    0 -0.00000000000E+00 -0.00000000000E+00 -0.30130981932E+03  0.30130981932E+03  0.00000000000E+00 0.  1.
          2    1    1    2  501    0  0.12081739760E+03 -0.47165943612E+02  0.26137298808E+03  0.29178298219E+03  0.00000000000E+00 0. -1.
          1    1    1    2  502    0 -0.11379153577E+03  0.17548986258E+02 -0.19501699216E+03  0.22646877879E+03  0.00000000000E+00 0.  1.
         22    1    1    2    0    0  0.17175556177E+02  0.46934405419E+01  0.45840444954E+02  0.49176971315E+02  0.00000000000E+00 0. -1.
         22    1    1    2    0    0 -0.24201418004E+02  0.24923516812E+02 -0.69599392974E+02  0.77787954247E+02  0.00000000000E+00 0. -1.
</event>
<event>
 6    1  0.2406404E-005  0.5668691E+02  0.7818608E-02  0.1412483E+00
          2   -1    0    0  502    0  0.00000000000E+00  0.00000000000E+00  0.24058185658E+03  0.24058185658E+03  0.00000000000E+00 0.  1.
          1   -1    0    0  501    0 -0.00000000000E+00 -0.00000000000E+00 -0.59627047186E+02  0.59627047186E+02  0.00000000000E+00 0. -1.
          2    1    1    2  501    0 -0.26457782958E+02 -0.23236163364E+02  0.12314426998E+03  0.12807983759E+03  0.00000000000E+00 0.  1.
          1    1    1    2  502    0  0.21118473369E+02  0.17563831532E+02 -0.13077069093E+02  0.30421831497E+02  0.00000000000E+00 0. -1.
         22    1    1    2    0    0 -0.31585398988E+01 -0.20634363381E+02  0.99650173307E+02  0.10181311490E+03  0.00000000000E+00 0. -1.
         22    1    1    2    0    0  0.84978494874E+01  0.26306695213E+02 -0.28762564801E+02  0.39894119778E+02  0.00000000000E+00 0. -1.
</event>
<event>
 6    1  0.2406404E-005  0.1103351E+03  0.7818608E-02  0.1265361E+00
          2   -1    0    0  502    0  0.00000000000E+00  0.00000000000E+00  0.11090187833E+04  0.11090187833E+04  0.00000000000E+00 0.  1.
          1   -1    0    0  501    0 -0.00000000000E+00 -0.00000000000E+00 -0.47223495377E+02  0.47223495377E+02  0.00000000000E+00 0.  1.
          2    1    1    2  501    0 -0.11904021910E+03 -0.58778514229E+02  0.57226515090E+03  0.58746309708E+03  0.00000000000E+00 0.  1.
          1    1    1    2  502    0  0.88056425479E+02 -0.31603178923E+02  0.57865416476E+02  0.11000500630E+03  0.00000000000E+00 0.  1.
         22    1    1    2    0    0  0.16280556668E+02  0.97904780162E+02  0.43096239803E+03  0.44224313564E+03  0.00000000000E+00 0.  1.
         22    1    1    2    0    0  0.14703236957E+02 -0.75230870099E+01  0.70232251220E+00  0.16531039655E+02  0.00000000000E+00 0. -1.
</event>
<event>
 6    1  0.2406404E-005  0.1392906E+03  0.7818608E-02  0.1240987E+00
          2   -1    0    0  502    0  0.00000000000E+00  0.00000000000E+00  0.72790662745E+02  0.72790662745E+02  0.00000000000E+00 0.  1.
          1   -1    0    0  501    0 -0.00000000000E+00 -0.00000000000E+00 -0.18852022279E+03  0.18852022279E+03  0.00000000000E+00 0. -1.
          2    1    1    2  501    0  0.20671980842E+02 -0.10488970945E+02  0.10155846358E+02  0.25307914151E+02  0.00000000000E+00 0.  1.
          1    1    1    2  502    0 -0.57685334561E+02 -0.17781757380E+02 -0.22839114397E+02  0.64540017550E+02  0.00000000000E+00 0. -1.
         22    1    1    2    0    0  0.32902052088E+01  0.70267405768E+02 -0.93106865188E+02  0.11669285372E+03  0.00000000000E+00 0. -1.
         22    1    1    2    0    0  0.33723148511E+02 -0.41996677443E+02 -0.99394268223E+01  0.54770100121E+02  0.00000000000E+00 0.  1.
</event>
<event>
 6    1  0.2406404E-005  0.5446622E+02  0.7818608E-02  0.1452832E+00
          2   -1    0    0  502    0  0.00000000000E+00  0.00000000000E+00  0.11423917913E+03  0.11423917913E+03  0.00000000000E+00 0. -1.
          1   -1    0    0  501    0 -0.00000000000E+00 -0.00000000000E+00 -0.24302939766E+03  0.24302939766E+03  0.00000000000E+00 0. -1.
          2    1    1    2  501    0  0.31636102808E+02  0.18124748890E+02  0.40707368493E+02  0.54648324520E+02  0.00000000000E+00 0. -1.
          1    1    1    2  502    0 -0.38551295154E+02  0.13206572099E+02 -0.16973948697E+03  0.17456262298E+03  0.00000000000E+00 0. -1.
         22    1    1    2    0    0  0.21609687174E+02 -0.27065608098E+02  0.58412458788E+02  0.67908328378E+02  0.00000000000E+00 0. -1.
         22    1    1    2    0    0 -0.14694494828E+02 -0.42657128914E+01 -0.58170558832E+02  0.60149300907E+02  0.00000000000E+00 0. -1.
</event>
<event>
 6    1  0.2406404E-005  0.3118562E+03  0.7818608E-02  0.1105490E+00
          2   -1    0    0  502    0  0.00000000000E+00  0.00000000000E+00  0.26384153963E+03  0.26384153963E+03  0.00000000000E+00 0. -1.
          1   -1    0    0  501    0 -0.00000000000E+00 -0.00000000000E+00 -0.25944752242E+03  0.25944752242E+03  0.00000000000E+00 0. -1.
          2    1    1    2  501    0  0.66798161206E+02 -0.13831915509E+03  0.12241919469E+03  0.19641955665E+03  0.00000000000E+00 0. -1.
          1    1    1    2  502    0 -0.11436031602E+03  0.13520163653E+02 -0.68657644751E+02  0.13407068616E+03  0.00000000000E+00 0. -1.
         22    1    1    2    0    0 -0.36043612052E+02  0.18567039749E+02 -0.40523968965E+02  0.57324244396E+02  0.00000000000E+00 0. -1.
         22    1    1    2    0    0  0.83605766864E+02  0.10623195169E+03 -0.88435637627E+01  0.13547457485E+03  0.00000000000E+00 0. -1.
</event>
<event>
 6    1  0.2406404E-005  0.1666569E+03  0.7818608E-02  0.1183319E+00
          2   -1    0    0  502    0  0.00000000000E+00  0.00000000000E+00  0.43561578426E+03  0.43561578426E+03  0.00000000000E+00 0.  1.
          1   -1    0    0  501    0 -0.00000000000E+00 -0.00000000000E+00 -0.15024787470E+03  0.15024787470E+03  0.00000000000E+00 0.  1.
          2    1    1    2  501    0  0.89131613832E+02 -0.89288661441E+02  0.24386923720E+03  0.27457078231E+03  0.00000000000E+00 0.  1.
          1    1    1    2  502    0 -0.10306857819E+03  0.85128972125E+02 -0.61003584487E+02  0.14694050165E+03  0.00000000000E+00 0.  1.
         22    1    1    2    0    0 -0.21842387732E+02  0.10288009880E+02 -0.23217967197E+02  0.33496373683E+02  0.00000000000E+00 0.  1.
         22    1    1    2    0    0  0.35779352087E+02 -0.61283205644E+01  0.12572022403E+03  0.13085600131E+03  0.00000000000E+00 0. -1.
</event>
<event>
 6    1  0.2406404E-005  0.8148013E+02  0.7818608E-02  0.1327424E+00
          2   -1    0    0  502    0  0.00000000000E+00  0.00000000000E+00  0.35152723855E+03  0.35152723855E+03  0.00000000000E+00 0.  1.
          1   -1    0    0  501    0 -0.00000000000E+00 -0.00000000000E+00 -0.43410132404E+03  0.43410132404E+03  0.00000000000E+00 0.  1.
          2    1    1    2  501    0  0.33724117945E+02 -0.53500313193E+02  0.29378752264E+03  0.30051740066E+03  0.00000000000E+00 0.  1.
          1    1    1    2  502    0 -0.19248038588E+02  0.58132903193E+02 -0.35400126446E+03  0.35925870437E+03  0.00000000000E+00 0.  1.
         22    1    1    2    0    0 -0.16473740490E+02  0.94514843527E+01 -0.71871355490E+02  0.74338458567E+02  0.00000000000E+00 0. -1.
         22    1    1    2    0    0  0.19976611343E+01 -0.14084074353E+02  0.49511011829E+02  0.51513998997E+02  0.00000000000E+00 0.  1.
</event>
<event>
 6    1  0.2406404E-005  0.1977734E+03  0.7818608E-02  0.1247652E+00
          2   -1    0    0  502    0  0.00000000000E+00  0.00000000000E+00  0.44206238214E+03  0.44206238214E+03  0.00000000000E+00 0.  1.
          1   -1    0    0  501    0 -0.00000000000E+00 -0.00000000000E+00 -0.49533413723E+03  0.49533413723E+03  0.00000000000E+00 0.  1.
          2    1    1    2  501    0  0.13162509383E+03  0.69633813038E+02  0.35094043622E+03  0.38122594746E+03  0.00000000000E+00 0.  1.
          1    1    1    2  502    0 -0.15633987484E+03 -0.12318392692E+03 -0.36517431750E+03  0.41589508109E+03  0.00000000000E+00 0.  1.
         22    1    1    2    0    0 -0.28888351651E+01  0.24285370444E+02 -0.79524704470E+02  0.83200379850E+02  0.00000000000E+00 0. -1.
         22    1    1    2    0    0  0.27603616174E+02  0.29264743440E+02  0.40486830663E+02  0.57075110964E+02  0.00000000000E+00 0. -1.
</event>
<event>
 6    1  0.2406404E-005  0.4495625E+02  0.7818608E-02  0.1548582E+00
          2   -1    0    0  502    0  0.00000000000E+00  0.00000000000E+00  0.10704564700E+03  0.10704564700E+03  0.00000000000E+00 0. -1.
          1   -1    0    0  501    0 -0.00000000000E+00 -0.00000000000E+00 -0.98534252944E+02  0.98534252944E+02  0.00000000000E+00 0. -1.
          2    1    1    2  501    0 -0.95473686417E+01 -0.18689269801E+02  0.32209772531E+02  0.38443601551E+02  0.00000000000E+00 0. -1.
          1    1    1    2  502    0  0.26800779604E+01  0.33156055582E+02 -0.23631825090E+02  0.40804043877E+02  0.00000000000E+00 0. -1.
         22    1    1    2    0    0  0.13277655166E+02  0.98291410986E+01 -0.59528965888E+02  0.61778685006E+02  0.00000000000E+00 0. -1.
         22    1    1    2    0    0 -0.64103644843E+01 -0.24295926880E+02  0.59462412505E+02  0.64553569511E+02  0.00000000000E+00 0. -1.
</event>
<event>
 6    1  0.2406404E-005  0.4970953E+02  0.7818608E-02  0.1509121E+00
          2   -1    0    0  502    0  0.00000000000E+00  0.00000000000E+00  0.60705037777E+03  0.60705037777E+03  0.00000000000E+00 0.  1.
          1   -1    0    0  501    0 -0.00000000000E+00 -0.00000000000E+00 -0.14549386885E+03  0.14549386885E+03  0.00000000000E+00 0. -1.
          2    1    1    2  501    0  0.11610547544E+02  0.31740026557E+02  0.48674921763E+03  0.48792113601E+03  0.00000000000E+00 0.  1.
          1    1    1    2  502    0 -0.41333113559E+01 -0.33605824554E+02 -0.11073121405E+03  0.11579221681E+03  0.00000000000E+00 0. -1.
         22    1    1    2    0    0 -0.13859577288E+02  0.15220684779E+02  0.11448423793E+03  0.11632023841E+03  0.00000000000E+00 0. -1.
         22    1    1    2    0    0  0.63823411003E+01 -0.13354886782E+02 -0.28945732598E+02  0.32510655400E+02  0.00000000000E+00 0. -1.
</event>
<event>
 6    1  0.2406404E-005  0.2007331E+03  0.7818608E-02  0.1149457E+00
          2   -1    0    0  502    0  0.00000000000E+00  0.00000000000E+00  0.77005866093E+02  0.77005866093E+02  0.00000000000E+00 0. -1.
          1   -1    0    0  501    0 -0.00000000000E+00 -0.00000000000E+00 -0.59218461188E+03  0.59218461188E+03  0.00000000000E+00 0. -1.
          2    1    1    2  501    0 -0.74369071441E+02 -0.78851615246E+02 -0.28192331379E+03  0.30204153832E+03  0.00000000000E+00 0. -1.
          1    1    1    2  502    0  0.11724467330E+03  0.89965410086E+02 -0.11970862024E+03  0.19018475803E+03  0.00000000000E+00 0. -1.
         22    1    1    2    0    0 -0.50695794200E+02 -0.61343565558E+02 -0.92293065880E+02  0.12186511640E+03  0.00000000000E+00 0. -1.
         22    1    1    2    0    0  0.78201923380E+01  0.50229770718E+02 -0.21253745888E+02  0.55099065227E+02  0.00000000000E+00 0.  1.
</event>
<event>
 6    1  0.2406404E-005  0.1234460E+03  0.7818608E-02  0.1357925E+00
          2   -1    0    0  502    0  0.00000000000E+00  0.00000000000E+00  0.35805703703E+03  0.35805703703E+03  0.00000000000E+00 0. -1.
          1   -1    0    0  501    0 -0.00000000000E+00 -0.00000000000E+00 -0.22461862158E+03  0.22461862158E+03  0.00000000000E+00 0.  1.
          2    1    1    2  501    0 -0.11177794817E+03 -0.14923537844E+02  0.27200647355E+03  0.29445635217E+03  0.00000000000E+00 0. -1.
          1    1    1    2  502    0  0.71816941279E+02  0.71063519951E+01 -0.14038294782E+03  0.15784658796E+03  0.00000000000E+00 0.  1.
         22    1    1    2    0    0  0.44131666405E+02  0.20380590848E+02 -0.54205591282E+02  0.72809467717E+02  0.00000000000E+00 0. -1.
         22    1    1    2    0    0 -0.41706595152E+01 -0.12563404999E+02  0.56020480999E+02  0.57563250754E+02  0.00000000000E+00 0. -1.
</event>
<event>
 6    1  0.2406404E-005  0.1160200E+03  0.7818608E-02  0.1249916E+00
          2   -1    0    0  502    0  0.00000000000E+00  0.00000000000E+00  0.57777305303E+03  0.57777305303E+03  0.00000000000E+00 0. -1.
          1   -1    0    0  501    0 -0.00000000000E+00 -0.00000000000E+00 -0.46292827276E+02  0.46292827276E+02  0.00000000000E+00 0. -1.
          2    1    1    2  501    0  0.56832304088E+02 -0.58334752373E+02  0.35553063654E+03  0.36473947914E+03  0.00000000000E+00 0. -1.
          1    1    1    2  502    0 -0.31410790087E+02  0.51251706062E+02  0.34673488465E+02  0.69394710969E+02  0.00000000000E+00 0. -1.
         22    1    1    2    0    0 -0.37711650821E+02  0.38923087825E+02  0.11054222527E+02  0.55311582957E+02  0.00000000000E+00 0.  1.
         22    1    1    2    0    0  0.12290136820E+02 -0.31840041514E+02  0.13022187822E+03  0.13462010724E+03  0.00000000000E+00 0.  1.
</event>
<event>
 6    1  0.2406404E-005  0.1163197E+03  0.7818608E-02  0.1306353E+00
          2   -1    0    0  502    0  0.00000000000E+00  0.00000000000E+00  0.35437678726E+03  0.35437678726E+03  0.00000000000E+00 0. -1.
          1   -1    0    0  501    0 -0.00000000000E+00 -0.00000000000E+00 -0.84172992018E+02  0.84172992018E+02  0.00000000000E+00 0. -1.
          2    1    1    2  501    0 -0.92277989775E+02  0.57197017018E+01  0.14628452775E+03  0.17305231996E+03  0.00000000000E+00 0. -1.
          1    1    1    2  502    0  0.92645127092E+02  0.14799559221E+02  0.31336857145E+01  0.93872075257E+02  0.00000000000E+00 0. -1.
         22    1    1    2    0    0 -0.25943310651E+02 -0.29253595060E+02  0.13537776277E+03  0.14091120198E+03  0.00000000000E+00 0.  1.
         22    1    1    2    0    0  0.25576173334E+02  0.87343341368E+01 -0.14592180987E+02  0.30714182085E+02  0.00000000000E+00 0.  1.
</event>
<event>
 6    1  0.2406404E-005  0.4276850E+03  0.7818608E-02  0.1036122E+00
          2   -1    0    0  502    0  0.00000000000E+00  0.00000000000E+00  0.46031844269E+03  0.46031844269E+03  0.00000000000E+00 0.  1.
          1   -1    0    0  501    0 -0.00000000000E+00 -0.00000000000E+00 -0.39676440869E+03  0.39676440869E+03  0.00000000000E+00 0.  1.
          2    1    1    2  501    0 -0.31191438978E+03 -0.24379731565E+03 -0.59552237787E+02  0.40034258666E+03  0.00000000000E+00 0.  1.
          1    1    1    2  502    0  0.96112417001E+02  0.43297163178E+02  0.86080371916E+02  0.13609581724E+03  0.00000000000E+00 0.  1.
         22    1    1    2    0    0  0.22662279735E+03  0.20600909771E+03  0.34116828733E+02  0.30815839859E+03  0.00000000000E+00 0.  1.
         22    1    1    2    0    0 -0.10820824571E+02 -0.55089452370E+01  0.29090711356E+01  0.12486048890E+02  0.00000000000E+00 0.  1.
</event>
<event>
 6    1  0.2406404E-005  0.8121571E+02  0.7818608E-02  0.1340141E+00
          2   -1    0    0  502    0  0.00000000000E+00  0.00000000000E+00  0.11889668519E+03  0.11889668519E+03  0.00000000000E+00 0. -1.
          1   -1    0    0  501    0 -0.00000000000E+00 -0.00000000000E+00 -0.40313943548E+03  0.40313943548E+03  0.00000000000E+00 0. -1.
          2    1    1    2  501    0  0.17525752236E+02  0.48903154468E+02  0.47075973666E+02  0.70105761568E+02  0.00000000000E+00 0. -1.
          1    1    1    2  502    0 -0.81660091892E+02 -0.24678369380E+02 -0.28994917767E+03  0.30223818117E+03  0.00000000000E+00 0. -1.
         22    1    1    2    0    0  0.20543784068E+02  0.21253187008E+02  0.38138890909E+02  0.48252668543E+02  0.00000000000E+00 0.  1.
         22    1    1    2    0    0  0.43590555588E+02 -0.45477972096E+02 -0.79508437194E+02  0.10143950940E+03  0.00000000000E+00 0.  1.
</event>
<event>
 6    1  0.2406404E-005  0.5789186E+02  0.7818608E-02  0.1471615E+00
          2   -1    0    0  502    0  0.00000000000E+00  0.00000000000E+00  0.91733759080E+02  0.91733759080E+02  0.00000000000E+00 0.  1.
          1   -1    0    0  501    0 -0.00000000000E+00 -0.00000000000E+00 -0.15556541072E+03  0.15556541072E+03  0.00000000000E+00 0.  1.
          2    1    1    2  501    0  0.13590868411E+02 -0.38395394331E+02  0.35806575716E+02  0.54231253669E+02  0.00000000000E+00 0.  1.
          1    1    1    2  502    0 -0.27081710288E+02  0.31166294299E+02 -0.33891363783E+02  0.53417052254E+02  0.00000000000E+00 0.  1.
         22    1    1    2    0    0  0.10725672711E+01  0.21946725057E+02 -0.98899678907E+02  0.10131118215E+03  0.00000000000E+00 0.  1.
         22    1    1    2    0    0  0.12418274605E+02 -0.14717625025E+02  0.33152815331E+02  0.38339681727E+02  0.00000000000E+00 0.  1.
</event>
<event>
 6    1  0.2406404E-005  0.4973550E+02  0.7818608E-02  0.1447537E+00
          2   -1    0    0  502    0  0.00000000000E+00  0.00000000000E+00  0.12201144147E+03  0.12201144147E+03  0.00000000000E+00 0.  1.
          1   -1    0    0  501    0 -0.00000000000E+00 -0.00000000000E+00 -0.16832974334E+03  0.16832974334E+03  0.00000000000E+00 0.  1.
          2    1    1    2  501    0  0.21406989989E+02  0.20427600784E+02  0.51497589340E+02  0.59393162923E+02  0.00000000000E+00 0.  1.
          1    1    1    2  502    0 -0.23765286703E+02 -0.26323377861E+02 -0.10401678361E+03  0.10989631635E+03  0.00000000000E+00 0.  1.
         22    1    1    2    0    0  0.14762546658E+02  0.10186553098E+02  0.61579767123E+02  0.64138649556E+02  0.00000000000E+00 0.  1.
         22    1    1    2    0    0 -0.12404249944E+02 -0.42907760218E+01 -0.55378874719E+02  0.56913055977E+02  0.00000000000E+00 0. -1.
</event>
<event>
 6    1  0.2406404E-005  0.1206568E+03  0.7818608E-02  0.1259906E+00
          2   -1    0    0  502    0  0.00000000000E+00  0.00000000000E+00  0.58678755491E+03  0.58678755491E+03  0.00000000000E+00 0. -1.
          1   -1    0    0  501    0 -0.00000000000E+00 -0.00000000000E+00 -0.29429512175E+02  0.29429512175E+02  0.00000000000E+00 0. -1.
          2    1    1    2  501    0  0.21775033251E+02  0.32454081089E+00  0.46498451573E+02  0.51345529489E+02  0.00000000000E+00 0. -1.
          1    1    1    2  502    0  0.29545390400E+02 -0.55534172096E+02  0.47502501415E+02  0.78825516204E+02  0.00000000000E+00 0. -1.
         22    1    1    2    0    0 -0.72053517871E+02  0.59357854840E+02  0.45296729601E+03  0.46248722753E+03  0.00000000000E+00 0. -1.
         22    1    1    2    0    0  0.20733094220E+02 -0.41482235552E+01  0.10389793738E+02  0.23558793869E+02  0.00000000000E+00 0.  1.
</event>
<event>
 6    1  0.2406404E-005  0.1242517E+03  0.7818608E-02  0.1273284E+00
          2   -1    0    0  502    0  0.00000000000E+00  0.00000000000E+00  0.66220108434E+02  0.66220108434E+02  0.00000000000E+00 0.  1.
          1   -1    0    0  501    0 -0.00000000000E+00 -0.00000000000E+00 -0.83944905244E+03  0.83944905244E+03  0.00000000000E+00 0.  1.
          2    1    1    2  501    0 -0.57667927760E+01  0.23175219252E+02  0.86496373901E+00  0.23897590853E+02  0.00000000000E+00 0.  1.
          1    1    1    2  502    0  0.33408404880E+02 -0.10427401623E+02 -0.74883888214E+03  0.74965627031E+03  0.00000000000E+00 0.  1.
         22    1    1    2    0    0 -0.13020614511E+02  0.20117919835E+02  0.46240210143E+02  0.52080938306E+02  0.00000000000E+00 0.  1.
         22    1    1    2    0    0 -0.14620997592E+02 -0.32865737465E+02 -0.71495235749E+02  0.80034361398E+02  0.00000000000E+00 0.  1.
</event>
<event>
 6    1  0.2406404E-005  0.5839519E+02  0.7818608E-02  0.1405458E+00
          2   -1    0    0  502    0  0.00000000000E+00  0.00000000000E+00  0.33973570118E+02  0.33973570118E+02  0.00000000000E+00 0.  1.
          1   -1    0    0  501    0 -0.00000000000E+00 -0.00000000000E+00 -0.52637063032E+03  0.52637063032E+03  0.00000000000E+00 0.  1.
          2    1    1    2  501    0  0.23818452574E+02 -0.62416396037E+01 -0.21750631949E+03  0.21889558188E+03  0.00000000000E+00 0.  1.
          1    1    1    2  502    0 -0.41463905691E+02  0.52060642635E+02 -0.77794771599E+02  0.10237964873E+03  0.00000000000E+00 0.  1.
         22    1    1    2    0    0 -0.11287308985E+02 -0.58247979798E+02 -0.25451840208E+02  0.64560256076E+02  0.00000000000E+00 0.  1.
         22    1    1    2    0    0  0.28932762102E+02  0.12428976767E+02 -0.17164412890E+03  0.17450871375E+03  0.00000000000E+00 0.  1.
</event>
<event>
 6    1  0.2406404E-005  0.8296647E+02  0.7818608E-02  0.1325916E+00
          2   -1    0    0  502    0  0.00000000000E+00  0.00000000000E+00  0.50392235842E+03  0.50392235842E+03  0.00000000000E+00 0. -1.
          1   -1    0    0  501    0 -0.00000000000E+00 -0.00000000000E+00 -0.58463808318E+02  0.58463808318E+02  0.00000000000E+00 0. -1.
          2    1    1    2  501    0 -0.38202167167E+02 -0.71877317863E+01  0.21278443632E+03  0.21630599946E+03  0.00000000000E+00 0. -1.
          1    1    1    2  502    0  0.59046050044E+02 -0.14876620424E+02 -0.17419046840E+02  0.63333822353E+02  0.00000000000E+00 0. -1.
         22    1    1    2    0    0  0.95874714698E+01 -0.97541638228E+01 -0.11256753827E+02  0.17713775086E+02  0.00000000000E+00 0. -1.
         22    1    1    2    0    0 -0.30431354347E+02  0.31818516033E+02  0.26134991446E+03  0.26503256984E+03  0.00000000000E+00 0. -1.
</event>
<event>
 6    1  0.2406404E-005  0.6459071E+02  0.7818608E-02  0.1380052E+00
          2   -1    0    0  502    0  0.00000000000E+00  0.00000000000E+00  0.27647028688E+03  0.27647028688E+03  0.00000000000E+00 0.  1.
          1   -1    0    0  501    0 -0.00000000000E+00 -0.00000000000E+00 -0.43142792098E+02  0.43142792098E+02  0.00000000000E+00 0.  1.
          2    1    1    2  501    0 -0.31783400100E+02  0.89995341286E+01  0.10370819320E+03  0.10884192884E+03  0.00000000000E+00 0.  1.
          1    1    1    2  502    0  0.29025117553E+02  0.92669995769E+01  0.29821147709E+01  0.30614175452E+02  0.00000000000E+00 0.  1.
         22    1    1    2    0    0 -0.27636525553E+02 -0.12587506428E+02  0.14229380133E+03  0.14549827752E+03  0.00000000000E+00 0.  1.
         22    1    1    2    0    0  0.30394808100E+02 -0.56790272778E+01 -0.15656614532E+02  0.34658697160E+02  0.00000000000E+00 0.  1.
</event>
<event>
 6    1  0.2406404E-005  0.3021393E+02  0.7818608E-02  0.1630929E+00
          2   -1    0    0  502    0  0.00000000000E+00  0.00000000000E+00  0.16897694102E+03  0.16897694102E+03  0.00000000000E+00 0. -1.
          1   -1    0    0  501    0 -0.00000000000E+00 -0.00000000000E+00 -0.12135632356E+03  0.12135632356E+03  0.00000000000E+00 0. -1.
          2    1    1    2  501    0  0.29012051222E+02  0.51887010938E+01  0.10903417016E+03  0.11294720890E+03  0.00000000000E+00 0. -1.
          1    1    1    2  502    0  0.19992513203E+02 -0.16108679752E+02 -0.29467408825E+02  0.39083478995E+02  0.00000000000E+00 0. -1.
         22    1    1    2    0    0 -0.29689250997E+02  0.15810237659E+02 -0.79727905034E+02  0.86532965283E+02  0.00000000000E+00 0. -1.
         22    1    1    2    0    0 -0.19315313428E+02 -0.48902590007E+01  0.47781761163E+02  0.51769611413E+02  0.00000000000E+00 0. -1.
</event>
<event>
 6    1  0.2406404E-005  0.7924362E+02  0.7818608E-02  0.1398213E+00
          2   -1    0    0  502    0  0.00000000000E+00  0.00000000000E+00  0.16863337519E+03  0.16863337519E+03  0.00000000000E+00 0.  1.
          1   -1    0    0  501    0 -0.00000000000E+00 -0.00000000000E+00 -0.83379666978E+02  0.83379666978E+02  0.00000000000E+00 0.  1.
          2    1    1    2  501    0 -0.97726834505E+01  0.31110656413E+02  0.38425200100E+02  0.50397165466E+02  0.00000000000E+00 0.  1.
          1    1    1    2  502    0  0.53855150233E+02 -0.23480654246E+02 -0.79204656051E+01  0.59282814591E+02  0.00000000000E+00 0.  1.
         22    1    1    2    0    0  0.25625361319E+01 -0.25759753564E+02 -0.32621715505E+02  0.41645021522E+02  0.00000000000E+00 0. -1.
         22    1    1    2    0    0 -0.46645002914E+02  0.18129751397E+02  0.87370689218E+02  0.10068804059E+03  0.00000000000E+00 0.  1.
</event>
<event>
 6    1  0.2406404E-005  0.2325265E+02  0.7818608E-02  0.1711151E+00
          2   -1    0    0  502    0  0.00000000000E+00  0.00000000000E+00  0.67401674764E+03  0.67401674764E+03  0.00000000000E+00 0.  1.
          1   -1    0    0  501    0 -0.00000000000E+00 -0.00000000000E+00 -0.30253216061E+03  0.30253216061E+03  0.00000000000E+00 0.  1.
          2    1    1    2  501    0 -0.11232826493E+02 -0.21513104941E+02  0.57443670830E+03  0.57494914724E+03  0.00000000000E+00 0.  1.
          1    1    1    2  502    0 -0.23467201266E+02 -0.29747937518E+01 -0.25634315408E+03  0.25743226600E+03  0.00000000000E+00 0.  1.
         22    1    1    2    0    0  0.17271584787E+02  0.53263390180E+01  0.94152934842E+02  0.95872064063E+02  0.00000000000E+00 0.  1.
         22    1    1    2    0    0  0.17428442973E+02  0.19161559675E+02 -0.40761902029E+02  0.48295430950E+02  0.00000000000E+00 0. -1.
</event>
<event>
 6    1  0.2406404E-005  0.1917253E+03  0.7818608E-02  0.1198537E+00
          2   -1    0    0  502    0  0.00000000000E+00  0.00000000000E+00  0.57687490779E+03  0.57687490779E+03  0.00000000000E+00 0. -1.
          1   -1    0    0  501    0 -0.00000000000E+00 -0.00000000000E+00 -0.11584299344E+03  0.11584299344E+03  0.00000000000E+00 0. -1.
          2    1    1    2  501    0  0.11686212753E+03 -0.14357020041E+03  0.11248440536E+03  0.21661463650E+03  0.00000000000E+00 0. -1.
          1    1    1    2  502    0 -0.11743445073E+03  0.11164476768E+03  0.28679476296E+03  0.32940346147E+03  0.00000000000E+00 0. -1.
         22    1    1    2    0    0  0.10500139404E+00  0.74920795726E+02  0.44419611966E+01  0.75052432851E+02  0.00000000000E+00 0. -1.
         22    1    1    2    0    0  0.46732180245E+00 -0.42995363000E+02  0.57310784830E+02  0.71647370412E+02  0.00000000000E+00 0. -1.
</event>
<event>
 6    1  0.2406404E-005  0.6725239E+02  0.7818608E-02  0.1371081E+00
          2   -1    0    0  502    0  0.00000000000E+00  0.00000000000E+00  0.20144551360E+03  0.20144551360E+03  0.00000000000E+00 0. -1.
          1   -1    0    0  501    0 -0.00000000000E+00 -0.00000000000E+00 -0.27998022141E+03  0.27998022141E+03  0.00000000000E+00 0.  1.
          2    1    1    2  501    0  0.36582402132E+02 -0.86849821326E+01  0.12886817982E+03  0.13424123372E+03  0.00000000000E+00 0. -1.
          1    1    1    2  502    0 -0.40860710686E+02  0.20568636926E+02 -0.21604025125E+03  0.22083037984E+03  0.00000000000E+00 0.  1.
         22    1    1    2    0    0  0.21764140820E+02 -0.18107819125E+02  0.62914436187E+02  0.68991283651E+02  0.00000000000E+00 0. -1.
         22    1    1    2    0    0 -0.17485832266E+02  0.62241643317E+01 -0.54277072580E+02  0.57362837792E+02  0.00000000000E+00 0.  1.
</event>
<event>
 6    1  0.2406404E-005  0.8397994E+02  0.7818608E-02  0.1318895E+00
          2   -1    0    0  502    0  0.00000000000E+00  0.00000000000E+00  0.48102098521E+03  0.48102098521E+03  0.00000000000E+00 0.  1.
          1   -1    0    0  501    0 -0.00000000000E+00 -0.00000000000E+00 -0.53120149633E+02  0.53120149633E+02  0.00000000000E+00 0.  1.
          2    1    1    2  501    0  0.16258093122E+02  0.50010936480E+02  0.25618894363E+03  0.26153048426E+03  0.00000000000E+00 0.  1.
          1    1    1    2  502    0  0.21707139630E+00 -0.47759576512E+02 -0.14479286926E+02  0.49906653048E+02  0.00000000000E+00 0.  1.
         22    1    1    2    0    0 -0.10184488311E+02 -0.32586878059E+02  0.19152369622E+00  0.34141838046E+02  0.00000000000E+00 0.  1.
         22    1    1    2    0    0 -0.62906762073E+01  0.30335518091E+02  0.18599965517E+03  0.18856215948E+03  0.00000000000E+00 0. -1.
</event>
<event>
 6    1  0.2406404E-005  0.2766414E+03  0.7818608E-02  0.1098299E+00
          2   -1    0    0  502    0  0.00000000000E+00  0.00000000000E+00  0.37214861410E+03  0.37214861410E+03  0.00000000000E+00 0. -1.
          1   -1    0    0  501    0 -0.00000000000E+00 -0.00000000000E+00 -0.66198353318E+03  0.66198353318E+03  0.00000000000E+00 0.  1.
          2    1    1    2  501    0 -0.16294098054E+03 -0.59036604462E+01  0.21680932116E+03  0.27127642376E+03  0.00000000000E+00 0. -1.
          1    1    1    2  502    0  0.25830622358E+03 -0.55499546659E+01 -0.54406116100E+03  0.60229183461E+03  0.00000000000E+00 0.  1.
         22    1    1    2    0    0 -0.10592473944E+03  0.43999154140E+01  0.69020881941E+02  0.12650411782E+03  0.00000000000E+00 0. -1.
         22    1    1    2    0    0  0.10559496408E+02  0.70536996980E+01 -0.31603961185E+02  0.34059771085E+02  0.00000000000E+00 0.  1.
</event>
<event>
 6    1  0.2406404E-005  0.1046302E+03  0.7818608E-02  0.1285835E+00
          2   -1    0    0  502    0  0.00000000000E+00  0.00000000000E+00  0.18360180185E+03  0.18360180185E+03  0.00000000000E+00 0. -1.
          1   -1    0    0  501    0 -0.00000000000E+00 -0.00000000000E+00 -0.62797978550E+02  0.62797978550E+02  0.00000000000E+00 0.  1.
          2    1    1    2  501    0  0.15656408300E+02  0.40170771246E+02  0.53104004776E+02  0.68402114782E+02  0.00000000000E+00 0. -1.
          1    1    1    2  502    0 -0.26017098109E+01 -0.36399243266E+02  0.33831335323E+02  0.49761762971E+02  0.00000000000E+00 0.  1.
         22    1    1    2    0    0  0.18350349520E+02  0.28940339038E+02  0.64828492671E+02  0.73328112026E+02  0.00000000000E+00 0. -1.
         22    1    1    2    0    0 -0.31405048010E+02 -0.32711867018E+02 -0.30960009472E+02  0.54907790621E+02  0.00000000000E+00 0.  1.
</event>
<event>
 6    1  0.2406404E-005  0.5049865E+02  0.7818608E-02  0.1486286E+00
          2   -1    0    0  502    0  0.00000000000E+00  0.00000000000E+00  0.36196989680E+03  0.36196989680E+03  0.00000000000E+00 0.  1.
          1   -1    0    0  501    0 -0.00000000000E+00 -0.00000000000E+00 -0.12235854306E+03  0.12235854306E+03  0.00000000000E+00 0. -1.
          2    1    1    2  501    0  0.21371521496E+02  0.17432463181E+02  0.29225654579E+03  0.29355497144E+03  0.00000000000E+00 0.  1.
          1    1    1    2  502    0 -0.16201308778E+02 -0.53538623474E+02 -0.26393909845E+02  0.61850667632E+02  0.00000000000E+00 0. -1.
         22    1    1    2    0    0 -0.25835737098E+02 -0.74936653563E+01  0.39241071616E+02  0.47576275951E+02  0.00000000000E+00 0.  1.
         22    1    1    2    0    0  0.20665524379E+02  0.43599825649E+02 -0.65492353814E+02  0.81346524834E+02  0.00000000000E+00 0. -1.
</event>
<event>
 6    1  0.2406404E-005  0.2907465E+02  0.7818608E-02  0.1648557E+00
          2   -1    0    0  502    0  0.00000000000E+00  0.00000000000E+00  0.11911260984E+03  0.11911260984E+03  0.00000000000E+00 0.  1.
          1   -1    0    0  501    0 -0.00000000000E+00 -0.00000000000E+00 -0.41987349101E+03  0.41987349101E+03  0.00000000000E+00 0. -1.
          2    1    1    2  501    0  0.26822734497E+02  0.31668647300E+02  0.74599987620E+02  0.85366975234E+02  0.00000000000E+00 0.  1.
          1    1    1    2  502    0 -0.14711226632E+02 -0.29791290118E+02 -0.31762850226E+03  0.31936156093E+03  0.00000000000E+00 0. -1.
         22    1    1    2    0    0 -0.19410117911E+02  0.94275743516E+01 -0.93544358713E+02  0.96000931675E+02  0.00000000000E+00 0.  1.
         22    1    1    2    0    0  0.72986100462E+01 -0.11304931533E+02  0.35811992178E+02  0.38256633011E+02  0.00000000000E+00 0.  1.
</event>
<event>
 6    1  0.2406404E-005  0.1130274E+03  0.7818608E-02  0.1265177E+00
          2   -1    0    0  502    0  0.00000000000E+00  0.00000000000E+00  0.45395647476E+02  0.45395647476E+02  0.00000000000E+00 0. -1.
          1   -1    0    0  501    0 -0.00000000000E+00 -0.00000000000E+00 -0.25967482795E+03  0.25967482795E+03  0.00000000000E+00 0. -1.
          2    1    1    2  501    0 -0.26408855116E+02  0.29620513947E+01 -0.54885992171E+02  0.60980927458E+02  0.00000000000E+00 0. -1.
          1    1    1    2  502    0  0.25600032416E+02 -0.42204145149E+02 -0.39471471506E+02  0.63202441333E+02  0.00000000000E+00 0. -1.
         22    1    1    2    0    0  0.60854084254E+02  0.14237982098E+02 -0.28501918384E+02  0.68689875936E+02  0.00000000000E+00 0. -1.
         22    1    1    2    0    0 -0.60045261554E+02  0.25004111657E+02 -0.91419798414E+02  0.11219723070E+03  0.00000000000E+00 0. -1.
</event>
<event>
 6    1  0.2406404E-005  0.1996526E+03  0.7818608E-02  0.1198096E+00
          2   -1    0    0  502    0  0.00000000000E+00  0.00000000000E+00  0.30562732008E+02  0.30562732008E+02  0.00000000000E+00 0.  1.
          1   -1    0    0  501    0 -0.00000000000E+00 -0.00000000000E+00 -0.59057517113E+03  0.59057517113E+03  0.00000000000E+00 0.  1.
          2    1    1    2  501    0  0.31115502283E+01 -0.22949410526E+02 -0.65562749257E+02  0.69532951027E+02  0.00000000000E+00 0.  1.
          1    1    1    2  502    0  0.71036717202E+02  0.65400075207E+02 -0.21392204238E+03  0.23470412277E+03  0.00000000000E+00 0.  1.
         22    1    1    2    0    0  0.27828205636E+02 -0.27487393658E+02 -0.43883459847E+02  0.58785405393E+02  0.00000000000E+00 0.  1.
         22    1    1    2    0    0 -0.10197647307E+03 -0.14963271023E+02 -0.23664418764E+03  0.25811542395E+03  0.00000000000E+00 0.  1.
</event>
<event>
 6    1  0.2406404E-005  0.2558569E+02  0.7818608E-02  0.1702215E+00
          2   -1    0    0  502    0  0.00000000000E+00  0.00000000000E+00  0.13457046210E+03  0.13457046210E+03  0.00000000000E+00 0. -1.
          1   -1    0    0  501    0 -0.00000000000E+00 -0.00000000000E+00 -0.11810777680E+03  0.11810777680E+03  0.00000000000E+00 0.  1.
          2    1    1    2  501    0 -0.17705035264E+02  0.46070943393E+02 -0.20001063636E+01  0.49396361448E+02  0.00000000000E+00 0. -1.
          1    1    1    2  502    0  0.19059458962E+02 -0.11017448531E+02 -0.54254908549E+02  0.58551193410E+02  0.00000000000E+00 0.  1.
         22    1    1    2    0    0  0.47324023898E+01 -0.22814013282E+02  0.10611571408E+03  0.10864354379E+03  0.00000000000E+00 0. -1.
         22    1    1    2    0    0 -0.60868260875E+01 -0.12239481580E+02 -0.33398013865E+02  0.36087140248E+02  0.00000000000E+00 0. -1.
</event>
<event>
 6    1  0.2406404E-005  0.1945152E+03  0.7818608E-02  0.1165177E+00
          2   -1    0    0  502    0  0.00000000000E+00  0.00000000000E+00  0.10861791243E+03  0.10861791243E+03  0.00000000000E+00 0.  1.
          1   -1    0    0  501    0 -0.00000000000E+00 -0.00000000000E+00 -0.52732934841E+03  0.52732934841E+03  0.00000000000E+00 0.  1.
          2    1    1    2  501    0 -0.57508519696E+02  0.94482821818E+01  0.85429963500E+00  0.58285758996E+02  0.00000000000E+00 0.  1.
          1    1    1    2  502    0  0.26378984748E+02 -0.12678616691E+03 -0.37232124941E+03  0.39420007068E+03  0.00000000000E+00 0.  1.
         22    1    1    2    0    0  0.47998495978E+02  0.26541510278E+02 -0.69433106703E+02  0.88483126586E+02  0.00000000000E+00 0.  1.
         22    1    1    2    0    0 -0.16868961030E+02  0.90796374454E+02  0.22188620501E+02  0.94978304575E+02  0.00000000000E+00 0.  1.
</event>
<event>
 6    1  0.2406404E-005  0.5660375E+02  0.7818608E-02  0.1462429E+00
          2   -1    0    0  502    0  0.00000000000E+00  0.00000000000E+00  0.38548132585E+02  0.38548132585E+02  0.00000000000E+00 0. -1.
          1   -1    0    0  501    0 -0.00000000000E+00 -0.00000000000E+00 -0.45480174518E+03  0.45480174518E+03  0.00000000000E+00 0. -1.
          2    1    1    2  501    0  0.18153324885E+02 -0.21173384655E+02 -0.41804939277E+01  0.28201630300E+02  0.00000000000E+00 0. -1.
          1    1    1    2  502    0 -0.10187812104E+02  0.34474440007E+02 -0.29263663098E+03  0.29483635516E+03  0.00000000000E+00 0. -1.
         22    1    1    2    0    0  0.18282847449E+02 -0.18851047919E+02  0.16986662460E+02  0.31275728928E+02  0.00000000000E+00 0.  1.
         22    1    1    2    0    0 -0.26248360229E+02  0.55499925658E+01 -0.13642315015E+03  0.13903616339E+03  0.00000000000E+00 0. -1.
</event>
<event>
 6    1  0.2406404E-005  0.1442015E+03  0.7818608E-02  0.1235015E+00
          2   -1    0    0  502    0  0.00000000000E+00  0.00000000000E+00  0.10732315684E+04  0.10732315684E+04  0.00000000000E+00 0. -1.
          1   -1    0    0  501    0 -0.00000000000E+00 -0.00000000000E+00 -0.38785425860E+02  0.38785425860E+02  0.00000000000E+00 0. -1.
          2    1    1    2  501    0 -0.13139636634E+03 -0.33637390075E+01  0.48260996271E+03  0.50018866035E+03  0.00000000000E+00 0. -1.
          1    1    1    2  502    0  0.43957268181E+02  0.69698993671E+02  0.92687488434E+02  0.12402081139E+03  0.00000000000E+00 0. -1.
         22    1    1    2    0    0  0.21727977907E+02 -0.78561175479E+02  0.35361996481E+03  0.36289260509E+03  0.00000000000E+00 0. -1.
         22    1    1    2    0    0  0.65711120256E+02  0.12225920815E+02  0.10552872660E+03  0.12491491746E+03  0.00000000000E+00 0.  1.
</event>
<event>
 6    1  0.2406404E-005  0.7906822E+02  0.7818608E-02  0.1383162E+00
          2   -1    0    0  502    0  0.00000000000E+00  0.00000000000E+00  0.19179618971E+03  0.19179618971E+03  0.00000000000E+00 0. -1.
          1   -1    0    0  501    0 -0.00000000000E+00 -0.00000000000E+00 -0.13609880070E+03  0.13609880070E+03  0.00000000000E+00 0.  1.
          2    1    1    2  501    0  0.38909107694E+02  0.97645240891E+01  0.50010659294E+02  0.64111860333E+02  0.00000000000E+00 0. -1.
          1    1    1    2  502    0 -0.50157287749E+02 -0.47100902929E+02 -0.80903791514E+02  0.10620580047E+03  0.00000000000E+00 0.  1.
         22    1    1    2    0    0 -0.19374637928E+02  0.26938873632E+02 -0.24903288906E+02  0.41487989897E+02  0.00000000000E+00 0.  1.
         22    1    1    2    0    0  0.30622817982E+02  0.10397505208E+02  0.11149381014E+03  0.11608933971E+03  0.00000000000E+00 0. -1.
</event>
<event>
 6    1  0.2406404E-005  0.1354205E+03  0.7818608E-02  0.1220336E+00
          2   -1    0    0  502    0  0.00000000000E+00  0.00000000000E+00  0.96838416076E+02  0.96838416076E+02  0.00000000000E+00 0. -1.
          1   -1    0    0  501    0 -0.00000000000E+00 -0.00000000000E+00 -0.50249018625E+03  0.50249018625E+03  0.00000000000E+00 0. -1.
          2    1    1    2  501    0 -0.95250115848E+02 -0.11230683399E+03 -0.22581877262E+03  0.26959140861E+03  0.00000000000E+00 0. -1.
          1    1    1    2  502    0  0.10631737486E+03 -0.44733040323E+01 -0.84155442220E+02  0.13566699341E+03  0.00000000000E+00 0. -1.
         22    1    1    2    0    0  0.23796449079E+02 -0.15122065595E+02 -0.13930744427E+01  0.28229213823E+02  0.00000000000E+00 0.  1.
         22    1    1    2    0    0 -0.34863708092E+02  0.13190220361E+03 -0.94284480889E+02  0.16584098648E+03  0.00000000000E+00 0.  1.
</event>
<event>
 6    1  0.2406404E-005  0.7091291E+02  0.7818608E-02  0.1360005E+00
          2   -1    0    0  502    0  0.00000000000E+00  0.00000000000E+00  0.91595743445E+02  0.91595743445E+02  0.00000000000E+00 0. -1.
          1   -1    0    0  501    0 -0.00000000000E+00 -0.00000000000E+00 -0.14022189494E+03  0.14022189494E+03  0.00000000000E+00 0. -1.
          2    1    1    2  501    0 -0.24149038980E+02 -0.49137806088E+01  0.43140434681E+02  0.49683180534E+02  0.00000000000E+00 0. -1.
          1    1    1    2  502    0  0.25759794992E+02  0.93914180141E+01 -0.20465214471E+02  0.34213897376E+02  0.00000000000E+00 0. -1.
         22    1    1    2    0    0 -0.11299637433E+02  0.33034940298E+02 -0.95879542262E+02  0.10203859912E+03  0.00000000000E+00 0. -1.
         22    1    1    2    0    0  0.96888814217E+01 -0.37512577703E+02  0.24578170560E+02  0.45881961349E+02  0.00000000000E+00 0. -1.
</event>
<event>
 6    1  0.2406404E-005  0.3399204E+03  0.7818608E-02  0.1072629E+00
          2   -1    0    0  502    0  0.00000000000E+00  0.00000000000E+00  0.17302016047E+03  0.17302016047E+03  0.00000000000E+00 0.  1.
          1   -1    0    0  501    0 -0.00000000000E+00 -0.00000000000E+00 -0.63479844204E+03  0.63479844204E+03  0.00000000000E+00 0.  1.
          2    1    1    2  501    0  0.53515479915E+02 -0.26338792898E+03 -0.74258265452E+02  0.27883937618E+03  0.00000000000E+00 0.  1.
          1    1    1    2  502    0 -0.88573415415E+01  0.10849212312E+03 -0.23725707895E+02  0.11140871821E+03  0.00000000000E+00 0.  1.
         22    1    1    2    0    0  0.65999603755E+01 -0.18363095289E+02 -0.14497032044E+02  0.24308983599E+02  0.00000000000E+00 0.  1.
         22    1    1    2    0    0 -0.51258098749E+02  0.17325890115E+03 -0.34929727619E+03  0.39326152452E+03  0.00000000000E+00 0.  1.
</event>
<event>
 6    1  0.2406404E-005  0.1107040E+03  0.7818608E-02  0.1263028E+00
          2   -1    0    0  502    0  0.00000000000E+00  0.00000000000E+00  0.31107656684E+03  0.31107656684E+03  0.00000000000E+00 0. -1.
          1   -1    0    0  501    0 -0.00000000000E+00 -0.00000000000E+00 -0.19939681792E+03  0.19939681792E+03  0.00000000000E+00 0.  1.
          2    1    1    2  501    0  0.49514839826E+02  0.68181055721E+02  0.22081382444E+03  0.23634534221E+03  0.00000000000E+00 0. -1.
          1    1    1    2  502    0 -0.58904913916E+02 -0.58017027366E+02 -0.11935012804E+03  0.14519028002E+03  0.00000000000E+00 0.  1.
         22    1    1    2    0    0  0.33518969610E+01 -0.26943913420E+02 -0.54994934414E+02  0.61332311996E+02  0.00000000000E+00 0. -1.
         22    1    1    2    0    0  0.60381771287E+01  0.16779885064E+02  0.65210986932E+02  0.67605450538E+02  0.00000000000E+00 0. -1.
</event>
<event>
 6    1  0.2406404E-005  0.1661648E+03  0.7818608E-02  0.1184342E+00
          2   -1    0    0  502    0  0.00000000000E+00  0.00000000000E+00  0.82742584375E+03  0.82742584375E+03  0.00000000000E+00 0.  1.
          1   -1    0    0  501    0 -0.00000000000E+00 -0.00000000000E+00 -0.12199491190E+03  0.12199491190E+03  0.00000000000E+00 0. -1.
          2    1    1    2  501    0  0.89331145954E+02  0.88210863652E+02  0.53099621282E+03  0.54563558180E+03  0.00000000000E+00 0.  1.
          1    1    1    2  502    0 -0.71291388248E+02 -0.10582023615E+03 -0.58000761720E+02  0.14015874135E+03  0.00000000000E+00 0. -1.
         22    1    1    2    0    0 -0.17659514344E+02 -0.21284221851E+02 -0.30515759711E+00  0.27658085035E+02  0.00000000000E+00 0. -1.
         22    1    1    2    0    0 -0.38024336232E+00  0.38893594348E+02  0.23274063834E+03  0.23596834746E+03  0.00000000000E+00 0.  1.
</event>
<event>
 6    1  0.2406404E-005  0.5359538E+02  0.7818608E-02  0.1431516E+00
          2   -1    0    0  502    0  0.00000000000E+00  0.00000000000E+00  0.22406699468E+03  0.22406699468E+03  0.00000000000E+00 0. -1.
          1   -1    0    0  501    0 -0.00000000000E+00 -0.00000000000E+00 -0.14063177067E+03  0.14063177067E+03  0.00000000000E+00 0. -1.
          2    1    1    2  501    0  0.31400700554E+02 -0.90860138388E+01  0.16529006185E+03  0.16849143655E+03  0.00000000000E+00 0. -1.
          1    1    1    2  502    0 -0.30198181352E+02  0.74850373601E+00 -0.57008003923E+02  0.64516687191E+02  0.00000000000E+00 0. -1.
         22    1    1    2    0    0 -0.16544837080E+02  0.13241149557E+02 -0.75563014105E+02  0.78478205740E+02  0.00000000000E+00 0. -1.
         22    1    1    2    0    0  0.15342317878E+02 -0.49036394541E+01  0.50716180190E+02  0.53212435866E+02  0.00000000000E+00 0. -1.
</event>
<event>
 6    1  0.2406404E-005  0.7426199E+02  0.7818608E-02  0.1371931E+00
          2   -1    0    0  502    0  0.00000000000E+00  0.00000000000E+00  0.13802973678E+04  0.13802973678E+04  0.00000000000E+00 0.  1.
          1   -1    0    0  501    0 -0.00000000000E+00 -0.00000000000E+00 -0.18184659020E+03  0.18184659020E+03  0.00000000000E+00 0.  1.
          2    1    1    2  501    0 -0.12448761534E+03  0.62141574934E+02  0.12631339723E+04  0.12707738484E+04  0.00000000000E+00 0.  1.
          1    1    1    2  502    0  0.14621858331E+03 -0.40471995943E+02 -0.63623734799E+02  0.16451697843E+03  0.00000000000E+00 0.  1.
         22    1    1    2    0    0 -0.33429606381E+02 -0.35618033493E+01  0.56301394902E+02  0.65574934951E+02  0.00000000000E+00 0. -1.
         22    1    1    2    0    0  0.11698638416E+02 -0.18107775641E+02 -0.57360854776E+02  0.61278196287E+02  0.00000000000E+00 0.  1.
</event>
<event>
 6    1  0.2406404E-005  0.7567333E+02  0.7818608E-02  0.1342770E+00
          2   -1    0    0  502    0  0.00000000000E+00  0.00000000000E+00  0.76956459767E+02  0.76956459767E+02  0.00000000000E+00 0.  1.
          1   -1    0    0  501    0 -0.00000000000E+00 -0.00000000000E+00 -0.23345750956E+03  0.23345750956E+03  0.00000000000E+00 0.  1.
          2    1    1    2  501    0 -0.14865847213E+02 -0.54666168223E+02  0.28089409538E+02  0.63232889304E+02  0.00000000000E+00 0.  1.
          1    1    1    2  502    0  0.12291178792E+02  0.35702932489E+02 -0.71268524572E+02  0.80653425588E+02  0.00000000000E+00 0.  1.
         22    1    1    2    0    0 -0.61418960685E+01 -0.13116987007E+02  0.22465739071E+02  0.26729902122E+02  0.00000000000E+00 0. -1.
         22    1    1    2    0    0  0.87165644892E+01  0.32080222741E+02 -0.13578767383E+03  0.13979775231E+03  0.00000000000E+00 0.  1.
</event>
<event>
 6    1  0.2406404E-005  0.1137319E+03  0.7818608E-02  0.1256649E+00
          2   -1    0    0  502    0  0.00000000000E+00  0.00000000000E+00  0.77397973431E+03  0.77397973431E+03  0.00000000000E+00 0. -1.
          1   -1    0    0  501    0 -0.00000000000E+00 -0.00000000000E+00 -0.20055272861E+02  0.20055272861E+02  0.00000000000E+00 0. -1.
          2    1    1    2  501    0  0.20073650707E+02  0.54140328736E+02  0.26786426994E+03  0.27401714136E+03  0.00000000000E+00 0. -1.
          1    1    1    2  502    0 -0.13263167568E+02 -0.56187558743E+02  0.12328999012E+03  0.13613733887E+03  0.00000000000E+00 0. -1.
         22    1    1    2    0    0  0.43455539096E+02  0.23007701597E+02  0.28332746004E+03  0.28756249377E+03  0.00000000000E+00 0. -1.
         22    1    1    2    0    0 -0.50266022234E+02 -0.20960471590E+02  0.79442741353E+02  0.96318033172E+02  0.00000000000E+00 0. -1.
</event>
<event>
 6    1  0.2406404E-005  0.7755893E+02  0.7818608E-02  0.1375874E+00
          2   -1    0    0  502    0  0.00000000000E+00  0.00000000000E+00  0.59205743903E+02  0.59205743903E+02  0.00000000000E+00 0. -1.
          1   -1    0    0  501    0 -0.00000000000E+00 -0.00000000000E+00 -0.40266732644E+03  0.40266732644E+03  0.00000000000E+00 0. -1.
          2    1    1    2  501    0 -0.19384073901E+01  0.40189750629E+02  0.29915827587E+02  0.50139108678E+02  0.00000000000E+00 0. -1.
          1    1    1    2  502    0  0.74486474973E+01 -0.35282790955E+02 -0.17287662975E+03  0.17659752773E+03  0.00000000000E+00 0. -1.
         22    1    1    2    0    0  0.33233533627E+01  0.39459195842E+02 -0.12137522435E+02  0.41417294274E+02  0.00000000000E+00 0.  1.
         22    1    1    2    0    0 -0.88335934699E+01 -0.44366155516E+02 -0.18836325794E+03  0.19371913966E+03  0.00000000000E+00 0. -1.
</event>
<event>
 6    1  0.2406404E-005  0.1225608E+03  0.7818608E-02  0.1250288E+00
          2   -1    0    0  502    0  0.00000000000E+00  0.00000000000E+00  0.24409405185E+04  0.24409405185E+04  0.00000000000E+00 0. -1.
          1   -1    0    0  501    0 -0.00000000000E+00 -0.00000000000E+00 -0.97130206795E+02  0.97130206795E+02  0.00000000000E+00 0. -1.
          2    1    1    2  501    0  0.43154252048E+02  0.11037731526E+03  0.20938617729E+04  0.20972130472E+04  0.00000000000E+00 0. -1.
          1    1    1    2  502    0  0.12429260075E+02  0.79921366830E+02 -0.20564240002E+02  0.83455373397E+02  0.00000000000E+00 0. -1.
         22    1    1    2    0    0  0.76634469833E+01  0.13163062067E+02  0.31986754830E+01  0.15563616144E+02  0.00000000000E+00 0. -1.
         22    1    1    2    0    0 -0.63246959106E+02 -0.20346174415E+03  0.26731410327E+03  0.34183868853E+03  0.00000000000E+00 0. -1.
</event>
<event>
 6    1  0.2406404E-005  0.6825357E+02  0.7818608E-02  0.1446071E+00
          2   -1    0    0  502    0  0.00000000000E+00  0.00000000000E+00  0.25369817316E+03  0.25369817316E+03  0.00000000000E+00 0.  1.
          1   -1    0    0  501    0 -0.00000000000E+00 -0.00000000000E+00 -0.10299757484E+03  0.10299757484E+03  0.00000000000E+00 0. -1.
          2    1    1    2  501    0 -0.26641327592E+02  0.57748100608E+02  0.16082094401E+03  0.17293923642E+03  0.00000000000E+00 0.  1.
          1    1    1    2  502    0  0.18489535891E+02 -0.96836397224E+01 -0.38335019858E+02  0.43648706318E+02  0.00000000000E+00 0. -1.
         22    1    1    2    0    0  0.25028983774E+02 -0.38406830369E+02 -0.45070065741E+02  0.64287210809E+02  0.00000000000E+00 0. -1.
         22    1    1    2    0    0 -0.16877192073E+02 -0.96576305174E+01  0.73284739912E+02  0.75820594455E+02  0.00000000000E+00 0. -1.
</event>
<event>
 6    1  0.2406404E-005  0.1400628E+03  0.7818608E-02  0.1264355E+00
          2   -1    0    0  502    0  0.00000000000E+00  0.00000000000E+00  0.29151634194E+03  0.29151634194E+03  0.00000000000E+00 0.  1.
          1   -1    0    0  501    0 -0.00000000000E+00 -0.00000000000E+00 -0.96181385526E+03  0.96181385526E+03  0.00000000000E+00 0. -1.
          2    1    1    2  501    0  0.45832785766E+02 -0.15364966647E+03  0.18481225570E+03  0.24467209509E+03  0.00000000000E+00 0.  1.
          1    1    1    2  502    0 -0.14295023455E+03  0.47274917313E+02 -0.79326224426E+03  0.80742471819E+03  0.00000000000E+00 0. -1.
         22    1    1    2    0    0 -0.12136349581E+02  0.47968001436E+02  0.19328770708E+02  0.53120820024E+02  0.00000000000E+00 0.  1.
         22    1    1    2    0    0  0.10925379837E+03  0.58406747722E+02 -0.81176295470E+02  0.14811256389E+03  0.00000000000E+00 0.  1.
</event>
<event>
 6    1  0.2406404E-005  0.6601002E+03  0.7818608E-02  0.9884685E-01
          2   -1    0    0  502    0  0.00000000000E+00  0.00000000000E+00  0.15916513413E+04  0.15916513413E+04  0.00000000000E+00 0. -1.
          1   -1    0    0  501    0 -0.00000000000E+00 -0.00000000000E+00 -0.21303690728E+03  0.21303690728E+03  0.00000000000E+00 0. -1.
          2    1    1    2  501    0 -0.26294976757E+03  0.93677456116E+02  0.72909654111E+03  0.78070468956E+03  0.00000000000E+00 0. -1.
          1    1    1    2  502    0  0.43863745105E+03  0.15093671520E+03  0.40260310720E+03  0.61422631610E+03  0.00000000000E+00 0. -1.
         22    1    1    2    0    0  0.16652553439E+02 -0.20036530632E+01  0.74534949834E+01  0.18354202491E+02  0.00000000000E+00 0. -1.
         22    1    1    2    0    0 -0.19234023693E+03 -0.24261051825E+03  0.23946129075E+03  0.39140304045E+03  0.00000000000E+00 0. -1.
</event>
<event>
 6    1  0.2406404E-005  0.3875035E+02  0.7818608E-02  0.1534842E+00
          2   -1    0    0  502    0  0.00000000000E+00  0.00000000000E+00  0.28664341134E+03  0.28664341134E+03  0.00000000000E+00 0. -1.
          1   -1    0    0  501    0 -0.00000000000E+00 -0.00000000000E+00 -0.58248446999E+02  0.58248446999E+02  0.00000000000E+00 0. -1.
          2    1    1    2  501    0 -0.12652370858E+02 -0.31169320518E+02  0.57981259034E+02  0.67033092045E+02  0.00000000000E+00 0. -1.
          1    1    1    2  502    0 -0.20483514766E+02  0.74910789894E+02  0.34923158082E+02  0.85151792642E+02  0.00000000000E+00 0. -1.
         22    1    1    2    0    0  0.19710964863E+02 -0.16253381929E+02  0.15456106555E+03  0.15665828272E+03  0.00000000000E+00 0. -1.
         22    1    1    2    0    0  0.13424920762E+02 -0.27488087447E+02 -0.19070518325E+02  0.36048690935E+02  0.00000000000E+00 0. -1.
</event>
<event>
 6    1  0.2406404E-005  0.1125789E+03  0.7818608E-02  0.1317859E+00
          2   -1    0    0  502    0  0.00000000000E+00  0.00000000000E+00  0.76741613036E+02  0.76741613036E+02  0.00000000000E+00 0.  1.
          1   -1    0    0  501    0 -0.00000000000E+00 -0.00000000000E+00 -0.45450998037E+03  0.45450998037E+03  0.00000000000E+00 0.  1.
          2    1    1    2  501    0  0.63422910028E+02  0.72276703893E+02 -0.87971639222E+00  0.96162161701E+02  0.00000000000E+00 0.  1.
          1    1    1    2  502    0 -0.72198791219E+02 -0.34457391819E+02 -0.21488739440E+03  0.22929581238E+03  0.00000000000E+00 0.  1.
         22    1    1    2    0    0 -0.21112672604E+02 -0.19559684681E+02 -0.16783627326E+03  0.17028605590E+03  0.00000000000E+00 0.  1.
         22    1    1    2    0    0  0.29888553795E+02 -0.18259627392E+02  0.58350167200E+01  0.35507563428E+02  0.00000000000E+00 0.  1.
</event>
<event>
 6    1  0.2406404E-005  0.8144543E+02  0.7818608E-02  0.1332573E+00
          2   -1    0    0  502    0  0.00000000000E+00  0.00000000000E+00  0.16546466193E+03  0.16546466193E+03  0.00000000000E+00 0.  1.
          1   -1    0    0  501    0 -0.00000000000E+00 -0.00000000000E+00 -0.11564963924E+03  0.11564963924E+03  0.00000000000E+00 0.  1.
          2    1    1    2  501    0  0.75808742267E+01  0.38953514524E+02  0.76935122011E+02  0.86567077729E+02  0.00000000000E+00 0.  1.
          1    1    1    2  502    0 -0.31669779022E+02 -0.91372505940E+01 -0.54341024862E+02  0.63556362662E+02  0.00000000000E+00 0.  1.
         22    1    1    2    0    0  0.27290762025E+02  0.15855480540E+02  0.64592233992E+02  0.71891158338E+02  0.00000000000E+00 0. -1.
         22    1    1    2    0    0 -0.32018572300E+01 -0.45671744470E+02 -0.37371308453E+02  0.59099702437E+02  0.00000000000E+00 0.  1.
</event>
<event>
 6    1  0.2406404E-005  0.9225828E+02  0.7818608E-02  0.1302242E+00
          2   -1    0    0  502    0  0.00000000000E+00  0.00000000000E+00  0.57728680156E+02  0.57728680156E+02  0.00000000000E+00 0.  1.
          1   -1    0    0  501    0 -0.00000000000E+00 -0.00000000000E+00 -0.15065311412E+03  0.15065311412E+03  0.00000000000E+00 0.  1.
          2    1    1    2  501    0 -0.14183892982E+02 -0.31854883561E+02 -0.70184579748E+01  0.35569301077E+02  0.00000000000E+00 0.  1.
          1    1    1    2  502    0  0.19264826601E+02  0.21437655172E+02 -0.11439073029E+02  0.31009014738E+02  0.00000000000E+00 0.  1.
         22    1    1    2    0    0  0.41313050578E+02 -0.27256398971E+02 -0.43683391013E+01  0.49686636226E+02  0.00000000000E+00 0.  1.
         22    1    1    2    0    0 -0.46393984197E+02  0.37673627360E+02 -0.70098563856E+02  0.92116842232E+02  0.00000000000E+00 0.  1.
</event>
<event>
 6    1  0.2406404E-005  0.6498312E+02  0.7818608E-02  0.1393785E+00
          2   -1    0    0  502    0  0.00000000000E+00  0.00000000000E+00  0.20911720351E+03  0.20911720351E+03  0.00000000000E+00 0.  1.
          1   -1    0    0  501    0 -0.00000000000E+00 -0.00000000000E+00 -0.45467287728E+02  0.45467287728E+02  0.00000000000E+00 0. -1.
          2    1    1    2  501    0  0.32055198823E+00  0.20187487100E+02  0.65496250597E+02  0.68537553438E+02  0.00000000000E+00 0.  1.
          1    1    1    2  502    0  0.80882959058E+01 -0.25597019219E+02  0.69811102122E+01  0.27737408375E+02  0.00000000000E+00 0. -1.
         22    1    1    2    0    0 -0.23849254420E+02 -0.20346414428E+02 -0.23876326860E+02  0.39406122631E+02  0.00000000000E+00 0. -1.
         22    1    1    2    0    0  0.15440406526E+02  0.25755946547E+02  0.11504888183E+03  0.11890340679E+03  0.00000000000E+00 0.  1.
</event>
<event>
 6    1  0.2406404E-005  0.1785536E+03  0.7818608E-02  0.1188356E+00
          2   -1    0    0  502    0  0.00000000000E+00  0.00000000000E+00  0.41793465718E+03  0.41793465718E+03  0.00000000000E+00 0.  1.
          1   -1    0    0  501    0 -0.00000000000E+00 -0.00000000000E+00 -0.52665160740E+02  0.52665160740E+02  0.00000000000E+00 0.  1.
          2    1    1    2  501    0  0.62818640131E+02  0.47850420301E+02  0.57795918012E+02  0.97858123883E+02  0.00000000000E+00 0.  1.
          1    1    1    2  502    0 -0.29174970018E+02  0.40425807166E+02  0.11986867959E+03  0.12982266793E+03  0.00000000000E+00 0.  1.
         22    1    1    2    0    0  0.27050216621E+02  0.15697208261E+02  0.58864760832E+02  0.66657157412E+02  0.00000000000E+00 0. -1.
         22    1    1    2    0    0 -0.60693886734E+02 -0.10397343573E+03  0.12874013801E+03  0.17626186870E+03  0.00000000000E+00 0.  1.
</event>
<event>
 6    1  0.2406404E-005  0.5746008E+02  0.7818608E-02  0.1471063E+00
          2   -1    0    0  502    0  0.00000000000E+00  0.00000000000E+00  0.17292770856E+03  0.17292770856E+03  0.00000000000E+00 0.  1.
          1   -1    0    0  501    0 -0.00000000000E+00 -0.00000000000E+00 -0.15965070900E+03  0.15965070900E+03  0.00000000000E+00 0. -1.
          2    1    1    2  501    0  0.38613306007E+02 -0.29363284147E+02  0.77896689191E+02  0.91766464700E+02  0.00000000000E+00 0.  1.
          1    1    1    2  502    0 -0.41423926848E+02  0.15502668358E+02 -0.10173232615E+03  0.11093124278E+03  0.00000000000E+00 0. -1.
         22    1    1    2    0    0  0.15966822010E+02  0.16065334338E+02  0.80949753325E+02  0.84058889689E+02  0.00000000000E+00 0.  1.
         22    1    1    2    0    0 -0.13156201170E+02 -0.22047185488E+01 -0.43837116805E+02  0.45821820380E+02  0.00000000000E+00 0.  1.
</event>
<event>
 6    1  0.2406404E-005  0.1498780E+03  0.7818608E-02  0.1201549E+00
          2   -1    0    0  502    0  0.00000000000E+00  0.00000000000E+00  0.40069976078E+03  0.40069976078E+03  0.00000000000E+00 0.  1.
          1   -1    0    0  501    0 -0.00000000000E+00 -0.00000000000E+00 -0.89321339801E+02  0.89321339801E+02  0.00000000000E+00 0. -1.
          2    1    1    2  501    0 -0.15414492055E+02  0.35995787681E+02  0.65879876585E+02  0.76638511435E+02  0.00000000000E+00 0.  1.
          1    1    1    2  502    0  0.89397675341E+02 -0.96257836319E+02  0.99174289605E+01  0.13174168211E+03  0.00000000000E+00 0. -1.
         22    1    1    2    0    0 -0.73243244742E+02  0.77683963396E+02  0.24082547304E+03  0.26343173600E+03  0.00000000000E+00 0.  1.
         22    1    1    2    0    0 -0.73993854351E+00 -0.17421914759E+02 -0.52443576037E+01  0.18209171030E+02  0.00000000000E+00 0. -1.
</event>
<event>
 6    1  0.2406404E-005  0.2597848E+03  0.7818608E-02  0.1108353E+00
          2   -1    0    0  502    0  0.00000000000E+00  0.00000000000E+00  0.43192586047E+03  0.43192586047E+03  0.00000000000E+00 0. -1.
          1   -1    0    0  501    0 -0.00000000000E+00 -0.00000000000E+00 -0.15921518085E+03  0.15921518085E+03  0.00000000000E+00 0. -1.
          2    1    1    2  501    0  0.20405287064E+03 -0.78994041791E+02  0.15081221607E+03  0.26574792035E+03  0.00000000000E+00 0. -1.
          1    1    1    2  502    0 -0.13932443184E+03  0.66178478450E+02  0.83677610523E+02  0.17547886146E+03  0.00000000000E+00 0. -1.
         22    1    1    2    0    0  0.26766447193E+02 -0.11367974409E+02  0.46576196001E+02  0.54909157446E+02  0.00000000000E+00 0. -1.
         22    1    1    2    0    0 -0.91494885993E+02  0.24183537750E+02 -0.83553429821E+01  0.95005102059E+02  0.00000000000E+00 0. -1.
</event>
<event>
 6    1  0.2406404E-005  0.1071474E+03  0.7818608E-02  0.1301437E+00
          2   -1    0    0  502    0  0.00000000000E+00  0.00000000000E+00  0.78815998986E+03  0.78815998986E+03  0.00000000000E+00 0. -1.
          1   -1    0    0  501    0 -0.00000000000E+00 -0.00000000000E+00 -0.46121605910E+02  0.46121605910E+02  0.00000000000E+00 0. -1.
          2    1    1    2  501    0  0.14234314856E+02  0.10864246137E+03  0.18956967833E+03  0.21895767417E+03  0.00000000000E+00 0. -1.
          1    1    1    2  502    0 -0.32330576239E+02 -0.10900909634E+02  0.37011141403E+03  0.37168071619E+03  0.00000000000E+00 0. -1.
         22    1    1    2    0    0  0.35520024745E+02 -0.10404110668E+03  0.71261502084E+02  0.13101307460E+03  0.00000000000E+00 0. -1.
         22    1    1    2    0    0 -0.17423763363E+02  0.62995549448E+01  0.11109578950E+03  0.11263013081E+03  0.00000000000E+00 0.  1.
</event>
<event>
 6    1  0.2406404E-005  0.6821269E+02  0.7818608E-02  0.1393753E+00
          2   -1    0    0  502    0  0.00000000000E+00  0.00000000000E+00  0.31703219413E+03  0.31703219413E+03  0.00000000000E+00 0. -1.
          1   -1    0    0  501    0 -0.00000000000E+00 -0.00000000000E+00 -0.77964003146E+02  0.77964003146E+02  0.00000000000E+00 0. -1.
          2    1    1    2  501    0 -0.33771641814E+01  0.54934241485E+02 -0.31587786364E+02  0.63458367241E+02  0.00000000000E+00 0. -1.
          1    1    1    2  502    0  0.22594908354E+02 -0.56872057427E+02  0.49524432819E+02  0.78725029346E+02  0.00000000000E+00 0. -1.
         22    1    1    2    0    0 -0.14629838648E+02  0.41045055263E+02  0.20611575096E+03  0.21067138281E+03  0.00000000000E+00 0. -1.
         22    1    1    2    0    0 -0.45879055250E+01 -0.39107239322E+02  0.15015793567E+02  0.42141417880E+02  0.00000000000E+00 0. -1.
</event>
<event>
 6    1  0.2406404E-005  0.4461978E+02  0.7818608E-02  0.1508940E+00
          2   -1    0    0  502    0  0.00000000000E+00  0.00000000000E+00  0.69910149937E+02  0.69910149937E+02  0.00000000000E+00 0.  1.
          1   -1    0    0  501    0 -0.00000000000E+00 -0.00000000000E+00 -0.29488386906E+03  0.29488386906E+03  0.00000000000E+00 0.  1.
          2    1    1    2  501    0 -0.61534874303E+01 -0.27407561695E+02  0.28171340255E+02  0.39782713047E+02  0.00000000000E+00 0.  1.
          1    1    1    2  502    0  0.34378421533E+02  0.45186128243E+02 -0.14812946612E+03  0.15863795506E+03  0.00000000000E+00 0.  1.
         22    1    1    2    0    0 -0.28410440050E+02 -0.26497163434E+01 -0.13220964047E+03  0.13525369915E+03  0.00000000000E+00 0.  1.
         22    1    1    2    0    0  0.18550594742E+00 -0.15128850205E+02  0.27194047208E+02  0.31119651742E+02  0.00000000000E+00 0.  1.
</event>
<event>
 6    1  0.2406404E-005  0.1306962E+03  0.7818608E-02  0.1307249E+00
          2   -1    0    0  502    0  0.00000000000E+00  0.00000000000E+00  0.20802670627E+03  0.20802670627E+03  0.00000000000E+00 0. -1.
          1   -1    0    0  501    0 -0.00000000000E+00 -0.00000000000E+00 -0.65382298969E+03  0.65382298969E+03  0.00000000000E+00 0. -1.
          2    1    1    2  501    0 -0.53553165322E+02  0.65402899709E+02  0.13834480795E+03  0.16212577431E+03  0.00000000000E+00 0. -1.
          1    1    1    2  502    0  0.47950786087E+02 -0.92515356390E+02 -0.56338916274E+03  0.57294477723E+03  0.00000000000E+00 0. -1.
         22    1    1    2    0    0  0.23745669350E+02 -0.13096168137E+02 -0.61194245003E+02  0.66933564482E+02  0.00000000000E+00 0.  1.
         22    1    1    2    0    0 -0.18143290115E+02  0.40208624818E+02  0.40442316375E+02  0.59845579952E+02  0.00000000000E+00 0. -1.
</event>
<event>
 6    1  0.2406404E-005  0.1597512E+03  0.7818608E-02  0.1192139E+00
          2   -1    0    0  502    0  0.00000000000E+00  0.00000000000E+00  0.52292469546E+03  0.52292469546E+03  0.00000000000E+00 0.  1.
          1   -1    0    0  501    0 -0.00000000000E+00 -0.00000000000E+00 -0.46926763387E+02  0.46926763387E+02  0.00000000000E+00 0.  1.
          2    1    1    2  501    0 -0.15944150307E+02 -0.61264251125E+02  0.78390414901E+02  0.10076001957E+03  0.00000000000E+00 0.  1.
          1    1    1    2  502    0  0.79274752702E+02  0.76655799863E+02  0.14802654413E+03  0.18458725805E+03  0.00000000000E+00 0.  1.
         22    1    1    2    0    0  0.11321861299E+02  0.35699716257E+02  0.33487781369E+02  0.50240280504E+02  0.00000000000E+00 0. -1.
         22    1    1    2    0    0 -0.74652463693E+02 -0.51091264994E+02  0.21609319167E+03  0.23426390072E+03  0.00000000000E+00 0. -1.
</event>
<event>
 6    1  0.2406404E-005  0.1164563E+03  0.7818608E-02  0.1253231E+00
          2   -1    0    0  502    0  0.00000000000E+00  0.00000000000E+00  0.93314305271E+02  0.93314305271E+02  0.00000000000E+00 0. -1.
          1   -1    0    0  501    0 -0.00000000000E+00 -0.00000000000E+00 -0.13962810273E+03  0.13962810273E+03  0.00000000000E+00 0. -1.
          2    1    1    2  501    0 -0.22560770096E+02 -0.34399149167E+02 -0.23730495184E+02  0.47491327760E+02  0.00000000000E+00 0. -1.
          1    1    1    2  502    0  0.26790417222E+02  0.34479121568E+02  0.23841609276E+02  0.49748955888E+02  0.00000000000E+00 0. -1.
         22    1    1    2    0    0 -0.52088931624E+02 -0.39571241370E+02 -0.21929184418E+02  0.68992963921E+02  0.00000000000E+00 0. -1.
         22    1    1    2    0    0  0.47859284497E+02  0.39491268970E+02 -0.24495727129E+02  0.66709160428E+02  0.00000000000E+00 0. -1.
</event>
<event>
 6    1  0.2406404E-005  0.3610460E+02  0.7818608E-02  0.1584446E+00
          2   -1    0    0  502    0  0.00000000000E+00  0.00000000000E+00  0.40770744241E+03  0.40770744241E+03  0.00000000000E+00 0. -1.
          1   -1    0    0  501    0 -0.00000000000E+00 -0.00000000000E+00 -0.13629579573E+03  0.13629579573E+03  0.00000000000E+00 0. -1.
          2    1    1    2  501    0 -0.19479774847E+02 -0.38255128983E+02  0.28664333971E+03  0.28984016409E+03  0.00000000000E+00 0. -1.
          1    1    1    2  502    0  0.30335518544E+02  0.40213436281E+02 -0.91502677325E+02  0.10445144375E+03  0.00000000000E+00 0. -1.
         22    1    1    2    0    0 -0.23508483444E+02  0.17179386201E+01  0.11052519898E+03  0.11301070620E+03  0.00000000000E+00 0.  1.
         22    1    1    2    0    0  0.12652739747E+02 -0.36762459183E+01 -0.34254214678E+02  0.36700924107E+02  0.00000000000E+00 0.  1.
</event>
<event>
 6    1  0.2406404E-005  0.7169930E+02  0.7818608E-02  0.1365089E+00
          2   -1    0    0  502    0  0.00000000000E+00  0.00000000000E+00  0.30775761187E+03  0.30775761187E+03  0.00000000000E+00 0.  1.
          1   -1    0    0  501    0 -0.00000000000E+00 -0.00000000000E+00 -0.15989146196E+03  0.15989146196E+03  0.00000000000E+00 0.  1.
          2    1    1    2  501    0 -0.42450161840E+02  0.23208824553E+02  0.25037029223E+03  0.25500186079E+03  0.00000000000E+00 0.  1.
          1    1    1    2  502    0  0.32935559729E+02  0.20223150186E+01 -0.79243695539E+02  0.85839408987E+02  0.00000000000E+00 0.  1.
         22    1    1    2    0    0 -0.22047696498E+01  0.11074245003E+02  0.46200201326E+02  0.47560051663E+02  0.00000000000E+00 0.  1.
         22    1    1    2    0    0  0.11719371761E+02 -0.36305384574E+02 -0.69460648104E+02  0.79247752388E+02  0.00000000000E+00 0.  1.
</event>
<event>
 6    1  0.2406404E-005  0.1824503E+03  0.7818608E-02  0.1191900E+00
          2   -1    0    0  502    0  0.00000000000E+00  0.00000000000E+00  0.32192208849E+03  0.32192208849E+03  0.00000000000E+00 0.  1.
          1   -1    0    0  501    0 -0.00000000000E+00 -0.00000000000E+00 -0.66891921066E+02  0.66891921066E+02  0.00000000000E+00 0.  1.
          2    1    1    2  501    0  0.29960825930E+02 -0.69645423278E+01 -0.11763401422E+02  0.32932257033E+02  0.00000000000E+00 0.  1.
          1    1    1    2  502    0 -0.78548069097E+02  0.52964934517E+02  0.12566596291E+03  0.15737540367E+03  0.00000000000E+00 0.  1.
         22    1    1    2    0    0  0.35205312520E+02  0.39568068958E+02  0.55467838512E+02  0.76692419573E+02  0.00000000000E+00 0.  1.
         22    1    1    2    0    0  0.13381930646E+02 -0.85568461148E+02  0.85659767425E+02  0.12181392928E+03  0.00000000000E+00 0.  1.
</event>
<event>
 6    1  0.2406404E-005  0.1384542E+03  0.7818608E-02  0.1228638E+00
          2   -1    0    0  502    0  0.00000000000E+00  0.00000000000E+00  0.39575164993E+02  0.39575164993E+02  0.00000000000E+00 0. -1.
          1   -1    0    0  501    0 -0.00000000000E+00 -0.00000000000E+00 -0.39642065137E+03  0.39642065137E+03  0.00000000000E+00 0. -1.
          2    1    1    2  501    0 -0.48243864917E+01 -0.29560612968E+02 -0.49642692665E+02  0.57978457025E+02  0.00000000000E+00 0. -1.
          1    1    1    2  502    0 -0.56552031970E+02 -0.31384747532E+02 -0.81195075980E+02  0.10380643073E+03  0.00000000000E+00 0. -1.
         22    1    1    2    0    0  0.86956898613E+02  0.61133179929E+02 -0.10105282842E+03  0.14666438571E+03  0.00000000000E+00 0. -1.
         22    1    1    2    0    0 -0.25580480151E+02 -0.18781942952E+00 -0.12495488931E+03  0.12754654289E+03  0.00000000000E+00 0.  1.
</event>
<event>
 6    1  0.2406404E-005  0.1373797E+03  0.7818608E-02  0.1263857E+00
          2   -1    0    0  502    0  0.00000000000E+00  0.00000000000E+00  0.72181383201E+03  0.72181383201E+03  0.00000000000E+00 0. -1.
          1   -1    0    0  501    0 -0.00000000000E+00 -0.00000000000E+00 -0.40670607851E+03  0.40670607851E+03  0.00000000000E+00 0.  1.
          2    1    1    2  501    0  0.45293557787E+02 -0.11760001563E+03  0.66915227746E+03  0.68091558983E+03  0.00000000000E+00 0. -1.
          1    1    1    2  502    0 -0.13933135545E+01  0.11222703456E+03 -0.25592516574E+03  0.27945400170E+03  0.00000000000E+00 0.  1.
         22    1    1    2    0    0 -0.51505112639E+02  0.12273305323E+02 -0.12694815582E+03  0.13754724612E+03  0.00000000000E+00 0.  1.
         22    1    1    2    0    0  0.76048684069E+01 -0.69003242569E+01  0.28828797594E+02  0.30603072869E+02  0.00000000000E+00 0.  1.
</event>
<event>
 6    1  0.2406404E-005  0.3079565E+02  0.7818608E-02  0.1589722E+00
          2   -1    0    0  502    0  0.00000000000E+00  0.00000000000E+00  0.21835823517E+03  0.21835823517E+03  0.00000000000E+00 0.  1.
          1   -1    0    0  501    0 -0.00000000000E+00 -0.00000000000E+00 -0.56667420686E+02  0.56667420686E+02  0.00000000000E+00 0.  1.
          2    1    1    2  501    0 -0.36261769185E+02 -0.18114984548E+02  0.77582188051E+02  0.87533219251E+02  0.00000000000E+00 0.  1.
          1    1    1    2  502    0  0.37647123885E+02  0.77583519400E+01 -0.18139554795E+01  0.38481013450E+02  0.00000000000E+00 0.  1.
         22    1    1    2    0    0  0.18882694498E+02  0.67137390374E+01 -0.27336399333E+02  0.33895562716E+02  0.00000000000E+00 0.  1.
         22    1    1    2    0    0 -0.20268049198E+02  0.36428935705E+01  0.11325898125E+03  0.11511586044E+03  0.00000000000E+00 0.  1.
</event>
<event>
 6    1  0.2406404E-005  0.1047662E+03  0.7818608E-02  0.1306701E+00
          2   -1    0    0  502    0  0.00000000000E+00  0.00000000000E+00  0.82090859629E+03  0.82090859629E+03  0.00000000000E+00 0. -1.
          1   -1    0    0  501    0 -0.00000000000E+00 -0.00000000000E+00 -0.24674015104E+02  0.24674015104E+02  0.00000000000E+00 0. -1.
          2    1    1    2  501    0 -0.81943403531E+02 -0.30298447911E+02  0.17363497431E+03  0.19437546561E+03  0.00000000000E+00 0. -1.
          1    1    1    2  502    0  0.50621459060E+02 -0.14312714011E+02  0.15266601983E+03  0.16147538360E+03  0.00000000000E+00 0. -1.
         22    1    1    2    0    0  0.77607483677E+02  0.18430912216E+02  0.21521181256E+03  0.22951850538E+03  0.00000000000E+00 0. -1.
         22    1    1    2    0    0 -0.46285539205E+02  0.26180249707E+02  0.25472177448E+03  0.26021325679E+03  0.00000000000E+00 0. -1.
</event>
<event>
 6    1  0.2406404E-005  0.3826158E+03  0.7818608E-02  0.1051569E+00
          2   -1    0    0  502    0  0.00000000000E+00  0.00000000000E+00  0.11618057570E+03  0.11618057570E+03  0.00000000000E+00 0.  1.
          1   -1    0    0  501    0 -0.00000000000E+00 -0.00000000000E+00 -0.12209541659E+04  0.12209541659E+04  0.00000000000E+00 0.  1.
          2    1    1    2  501    0  0.79513142406E+02  0.26127806213E+03 -0.54951320600E+03  0.61363941296E+03  0.00000000000E+00 0.  1.
          1    1    1    2  502    0 -0.65685143230E+02 -0.31865287366E+03 -0.43394165880E+03  0.54236478055E+03  0.00000000000E+00 0.  1.
         22    1    1    2    0    0  0.88761187647E+01 -0.36531594112E+02 -0.28734092030E+02  0.47317976473E+02  0.00000000000E+00 0. -1.
         22    1    1    2    0    0 -0.22704117940E+02  0.93906405647E+02 -0.92584633405E+02  0.13381257167E+03  0.00000000000E+00 0.  1.
</event>
<event>
 6    1  0.2406404E-005  0.1402219E+03  0.7818608E-02  0.1213125E+00
          2   -1    0    0  502    0  0.00000000000E+00  0.00000000000E+00  0.30269009107E+03  0.30269009107E+03  0.00000000000E+00 0. -1.
          1   -1    0    0  501    0 -0.00000000000E+00 -0.00000000000E+00 -0.42434172512E+03  0.42434172512E+03  0.00000000000E+00 0.  1.
          2    1    1    2  501    0  0.86258467992E+02  0.26869831901E+02  0.15139632272E+03  0.17630472966E+03  0.00000000000E+00 0. -1.
          1    1    1    2  502    0 -0.12690019229E+03 -0.13372182152E+02 -0.36812353321E+03  0.38961187066E+03  0.00000000000E+00 0.  1.
         22    1    1    2    0    0 -0.64516237969E+01 -0.10458407681E+02 -0.27309556348E+02  0.29946846391E+02  0.00000000000E+00 0.  1.
         22    1    1    2    0    0  0.47093348099E+02 -0.30392420675E+01  0.12238513278E+03  0.13116836949E+03  0.00000000000E+00 0. -1.
</event>
<event>
 6    1  0.2406404E-005  0.2672509E+03  0.7818608E-02  0.1111336E+00
          2   -1    0    0  502    0  0.00000000000E+00  0.00000000000E+00  0.43635521015E+02  0.43635521015E+02  0.00000000000E+00 0. -1.
          1   -1    0    0  501    0 -0.00000000000E+00 -0.00000000000E+00 -0.17478808670E+04  0.17478808670E+04  0.00000000000E+00 0. -1.
          2    1    1    2  501    0 -0.37085392604E+02 -0.19433411265E+03 -0.11191373599E+04  0.11364899929E+04  0.00000000000E+00 0. -1.
          1    1    1    2  502    0  0.29903729303E+02 -0.78951292137E+01 -0.85516798477E+01  0.32088897141E+02  0.00000000000E+00 0. -1.
         22    1    1    2    0    0 -0.14873882233E+02 -0.88008375094E+01 -0.97154516285E+02  0.98679720045E+02  0.00000000000E+00 0.  1.
         22    1    1    2    0    0  0.22055545535E+02  0.21103007938E+03 -0.47940178999E+03  0.52425777794E+03  0.00000000000E+00 0. -1.
</event>
<event>
 6    1  0.2406404E-005  0.6716182E+02  0.7818608E-02  0.1373474E+00
          2   -1    0    0  502    0  0.00000000000E+00  0.00000000000E+00  0.19727463676E+03  0.19727463676E+03  0.00000000000E+00 0.  1.
          1   -1    0    0  501    0 -0.00000000000E+00 -0.00000000000E+00 -0.21601793236E+03  0.21601793236E+03  0.00000000000E+00 0. -1.
          2    1    1    2  501    0 -0.25213537168E+02 -0.32132446791E+02  0.83053436983E+02  0.92553173840E+02  0.00000000000E+00 0.  1.
          1    1    1    2  502    0  0.26816088168E+02  0.44297433375E+02 -0.17200358289E+03  0.17962905587E+03  0.00000000000E+00 0. -1.
         22    1    1    2    0    0 -0.11438078669E+02 -0.18258508771E+02  0.10357552247E+03  0.10579268236E+03  0.00000000000E+00 0.  1.
         22    1    1    2    0    0  0.98355276698E+01  0.60935221872E+01 -0.33368672167E+02  0.35317657048E+02  0.00000000000E+00 0.  1.
</event>
<event>
 6    1  0.2406404E-005  0.1716548E+03  0.7818608E-02  0.1178766E+00
          2   -1    0    0  502    0  0.00000000000E+00  0.00000000000E+00  0.70324843316E+03  0.70324843316E+03  0.00000000000E+00 0.  1.
          1   -1    0    0  501    0 -0.00000000000E+00 -0.00000000000E+00 -0.65110234007E+02  0.65110234007E+02  0.00000000000E+00 0.  1.
          2    1    1    2  501    0  0.95045429336E+02  0.55643777121E+02  0.30829726159E+03  0.32737908467E+03  0.00000000000E+00 0.  1.
          1    1    1    2  502    0 -0.11249454748E+03 -0.37044762084E+02  0.43139676951E+02  0.12604907511E+03  0.00000000000E+00 0.  1.
         22    1    1    2    0    0  0.33855713211E+02  0.29288193007E+02  0.24582328737E+03  0.24986615653E+03  0.00000000000E+00 0.  1.
         22    1    1    2    0    0 -0.16406595071E+02 -0.47887208044E+02  0.40877973234E+02  0.65064350852E+02  0.00000000000E+00 0. -1.
</event>
<event>
 6    1  0.2406404E-005  0.2962722E+02  0.7818608E-02  0.1614746E+00
          2   -1    0    0  502    0  0.00000000000E+00  0.00000000000E+00  0.24763792963E+03  0.24763792963E+03  0.00000000000E+00 0.  1.
          1   -1    0    0  501    0 -0.00000000000E+00 -0.00000000000E+00 -0.82233739247E+02  0.82233739247E+02  0.00000000000E+00 0.  1.
          2    1    1    2  501    0  0.51888848122E+02 -0.20408191181E+02  0.14659621317E+03  0.15684194765E+03  0.00000000000E+00 0.  1.
          1    1    1    2  502    0 -0.30482279422E+02  0.17251754427E+02 -0.17703302407E+02  0.39245373048E+02  0.00000000000E+00 0.  1.
         22    1    1    2    0    0 -0.10764871047E+02  0.14185243638E+02 -0.46279367568E+02  0.49587129865E+02  0.00000000000E+00 0.  1.
         22    1    1    2    0    0 -0.10641697652E+02 -0.11028806884E+02  0.82790647192E+02  0.84197218319E+02  0.00000000000E+00 0.  1.
</event>
<event>
 6    1  0.2406404E-005  0.1517796E+03  0.7818608E-02  0.1270154E+00
          2   -1    0    0  502    0  0.00000000000E+00  0.00000000000E+00  0.54512081872E+02  0.54512081872E+02  0.00000000000E+00 0.  1.
          1   -1    0    0  501    0 -0.00000000000E+00 -0.00000000000E+00 -0.61565722666E+03  0.61565722666E+03  0.00000000000E+00 0.  1.
          2    1    1    2  501    0 -0.11871791702E+02  0.13058736625E+03 -0.21776065056E+03  0.25419225125E+03  0.00000000000E+00 0.  1.
          1    1    1    2  502    0 -0.17860518244E+01 -0.10498706127E+03 -0.19923814047E+03  0.22521391971E+03  0.00000000000E+00 0.  1.
         22    1    1    2    0    0  0.25094628967E+02 -0.58403513821E+02 -0.14244135154E+03  0.15598156769E+03  0.00000000000E+00 0.  1.
         22    1    1    2    0    0 -0.11436785441E+02  0.32803208839E+02 -0.17050022254E+01  0.34781569889E+02  0.00000000000E+00 0.  1.
</event>
<event>
 6    1  0.2406404E-005  0.8991474E+02  0.7818608E-02  0.1305191E+00
          2   -1    0    0  502    0  0.00000000000E+00  0.00000000000E+00  0.76697090891E+02  0.76697090891E+02  0.00000000000E+00 0. -1.
          1   -1    0    0  501    0 -0.00000000000E+00 -0.00000000000E+00 -0.41301935151E+03  0.41301935151E+03  0.00000000000E+00 0.  1.
          2    1    1    2  501    0  0.20436702428E+02 -0.24112474891E+02  0.45455724075E+02  0.55365089205E+02  0.00000000000E+00 0. -1.
          1    1    1    2  502    0 -0.39597235735E+02  0.37833096405E+02 -0.22485535267E+03  0.23142863670E+03  0.00000000000E+00 0.  1.
         22    1    1    2    0    0  0.20415814575E+02  0.28522032929E+02 -0.15678554477E+03  0.16066119287E+03  0.00000000000E+00 0.  1.
         22    1    1    2    0    0 -0.12552812686E+01 -0.42242654443E+02 -0.13708725092E+00  0.42261523616E+02  0.00000000000E+00 0. -1.
</event>
<event>
 6    1  0.2406404E-005  0.8279657E+02  0.7818608E-02  0.1334513E+00
          2   -1    0    0  502    0  0.00000000000E+00  0.00000000000E+00  0.12825189092E+03  0.12825189092E+03  0.00000000000E+00 0.  1.
          1   -1    0    0  501    0 -0.00000000000E+00 -0.00000000000E+00 -0.13562203375E+03  0.13562203375E+03  0.00000000000E+00 0.  1.
          2    1    1    2  501    0 -0.53015201748E+02  0.30520508043E+01 -0.11669170522E+02  0.54369993297E+02  0.00000000000E+00 0.  1.
          1    1    1    2  502    0  0.63594483418E+02  0.33276879556E+02  0.28848369235E+02  0.77355267705E+02  0.00000000000E+00 0.  1.
         22    1    1    2    0    0  0.45452096936E+02 -0.47260336857E+02 -0.34668512332E+02  0.74171007160E+02  0.00000000000E+00 0. -1.
         22    1    1    2    0    0 -0.56031378607E+02  0.10931406497E+02  0.10119170796E+02  0.57977656508E+02  0.00000000000E+00 0.  1.
</event>
<event>
 6    1  0.2406404E-005  0.3838302E+02  0.7818608E-02  0.1619421E+00
          2   -1    0    0  502    0  0.00000000000E+00  0.00000000000E+00  0.18354063639E+03  0.18354063639E+03  0.00000000000E+00 0.  1.
          1   -1    0    0  501    0 -0.00000000000E+00 -0.00000000000E+00 -0.10469811581E+03  0.10469811581E+03  0.00000000000E+00 0.  1.
          2    1    1    2  501    0 -0.33141179296E+02  0.52141963580E+01  0.11011476365E+03  0.11511206185E+03  0.00000000000E+00 0.  1.
          1    1    1    2  502    0  0.19527593838E+02 -0.78137587014E+01 -0.41053911743E+02  0.46128141254E+02  0.00000000000E+00 0.  1.
         22    1    1    2    0    0  0.13634203161E+02 -0.85134406972E+01 -0.57038734486E+02  0.59260335808E+02  0.00000000000E+00 0.  1.
         22    1    1    2    0    0 -0.20617703243E-01  0.11113003041E+02  0.66820403154E+02  0.67738213287E+02  0.00000000000E+00 0.  1.
</event>
<event>
 6    1  0.2406404E-005  0.5686212E+02  0.7818608E-02  0.1465405E+00
          2   -1    0    0  502    0  0.00000000000E+00  0.00000000000E+00  0.18563508853E+03  0.18563508853E+03  0.00000000000E+00 0.  1.
          1   -1    0    0  501    0 -0.00000000000E+00 -0.00000000000E+00 -0.76171649157E+03  0.76171649157E+03  0.00000000000E+00 0.  1.
          2    1    1    2  501    0 -0.93360768797E+00  0.55055849657E+02  0.12615679744E+03  0.13765012076E+03  0.00000000000E+00 0.  1.
          1    1    1    2  502    0 -0.49613212394E+02 -0.21991773005E+02 -0.66726641893E+03  0.66946962796E+03  0.00000000000E+00 0.  1.
         22    1    1    2    0    0  0.21188717926E+02  0.73278581390E+01  0.42506294469E+02  0.48056678430E+02  0.00000000000E+00 0. -1.
         22    1    1    2    0    0  0.29358102156E+02 -0.40391934792E+02 -0.77478076017E+02  0.92175152952E+02  0.00000000000E+00 0.  1.
</event>
<event>
 6    1  0.2406404E-005  0.4815287E+02  0.7818608E-02  0.1566889E+00
          2   -1    0    0  502    0  0.00000000000E+00  0.00000000000E+00  0.27353517096E+03  0.27353517096E+03  0.00000000000E+00 0. -1.
          1   -1    0    0  501    0 -0.00000000000E+00 -0.00000000000E+00 -0.18521147160E+04  0.18521147160E+04  0.00000000000E+00 0.  1.
          2    1    1    2  501    0 -0.24280339900E+01  0.29897895215E+02  0.19816911986E+03  0.20042649414E+03  0.00000000000E+00 0. -1.
          1    1    1    2  502    0  0.21199936773E+02 -0.43669387056E+02 -0.17971628747E+04  0.17978183587E+04  0.00000000000E+00 0.  1.
         22    1    1    2    0    0 -0.10578518382E+02 -0.12453164958E+01 -0.51957994975E+02  0.53038562445E+02  0.00000000000E+00 0.  1.
         22    1    1    2    0    0 -0.81933844010E+01  0.15016808336E+02  0.72372204797E+02  0.74366471664E+02  0.00000000000E+00 0. -1.
</event>
<event>
 6    1  0.2406404E-005  0.1337488E+03  0.7818608E-02  0.1261779E+00
          2   -1    0    0  502    0  0.00000000000E+00  0.00000000000E+00  0.87244311433E+02  0.87244311433E+02  0.00000000000E+00 0.  1.
          1   -1    0    0  501    0 -0.00000000000E+00 -0.00000000000E+00 -0.14558880242E+03  0.14558880242E+03  0.00000000000E+00 0. -1.
          2    1    1    2  501    0 -0.24018485158E+02 -0.40222537078E+01  0.33535110487E+01  0.24582762060E+02  0.00000000000E+00 0.  1.
          1    1    1    2  502    0  0.63224060232E+02  0.72707260243E+01 -0.37407938848E+00  0.63641850889E+02  0.00000000000E+00 0. -1.
         22    1    1    2    0    0 -0.20331682355E+02 -0.28342471497E+02 -0.93412823736E+02  0.99712730563E+02  0.00000000000E+00 0. -1.
         22    1    1    2    0    0 -0.18873892720E+02  0.25093999180E+02  0.32088901090E+02  0.44895770340E+02  0.00000000000E+00 0. -1.
</event>
<event>
 6    1  0.2406404E-005  0.3521847E+02  0.7818608E-02  0.1638751E+00
          2   -1    0    0  502    0  0.00000000000E+00  0.00000000000E+00  0.33970038516E+03  0.33970038516E+03  0.00000000000E+00 0. -1.
          1   -1    0    0  501    0 -0.00000000000E+00 -0.00000000000E+00 -0.16281824011E+03  0.16281824011E+03  0.00000000000E+00 0. -1.
          2    1    1    2  501    0 -0.17883401636E+01  0.28674433586E+02  0.29265646685E+03  0.29406330763E+03  0.00000000000E+00 0. -1.
          1    1    1    2  502    0 -0.25505917842E+02 -0.25278432382E+02 -0.56811021595E+02  0.67208951512E+02  0.00000000000E+00 0. -1.
         22    1    1    2    0    0  0.29274363587E+02 -0.13749246815E+02 -0.96752231535E+02  0.10201482470E+03  0.00000000000E+00 0. -1.
         22    1    1    2    0    0 -0.19801055819E+01  0.10353245612E+02  0.37788931325E+02  0.39231541437E+02  0.00000000000E+00 0. -1.
</event>
<event>
 6    1  0.2406404E-005  0.2447966E+03  0.7818608E-02  0.1136150E+00
          2   -1    0    0  502    0  0.00000000000E+00  0.00000000000E+00  0.28649764822E+03  0.28649764822E+03  0.00000000000E+00 0.  1.
          1   -1    0    0  501    0 -0.00000000000E+00 -0.00000000000E+00 -0.13966906737E+03  0.13966906737E+03  0.00000000000E+00 0.  1.
          2    1    1    2  501    0 -0.20746811995E+02 -0.41794447504E+02 -0.60866385179E+02  0.76693695275E+02  0.00000000000E+00 0.  1.
          1    1    1    2  502    0 -0.94435176456E+02 -0.13384621887E+02  0.31762076092E+02  0.10052850408E+03  0.00000000000E+00 0.  1.
         22    1    1    2    0    0  0.67672915559E+02  0.32468393954E+02  0.18109516893E+03  0.19603387543E+03  0.00000000000E+00 0.  1.
         22    1    1    2    0    0  0.47509072892E+02  0.22710675437E+02 -0.51622789915E+01  0.52910640804E+02  0.00000000000E+00 0.  1.
</event>
<event>
 6    1  0.2406404E-005  0.3154416E+02  0.7818608E-02  0.1641717E+00
          2   -1    0    0  502    0  0.00000000000E+00  0.00000000000E+00  0.95224010345E+03  0.95224010345E+03  0.00000000000E+00 0. -1.
          1   -1    0    0  501    0 -0.00000000000E+00 -0.00000000000E+00 -0.15048797733E+03  0.15048797733E+03  0.00000000000E+00 0.  1.
          2    1    1    2  501    0 -0.11679335261E+02 -0.43530738596E+02  0.82197777464E+03  0.82321248416E+03  0.00000000000E+00 0. -1.
          1    1    1    2  502    0 -0.20469817584E+02  0.37296674229E+02 -0.11034766586E+03  0.11826522186E+03  0.00000000000E+00 0.  1.
         22    1    1    2    0    0  0.96480103802E+01  0.54532417398E+01 -0.33659951667E+02  0.35437470226E+02  0.00000000000E+00 0.  1.
         22    1    1    2    0    0  0.22501142465E+02  0.78082262703E+00  0.12378196901E+03  0.12581290454E+03  0.00000000000E+00 0. -1.
</event>
<event>
 6    1  0.2406404E-005  0.1508309E+03  0.7818608E-02  0.1222735E+00
          2   -1    0    0  502    0  0.00000000000E+00  0.00000000000E+00  0.62495761680E+02  0.62495761680E+02  0.00000000000E+00 0.  1.
          1   -1    0    0  501    0 -0.00000000000E+00 -0.00000000000E+00 -0.53145449491E+03  0.53145449491E+03  0.00000000000E+00 0. -1.
          2    1    1    2  501    0  0.18000926139E+02  0.74099734486E+02  0.11634411014E+02  0.77137302989E+02  0.00000000000E+00 0.  1.
          1    1    1    2  502    0  0.10523663154E+02  0.20115873377E+02 -0.22066228615E+02  0.31659347643E+02  0.00000000000E+00 0. -1.
         22    1    1    2    0    0 -0.18891275772E+01  0.14903601397E+02 -0.21722318916E+01  0.15179088543E+02  0.00000000000E+00 0.  1.
         22    1    1    2    0    0 -0.26635461716E+02 -0.10911920926E+03 -0.45635468374E+03  0.46997451742E+03  0.00000000000E+00 0. -1.
</event>
<event>
 6    1  0.2406404E-005  0.9225685E+02  0.7818608E-02  0.1299903E+00
          2   -1    0    0  502    0  0.00000000000E+00  0.00000000000E+00  0.34140467177E+03  0.34140467177E+03  0.00000000000E+00 0.  1.
          1   -1    0    0  501    0 -0.00000000000E+00 -0.00000000000E+00 -0.33428113914E+02  0.33428113914E+02  0.00000000000E+00 0. -1.
          2    1    1    2  501    0 -0.22484239528E+02 -0.19091810893E+02  0.34359782757E+02  0.45283914820E+02  0.00000000000E+00 0.  1.
          1    1    1    2  502    0  0.34108540742E+02 -0.20329454799E+02  0.18303095875E+02  0.43722792712E+02  0.00000000000E+00 0. -1.
         22    1    1    2    0    0 -0.42240370266E+02 -0.25544526003E+01  0.21747177386E+03  0.22155077642E+03  0.00000000000E+00 0.  1.
         22    1    1    2    0    0  0.30616069052E+02  0.41975718292E+02  0.37841905360E+02  0.64275301723E+02  0.00000000000E+00 0. -1.
</event>
<event>
 6    1  0.2406404E-005  0.1241054E+03  0.7818608E-02  0.1239009E+00
          2   -1    0    0  502    0  0.00000000000E+00  0.00000000000E+00  0.30020717290E+03  0.30020717290E+03  0.00000000000E+00 0.  1.
          1   -1    0    0  501    0 -0.00000000000E+00 -0.00000000000E+00 -0.19314452877E+03  0.19314452877E+03  0.00000000000E+00 0.  1.
          2    1    1    2  501    0 -0.37067777219E+02 -0.14355805541E+01  0.33951780250E+02  0.50287218870E+02  0.00000000000E+00 0.  1.
          1    1    1    2  502    0  0.10077444791E+03 -0.21967802299E+01 -0.14994616096E+03  0.18067696694E+03  0.00000000000E+00 0.  1.
         22    1    1    2    0    0  0.85188828738E+01  0.12354710116E+02 -0.10136301793E+02  0.18109523503E+02  0.00000000000E+00 0. -1.
         22    1    1    2    0    0 -0.72225553569E+02 -0.87223493316E+01  0.23319332663E+03  0.24427799236E+03  0.00000000000E+00 0.  1.
</event>
<event>
 6    1  0.2406404E-005  0.2365044E+03  0.7818608E-02  0.1159819E+00
          2   -1    0    0  502    0  0.00000000000E+00  0.00000000000E+00  0.66341182885E+03  0.66341182885E+03  0.00000000000E+00 0.  1.
          1   -1    0    0  501    0 -0.00000000000E+00 -0.00000000000E+00 -0.14076604089E+03  0.14076604089E+03  0.00000000000E+00 0.  1.
          2    1    1    2  501    0  0.23732758216E+03 -0.66990824031E+02  0.31826718412E+03  0.40262408304E+03  0.00000000000E+00 0.  1.
          1    1    1    2  502    0 -0.17043624087E+03  0.99493058800E+02  0.15165351793E+03  0.24888987616E+03  0.00000000000E+00 0.  1.
         22    1    1    2    0    0 -0.89239677789E+02 -0.33853994697E+02  0.68780425550E-01  0.95445365417E+02  0.00000000000E+00 0. -1.
         22    1    1    2    0    0  0.22348336502E+02  0.13517599276E+01  0.52656305488E+02  0.57218545131E+02  0.00000000000E+00 0.  1.
</event>
<event>
 6    1  0.2406404E-005  0.1013901E+03  0.7818608E-02  0.1296956E+00
          2   -1    0    0  502    0  0.00000000000E+00  0.00000000000E+00  0.12338261197E+03  0.12338261197E+03  0.00000000000E+00 0. -1.
          1   -1    0    0  501    0 -0.00000000000E+00 -0.00000000000E+00 -0.21396689818E+03  0.21396689818E+03  0.00000000000E+00 0.  1.
          2    1    1    2  501    0 -0.62600578352E+01 -0.34596141070E+02  0.49633567380E+01  0.35506565747E+02  0.00000000000E+00 0. -1.
          1    1    1    2  502    0  0.43096064053E+02  0.35620870216E+02 -0.14742123659E+03  0.15766780943E+03  0.00000000000E+00 0.  1.
         22    1    1    2    0    0 -0.50742089036E+02 -0.42004804541E+01  0.90035260068E+02  0.10343477022E+03  0.00000000000E+00 0. -1.
         22    1    1    2    0    0  0.13906082818E+02  0.31757513079E+01 -0.38161666425E+02  0.40740364751E+02  0.00000000000E+00 0. -1.
</event>
<event>
 6    1  0.2406404E-005  0.3834614E+02  0.7818608E-02  0.1598030E+00
          2   -1    0    0  502    0  0.00000000000E+00  0.00000000000E+00  0.18674095807E+03  0.18674095807E+03  0.00000000000E+00 0. -1.
          1   -1    0    0  501    0 -0.00000000000E+00 -0.00000000000E+00 -0.65678009189E+02  0.65678009189E+02  0.00000000000E+00 0. -1.
          2    1    1    2  501    0  0.26414798178E+02 -0.30517927040E+02  0.18507838422E+02  0.44402989951E+02  0.00000000000E+00 0. -1.
          1    1    1    2  502    0  0.26795395198E+01  0.44611782367E+02  0.58303347300E+02  0.73462040296E+02  0.00000000000E+00 0. -1.
         22    1    1    2    0    0  0.11170177401E+02 -0.97974789533E+01  0.79495089097E+02  0.80871704863E+02  0.00000000000E+00 0. -1.
         22    1    1    2    0    0 -0.40264515098E+02 -0.42963763732E+01 -0.35243325934E+02  0.53682232153E+02  0.00000000000E+00 0. -1.
</event>
<event>
 6    1  0.2406404E-005  0.1759611E+03  0.7818608E-02  0.1174860E+00
          2   -1    0    0  502    0  0.00000000000E+00  0.00000000000E+00  0.14853539658E+03  0.14853539658E+03  0.00000000000E+00 0.  1.
          1   -1    0    0  501    0 -0.00000000000E+00 -0.00000000000E+00 -0.28495235934E+03  0.28495235934E+03  0.00000000000E+00 0.  1.
          2    1    1    2  501    0  0.14344928207E+03  0.11664849495E+02  0.38101575597E+02  0.14888080905E+03  0.00000000000E+00 0.  1.
          1    1    1    2  502    0 -0.90500945568E+02 -0.85703628367E+01 -0.51178611623E+02  0.10432220548E+03  0.00000000000E+00 0.  1.
         22    1    1    2    0    0 -0.67147812586E+02  0.61703344295E+01 -0.14069699848E+03  0.15602098302E+03  0.00000000000E+00 0. -1.
         22    1    1    2    0    0  0.14199476082E+02 -0.92648210877E+01  0.17357071745E+02  0.24263758372E+02  0.00000000000E+00 0.  1.
</event>
<event>
 6    1  0.9543631E-005  0.5974137E+03  0.7818608E-02  0.9918034E-01
          2   -1    0    0  502    0  0.00000000000E+00  0.00000000000E+00  0.34924177306E+03  0.34924177306E+03  0.00000000000E+00 0. -1.
          1   -1    0    0  501    0 -0.00000000000E+00 -0.00000000000E+00 -0.10070471375E+04  0.10070471375E+04  0.00000000000E+00 0. -1.
          2    1    1    2  501    0 -0.87475468041E+01 -0.46656831200E+03 -0.26670643671E+03  0.53748937917E+03  0.00000000000E+00 0. -1.
          1    1    1    2  502    0  0.81001112171E+02  0.54102858427E+03 -0.23488723624E+03  0.59535293979E+03  0.00000000000E+00 0. -1.
         22    1    1    2    0    0 -0.10234308345E+02  0.33420481334E+02 -0.28085860191E+02  0.44838434212E+02  0.00000000000E+00 0.  1.
         22    1    1    2    0    0 -0.62019257022E+02 -0.10788075360E+03 -0.12812583131E+03  0.17860815740E+03  0.00000000000E+00 0.  1.
</event>
<event>
 6    1  0.2406404E-005  0.7646941E+02  0.7818608E-02  0.1364861E+00
          2   -1    0    0  502    0  0.00000000000E+00  0.00000000000E+00  0.72330932848E+03  0.72330932848E+03  0.00000000000E+00 0.  1.
          1   -1    0    0  501    0 -0.00000000000E+00 -0.00000000000E+00 -0.61657028217E+02  0.61657028217E+02  0.00000000000E+00 0. -1.
          2    1    1    2  501    0 -0.50745181788E+02 -0.65018056451E+02  0.54394836137E+03  0.55016564867E+03  0.00000000000E+00 0.  1.
          1    1    1    2  502    0  0.63852146179E+02  0.44045659995E+02  0.32245312984E+02  0.84005219751E+02  0.00000000000E+00 0. -1.
         22    1    1    2    0    0 -0.16189815545E+02  0.59562264878E+02  0.55119863880E+01  0.61968988362E+02  0.00000000000E+00 0. -1.
         22    1    1    2    0    0  0.30828511534E+01 -0.38589868421E+02  0.79946639519E+02  0.88826499911E+02  0.00000000000E+00 0. -1.
</event>
<event>
 6    1  0.2406404E-005  0.8262613E+02  0.7818608E-02  0.1332245E+00
          2   -1    0    0  502    0  0.00000000000E+00  0.00000000000E+00  0.43066991819E+02  0.43066991819E+02  0.00000000000E+00 0. -1.
          1   -1    0    0  501    0 -0.00000000000E+00 -0.00000000000E+00 -0.38704972001E+03  0.38704972001E+03  0.00000000000E+00 0.  1.
          2    1    1    2  501    0  0.78150621832E+02 -0.19721113754E+02 -0.10409781134E+03  0.13165407835E+03  0.00000000000E+00 0. -1.
          1    1    1    2  502    0 -0.17144169222E+02 -0.28060332054E+02 -0.54409904099E+02  0.63574699664E+02  0.00000000000E+00 0.  1.
         22    1    1    2    0    0 -0.83850022007E+01 -0.31539928018E+02 -0.10591411914E+03  0.11082813702E+03  0.00000000000E+00 0.  1.
         22    1    1    2    0    0 -0.52621450410E+02  0.79321373826E+02 -0.79560893604E+02  0.12405979679E+03  0.00000000000E+00 0.  1.
</event>
<event>
 6    1  0.2406404E-005  0.1242847E+03  0.7818608E-02  0.1251441E+00
          2   -1    0    0  502    0  0.00000000000E+00  0.00000000000E+00  0.22531879785E+03  0.22531879785E+03  0.00000000000E+00 0.  1.
          1   -1    0    0  501    0 -0.00000000000E+00 -0.00000000000E+00 -0.10762223330E+03  0.10762223330E+03  0.00000000000E+00 0. -1.
          2    1    1    2  501    0 -0.21110603914E+02 -0.35684576355E+02  0.10138131043E+02  0.42682880506E+02  0.00000000000E+00 0.  1.
          1    1    1    2  502    0  0.50305150997E+02  0.48666845808E+02 -0.50258257635E+02  0.86168222438E+02  0.00000000000E+00 0. -1.
         22    1    1    2    0    0 -0.28868783030E+02 -0.34339929852E+02  0.17245531537E+03  0.17819504263E+03  0.00000000000E+00 0.  1.
         22    1    1    2    0    0 -0.32576405253E+00  0.21357660399E+02 -0.14638624236E+02  0.25894885585E+02  0.00000000000E+00 0. -1.
</event>
<event>
 6    1  0.2406404E-005  0.1901835E+03  0.7818608E-02  0.1158734E+00
          2   -1    0    0  502    0  0.00000000000E+00  0.00000000000E+00  0.15189413829E+03  0.15189413829E+03  0.00000000000E+00 0. -1.
          1   -1    0    0  501    0 -0.00000000000E+00 -0.00000000000E+00 -0.39804057955E+03  0.39804057955E+03  0.00000000000E+00 0.  1.
          2    1    1    2  501    0  0.16483737801E+03  0.24829757695E+02  0.41455683575E+02  0.17177442113E+03  0.00000000000E+00 0. -1.
          1    1    1    2  502    0 -0.86160784253E+02 -0.24712548197E+02 -0.15936146998E+03  0.18284000902E+03  0.00000000000E+00 0.  1.
         22    1    1    2    0    0  0.18055011638E+02 -0.14363378314E+02  0.10694324195E+02  0.25429483908E+02  0.00000000000E+00 0. -1.
         22    1    1    2    0    0 -0.96731605390E+02  0.14246168816E+02 -0.13893497904E+03  0.16989080378E+03  0.00000000000E+00 0.  1.
</event>
<event>
 6    1  0.2406404E-005  0.4274598E+02  0.7818608E-02  0.1539381E+00
          2   -1    0    0  502    0  0.00000000000E+00  0.00000000000E+00  0.76202102771E+02  0.76202102771E+02  0.00000000000E+00 0.  1.
          1   -1    0    0  501    0 -0.00000000000E+00 -0.00000000000E+00 -0.24876533256E+03  0.24876533256E+03  0.00000000000E+00 0.  1.
          2    1    1    2  501    0 -0.12507671901E+02  0.35287968487E+02 -0.49414720429E+02  0.61995944798E+02  0.00000000000E+00 0.  1.
          1    1    1    2  502    0  0.20016751025E+02 -0.26035449773E+02 -0.13282047779E+03  0.13682029925E+03  0.00000000000E+00 0.  1.
         22    1    1    2    0    0 -0.19217085679E+02 -0.99684461279E+01  0.65561872833E+02  0.69043649017E+02  0.00000000000E+00 0.  1.
         22    1    1    2    0    0  0.11708006554E+02  0.71592741355E+00 -0.55889904407E+02  0.57107542270E+02  0.00000000000E+00 0.  1.
</event>
<event>
 6    1  0.2406404E-005  0.7943303E+02  0.7818608E-02  0.1425516E+00
          2   -1    0    0  502    0  0.00000000000E+00  0.00000000000E+00  0.16036908489E+03  0.16036908489E+03  0.00000000000E+00 0.  1.
          1   -1    0    0  501    0 -0.00000000000E+00 -0.00000000000E+00 -0.16939561852E+03  0.16939561852E+03  0.00000000000E+00 0.  1.
          2    1    1    2  501    0 -0.10688285616E+02  0.31796516488E+02  0.56888111644E+02  0.66041768272E+02  0.00000000000E+00 0.  1.
          1    1    1    2  502    0 -0.16797221196E+02 -0.65571086964E+02 -0.10732588750E+03  0.12688798293E+03  0.00000000000E+00 0.  1.
         22    1    1    2    0    0  0.13034063192E+02 -0.10605761958E+02 -0.39780336386E+02  0.43183841341E+02  0.00000000000E+00 0. -1.
         22    1    1    2    0    0  0.14451443620E+02  0.44380332434E+02  0.81191578609E+02  0.93651110867E+02  0.00000000000E+00 0.  1.
</event>
<event>
 6    1  0.2406404E-005  0.1552906E+03  0.7818608E-02  0.1227864E+00
          2   -1    0    0  502    0  0.00000000000E+00  0.00000000000E+00  0.41957127477E+03  0.41957127477E+03  0.00000000000E+00 0. -1.
          1   -1    0    0  501    0 -0.00000000000E+00 -0.00000000000E+00 -0.43324816425E+02  0.43324816425E+02  0.00000000000E+00 0.  1.
          2    1    1    2  501    0 -0.42773011777E+02 -0.20926804763E+02  0.17332476272E+03  0.17974686386E+03  0.00000000000E+00 0. -1.
          1    1    1    2  502    0  0.23961879413E+02  0.69076048492E+01  0.14244582591E+03  0.14461224010E+03  0.00000000000E+00 0.  1.
         22    1    1    2    0    0 -0.27629301803E+02  0.94512830671E+00  0.81387243723E+02  0.85954377588E+02  0.00000000000E+00 0. -1.
         22    1    1    2    0    0  0.46440434168E+02  0.13074071607E+02 -0.20911374008E+02  0.52582609644E+02  0.00000000000E+00 0.  1.
</event>
<event>
 6    1  0.2406404E-005  0.9231210E+02  0.7818608E-02  0.1310990E+00
          2   -1    0    0  502    0  0.00000000000E+00  0.00000000000E+00  0.17712580129E+03  0.17712580129E+03  0.00000000000E+00 0. -1.
          1   -1    0    0  501    0 -0.00000000000E+00 -0.00000000000E+00 -0.73774589609E+02  0.73774589609E+02  0.00000000000E+00 0. -1.
          2    1    1    2  501    0 -0.10449810728E+02 -0.25851085574E+02 -0.73918779066E+01  0.28846438750E+02  0.00000000000E+00 0. -1.
          1    1    1    2  502    0 -0.21892747822E+02  0.34192583901E+02  0.84643288563E+02  0.93877108497E+02  0.00000000000E+00 0. -1.
         22    1    1    2    0    0  0.62313960047E+02 -0.15893650871E+02 -0.24554598955E+02  0.68837243441E+02  0.00000000000E+00 0. -1.
         22    1    1    2    0    0 -0.29971401497E+02  0.75521525447E+01  0.50654399981E+02  0.59339600211E+02  0.00000000000E+00 0. -1.
</event>
<event>
 6    1  0.2406404E-005  0.6050286E+02  0.7818608E-02  0.1446176E+00
          2   -1    0    0  502    0  0.00000000000E+00  0.00000000000E+00  0.28908077180E+03  0.28908077180E+03  0.00000000000E+00 0.  1.
          1   -1    0    0  501    0 -0.00000000000E+00 -0.00000000000E+00 -0.73097134093E+02  0.73097134093E+02  0.00000000000E+00 0.  1.
          2    1    1    2  501    0  0.62445197050E+02  0.44154882096E+02  0.11283885067E+03  0.13631457174E+03  0.00000000000E+00 0.  1.
          1    1    1    2  502    0 -0.58068344464E+02  0.21067883039E+02  0.19963219460E+02  0.64917782277E+02  0.00000000000E+00 0.  1.
         22    1    1    2    0    0  0.18922202544E+02 -0.16619809695E+02  0.10106624077E+03  0.10415686654E+03  0.00000000000E+00 0.  1.
         22    1    1    2    0    0 -0.23299055130E+02 -0.48602955439E+02 -0.17884673195E+02  0.56788685340E+02  0.00000000000E+00 0.  1.
</event>
<event>
 6    1  0.2406404E-005  0.2392040E+03  0.7818608E-02  0.1139685E+00
          2   -1    0    0  502    0  0.00000000000E+00  0.00000000000E+00  0.14059649281E+04  0.14059649281E+04  0.00000000000E+00 0.  1.
          1   -1    0    0  501    0 -0.00000000000E+00 -0.00000000000E+00 -0.26921200544E+02  0.26921200544E+02  0.00000000000E+00 0.  1.
          2    1    1    2  501    0  0.78277805892E+02  0.88178631320E+02  0.45334246571E+03  0.46842531649E+03  0.00000000000E+00 0.  1.
          1    1    1    2  502    0 -0.16529877553E+02 -0.55655403723E+02  0.65853361092E+03  0.66108794992E+03  0.00000000000E+00 0.  1.
         22    1    1    2    0    0 -0.91585363613E+02 -0.39469621647E+02  0.13583067991E+03  0.16851024737E+03  0.00000000000E+00 0.  1.
         22    1    1    2    0    0  0.29837435274E+02  0.69463940508E+01  0.13133697101E+03  0.13486261486E+03  0.00000000000E+00 0. -1.
</event>
<event>
 6    1  0.2406404E-005  0.8114521E+02  0.7818608E-02  0.1348117E+00
          2   -1    0    0  502    0  0.00000000000E+00  0.00000000000E+00  0.22431170151E+03  0.22431170151E+03  0.00000000000E+00 0.  1.
          1   -1    0    0  501    0 -0.00000000000E+00 -0.00000000000E+00 -0.13772665568E+03  0.13772665568E+03  0.00000000000E+00 0.  1.
          2    1    1    2  501    0 -0.37432920111E+01  0.71724467105E+02  0.11237783734E+03  0.13336862353E+03  0.00000000000E+00 0.  1.
          1    1    1    2  502    0 -0.25488983297E+02  0.29942413770E+02 -0.50225082708E+02  0.63787109551E+02  0.00000000000E+00 0.  1.
         22    1    1    2    0    0 -0.11573362822E+02  0.91563588638E+01 -0.31067709815E+02  0.34394537761E+02  0.00000000000E+00 0. -1.
         22    1    1    2    0    0  0.40805638130E+02 -0.11082323974E+03  0.55500001012E+02  0.13048808636E+03  0.00000000000E+00 0.  1.
</event>
<event>
 6    1  0.2406404E-005  0.6929731E+02  0.7818608E-02  0.1423535E+00
          2   -1    0    0  502    0  0.00000000000E+00  0.00000000000E+00  0.12673472781E+03  0.12673472781E+03  0.00000000000E+00 0.  1.
          1   -1    0    0  501    0 -0.00000000000E+00 -0.00000000000E+00 -0.29478879093E+03  0.29478879093E+03  0.00000000000E+00 0.  1.
          2    1    1    2  501    0  0.43196597062E+02 -0.71497995390E+02  0.47341969607E+02  0.96016516438E+02  0.00000000000E+00 0.  1.
          1    1    1    2  502    0 -0.15950075033E+02  0.29800930750E+02 -0.18955631333E+03  0.19254634842E+03  0.00000000000E+00 0.  1.
         22    1    1    2    0    0  0.24670793844E+02  0.84752349103E+01 -0.57884932887E+02  0.63491283898E+02  0.00000000000E+00 0.  1.
         22    1    1    2    0    0 -0.51917315873E+02  0.33221829730E+02  0.32045213497E+02  0.69469369985E+02  0.00000000000E+00 0.  1.
</event>
<event>
 6    1  0.2406404E-005  0.1091873E+03  0.7818608E-02  0.1368177E+00
          2   -1    0    0  502    0  0.00000000000E+00  0.00000000000E+00  0.89426812519E+02  0.89426812519E+02  0.00000000000E+00 0.  1.
          1   -1    0    0  501    0 -0.00000000000E+00 -0.00000000000E+00 -0.49462971713E+03  0.49462971713E+03  0.00000000000E+00 0.  1.
          2    1    1    2  501    0  0.83364514598E+02  0.41136079761E+02  0.29345436212E+02  0.97483198444E+02  0.00000000000E+00 0.  1.
          1    1    1    2  502    0 -0.53587317657E+02  0.87411967222E+01 -0.24041922655E+03  0.24647396136E+03  0.00000000000E+00 0.  1.
         22    1    1    2    0    0 -0.40276933063E+02 -0.37651991945E+02 -0.21021767959E+03  0.21732780918E+03  0.00000000000E+00 0. -1.
         22    1    1    2    0    0  0.10499736122E+02 -0.12225284539E+02  0.16088565318E+02  0.22771560655E+02  0.00000000000E+00 0.  1.
</event>
<event>
 6    1  0.2406404E-005  0.2689914E+03  0.7818608E-02  0.1128553E+00
          2   -1    0    0  502    0  0.00000000000E+00  0.00000000000E+00  0.19761541993E+04  0.19761541993E+04  0.00000000000E+00 0.  1.
          1   -1    0    0  501    0 -0.00000000000E+00 -0.00000000000E+00 -0.91951626349E+02  0.91951626349E+02  0.00000000000E+00 0.  1.
          2    1    1    2  501    0  0.15072400178E+02  0.30111900261E+03  0.14610288647E+04  0.14918127143E+04  0.00000000000E+00 0.  1.
          1    1    1    2  502    0 -0.62249696768E+02 -0.18385070819E+03  0.31119560571E+03  0.36676806385E+03  0.00000000000E+00 0.  1.
         22    1    1    2    0    0 -0.74394595682E+01  0.85409408589E+01  0.62813176788E+02  0.63826236045E+02  0.00000000000E+00 0.  1.
         22    1    1    2    0    0  0.54616756159E+02 -0.12580923528E+03  0.49164925717E+02  0.14569881144E+03  0.00000000000E+00 0.  1.
</event>
<event>
 6    1  0.2406404E-005  0.7474230E+02  0.7818608E-02  0.1451239E+00
          2   -1    0    0  502    0  0.00000000000E+00  0.00000000000E+00  0.23984330584E+03  0.23984330584E+03  0.00000000000E+00 0.  1.
          1   -1    0    0  501    0 -0.00000000000E+00 -0.00000000000E+00 -0.26106966789E+03  0.26106966789E+03  0.00000000000E+00 0.  1.
          2    1    1    2  501    0  0.86732081135E+02  0.47988233773E+00  0.15401771608E+03  0.17676012291E+03  0.00000000000E+00 0.  1.
          1    1    1    2  502    0 -0.86796496681E+02  0.51532461610E+02 -0.15661386041E+03  0.18632532761E+03  0.00000000000E+00 0.  1.
         22    1    1    2    0    0 -0.66909988493E+01 -0.60855859887E+02 -0.65498402270E+02  0.89656264969E+02  0.00000000000E+00 0. -1.
         22    1    1    2    0    0  0.67554143951E+01  0.88435159390E+01  0.46868184548E+02  0.48171258242E+02  0.00000000000E+00 0. -1.
</event>
<event>
 6    1  0.2406404E-005  0.1229671E+03  0.7818608E-02  0.1240160E+00
          2   -1    0    0  502    0  0.00000000000E+00  0.00000000000E+00  0.69156131926E+02  0.69156131926E+02  0.00000000000E+00 0.  1.
          1   -1    0    0  501    0 -0.00000000000E+00 -0.00000000000E+00 -0.22492347503E+03  0.22492347503E+03  0.00000000000E+00 0. -1.
          2    1    1    2  501    0 -0.15144615713E+02  0.26518249331E+02 -0.17313685997E+02  0.35104709876E+02  0.00000000000E+00 0.  1.
          1    1    1    2  502    0 -0.17480378551E+02 -0.76024864512E+02 -0.51225294405E+02  0.93324029302E+02  0.00000000000E+00 0. -1.
         22    1    1    2    0    0  0.15819614700E+02 -0.35719907098E+02 -0.65242082146E+02  0.76044074424E+02  0.00000000000E+00 0. -1.
         22    1    1    2    0    0  0.16805379564E+02  0.85226522278E+02 -0.21986280553E+02  0.89606793350E+02  0.00000000000E+00 0.  1.
</event>
<event>
 6    1  0.2406404E-005  0.1828118E+03  0.7818608E-02  0.1178503E+00
          2   -1    0    0  502    0  0.00000000000E+00  0.00000000000E+00  0.72554832150E+02  0.72554832150E+02  0.00000000000E+00 0. -1.
          1   -1    0    0  501    0 -0.00000000000E+00 -0.00000000000E+00 -0.43921109723E+03  0.43921109723E+03  0.00000000000E+00 0.  1.
          2    1    1    2  501    0 -0.28241211589E+02 -0.15876594439E+02 -0.22596067559E+02  0.39499551290E+02  0.00000000000E+00 0. -1.
          1    1    1    2  502    0  0.11863927646E+03  0.38567231533E+02 -0.27605576667E+03  0.30293480417E+03  0.00000000000E+00 0.  1.
         22    1    1    2    0    0 -0.17447259126E+02  0.45828078659E+02 -0.45183495040E+02  0.66679591095E+02  0.00000000000E+00 0.  1.
         22    1    1    2    0    0 -0.72950805745E+02 -0.68518715753E+02 -0.22820935817E+02  0.10265198283E+03  0.00000000000E+00 0. -1.
</event>
<event>
 6    1  0.2406404E-005  0.3173944E+02  0.7818608E-02  0.1622569E+00
          2   -1    0    0  502    0  0.00000000000E+00  0.00000000000E+00  0.13575553831E+03  0.13575553831E+03  0.00000000000E+00 0.  1.
          1   -1    0    0  501    0 -0.00000000000E+00 -0.00000000000E+00 -0.15111081301E+03  0.15111081301E+03  0.00000000000E+00 0.  1.
          2    1    1    2  501    0  0.83563022269E+00 -0.58263909209E+02  0.67072014816E+02  0.88848390900E+02  0.00000000000E+00 0.  1.
          1    1    1    2  502    0  0.25645530671E+02  0.32755774516E+02 -0.50335911810E+02  0.65301899094E+02  0.00000000000E+00 0.  1.
         22    1    1    2    0    0 -0.11383595919E+02  0.22624925288E+02  0.46330875248E+02  0.52801737675E+02  0.00000000000E+00 0.  1.
         22    1    1    2    0    0 -0.15097564976E+02  0.28832094044E+01 -0.78422252961E+02  0.79914323648E+02  0.00000000000E+00 0.  1.
</event>
<event>
 6    1  0.2406404E-005  0.5465095E+02  0.7818608E-02  0.1423223E+00
          2   -1    0    0  502    0  0.00000000000E+00  0.00000000000E+00  0.33141493162E+03  0.33141493162E+03  0.00000000000E+00 0. -1.
          1   -1    0    0  501    0 -0.00000000000E+00 -0.00000000000E+00 -0.94215058331E+02  0.94215058331E+02  0.00000000000E+00 0.  1.
          2    1    1    2  501    0 -0.11239093052E+02  0.19459770203E+02  0.19214284400E+03  0.19345250675E+03  0.00000000000E+00 0. -1.
          1    1    1    2  502    0  0.26045672549E+02 -0.32280967002E+02 -0.58831215104E+02  0.71982982432E+02  0.00000000000E+00 0.  1.
         22    1    1    2    0    0  0.24964315108E+01 -0.10956809780E+02 -0.25309561034E+02  0.27692196204E+02  0.00000000000E+00 0.  1.
         22    1    1    2    0    0 -0.17303011008E+02  0.23778006579E+02  0.12919780543E+03  0.13250230456E+03  0.00000000000E+00 0. -1.
</event>
<event>
 6    1  0.2406404E-005  0.2949564E+02  0.7818608E-02  0.1629427E+00
          2   -1    0    0  502    0  0.00000000000E+00  0.00000000000E+00  0.39854320802E+02  0.39854320802E+02  0.00000000000E+00 0. -1.
          1   -1    0    0  501    0 -0.00000000000E+00 -0.00000000000E+00 -0.31328259131E+03  0.31328259131E+03  0.00000000000E+00 0. -1.
          2    1    1    2  501    0 -0.28008543147E+02 -0.21704080756E+02 -0.34995202734E+02  0.49801705042E+02  0.00000000000E+00 0. -1.
          1    1    1    2  502    0  0.27827489719E+02  0.13140022001E+02 -0.14863724228E+03  0.15178952254E+03  0.00000000000E+00 0. -1.
         22    1    1    2    0    0  0.39673843899E+01 -0.16756443319E+02  0.26974193160E+02  0.32001962881E+02  0.00000000000E+00 0. -1.
         22    1    1    2    0    0 -0.37863309613E+01  0.25320502075E+02 -0.11677001866E+03  0.11954372164E+03  0.00000000000E+00 0.  1.
</event>
<event>
 6    1  0.2406404E-005  0.7486561E+02  0.7818608E-02  0.1424728E+00
          2   -1    0    0  502    0  0.00000000000E+00  0.00000000000E+00  0.22595558279E+03  0.22595558279E+03  0.00000000000E+00 0. -1.
          1   -1    0    0  501    0 -0.00000000000E+00 -0.00000000000E+00 -0.79871657787E+02  0.79871657787E+02  0.00000000000E+00 0.  1.
          2    1    1    2  501    0 -0.58262345778E+02  0.50252402053E+01  0.10278716202E+03  0.11825800037E+03  0.00000000000E+00 0. -1.
          1    1    1    2  502    0  0.57717216205E+02  0.34423223279E+01  0.29344632430E+02  0.64840065406E+02  0.00000000000E+00 0.  1.
         22    1    1    2    0    0  0.20272514500E+02 -0.12949996504E+01 -0.50772715338E+02  0.54685651601E+02  0.00000000000E+00 0.  1.
         22    1    1    2    0    0 -0.19727384926E+02 -0.71725628829E+01  0.64724845885E+02  0.68043523198E+02  0.00000000000E+00 0. -1.
</event>
<event>
 6    1  0.2406404E-005  0.2160939E+03  0.7818608E-02  0.1138953E+00
          2   -1    0    0  502    0  0.00000000000E+00  0.00000000000E+00  0.57136195031E+03  0.57136195031E+03  0.00000000000E+00 0.  1.
          1   -1    0    0  501    0 -0.00000000000E+00 -0.00000000000E+00 -0.12574714394E+03  0.12574714394E+03  0.00000000000E+00 0. -1.
          2    1    1    2  501    0  0.12616346352E+03  0.53277729267E+02  0.25479694909E+03  0.28927015268E+03  0.00000000000E+00 0.  1.
          1    1    1    2  502    0 -0.17903808541E+03 -0.31814126982E+02  0.11120036257E+02  0.18218240834E+03  0.00000000000E+00 0. -1.
         22    1    1    2    0    0 -0.21930883056E+02 -0.34476779100E-01 -0.73004796956E+01  0.23114104440E+02  0.00000000000E+00 0. -1.
         22    1    1    2    0    0  0.74805504940E+02 -0.21429125506E+02  0.18699830072E+03  0.20254242880E+03  0.00000000000E+00 0.  1.
</event>
<event>
 6    1  0.2406404E-005  0.5211584E+02  0.7818608E-02  0.1510690E+00
          2   -1    0    0  502    0  0.00000000000E+00  0.00000000000E+00  0.86301318111E+03  0.86301318111E+03  0.00000000000E+00 0. -1.
          1   -1    0    0  501    0 -0.00000000000E+00 -0.00000000000E+00 -0.10415650153E+03  0.10415650153E+03  0.00000000000E+00 0. -1.
          2    1    1    2  501    0 -0.19641715587E+02 -0.77219505744E+02  0.50134279117E+03  0.50763495084E+03  0.00000000000E+00 0. -1.
          1    1    1    2  502    0 -0.29430614838E+01  0.65480000021E+02  0.31632664810E+03  0.32304618913E+03  0.00000000000E+00 0. -1.
         22    1    1    2    0    0  0.35012233398E+02  0.14051209282E+02 -0.92827489051E+02  0.10020097651E+03  0.00000000000E+00 0. -1.
         22    1    1    2    0    0 -0.12427456328E+02 -0.23117035597E+01  0.34014729368E+02  0.36287566164E+02  0.00000000000E+00 0. -1.
</event>
<event>
 6    1  0.2406404E-005  0.1582337E+03  0.7818608E-02  0.1236325E+00
          2   -1    0    0  502    0  0.00000000000E+00  0.00000000000E+00  0.13701238277E+03  0.13701238277E+03  0.00000000000E+00 0.  1.
          1   -1    0    0  501    0 -0.00000000000E+00 -0.00000000000E+00 -0.15365271207E+03  0.15365271207E+03  0.00000000000E+00 0.  1.
          2    1    1    2  501    0 -0.22878410196E+01  0.44503702823E+02  0.51921687131E+02  0.68422769427E+02  0.00000000000E+00 0.  1.
          1    1    1    2  502    0 -0.49429970868E+02  0.15188559055E+02  0.86136262874E+01  0.52423362197E+02  0.00000000000E+00 0.  1.
         22    1    1    2    0    0  0.41019647529E+02 -0.68123279454E+02 -0.10916119870E+03  0.13505391511E+03  0.00000000000E+00 0.  1.
         22    1    1    2    0    0  0.10698164359E+02  0.84310175753E+01  0.31985555979E+02  0.34765048098E+02  0.00000000000E+00 0.  1.
</event>
<event>
 6    1  0.2406404E-005  0.1350990E+03  0.7818608E-02  0.1230625E+00
          2   -1    0    0  502    0  0.00000000000E+00  0.00000000000E+00  0.54391213502E+02  0.54391213502E+02  0.00000000000E+00 0. -1.
          1   -1    0    0  501    0 -0.00000000000E+00 -0.00000000000E+00 -0.34336119172E+03  0.34336119172E+03  0.00000000000E+00 0. -1.
          2    1    1    2  501    0  0.76604309588E+02 -0.17857217000E+02 -0.25178714136E+02  0.82589757791E+02  0.00000000000E+00 0. -1.
          1    1    1    2  502    0 -0.83074809726E+01  0.29646881834E+02 -0.28797539555E+02  0.42157444503E+02  0.00000000000E+00 0. -1.
         22    1    1    2    0    0 -0.96530952370E+02 -0.19316562197E+02 -0.21801327293E+03  0.23920940933E+03  0.00000000000E+00 0. -1.
         22    1    1    2    0    0  0.28234123755E+02  0.75268973633E+01 -0.16980451594E+02  0.33795793591E+02  0.00000000000E+00 0. -1.
</event>
<event>
 6    1  0.2406404E-005  0.4497004E+02  0.7818608E-02  0.1474610E+00
          2   -1    0    0  502    0  0.00000000000E+00  0.00000000000E+00  0.21643407489E+03  0.21643407489E+03  0.00000000000E+00 0. -1.
          1   -1    0    0  501    0 -0.00000000000E+00 -0.00000000000E+00 -0.17310640550E+03  0.17310640550E+03  0.00000000000E+00 0. -1.
          2    1    1    2  501    0  0.17233750470E+02 -0.27951911427E+02  0.14275910403E+03  0.14648710965E+03  0.00000000000E+00 0. -1.
          1    1    1    2  502    0 -0.19430566960E+02  0.18893477817E+02 -0.11417185353E+03  0.11734446121E+03  0.00000000000E+00 0. -1.
         22    1    1    2    0    0  0.96519021232E+01 -0.66508091922E+01  0.68351057212E+02  0.69348824788E+02  0.00000000000E+00 0. -1.
         22    1    1    2    0    0 -0.74550856334E+01  0.15709242802E+02 -0.53610638320E+02  0.56360084744E+02  0.00000000000E+00 0. -1.
</event>
<event>
 6    1  0.2406404E-005  0.1240479E+03  0.7818608E-02  0.1239930E+00
          2   -1    0    0  502    0  0.00000000000E+00  0.00000000000E+00  0.50436507730E+03  0.50436507730E+03  0.00000000000E+00 0.  1.
          1   -1    0    0  501    0 -0.00000000000E+00 -0.00000000000E+00 -0.34891676002E+02  0.34891676002E+02  0.00000000000E+00 0. -1.
          2    1    1    2  501    0 -0.43484666140E+02 -0.40809987060E-01  0.50474047628E+02  0.66622423692E+02  0.00000000000E+00 0.  1.
          1    1    1    2  502    0  0.76418165158E+02 -0.48581120665E+01  0.24480366217E+03  0.25649984451E+03  0.00000000000E+00 0. -1.
         22    1    1    2    0    0  0.22631613252E+02 -0.40548885943E+02  0.11165932660E+03  0.12093058871E+03  0.00000000000E+00 0.  1.
         22    1    1    2    0    0 -0.55565112270E+02  0.45447807997E+02  0.62536364902E+02  0.95203896393E+02  0.00000000000E+00 0. -1.
</event>
<event>
 6    1  0.2406404E-005  0.1297525E+03  0.7818608E-02  0.1229885E+00
          2   -1    0    0  502    0  0.00000000000E+00  0.00000000000E+00  0.35018634222E+03  0.35018634222E+03  0.00000000000E+00 0. -1.
          1   -1    0    0  501    0 -0.00000000000E+00 -0.00000000000E+00 -0.12925105200E+03  0.12925105200E+03  0.00000000000E+00 0. -1.
          2    1    1    2  501    0 -0.30601788567E+02  0.10249659771E+03 -0.72303716094E+02  0.12911177083E+03  0.00000000000E+00 0. -1.
          1    1    1    2  502    0  0.44039943126E+01 -0.27765658414E+02  0.12649029275E+03  0.12957669973E+03  0.00000000000E+00 0. -1.
         22    1    1    2    0    0  0.41765964997E+01  0.16824347697E+02 -0.10337016236E+02  0.20183075544E+02  0.00000000000E+00 0. -1.
         22    1    1    2    0    0  0.22021197754E+02 -0.91555286996E+02  0.17708572980E+03  0.20056584810E+03  0.00000000000E+00 0. -1.
</event>
<event>
 6    1  0.2406404E-005  0.5403147E+02  0.7818608E-02  0.1475004E+00
          2   -1    0    0  502    0  0.00000000000E+00  0.00000000000E+00  0.26391963607E+03  0.26391963607E+03  0.00000000000E+00 0.  1.
          1   -1    0    0  501    0 -0.00000000000E+00 -0.00000000000E+00 -0.59419638533E+02  0.59419638533E+02  0.00000000000E+00 0.  1.
          2    1    1    2  501    0  0.25980818051E+02  0.50502184633E+01  0.85518821182E+02  0.89520815398E+02  0.00000000000E+00 0.  1.
          1    1    1    2  502    0 -0.45793093029E+02  0.11331304105E+02 -0.12505838891E+02  0.48803707116E+02  0.00000000000E+00 0.  1.
         22    1    1    2    0    0  0.25072997716E+02  0.88276626985E+01  0.15061066437E+03  0.15293840284E+03  0.00000000000E+00 0.  1.
         22    1    1    2    0    0 -0.52607227378E+01 -0.25209185267E+02 -0.19123649118E+02  0.32076349249E+02  0.00000000000E+00 0.  1.
</event>
<event>
 6    1  0.2406404E-005  0.5981314E+02  0.7818608E-02  0.1400268E+00
          2   -1    0    0  502    0  0.00000000000E+00  0.00000000000E+00  0.28416785133E+03  0.28416785133E+03  0.00000000000E+00 0.  1.
          1   -1    0    0  501    0 -0.00000000000E+00 -0.00000000000E+00 -0.65088462226E+02  0.65088462226E+02  0.00000000000E+00 0.  1.
          2    1    1    2  501    0  0.32899895354E+02 -0.44040402851E+01  0.14796427391E+03  0.15164176549E+03  0.00000000000E+00 0.  1.
          1    1    1    2  502    0 -0.33907016928E+02 -0.75470450189E+01 -0.20106907604E+02  0.40136410140E+02  0.00000000000E+00 0.  1.
         22    1    1    2    0    0 -0.23137637292E+02  0.52750051350E+01 -0.27395151054E+02  0.36244589112E+02  0.00000000000E+00 0.  1.
         22    1    1    2    0    0  0.24144758867E+02  0.66760801689E+01  0.11861717385E+03  0.12123354882E+03  0.00000000000E+00 0. -1.
</event>
<event>
 6    1  0.2406404E-005  0.9008863E+02  0.7818608E-02  0.1323435E+00
          2   -1    0    0  502    0  0.00000000000E+00  0.00000000000E+00  0.22898113483E+02  0.22898113483E+02  0.00000000000E+00 0. -1.
          1   -1    0    0  501    0 -0.00000000000E+00 -0.00000000000E+00 -0.88986281745E+03  0.88986281745E+03  0.00000000000E+00 0. -1.
          2    1    1    2  501    0  0.56785171292E+01  0.79399603974E+02 -0.43698399432E+03  0.44417513883E+03  0.00000000000E+00 0. -1.
          1    1    1    2  502    0  0.31870047874E+02 -0.41009901123E+02 -0.10121414035E+03  0.11376209451E+03  0.00000000000E+00 0. -1.
         22    1    1    2    0    0  0.16136401554E+02 -0.69154077320E+02 -0.15915778335E+03  0.17428100833E+03  0.00000000000E+00 0. -1.
         22    1    1    2    0    0 -0.53684966557E+02  0.30764374470E+02 -0.16960878596E+03  0.18054268926E+03  0.00000000000E+00 0. -1.
</event>
<event>
 6    1  0.2406404E-005  0.7727179E+02  0.7818608E-02  0.1355536E+00
          2   -1    0    0  502    0  0.00000000000E+00  0.00000000000E+00  0.40709383151E+03  0.40709383151E+03  0.00000000000E+00 0.  1.
          1   -1    0    0  501    0 -0.00000000000E+00 -0.00000000000E+00 -0.12124852387E+03  0.12124852387E+03  0.00000000000E+00 0.  1.
          2    1    1    2  501    0 -0.39984942655E+01  0.38617160506E+02  0.34103409662E+03  0.34323683966E+03  0.00000000000E+00 0.  1.
          1    1    1    2  502    0  0.34092694587E+02 -0.13233125766E+02 -0.33261709713E+02  0.49434489729E+02  0.00000000000E+00 0.  1.
         22    1    1    2    0    0 -0.18263221055E+02 -0.32362169355E+02 -0.73468099787E+02  0.82331141951E+02  0.00000000000E+00 0.  1.
         22    1    1    2    0    0 -0.11830979267E+02  0.69781346152E+01  0.51541020521E+02  0.53339884041E+02  0.00000000000E+00 0.  1.
</event>
<event>
 6    1  0.2406404E-005  0.1194320E+03  0.7818608E-02  0.1261344E+00
          2   -1    0    0  502    0  0.00000000000E+00  0.00000000000E+00  0.42328179699E+03  0.42328179699E+03  0.00000000000E+00 0.  1.
          1   -1    0    0  501    0 -0.00000000000E+00 -0.00000000000E+00 -0.12890262308E+03  0.12890262308E+03  0.00000000000E+00 0.  1.
          2    1    1    2  501    0  0.40468333918E+02  0.74793466177E+02  0.20155474228E+03  0.21876028609E+03  0.00000000000E+00 0.  1.
          1    1    1    2  502    0 -0.13333348059E+03 -0.32355301703E+02 -0.18529291872E+02  0.13844860870E+03  0.00000000000E+00 0.  1.
         22    1    1    2    0    0  0.62356626811E+02 -0.57243177137E+02  0.66393199319E+01  0.84907071585E+02  0.00000000000E+00 0.  1.
         22    1    1    2    0    0  0.30508519863E+02  0.14805012663E+02  0.10471440357E+03  0.11006845369E+03  0.00000000000E+00 0. -1.
</event>
<event>
 6    1  0.2406404E-005  0.4705021E+02  0.7818608E-02  0.1523933E+00
          2   -1    0    0  502    0  0.00000000000E+00  0.00000000000E+00  0.12880781847E+03  0.12880781847E+03  0.00000000000E+00 0. -1.
          1   -1    0    0  501    0 -0.00000000000E+00 -0.00000000000E+00 -0.94337782917E+02  0.94337782917E+02  0.00000000000E+00 0. -1.
          2    1    1    2  501    0 -0.14456353831E+01  0.22422697822E+02  0.50204550623E+02  0.55003310287E+02  0.00000000000E+00 0. -1.
          1    1    1    2  502    0 -0.11244881677E+02 -0.28238917895E+02 -0.29353173457E+02  0.42255090105E+02  0.00000000000E+00 0. -1.
         22    1    1    2    0    0  0.39305917340E+01 -0.19503418185E+02 -0.51641472050E+02  0.55341435722E+02  0.00000000000E+00 0. -1.
         22    1    1    2    0    0  0.87599253263E+01  0.25319638258E+02  0.65260130435E+02  0.70545765271E+02  0.00000000000E+00 0.  1.
</event>
<event>
 6    1  0.2406404E-005  0.9605423E+02  0.7818608E-02  0.1293774E+00
          2   -1    0    0  502    0  0.00000000000E+00  0.00000000000E+00  0.21839803881E+03  0.21839803881E+03  0.00000000000E+00 0.  1.
          1   -1    0    0  501    0 -0.00000000000E+00 -0.00000000000E+00 -0.56169783204E+02  0.56169783204E+02  0.00000000000E+00 0. -1.
          2    1    1    2  501    0  0.14973387799E+00 -0.60497689882E+02  0.65811197306E+02  0.89392989614E+02  0.00000000000E+00 0.  1.
          1    1    1    2  502    0  0.21431587922E+02  0.80319286675E+01  0.55421722351E+01  0.23548683872E+02  0.00000000000E+00 0. -1.
         22    1    1    2    0    0 -0.20993068546E+02 -0.11449697397E+02  0.94623442919E+02  0.97598158011E+02  0.00000000000E+00 0. -1.
         22    1    1    2    0    0 -0.58825325460E+00  0.63915458611E+02 -0.37485568518E+01  0.64027990519E+02  0.00000000000E+00 0. -1.
</event>
<event>
 6    1  0.2406404E-005  0.1618310E+03  0.7818608E-02  0.1200295E+00
          2   -1    0    0  502    0  0.00000000000E+00  0.00000000000E+00  0.83404228297E+03  0.83404228297E+03  0.00000000000E+00 0.  1.
          1   -1    0    0  501    0 -0.00000000000E+00 -0.00000000000E+00 -0.15185885424E+03  0.15185885424E+03  0.00000000000E+00 0.  1.
          2    1    1    2  501    0  0.20604592663E+03  0.10667577854E+01  0.48243045339E+03  0.52459051099E+03  0.00000000000E+00 0.  1.
          1    1    1    2  502    0 -0.11577495764E+03  0.54472560448E+02  0.26024060527E+03  0.28999357456E+03  0.00000000000E+00 0.  1.
         22    1    1    2    0    0  0.12719119693E+02  0.58762387862E+01  0.21780213351E+02  0.25897565168E+02  0.00000000000E+00 0.  1.
         22    1    1    2    0    0 -0.10299008869E+03 -0.61415557019E+02 -0.82267843280E+02  0.14541948648E+03  0.00000000000E+00 0.  1.
</event>
<event>
 6    1  0.2406404E-005  0.9371655E+02  0.7818608E-02  0.1368167E+00
          2   -1    0    0  502    0  0.00000000000E+00  0.00000000000E+00  0.17695859846E+04  0.17695859846E+04  0.00000000000E+00 0.  1.
          1   -1    0    0  501    0 -0.00000000000E+00 -0.00000000000E+00 -0.32805200882E+02  0.32805200882E+02  0.00000000000E+00 0. -1.
          2    1    1    2  501    0 -0.10556023237E+03  0.24541291490E+02  0.14190490039E+04  0.14231814056E+04  0.00000000000E+00 0.  1.
          1    1    1    2  502    0  0.33909509822E+02  0.35857426198E+02  0.50839483704E+02  0.70853814105E+02  0.00000000000E+00 0. -1.
         22    1    1    2    0    0  0.46945276232E+02 -0.54120752502E+02  0.27291608460E+03  0.28216325779E+03  0.00000000000E+00 0. -1.
         22    1    1    2    0    0  0.24705446318E+02 -0.62779651864E+01 -0.60237885151E+01  0.26192708006E+02  0.00000000000E+00 0. -1.
</event>
<event>
 6    1  0.2406404E-005  0.1171195E+03  0.7818608E-02  0.1255613E+00
          2   -1    0    0  502    0  0.00000000000E+00  0.00000000000E+00  0.96302218470E+03  0.96302218470E+03  0.00000000000E+00 0. -1.
          1   -1    0    0  501    0 -0.00000000000E+00 -0.00000000000E+00 -0.17053459541E+02  0.17053459541E+02  0.00000000000E+00 0. -1.
          2    1    1    2  501    0  0.24442443733E+02 -0.39799085711E+02  0.43951049620E+03  0.44198515422E+03  0.00000000000E+00 0. -1.
          1    1    1    2  502    0  0.11715183983E+02  0.48971292823E+02  0.13374207345E+03  0.14290687621E+03  0.00000000000E+00 0. -1.
         22    1    1    2    0    0  0.15425834332E+02 -0.47482370776E+02  0.26577968864E+03  0.27042813240E+03  0.00000000000E+00 0. -1.
         22    1    1    2    0    0 -0.51583462048E+02  0.38310163665E+02  0.10693646687E+03  0.12475548141E+03  0.00000000000E+00 0. -1.
</event>
<event>
 6    1  0.2406404E-005  0.4857241E+02  0.7818608E-02  0.1492966E+00
          2   -1    0    0  502    0  0.00000000000E+00  0.00000000000E+00  0.17229323701E+03  0.17229323701E+03  0.00000000000E+00 0.  1.
          1   -1    0    0  501    0 -0.00000000000E+00 -0.00000000000E+00 -0.11680700626E+03  0.11680700626E+03  0.00000000000E+00 0.  1.
          2    1    1    2  501    0  0.11603663454E+02  0.26530964963E+02  0.84360025691E+02  0.89191653433E+02  0.00000000000E+00 0.  1.
          1    1    1    2  502    0 -0.26499509862E+02 -0.82828346111E+01 -0.63314183662E+02  0.69134038106E+02  0.00000000000E+00 0.  1.
         22    1    1    2    0    0 -0.33452095549E+01 -0.27337562349E+02 -0.42797225586E+02  0.50893371474E+02  0.00000000000E+00 0. -1.
         22    1    1    2    0    0  0.18241055962E+02  0.90894319966E+01  0.77237614303E+02  0.79881180260E+02  0.00000000000E+00 0.  1.
</event>
<event>
 6    1  0.2406404E-005  0.1028176E+03  0.7818608E-02  0.1290594E+00
          2   -1    0    0  502    0  0.00000000000E+00  0.00000000000E+00  0.27149374746E+02  0.27149374746E+02  0.00000000000E+00 0. -1.
          1   -1    0    0  501    0 -0.00000000000E+00 -0.00000000000E+00 -0.39466093672E+03  0.39466093672E+03  0.00000000000E+00 0. -1.
          2    1    1    2  501    0  0.25306502464E+02 -0.21594127633E+02 -0.12578908477E+02  0.35566196783E+02  0.00000000000E+00 0. -1.
          1    1    1    2  502    0 -0.26889807560E+01  0.21924951439E+02 -0.43112241067E+02  0.48441711809E+02  0.00000000000E+00 0. -1.
         22    1    1    2    0    0 -0.47758087085E+02 -0.41745144174E+02 -0.86107674410E+02  0.10694869581E+03  0.00000000000E+00 0. -1.
         22    1    1    2    0    0  0.25140565377E+02  0.41414320367E+02 -0.22571273802E+03  0.23085370706E+03  0.00000000000E+00 0. -1.
</event>
<event>
 6    1  0.2406404E-005  0.1142603E+03  0.7818608E-02  0.1351387E+00
          2   -1    0    0  502    0  0.00000000000E+00  0.00000000000E+00  0.17832172047E+03  0.17832172047E+03  0.00000000000E+00 0. -1.
          1   -1    0    0  501    0 -0.00000000000E+00 -0.00000000000E+00 -0.15158645841E+03  0.15158645841E+03  0.00000000000E+00 0. -1.
          2    1    1    2  501    0 -0.77702501363E+02 -0.51994756251E+02  0.92624938458E+02  0.13160741856E+03  0.00000000000E+00 0. -1.
          1    1    1    2  502    0  0.52949151953E+02  0.17122185910E+02 -0.23154811233E+02  0.60273768972E+02  0.00000000000E+00 0. -1.
         22    1    1    2    0    0  0.42587570839E+02  0.29419410362E+02 -0.80616821363E+02  0.95803313004E+02  0.00000000000E+00 0.  1.
         22    1    1    2    0    0 -0.17834221429E+02  0.54531599802E+01  0.37881956195E+02  0.42223678344E+02  0.00000000000E+00 0.  1.
</event>
<event>
 6    1  0.2406404E-005  0.1820418E+03  0.7818608E-02  0.1170990E+00
          2   -1    0    0  502    0  0.00000000000E+00  0.00000000000E+00  0.35417886597E+03  0.35417886597E+03  0.00000000000E+00 0. -1.
          1   -1    0    0  501    0 -0.00000000000E+00 -0.00000000000E+00 -0.95633553274E+02  0.95633553274E+02  0.00000000000E+00 0.  1.
          2    1    1    2  501    0 -0.58948038983E+02 -0.34426724330E+02  0.14194741067E+03  0.15750916813E+03  0.00000000000E+00 0. -1.
          1    1    1    2  502    0  0.12082771116E+03  0.15820237414E+02  0.17797288973E+02  0.12315177299E+03  0.00000000000E+00 0.  1.
         22    1    1    2    0    0  0.32148731677E+02 -0.17423506474E+02  0.24620814129E+02  0.44082922030E+02  0.00000000000E+00 0.  1.
         22    1    1    2    0    0 -0.94028403857E+02  0.36029993390E+02  0.74179798929E+02  0.12506855610E+03  0.00000000000E+00 0.  1.
</event>
<event>
 6    1  0.2406404E-005  0.1288225E+03  0.7818608E-02  0.1285700E+00
          2   -1    0    0  502    0  0.00000000000E+00  0.00000000000E+00  0.44454821984E+02  0.44454821984E+02  0.00000000000E+00 0.  1.
          1   -1    0    0  501    0 -0.00000000000E+00 -0.00000000000E+00 -0.62670854824E+03  0.62670854824E+03  0.00000000000E+00 0.  1.
          2    1    1    2  501    0 -0.27289932181E+02  0.59198195624E+01 -0.15679992342E+02  0.32025721255E+02  0.00000000000E+00 0.  1.
          1    1    1    2  502    0 -0.10993539277E+03 -0.13391715194E+02 -0.21093645799E+03  0.23824214138E+03  0.00000000000E+00 0.  1.
         22    1    1    2    0    0  0.14812144687E+03  0.91921288923E+01 -0.35972168076E+03  0.38913255565E+03  0.00000000000E+00 0.  1.
         22    1    1    2    0    0 -0.10896121912E+02 -0.17202332603E+01  0.40844048471E+01  0.11762951932E+02  0.00000000000E+00 0. -1.
</event>
<event>
 6    1  0.2406404E-005  0.1308965E+03  0.7818608E-02  0.1227498E+00
          2   -1    0    0  502    0  0.00000000000E+00  0.00000000000E+00  0.16999237449E+03  0.16999237449E+03  0.00000000000E+00 0. -1.
          1   -1    0    0  501    0 -0.00000000000E+00 -0.00000000000E+00 -0.22191393085E+03  0.22191393085E+03  0.00000000000E+00 0.  1.
          2    1    1    2  501    0 -0.95225013232E+02 -0.24720175035E+02  0.79948874387E+02  0.12677031480E+03  0.00000000000E+00 0. -1.
          1    1    1    2  502    0  0.89176666206E+02  0.31074225496E+02 -0.10529008030E+03  0.14143580273E+03  0.00000000000E+00 0.  1.
         22    1    1    2    0    0  0.16512277533E+02  0.23045701719E+02 -0.66932420006E+02  0.72689122466E+02  0.00000000000E+00 0.  1.
         22    1    1    2    0    0 -0.10463930507E+02 -0.29399752180E+02  0.40352069550E+02  0.51011065337E+02  0.00000000000E+00 0. -1.
</event>
<event>
 6    1  0.2406404E-005  0.3288736E+03  0.7818608E-02  0.1071661E+00
          2   -1    0    0  502    0  0.00000000000E+00  0.00000000000E+00  0.14891259209E+03  0.14891259209E+03  0.00000000000E+00 0.  1.
          1   -1    0    0  501    0 -0.00000000000E+00 -0.00000000000E+00 -0.75065225730E+03  0.75065225730E+03  0.00000000000E+00 0.  1.
          2    1    1    2  501    0 -0.28119266262E+03  0.53039321181E+02 -0.18982305749E+03  0.34338793843E+03  0.00000000000E+00 0.  1.
          1    1    1    2  502    0  0.23406479916E+03 -0.58220477200E+02 -0.29863825124E+03  0.38387596861E+03  0.00000000000E+00 0.  1.
         22    1    1    2    0    0 -0.33823343174E+02 -0.25720581731E+02 -0.29145393877E+02  0.51526894456E+02  0.00000000000E+00 0. -1.
         22    1    1    2    0    0  0.80951206629E+02  0.30901737749E+02 -0.84132962608E+02  0.12077404791E+03  0.00000000000E+00 0. -1.
</event>
<event>
 6    1  0.2406404E-005  0.8289126E+02  0.7818608E-02  0.1325974E+00
          2   -1    0    0  502    0  0.00000000000E+00  0.00000000000E+00  0.80844628348E+02  0.80844628348E+02  0.00000000000E+00 0. -1.
          1   -1    0    0  501    0 -0.00000000000E+00 -0.00000000000E+00 -0.49034604823E+03  0.49034604823E+03  0.00000000000E+00 0.  1.
          2    1    1    2  501    0  0.12280835338E+02  0.51256544777E+02  0.29383371569E+02  0.60344302331E+02  0.00000000000E+00 0. -1.
          1    1    1    2  502    0  0.63766145003E+02 -0.60654102438E+02 -0.28926979213E+03  0.30236080108E+03  0.00000000000E+00 0.  1.
         22    1    1    2    0    0  0.12184931594E+02  0.29315767643E+02  0.21393736067E+01  0.31819234904E+02  0.00000000000E+00 0.  1.
         22    1    1    2    0    0 -0.88231911935E+02 -0.19918209982E+02 -0.15175437294E+03  0.17666633827E+03  0.00000000000E+00 0. -1.
</event>
<event>
 6    1  0.2406404E-005  0.1449458E+03  0.7818608E-02  0.1283940E+00
          2   -1    0    0  502    0  0.00000000000E+00  0.00000000000E+00  0.36574693611E+03  0.36574693611E+03  0.00000000000E+00 0. -1.
          1   -1    0    0  501    0 -0.00000000000E+00 -0.00000000000E+00 -0.98273693690E+02  0.98273693690E+02  0.00000000000E+00 0.  1.
          2    1    1    2  501    0  0.12255384609E+03 -0.21873094298E+02  0.22714996737E+03  0.25902699690E+03  0.00000000000E+00 0. -1.
          1    1    1    2  502    0 -0.51006514593E+02  0.87150351545E+01  0.18165876034E+02  0.54841730651E+02  0.00000000000E+00 0.  1.
         22    1    1    2    0    0 -0.90328165605E+02 -0.11058212725E+02 -0.24579701361E+02  0.94263584110E+02  0.00000000000E+00 0.  1.
         22    1    1    2    0    0  0.18780834109E+02  0.24216271868E+02  0.46737100375E+02  0.55888318139E+02  0.00000000000E+00 0.  1.
</event>
<event>
 6    1  0.2406404E-005  0.1346959E+03  0.7818608E-02  0.1323374E+00
          2   -1    0    0  502    0  0.00000000000E+00  0.00000000000E+00  0.16339259793E+03  0.16339259793E+03  0.00000000000E+00 0.  1.
          1   -1    0    0  501    0 -0.00000000000E+00 -0.00000000000E+00 -0.46812962775E+03  0.46812962775E+03  0.00000000000E+00 0. -1.
          2    1    1    2  501    0  0.27398446838E+02 -0.12831381316E+03  0.10853140803E+03  0.17027676314E+03  0.00000000000E+00 0.  1.
          1    1    1    2  502    0 -0.16939693546E+02  0.56252051490E+02 -0.13344953493E+03  0.14580817839E+03  0.00000000000E+00 0. -1.
         22    1    1    2    0    0 -0.27787098823E+02  0.65491091405E+02 -0.28690702064E+03  0.29559574490E+03  0.00000000000E+00 0. -1.
         22    1    1    2    0    0  0.17328345531E+02  0.65706702693E+01  0.70881177100E+01  0.19841539237E+02  0.00000000000E+00 0. -1.
</event>
<event>
 6    1  0.2406404E-005  0.4712603E+02  0.7818608E-02  0.1526239E+00
          2   -1    0    0  502    0  0.00000000000E+00  0.00000000000E+00  0.22287226026E+03  0.22287226026E+03  0.00000000000E+00 0. -1.
          1   -1    0    0  501    0 -0.00000000000E+00 -0.00000000000E+00 -0.71509835153E+02  0.71509835153E+02  0.00000000000E+00 0. -1.
          2    1    1    2  501    0  0.15142281538E+02 -0.28201824701E+02  0.98818223159E+02  0.10387334998E+03  0.00000000000E+00 0. -1.
          1    1    1    2  502    0 -0.87730139161E+01  0.29100736053E+02 -0.29007751373E+02  0.42015095521E+02  0.00000000000E+00 0. -1.
         22    1    1    2    0    0 -0.88634027307E+01 -0.17034700538E+02  0.11216595155E+03  0.11379781025E+03  0.00000000000E+00 0. -1.
         22    1    1    2    0    0  0.24941351087E+01  0.16135789186E+02 -0.30613998230E+02  0.34695839667E+02  0.00000000000E+00 0. -1.
</event>
<event>
 6    1  0.2406404E-005  0.3572596E+02  0.7818608E-02  0.1588233E+00
          2   -1    0    0  502    0  0.00000000000E+00  0.00000000000E+00  0.17033038879E+03  0.17033038879E+03  0.00000000000E+00 0. -1.
          1   -1    0    0  501    0 -0.00000000000E+00 -0.00000000000E+00 -0.11850655844E+03  0.11850655844E+03  0.00000000000E+00 0. -1.
          2    1    1    2  501    0 -0.12433628419E+02 -0.19095037309E+02  0.46400165708E+02  0.51693238854E+02  0.00000000000E+00 0. -1.
          1    1    1    2  502    0  0.39493189221E+01  0.24957202003E+02 -0.83362564462E+02  0.87107842388E+02  0.00000000000E+00 0. -1.
         22    1    1    2    0    0 -0.25620517361E+01  0.10836188085E+02 -0.28737278979E+02  0.30819122058E+02  0.00000000000E+00 0.  1.
         22    1    1    2    0    0  0.11046361233E+02 -0.16698352779E+02  0.11752350808E+03  0.11921674393E+03  0.00000000000E+00 0. -1.
</event>
<event>
 6    1  0.2406404E-005  0.7583395E+02  0.7818608E-02  0.1345102E+00
          2   -1    0    0  502    0  0.00000000000E+00  0.00000000000E+00  0.28779724424E+02  0.28779724424E+02  0.00000000000E+00 0. -1.
          1   -1    0    0  501    0 -0.00000000000E+00 -0.00000000000E+00 -0.10127367202E+04  0.10127367202E+04  0.00000000000E+00 0. -1.
          2    1    1    2  501    0  0.19231610037E+02 -0.84306534846E+02 -0.41186151024E+03  0.42084124116E+03  0.00000000000E+00 0. -1.
          1    1    1    2  502    0 -0.24656390573E+02  0.81621261986E+02 -0.98817729707E+02  0.13051785973E+03  0.00000000000E+00 0. -1.
         22    1    1    2    0    0 -0.55467314731E+02  0.20708476812E+02 -0.16230495597E+03  0.17276678716E+03  0.00000000000E+00 0. -1.
         22    1    1    2    0    0  0.60892095267E+02 -0.18023203951E+02 -0.31097279983E+03  0.31739055654E+03  0.00000000000E+00 0.  1.
</event>
<event>
 6    1  0.2406404E-005  0.5985721E+02  0.7818608E-02  0.1488681E+00
          2   -1    0    0  502    0  0.00000000000E+00  0.00000000000E+00  0.61920647039E+03  0.61920647039E+03  0.00000000000E+00 0. -1.
          1   -1    0    0  501    0 -0.00000000000E+00 -0.00000000000E+00 -0.16604354473E+03  0.16604354473E+03  0.00000000000E+00 0. -1.
          2    1    1    2  501    0 -0.38395081633E+02 -0.19839826180E+02  0.55316564211E+03  0.55485135721E+03  0.00000000000E+00 0. -1.
          1    1    1    2  502    0  0.30085735185E+02  0.21004619544E+02 -0.98823022599E+02  0.10541506201E+03  0.00000000000E+00 0. -1.
         22    1    1    2    0    0  0.22856443470E+02  0.45266541985E+01 -0.59873056062E+02  0.64247104592E+02  0.00000000000E+00 0. -1.
         22    1    1    2    0    0 -0.14547097022E+02 -0.56914475629E+01  0.58693362220E+02  0.60736491303E+02  0.00000000000E+00 0.  1.
</event>
<event>
 6    1  0.2406404E-005  0.1264001E+03  0.7818608E-02  0.1264329E+00
          2   -1    0    0  502    0  0.00000000000E+00  0.00000000000E+00  0.27582673229E+03  0.27582673229E+03  0.00000000000E+00 0.  1.
          1   -1    0    0  501    0 -0.00000000000E+00 -0.00000000000E+00 -0.42484694621E+02  0.42484694621E+02  0.00000000000E+00 0.  1.
          2    1    1    2  501    0  0.17303400267E+02 -0.21859550646E+02  0.61330304939E+01  0.28545782146E+02  0.00000000000E+00 0.  1.
          1    1    1    2  502    0  0.16214999548E+02 -0.29535827348E+02  0.21712542437E+02  0.40083984415E+02  0.00000000000E+00 0.  1.
         22    1    1    2    0    0 -0.22529693197E+02 -0.19936616320E+02 -0.18421914964E+01  0.30140494610E+02  0.00000000000E+00 0.  1.
         22    1    1    2    0    0 -0.10988706619E+02  0.71331994314E+02  0.20733865624E+03  0.21954116574E+03  0.00000000000E+00 0.  1.
</event>
<event>
 6    1  0.2406404E-005  0.6177257E+02  0.7818608E-02  0.1443214E+00
          2   -1    0    0  502    0  0.00000000000E+00  0.00000000000E+00  0.47874079659E+03  0.47874079659E+03  0.00000000000E+00 0.  1.
          1   -1    0    0  501    0 -0.00000000000E+00 -0.00000000000E+00 -0.72333930767E+02  0.72333930767E+02  0.00000000000E+00 0.  1.
          2    1    1    2  501    0 -0.20196843065E+01  0.42639759226E+02  0.31383194731E+03  0.31672183275E+03  0.00000000000E+00 0.  1.
          1    1    1    2  502    0  0.27089978950E+02 -0.27302284160E+02 -0.35601719430E+02  0.52409580290E+02  0.00000000000E+00 0.  1.
         22    1    1    2    0    0  0.87195342847E+00 -0.24051350992E+02 -0.19980331913E+02  0.31280048764E+02  0.00000000000E+00 0.  1.
         22    1    1    2    0    0 -0.25942248072E+02  0.87138759260E+01  0.14815696986E+03  0.15066326555E+03  0.00000000000E+00 0. -1.
</event>
<event>
 6    1  0.2406404E-005  0.4161655E+02  0.7818608E-02  0.1576174E+00
          2   -1    0    0  502    0  0.00000000000E+00  0.00000000000E+00  0.30348867797E+03  0.30348867797E+03  0.00000000000E+00 0. -1.
          1   -1    0    0  501    0 -0.00000000000E+00 -0.00000000000E+00 -0.73444402966E+02  0.73444402966E+02  0.00000000000E+00 0. -1.
          2    1    1    2  501    0  0.16592522420E+02  0.34928936073E+02  0.20042374857E+03  0.20412011504E+03  0.00000000000E+00 0. -1.
          1    1    1    2  502    0 -0.14067520776E+01  0.28159797864E+02  0.76912166685E+01  0.29225125851E+02  0.00000000000E+00 0. -1.
         22    1    1    2    0    0  0.10004470698E+02 -0.10761889497E+02 -0.49439085338E+02  0.51576456437E+02  0.00000000000E+00 0. -1.
         22    1    1    2    0    0 -0.25190241040E+02 -0.52326844440E+02  0.71368395106E+02  0.92011383604E+02  0.00000000000E+00 0. -1.
</event>
<event>
 6    1  0.2406404E-005  0.2292273E+03  0.7818608E-02  0.1249674E+00
          2   -1    0    0  502    0  0.00000000000E+00  0.00000000000E+00  0.13462948286E+04  0.13462948286E+04  0.00000000000E+00 0. -1.
          1   -1    0    0  501    0 -0.00000000000E+00 -0.00000000000E+00 -0.17938585643E+03  0.17938585643E+03  0.00000000000E+00 0. -1.
          2    1    1    2  501    0  0.21974340352E+03  0.70666777329E+02  0.12121079588E+04  0.12338908626E+04  0.00000000000E+00 0. -1.
          1    1    1    2  502    0 -0.44569255079E+02  0.25517939569E+02  0.53189369549E+00  0.51360165976E+02  0.00000000000E+00 0. -1.
         22    1    1    2    0    0  0.14398838836E+02 -0.44953428409E+01  0.14992106140E+02  0.21267296810E+02  0.00000000000E+00 0. -1.
         22    1    1    2    0    0 -0.18957298728E+03 -0.91689374057E+02 -0.60722986492E+02  0.21916235970E+03  0.00000000000E+00 0. -1.
</event>
<event>
 6    1  0.2406404E-005  0.8817360E+02  0.7818608E-02  0.1307794E+00
          2   -1    0    0  502    0  0.00000000000E+00  0.00000000000E+00  0.43515717440E+03  0.43515717440E+03  0.00000000000E+00 0. -1.
          1   -1    0    0  501    0 -0.00000000000E+00 -0.00000000000E+00 -0.84704769575E+02  0.84704769575E+02  0.00000000000E+00 0.  1.
          2    1    1    2  501    0 -0.34422695189E+02  0.58848500340E+02  0.29146190395E+03  0.29932943289E+03  0.00000000000E+00 0. -1.
          1    1    1    2  502    0  0.30333936617E+02 -0.49788003637E+02 -0.31860012499E+02  0.66438342945E+02  0.00000000000E+00 0.  1.
         22    1    1    2    0    0  0.43239265886E+01 -0.28221707269E+02 -0.24219252243E+02  0.37439728652E+02  0.00000000000E+00 0.  1.
         22    1    1    2    0    0 -0.23516801628E+00  0.19161210566E+02  0.11506976562E+03  0.11665443950E+03  0.00000000000E+00 0. -1.
</event>
<event>
 6    1  0.2406404E-005  0.2201511E+03  0.7818608E-02  0.1202089E+00
          2   -1    0    0  502    0  0.00000000000E+00  0.00000000000E+00  0.23941906353E+03  0.23941906353E+03  0.00000000000E+00 0. -1.
          1   -1    0    0  501    0 -0.00000000000E+00 -0.00000000000E+00 -0.42565686062E+03  0.42565686062E+03  0.00000000000E+00 0. -1.
          2    1    1    2  501    0  0.95320304519E+02 -0.14930230086E+03 -0.17557300747E+03  0.24940532963E+03  0.00000000000E+00 0. -1.
          1    1    1    2  502    0 -0.74992217324E+02  0.18488650539E+03  0.12020834373E+03  0.23293110234E+03  0.00000000000E+00 0. -1.
         22    1    1    2    0    0 -0.52540677031E+01 -0.78846874677E+02 -0.10017877526E+03  0.12759397277E+03  0.00000000000E+00 0.  1.
         22    1    1    2    0    0 -0.15074019492E+02  0.43262670151E+02 -0.30694358095E+02  0.55145519411E+02  0.00000000000E+00 0. -1.
</event>
<event>
 6    1  0.2406404E-005  0.1002749E+03  0.7818608E-02  0.1279852E+00
          2   -1    0    0  502    0  0.00000000000E+00  0.00000000000E+00  0.44371823201E+02  0.44371823201E+02  0.00000000000E+00 0.  1.
          1   -1    0    0  501    0 -0.00000000000E+00 -0.00000000000E+00 -0.70155724393E+03  0.70155724393E+03  0.00000000000E+00 0. -1.
          2    1    1    2  501    0 -0.13050047684E+02 -0.37044266054E+02 -0.17973948676E+02  0.43193103883E+02  0.00000000000E+00 0.  1.
          1    1    1    2  502    0  0.16144884399E+02  0.77787045186E+02 -0.52429841465E+03  0.53028323497E+03  0.00000000000E+00 0. -1.
         22    1    1    2    0    0 -0.88844553282E+01  0.18255065784E+02 -0.11121864574E+03  0.11305648205E+03  0.00000000000E+00 0.  1.
         22    1    1    2    0    0  0.57896186128E+01 -0.58997844916E+02 -0.36944116686E+01  0.59396246228E+02  0.00000000000E+00 0.  1.
</event>
<event>
 6    1  0.2406404E-005  0.1634555E+03  0.7818608E-02  0.1187051E+00
          2   -1    0    0  502    0  0.00000000000E+00  0.00000000000E+00  0.52901460164E+02  0.52901460164E+02  0.00000000000E+00 0.  1.
          1   -1    0    0  501    0 -0.00000000000E+00 -0.00000000000E+00 -0.11144690471E+04  0.11144690471E+04  0.00000000000E+00 0.  1.
          2    1    1    2  501    0  0.89920588761E+02 -0.16722407891E+02 -0.32104624717E+02  0.96933266411E+02  0.00000000000E+00 0.  1.
          1    1    1    2  502    0 -0.97416077693E+02  0.25829656264E+02 -0.80508976238E+03  0.81137327342E+03  0.00000000000E+00 0.  1.
         22    1    1    2    0    0 -0.48896005761E+02  0.12813383875E+02 -0.17123444478E+03  0.17853917571E+03  0.00000000000E+00 0. -1.
         22    1    1    2    0    0  0.56391494693E+02 -0.21920632248E+02 -0.53138755064E+02  0.80524791721E+02  0.00000000000E+00 0.  1.
</event>
<event>
 6    1  0.2406404E-005  0.1105471E+03  0.7818608E-02  0.1343768E+00
          2   -1    0    0  502    0  0.00000000000E+00  0.00000000000E+00  0.52271242840E+03  0.52271242840E+03  0.00000000000E+00 0.  1.
          1   -1    0    0  501    0 -0.00000000000E+00 -0.00000000000E+00 -0.23345788500E+03  0.23345788500E+03  0.00000000000E+00 0.  1.
          2    1    1    2  501    0  0.13516406530E+03 -0.20136875719E+02  0.39211655143E+03  0.41524716521E+03  0.00000000000E+00 0.  1.
          1    1    1    2  502    0 -0.40361743370E+02  0.18150602886E+00 -0.16541369141E+03  0.17026682759E+03  0.00000000000E+00 0.  1.
         22    1    1    2    0    0 -0.20806021030E+02 -0.10844009256E+02 -0.36406106847E+02  0.43311518833E+02  0.00000000000E+00 0.  1.
         22    1    1    2    0    0 -0.73996300900E+02  0.30799378946E+02  0.98957790225E+02  0.12734480177E+03  0.00000000000E+00 0.  1.
</event>
<event>
 6    1  0.2406404E-005  0.9113120E+02  0.7818608E-02  0.1300941E+00
          2   -1    0    0  502    0  0.00000000000E+00  0.00000000000E+00  0.54474627768E+02  0.54474627768E+02  0.00000000000E+00 0. -1.
          1   -1    0    0  501    0 -0.00000000000E+00 -0.00000000000E+00 -0.41899244089E+03  0.41899244089E+03  0.00000000000E+00 0.  1.
          2    1    1    2  501    0 -0.31633853282E+02  0.12234053463E+02 -0.85402506395E+01  0.34975829062E+02  0.00000000000E+00 0. -1.
          1    1    1    2  502    0  0.51019295666E+02 -0.24163182335E+02 -0.28483326191E+03  0.29037357834E+03  0.00000000000E+00 0.  1.
         22    1    1    2    0    0 -0.50644841850E+02  0.14455591987E+02  0.16370708921E+02  0.55153098338E+02  0.00000000000E+00 0. -1.
         22    1    1    2    0    0  0.31259399466E+02 -0.25264631150E+01 -0.87515009497E+02  0.92964562916E+02  0.00000000000E+00 0.  1.
</event>
<event>
 6    1  0.2406404E-005  0.5339316E+02  0.7818608E-02  0.1458149E+00
          2   -1    0    0  502    0  0.00000000000E+00  0.00000000000E+00  0.17421461080E+03  0.17421461080E+03  0.00000000000E+00 0. -1.
          1   -1    0    0  501    0 -0.00000000000E+00 -0.00000000000E+00 -0.72777418846E+02  0.72777418846E+02  0.00000000000E+00 0.  1.
          2    1    1    2  501    0  0.24531944019E+01 -0.44308059131E+02  0.53606689767E+02  0.69590943768E+02  0.00000000000E+00 0. -1.
          1    1    1    2  502    0 -0.17591262784E+02  0.22794003202E+02 -0.16972638677E+02  0.33422889940E+02  0.00000000000E+00 0.  1.
         22    1    1    2    0    0 -0.18732321396E+02  0.18382330243E+02 -0.31992270810E+02  0.41380131967E+02  0.00000000000E+00 0.  1.
         22    1    1    2    0    0  0.33870389777E+02  0.31317256864E+01  0.96795411675E+02  0.10259806397E+03  0.00000000000E+00 0. -1.
</event>
<event>
 6    1  0.2406404E-005  0.3987249E+02  0.7818608E-02  0.1580683E+00
          2   -1    0    0  502    0  0.00000000000E+00  0.00000000000E+00  0.40551614842E+03  0.40551614842E+03  0.00000000000E+00 0. -1.
          1   -1    0    0  501    0 -0.00000000000E+00 -0.00000000000E+00 -0.16242323069E+04  0.16242323069E+04  0.00000000000E+00 0.  1.
          2    1    1    2  501    0  0.23022218018E+02  0.55291683195E+02  0.36945066392E+03  0.37427394489E+03  0.00000000000E+00 0. -1.
          1    1    1    2  502    0 -0.35885374445E+02 -0.21702198166E+02 -0.15024842959E+04  0.15030694611E+04  0.00000000000E+00 0.  1.
         22    1    1    2    0    0 -0.93362884246E+01 -0.91629950534E+01  0.29668521906E+02  0.32424496172E+02  0.00000000000E+00 0. -1.
         22    1    1    2    0    0  0.22199444851E+02 -0.24426489976E+02 -0.11535104842E+03  0.11998055315E+03  0.00000000000E+00 0. -1.
</event>
<event>
 6    1  0.2406404E-005  0.1127497E+03  0.7818608E-02  0.1274769E+00
          2   -1    0    0  502    0  0.00000000000E+00  0.00000000000E+00  0.48526661044E+03  0.48526661044E+03  0.00000000000E+00 0.  1.
          1   -1    0    0  501    0 -0.00000000000E+00 -0.00000000000E+00 -0.34919882835E+02  0.34919882835E+02  0.00000000000E+00 0.  1.
          2    1    1    2  501    0  0.25203775388E+02 -0.42300390553E+02  0.26709477521E+03  0.27159560431E+03  0.00000000000E+00 0.  1.
          1    1    1    2  502    0 -0.20494445465E+02  0.12594463895E+02  0.22086319174E+01  0.24156176656E+02  0.00000000000E+00 0.  1.
         22    1    1    2    0    0  0.47598540487E+02  0.32316931991E+02  0.15621886689E+03  0.16647624311E+03  0.00000000000E+00 0.  1.
         22    1    1    2    0    0 -0.52307870409E+02 -0.26110053327E+01  0.24824453591E+02  0.57958469197E+02  0.00000000000E+00 0.  1.
</event>
<event>
 6    1  0.2406404E-005  0.7611416E+02  0.7818608E-02  0.1367705E+00
          2   -1    0    0  502    0  0.00000000000E+00  0.00000000000E+00  0.46993430102E+02  0.46993430102E+02  0.00000000000E+00 0.  1.
          1   -1    0    0  501    0 -0.00000000000E+00 -0.00000000000E+00 -0.57410172273E+03  0.57410172273E+03  0.00000000000E+00 0.  1.
          2    1    1    2  501    0 -0.46647674623E+02  0.31106445424E+01 -0.11451801860E+02  0.48133412750E+02  0.00000000000E+00 0.  1.
          1    1    1    2  502    0  0.77286850851E+02 -0.63400824600E+02 -0.29111093150E+03  0.30779619281E+03  0.00000000000E+00 0.  1.
         22    1    1    2    0    0 -0.11882677767E+02  0.46451471246E+02 -0.23483973320E+03  0.23968445403E+03  0.00000000000E+00 0.  1.
         22    1    1    2    0    0 -0.18756498461E+02  0.13838708811E+02  0.10294173926E+02  0.25481093244E+02  0.00000000000E+00 0.  1.
</event>
<event>
 6    1  0.2406404E-005  0.7076816E+02  0.7818608E-02  0.1387171E+00
          2   -1    0    0  502    0  0.00000000000E+00  0.00000000000E+00  0.57985947375E+02  0.57985947375E+02  0.00000000000E+00 0. -1.
          1   -1    0    0  501    0 -0.00000000000E+00 -0.00000000000E+00 -0.72319813667E+03  0.72319813667E+03  0.00000000000E+00 0. -1.
          2    1    1    2  501    0 -0.31761881328E+02 -0.30060037143E+02  0.15897946908E+02  0.46531362052E+02  0.00000000000E+00 0. -1.
          1    1    1    2  502    0 -0.15882556714E+02  0.52318582969E+02 -0.53307220017E+03  0.53586888352E+03  0.00000000000E+00 0. -1.
         22    1    1    2    0    0  0.43070850100E+02  0.51145024919E+01 -0.16200795637E+03  0.16771354803E+03  0.00000000000E+00 0. -1.
         22    1    1    2    0    0  0.45735879413E+01 -0.27373048318E+02  0.13970020330E+02  0.31070290454E+02  0.00000000000E+00 0. -1.
</event>
<event>
 6    1  0.2406404E-005  0.7942742E+02  0.7818608E-02  0.1374367E+00
          2   -1    0    0  502    0  0.00000000000E+00  0.00000000000E+00  0.10372831556E+03  0.10372831556E+03  0.00000000000E+00 0.  1.
          1   -1    0    0  501    0 -0.00000000000E+00 -0.00000000000E+00 -0.20885890791E+03  0.20885890791E+03  0.00000000000E+00 0. -1.
          2    1    1    2  501    0  0.16080764887E+02 -0.20862986044E+02  0.32426673277E+02  0.41777318318E+02  0.00000000000E+00 0.  1.
          1    1    1    2  502    0  0.19933319842E+02  0.45280765925E+02 -0.12539944788E+03  0.13480618135E+03  0.00000000000E+00 0. -1.
         22    1    1    2    0    0 -0.23472670347E+02  0.29621308049E+02 -0.54425385621E+02  0.66260929240E+02  0.00000000000E+00 0. -1.
         22    1    1    2    0    0 -0.12541414383E+02 -0.54039087930E+02  0.42267567875E+02  0.69742794560E+02  0.00000000000E+00 0.  1.
</event>
<event>
 6    1  0.2406404E-005  0.1192252E+03  0.7818608E-02  0.1247823E+00
          2   -1    0    0  502    0  0.00000000000E+00  0.00000000000E+00  0.97587012697E+03  0.97587012697E+03  0.00000000000E+00 0. -1.
          1   -1    0    0  501    0 -0.00000000000E+00 -0.00000000000E+00 -0.14279644201E+02  0.14279644201E+02  0.00000000000E+00 0. -1.
          2    1    1    2  501    0  0.31819112152E+02  0.47959958277E+02  0.12234651609E+03  0.13520829669E+03  0.00000000000E+00 0. -1.
          1    1    1    2  502    0 -0.14057542469E+02 -0.26072251895E+02  0.20497285702E+03  0.20710202542E+03  0.00000000000E+00 0. -1.
         22    1    1    2    0    0  0.27417391293E+02  0.43979921066E+02  0.26701490309E+03  0.27199798763E+03  0.00000000000E+00 0. -1.
         22    1    1    2    0    0 -0.45178960976E+02 -0.65867627448E+02  0.36725620658E+03  0.37584146143E+03  0.00000000000E+00 0.  1.
</event>
<event>
 6    1  0.2406404E-005  0.6346701E+02  0.7818608E-02  0.1453554E+00
          2   -1    0    0  502    0  0.00000000000E+00  0.00000000000E+00  0.60937905278E+02  0.60937905278E+02  0.00000000000E+00 0. -1.
          1   -1    0    0  501    0 -0.00000000000E+00 -0.00000000000E+00 -0.31376001135E+03  0.31376001135E+03  0.00000000000E+00 0. -1.
          2    1    1    2  501    0  0.80926865660E+01  0.40923946812E+02  0.10144839114E+02  0.42932257793E+02  0.00000000000E+00 0. -1.
          1    1    1    2  502    0 -0.23170756784E+02 -0.19956353361E+02 -0.17300414194E+03  0.17568600723E+03  0.00000000000E+00 0. -1.
         22    1    1    2    0    0  0.17954836964E+02  0.12113793977E+02  0.26931453107E+02  0.34560430284E+02  0.00000000000E+00 0. -1.
         22    1    1    2    0    0 -0.28767667454E+01 -0.33081387428E+02 -0.11689425635E+03  0.12151922132E+03  0.00000000000E+00 0. -1.
</event>
<event>
 6    1  0.2406404E-005  0.2017723E+02  0.7818608E-02  0.1774088E+00
          2   -1    0    0  502    0  0.00000000000E+00  0.00000000000E+00  0.49859417397E+03  0.49859417397E+03  0.00000000000E+00 0. -1.
          1   -1    0    0  501    0 -0.00000000000E+00 -0.00000000000E+00 -0.41613333600E+03  0.41613333600E+03  0.00000000000E+00 0. -1.
          2    1    1    2  501    0  0.33744268274E+02 -0.16520297532E+02  0.44803761652E+03  0.44961016635E+03  0.00000000000E+00 0. -1.
          1    1    1    2  502    0 -0.23861526945E+02 -0.51351775234E+01 -0.32662753522E+03  0.32753822568E+03  0.00000000000E+00 0. -1.
         22    1    1    2    0    0 -0.89695464751E+01  0.64685863331E+01  0.48026218087E+02  0.49282988919E+02  0.00000000000E+00 0. -1.
         22    1    1    2    0    0 -0.91319485390E+00  0.15186888723E+02 -0.86975461402E+02  0.88296129021E+02  0.00000000000E+00 0. -1.
</event>
<event>
 6    1  0.2406404E-005  0.1922565E+03  0.7818608E-02  0.1163092E+00
          2   -1    0    0  502    0  0.00000000000E+00  0.00000000000E+00  0.31260890940E+03  0.31260890940E+03  0.00000000000E+00 0.  1.
          1   -1    0    0  501    0 -0.00000000000E+00 -0.00000000000E+00 -0.12497483632E+03  0.12497483632E+03  0.00000000000E+00 0.  1.
          2    1    1    2  501    0 -0.95398837731E+02  0.10888113334E+03  0.14597507861E+03  0.20558395612E+03  0.00000000000E+00 0.  1.
          1    1    1    2  502    0  0.48712353777E+02 -0.38904191157E+01  0.35196804143E+02  0.60223282817E+02  0.00000000000E+00 0.  1.
         22    1    1    2    0    0  0.61847381391E+02 -0.11302206034E+03 -0.29286358269E+02  0.13212409125E+03  0.00000000000E+00 0.  1.
         22    1    1    2    0    0 -0.15160897437E+02  0.80313461156E+01  0.35748548596E+02  0.39652415541E+02  0.00000000000E+00 0.  1.
</event>
<event>
 6    1  0.2406404E-005  0.5901318E+02  0.7818608E-02  0.1407977E+00
          2   -1    0    0  502    0  0.00000000000E+00  0.00000000000E+00  0.20514394088E+03  0.20514394088E+03  0.00000000000E+00 0. -1.
          1   -1    0    0  501    0 -0.00000000000E+00 -0.00000000000E+00 -0.99051785468E+02  0.99051785468E+02  0.00000000000E+00 0. -1.
          2    1    1    2  501    0 -0.23627571698E+02  0.73548700570E+01  0.13139277730E+03  0.13370272317E+03  0.00000000000E+00 0. -1.
          1    1    1    2  502    0  0.34579050153E+02  0.13321375633E+01 -0.26364806882E+02  0.43503888813E+02  0.00000000000E+00 0. -1.
         22    1    1    2    0    0  0.10820517990E+02  0.42667252266E+01 -0.59874652894E+02  0.60993955544E+02  0.00000000000E+00 0. -1.
         22    1    1    2    0    0 -0.21771996444E+02 -0.12953732847E+02  0.60938837894E+02  0.65995158820E+02  0.00000000000E+00 0. -1.
</event>
<event>
 6    1  0.2406404E-005  0.5650617E+02  0.7818608E-02  0.1448240E+00
          2   -1    0    0  502    0  0.00000000000E+00  0.00000000000E+00  0.94871969056E+02  0.94871969056E+02  0.00000000000E+00 0.  1.
          1   -1    0    0  501    0 -0.00000000000E+00 -0.00000000000E+00 -0.16343456185E+03  0.16343456185E+03  0.00000000000E+00 0.  1.
          2    1    1    2  501    0 -0.34168704384E+02 -0.16379025009E+02 -0.10376089830E+02  0.39286588802E+02  0.00000000000E+00 0.  1.
          1    1    1    2  502    0  0.41599123871E+02  0.99804064675E+01 -0.81304487270E+02  0.91872276941E+02  0.00000000000E+00 0.  1.
         22    1    1    2    0    0  0.23802562239E+02 -0.48197462264E+01 -0.45135170272E+02  0.51254029289E+02  0.00000000000E+00 0.  1.
         22    1    1    2    0    0 -0.31232981726E+02  0.11218364768E+02  0.68253154580E+02  0.75893635871E+02  0.00000000000E+00 0.  1.
</event>
<event>
 6    1  0.2406404E-005  0.1897363E+03  0.7818608E-02  0.1158982E+00
          2   -1    0    0  502    0  0.00000000000E+00  0.00000000000E+00  0.16095132273E+03  0.16095132273E+03  0.00000000000E+00 0.  1.
          1   -1    0    0  501    0 -0.00000000000E+00 -0.00000000000E+00 -0.24929205006E+03  0.24929205006E+03  0.00000000000E+00 0.  1.
          2    1    1    2  501    0  0.78650130446E+02  0.49689176902E+02  0.91398543643E+00  0.93035975245E+02  0.00000000000E+00 0.  1.
          1    1    1    2  502    0 -0.97017525218E+02 -0.11383878660E+03 -0.88403478647E+02  0.17374361735E+03  0.00000000000E+00 0.  1.
         22    1    1    2    0    0 -0.38665198320E+02 -0.10870851342E+02 -0.23511234212E+02  0.46539779804E+02  0.00000000000E+00 0. -1.
         22    1    1    2    0    0  0.57032593093E+02  0.75020461037E+02  0.22660000093E+02  0.96924000399E+02  0.00000000000E+00 0.  1.
</event>
<event>
 6    1  0.2406404E-005  0.1084362E+03  0.7818608E-02  0.1311254E+00
          2   -1    0    0  502    0  0.00000000000E+00  0.00000000000E+00  0.16282812297E+03  0.16282812297E+03  0.00000000000E+00 0.  1.
          1   -1    0    0  501    0 -0.00000000000E+00 -0.00000000000E+00 -0.41697901916E+03  0.41697901916E+03  0.00000000000E+00 0. -1.
          2    1    1    2  501    0 -0.72844260422E+02  0.52918577667E+02  0.92414921719E+02  0.12902395086E+03  0.00000000000E+00 0.  1.
          1    1    1    2  502    0  0.84338860389E+02 -0.18882709583E+02 -0.30521572350E+03  0.31721638981E+03  0.00000000000E+00 0. -1.
         22    1    1    2    0    0 -0.13283886499E+02  0.10076151368E+02  0.38706053241E+02  0.42144383071E+02  0.00000000000E+00 0.  1.
         22    1    1    2    0    0  0.17892865313E+01 -0.44112019452E+02 -0.80056147647E+02  0.91422418380E+02  0.00000000000E+00 0. -1.
</event>
<event>
 6    1  0.2406404E-005  0.8555943E+02  0.7818608E-02  0.1353364E+00
          2   -1    0    0  502    0  0.00000000000E+00  0.00000000000E+00  0.11206803934E+03  0.11206803934E+03  0.00000000000E+00 0.  1.
          1   -1    0    0  501    0 -0.00000000000E+00 -0.00000000000E+00 -0.19354922005E+03  0.19354922005E+03  0.00000000000E+00 0.  1.
          2    1    1    2  501    0 -0.61371510449E+01  0.24894236243E+02  0.42880698358E+02  0.49961404231E+02  0.00000000000E+00 0.  1.
          1    1    1    2  502    0  0.39835157532E+01  0.22303870863E+02 -0.12137397737E+03  0.12347053671E+03  0.00000000000E+00 0.  1.
         22    1    1    2    0    0 -0.12506359266E+02 -0.46304224899E+02 -0.57990527302E+02  0.75255508252E+02  0.00000000000E+00 0.  1.
         22    1    1    2    0    0  0.14659994558E+02 -0.89388220745E+00  0.55002625607E+02  0.56929810200E+02  0.00000000000E+00 0.  1.
</event>
<event>
 6    1  0.2406404E-005  0.2536707E+02  0.7818608E-02  0.1663571E+00
          2   -1    0    0  502    0  0.00000000000E+00  0.00000000000E+00  0.13484389604E+03  0.13484389604E+03  0.00000000000E+00 0. -1.
          1   -1    0    0  501    0 -0.00000000000E+00 -0.00000000000E+00 -0.15873491933E+03  0.15873491933E+03  0.00000000000E+00 0.  1.
          2    1    1    2  501    0 -0.24061689400E+02  0.35791127616E+02  0.46714412744E+02  0.63578345927E+02  0.00000000000E+00 0. -1.
          1    1    1    2  502    0  0.28945121086E+02 -0.33215811950E+02 -0.88742689165E+02  0.99077621482E+02  0.00000000000E+00 0.  1.
         22    1    1    2    0    0 -0.45487341969E+01  0.18772513027E+02 -0.53126805854E+02  0.56529246664E+02  0.00000000000E+00 0.  1.
         22    1    1    2    0    0 -0.33469748969E+00 -0.21347828692E+02  0.71264058976E+02  0.74393601298E+02  0.00000000000E+00 0. -1.
</event>
<event>
 6    1  0.2406404E-005  0.2988237E+03  0.7818608E-02  0.1118917E+00
          2   -1    0    0  502    0  0.00000000000E+00  0.00000000000E+00  0.25056534015E+03  0.25056534015E+03  0.00000000000E+00 0. -1.
          1   -1    0    0  501    0 -0.00000000000E+00 -0.00000000000E+00 -0.31743369503E+03  0.31743369503E+03  0.00000000000E+00 0. -1.
          2    1    1    2  501    0  0.42516169511E+01  0.49998646430E+02 -0.83531579590E+02  0.97444680102E+02  0.00000000000E+00 0. -1.
          1    1    1    2  502    0 -0.52511674258E+02 -0.44381826600E+02 -0.20110605319E+03  0.21253439038E+03  0.00000000000E+00 0. -1.
         22    1    1    2    0    0  0.66247411484E+02 -0.25724914363E+02  0.21976205612E+03  0.23096720991E+03  0.00000000000E+00 0. -1.
         22    1    1    2    0    0 -0.17987354177E+02  0.20108094534E+02 -0.19927782197E+01  0.27052754778E+02  0.00000000000E+00 0.  1.
</event>
<event>
 6    1  0.2406404E-005  0.1571706E+03  0.7818608E-02  0.1252262E+00
          2   -1    0    0  502    0  0.00000000000E+00  0.00000000000E+00  0.57445552353E+03  0.57445552353E+03  0.00000000000E+00 0. -1.
          1   -1    0    0  501    0 -0.00000000000E+00 -0.00000000000E+00 -0.16307427322E+03  0.16307427322E+03  0.00000000000E+00 0. -1.
          2    1    1    2  501    0  0.12888742227E+02 -0.12450780527E+03  0.34966211148E+03  0.37139184893E+03  0.00000000000E+00 0. -1.
          1    1    1    2  502    0 -0.70233795126E+02  0.12803358734E+03 -0.82311137818E+02  0.16763206398E+03  0.00000000000E+00 0. -1.
         22    1    1    2    0    0  0.40221692035E+02  0.18900851993E+02 -0.68885628690E+01  0.44971980328E+02  0.00000000000E+00 0.  1.
         22    1    1    2    0    0  0.17123360864E+02 -0.22426634068E+02  0.15091883952E+03  0.15353390351E+03  0.00000000000E+00 0.  1.
</event>
<event>
 6    1  0.2406404E-005  0.7249824E+02  0.7818608E-02  0.1365186E+00
          2   -1    0    0  502    0  0.00000000000E+00  0.00000000000E+00  0.21660873380E+03  0.21660873380E+03  0.00000000000E+00 0. -1.
          1   -1    0    0  501    0 -0.00000000000E+00 -0.00000000000E+00 -0.11933220516E+03  0.11933220516E+03  0.00000000000E+00 0. -1.
          2    1    1    2  501    0  0.11130521343E+02  0.35447881940E+02  0.10330405982E+03  0.10978237388E+03  0.00000000000E+00 0. -1.
          1    1    1    2  502    0 -0.73425797496E+02 -0.42982136687E+02 -0.22225010508E+02  0.87936129686E+02  0.00000000000E+00 0. -1.
         22    1    1    2    0    0  0.70679532303E+02 -0.11367925294E+02 -0.37404061794E+02  0.80770600164E+02  0.00000000000E+00 0. -1.
         22    1    1    2    0    0 -0.83842561500E+01  0.18902180041E+02  0.53601541117E+02  0.57451835233E+02  0.00000000000E+00 0.  1.
</event>
<event>
 6    1  0.2406404E-005  0.2373915E+03  0.7818608E-02  0.1122200E+00
          2   -1    0    0  502    0  0.00000000000E+00  0.00000000000E+00  0.46421624966E+03  0.46421624966E+03  0.00000000000E+00 0. -1.
          1   -1    0    0  501    0 -0.00000000000E+00 -0.00000000000E+00 -0.41159539604E+03  0.41159539604E+03  0.00000000000E+00 0. -1.
          2    1    1    2  501    0 -0.20878515270E+03  0.51402629828E+02  0.34919878673E+03  0.41008933538E+03  0.00000000000E+00 0. -1.
          1    1    1    2  502    0  0.19542056437E+03 -0.24811900923E+02 -0.27643738563E+03  0.33944433356E+03  0.00000000000E+00 0. -1.
         22    1    1    2    0    0  0.30116220523E+02 -0.26475332419E+02 -0.66127146183E+02  0.77335175875E+02  0.00000000000E+00 0. -1.
         22    1    1    2    0    0 -0.16751632198E+02 -0.11539648557E+00  0.45986598702E+02  0.48942800878E+02  0.00000000000E+00 0. -1.
</event>
<event>
 6    1  0.2406404E-005  0.1180942E+03  0.7818608E-02  0.1247128E+00
          2   -1    0    0  502    0  0.00000000000E+00  0.00000000000E+00  0.45752031184E+03  0.45752031184E+03  0.00000000000E+00 0. -1.
          1   -1    0    0  501    0 -0.00000000000E+00 -0.00000000000E+00 -0.59867429596E+02  0.59867429596E+02  0.00000000000E+00 0. -1.
          2    1    1    2  501    0 -0.30985897128E+02  0.64256936325E+02  0.17567840278E+03  0.18961007591E+03  0.00000000000E+00 0. -1.
          1    1    1    2  502    0  0.46613380338E+02 -0.80216432898E+02  0.25672782155E+02  0.96263051463E+02  0.00000000000E+00 0. -1.
         22    1    1    2    0    0 -0.28954483396E+02  0.27986017511E+02  0.20682337877E+03  0.21070711732E+03  0.00000000000E+00 0. -1.
         22    1    1    2    0    0  0.13327000186E+02 -0.12026520938E+02 -0.10521681455E+02  0.20807496737E+02  0.00000000000E+00 0. -1.
</event>
<event>
 6    1  0.2406404E-005  0.2410637E+03  0.7818608E-02  0.1189622E+00
          2   -1    0    0  502    0  0.00000000000E+00  0.00000000000E+00  0.69049618744E+03  0.69049618744E+03  0.00000000000E+00 0.  1.
          1   -1    0    0  501    0 -0.00000000000E+00 -0.00000000000E+00 -0.23353998293E+03  0.23353998293E+03  0.00000000000E+00 0. -1.
          2    1    1    2  501    0 -0.13252748087E+02 -0.21841323464E+03  0.49567663086E+03  0.54182589342E+03  0.00000000000E+00 0.  1.
          1    1    1    2  502    0  0.55567116947E+02  0.21611012249E+03 -0.85600522172E+02  0.23899526967E+03  0.00000000000E+00 0. -1.
         22    1    1    2    0    0 -0.38269509616E+02  0.25223707395E+02 -0.35268417553E+02  0.57832966877E+02  0.00000000000E+00 0. -1.
         22    1    1    2    0    0 -0.40448592439E+01 -0.22920595247E+02  0.82148513381E+02  0.85382040404E+02  0.00000000000E+00 0.  1.
</event>
<event>
 6    1  0.2406404E-005  0.2682897E+03  0.7818608E-02  0.1118519E+00
          2   -1    0    0  502    0  0.00000000000E+00  0.00000000000E+00  0.30508258080E+03  0.30508258080E+03  0.00000000000E+00 0. -1.
          1   -1    0    0  501    0 -0.00000000000E+00 -0.00000000000E+00 -0.35034684803E+03  0.35034684803E+03  0.00000000000E+00 0. -1.
          2    1    1    2  501    0  0.67424333690E+00 -0.82500754681E+02 -0.18299755986E+03  0.20073598591E+03  0.00000000000E+00 0. -1.
          1    1    1    2  502    0 -0.14834521993E+03  0.70012091256E+02  0.19530402918E+03  0.25505227114E+03  0.00000000000E+00 0. -1.
         22    1    1    2    0    0  0.15537791612E+03  0.22036178462E+01 -0.79252421408E+02  0.17443651868E+03  0.00000000000E+00 0. -1.
         22    1    1    2    0    0 -0.77069395254E+01  0.10285045579E+02  0.21681684856E+02  0.25204653095E+02  0.00000000000E+00 0. -1.
</event>
<event>
 6    1  0.2406404E-005  0.2024848E+03  0.7818608E-02  0.1152082E+00
          2   -1    0    0  502    0  0.00000000000E+00  0.00000000000E+00  0.12128544157E+03  0.12128544157E+03  0.00000000000E+00 0. -1.
          1   -1    0    0  501    0 -0.00000000000E+00 -0.00000000000E+00 -0.30589071818E+03  0.30589071818E+03  0.00000000000E+00 0. -1.
          2    1    1    2  501    0  0.38299229035E+02 -0.15164423478E+03 -0.91644353407E+02  0.18127739075E+03  0.00000000000E+00 0. -1.
          1    1    1    2  502    0  0.19326463890E+02  0.31798818302E+02  0.72321483224E+01  0.37907532513E+02  0.00000000000E+00 0. -1.
         22    1    1    2    0    0 -0.75911152358E+02  0.13653701943E+03 -0.94526793535E+02  0.18259292271E+03  0.00000000000E+00 0. -1.
         22    1    1    2    0    0  0.18285459434E+02 -0.16691602953E+02 -0.56662779921E+01  0.25398313766E+02  0.00000000000E+00 0.  1.
</event>
<event>
 6    1  0.2406404E-005  0.4372716E+02  0.7818608E-02  0.1483275E+00
          2   -1    0    0  502    0  0.00000000000E+00  0.00000000000E+00  0.31428574018E+03  0.31428574018E+03  0.00000000000E+00 0.  1.
          1   -1    0    0  501    0 -0.00000000000E+00 -0.00000000000E+00 -0.68124706833E+02  0.68124706833E+02  0.00000000000E+00 0.  1.
          2    1    1    2  501    0  0.75476413649E+01  0.24942713482E+02  0.20935884652E+03  0.21097448296E+03  0.00000000000E+00 0.  1.
          1    1    1    2  502    0 -0.15190983815E+02 -0.19063102500E+02 -0.23935832741E+02  0.34162727572E+02  0.00000000000E+00 0.  1.
         22    1    1    2    0    0 -0.47609969582E+01 -0.16950392983E+02 -0.35491193943E+02  0.39618275603E+02  0.00000000000E+00 0.  1.
         22    1    1    2    0    0  0.12404339408E+02  0.11070782000E+02  0.96229213516E+02  0.97654960878E+02  0.00000000000E+00 0.  1.
</event>
<event>
 6    1  0.2406404E-005  0.8029087E+02  0.7818608E-02  0.1329825E+00
          2   -1    0    0  502    0  0.00000000000E+00  0.00000000000E+00  0.11041891773E+03  0.11041891773E+03  0.00000000000E+00 0. -1.
          1   -1    0    0  501    0 -0.00000000000E+00 -0.00000000000E+00 -0.20428090883E+03  0.20428090883E+03  0.00000000000E+00 0. -1.
          2    1    1    2  501    0 -0.55106665507E+02 -0.21347286007E+02  0.56704291240E+02  0.81901329954E+02  0.00000000000E+00 0. -1.
          1    1    1    2  502    0  0.33221711779E+02  0.27834099403E+02 -0.76081038169E+02  0.87559942851E+02  0.00000000000E+00 0. -1.
         22    1    1    2    0    0  0.33974494067E+02  0.61809781887E+01 -0.10473780099E+03  0.11028362387E+03  0.00000000000E+00 0. -1.
         22    1    1    2    0    0 -0.12089540339E+02 -0.12667791585E+02  0.30252556819E+02  0.34954929886E+02  0.00000000000E+00 0. -1.
</event>
<event>
 6    1  0.2406404E-005  0.1868890E+03  0.7818608E-02  0.1174921E+00
          2   -1    0    0  502    0  0.00000000000E+00  0.00000000000E+00  0.24929142185E+03  0.24929142185E+03  0.00000000000E+00 0.  1.
          1   -1    0    0  501    0 -0.00000000000E+00 -0.00000000000E+00 -0.50096216770E+03  0.50096216770E+03  0.00000000000E+00 0.  1.
          2    1    1    2  501    0 -0.27981446607E+02 -0.45602848968E+02  0.25213184664E+02  0.59146309007E+02  0.00000000000E+00 0.  1.
          1    1    1    2  502    0  0.28025990983E+02  0.26431746242E+02 -0.46289989780E+03  0.46450017090E+03  0.00000000000E+00 0.  1.
         22    1    1    2    0    0 -0.25008309802E+02 -0.23633056076E+02  0.31619331671E+00  0.34409836920E+02  0.00000000000E+00 0. -1.
         22    1    1    2    0    0  0.24963765425E+02  0.42804158802E+02  0.18569977396E+03  0.19219727273E+03  0.00000000000E+00 0.  1.
</event>
<event>
 6    1  0.2406404E-005  0.1136988E+03  0.7818608E-02  0.1265262E+00
          2   -1    0    0  502    0  0.00000000000E+00  0.00000000000E+00  0.13497312701E+03  0.13497312701E+03  0.00000000000E+00 0.  1.
          1   -1    0    0  501    0 -0.00000000000E+00 -0.00000000000E+00 -0.38413392052E+03  0.38413392052E+03  0.00000000000E+00 0. -1.
          2    1    1    2  501    0  0.29215952379E+02 -0.23711378423E+02  0.87159146952E+02  0.94934283783E+02  0.00000000000E+00 0.  1.
          1    1    1    2  502    0 -0.62655352703E+02  0.42462623949E+02 -0.25535971326E+03  0.26634066684E+03  0.00000000000E+00 0. -1.
         22    1    1    2    0    0  0.37200348955E+01 -0.41705993330E+02  0.22665178076E+02  0.47612381126E+02  0.00000000000E+00 0.  1.
         22    1    1    2    0    0  0.29719365429E+02  0.22954747803E+02 -0.10362540528E+03  0.11021971579E+03  0.00000000000E+00 0.  1.
</event>
<event>
 6    1  0.2406404E-005  0.8019690E+02  0.7818608E-02  0.1328768E+00
          2   -1    0    0  502    0  0.00000000000E+00  0.00000000000E+00  0.54074837014E+02  0.54074837014E+02  0.00000000000E+00 0.  1.
          1   -1    0    0  501    0 -0.00000000000E+00 -0.00000000000E+00 -0.51271603414E+03  0.51271603414E+03  0.00000000000E+00 0.  1.
          2    1    1    2  501    0 -0.40171712971E+02  0.46889942824E+02  0.18083138556E+01  0.61771378972E+02  0.00000000000E+00 0.  1.
          1    1    1    2  502    0  0.29577320846E+02 -0.12655463293E+02 -0.27801908397E+03  0.27987423910E+03  0.00000000000E+00 0.  1.
         22    1    1    2    0    0  0.40840221336E+01  0.94799911911E+01  0.17538397573E+02  0.20350549359E+02  0.00000000000E+00 0.  1.
         22    1    1    2    0    0  0.65103699914E+01 -0.43714470722E+02 -0.19996882458E+03  0.20479470372E+03  0.00000000000E+00 0. -1.
</event>
<event>
 6    1  0.2406404E-005  0.2463761E+03  0.7818608E-02  0.1117634E+00
          2   -1    0    0  502    0  0.00000000000E+00  0.00000000000E+00  0.51990327539E+03  0.51990327539E+03  0.00000000000E+00 0. -1.
          1   -1    0    0  501    0 -0.00000000000E+00 -0.00000000000E+00 -0.25608373095E+03  0.25608373095E+03  0.00000000000E+00 0. -1.
          2    1    1    2  501    0  0.44121307945E+02 -0.20499454264E+03  0.36490056522E+03  0.42085849739E+03  0.00000000000E+00 0. -1.
          1    1    1    2  502    0 -0.36370270059E+01  0.19613961161E+03 -0.10526744207E+03  0.22263245399E+03  0.00000000000E+00 0. -1.
         22    1    1    2    0    0 -0.33589394622E+02  0.31317308542E+02 -0.53322228520E+02  0.70372447021E+02  0.00000000000E+00 0.  1.
         22    1    1    2    0    0 -0.68948863169E+01 -0.22462377508E+02  0.57508649810E+02  0.62123607940E+02  0.00000000000E+00 0. -1.
</event>
<event>
 6    1  0.2406404E-005  0.1018343E+03  0.7818608E-02  0.1280391E+00
          2   -1    0    0  502    0  0.00000000000E+00  0.00000000000E+00  0.68065342544E+02  0.68065342544E+02  0.00000000000E+00 0.  1.
          1   -1    0    0  501    0 -0.00000000000E+00 -0.00000000000E+00 -0.25078788165E+03  0.25078788165E+03  0.00000000000E+00 0. -1.
          2    1    1    2  501    0  0.44230630650E+01  0.36987064239E+02  0.31297377460E+02  0.48653183285E+02  0.00000000000E+00 0.  1.
          1    1    1    2  502    0 -0.21711045993E+02 -0.27860152709E+02 -0.18908183245E+02  0.40063412495E+02  0.00000000000E+00 0. -1.
         22    1    1    2    0    0  0.41152074080E+02  0.16971257403E+02 -0.15590640446E+02  0.47165504858E+02  0.00000000000E+00 0. -1.
         22    1    1    2    0    0 -0.23864091152E+02 -0.26098168933E+02 -0.17952109287E+03  0.18297112355E+03  0.00000000000E+00 0. -1.
</event>
<event>
 6    1  0.2406404E-005  0.1678814E+03  0.7818608E-02  0.1186778E+00
          2   -1    0    0  502    0  0.00000000000E+00  0.00000000000E+00  0.56347535498E+03  0.56347535498E+03  0.00000000000E+00 0. -1.
          1   -1    0    0  501    0 -0.00000000000E+00 -0.00000000000E+00 -0.59046022218E+02  0.59046022218E+02  0.00000000000E+00 0.  1.
          2    1    1    2  501    0 -0.35940435182E+00  0.27549790686E+02  0.14533362733E+02  0.31150261165E+02  0.00000000000E+00 0. -1.
          1    1    1    2  502    0 -0.13127594256E+02 -0.12528038376E+03  0.77515743029E+02  0.14790604688E+03  0.00000000000E+00 0.  1.
         22    1    1    2    0    0  0.61677915415E+01 -0.15110525946E+02  0.48290199398E+00  0.16327977254E+02  0.00000000000E+00 0.  1.
         22    1    1    2    0    0  0.73192070664E+01  0.11284111902E+03  0.41189732500E+03  0.42713709190E+03  0.00000000000E+00 0. -1.
</event>
<event>
 6    1  0.2406404E-005  0.6216122E+02  0.7818608E-02  0.1441290E+00
          2   -1    0    0  502    0  0.00000000000E+00  0.00000000000E+00  0.27905789850E+03  0.27905789850E+03  0.00000000000E+00 0.  1.
          1   -1    0    0  501    0 -0.00000000000E+00 -0.00000000000E+00 -0.39398971595E+03  0.39398971595E+03  0.00000000000E+00 0.  1.
          2    1    1    2  501    0 -0.36012923592E+02  0.59809407078E+01  0.51261532599E+02  0.62932082770E+02  0.00000000000E+00 0.  1.
          1    1    1    2  502    0  0.49469049508E+02 -0.38097714823E+02 -0.36603860535E+03  0.37132584524E+03  0.00000000000E+00 0.  1.
         22    1    1    2    0    0 -0.56464285217E+01  0.58627587991E+02  0.20262620639E+03  0.21101292791E+03  0.00000000000E+00 0.  1.
         22    1    1    2    0    0 -0.78096973944E+01 -0.26510813876E+02 -0.27809510868E+01  0.27776758535E+02  0.00000000000E+00 0.  1.
</event>
<event>
 6    1  0.2406404E-005  0.4006658E+03  0.7818608E-02  0.1129124E+00
          2   -1    0    0  502    0  0.00000000000E+00  0.00000000000E+00  0.87198828772E+03  0.87198828772E+03  0.00000000000E+00 0.  1.
          1   -1    0    0  501    0 -0.00000000000E+00 -0.00000000000E+00 -0.17306854190E+04  0.17306854190E+04  0.00000000000E+00 0.  1.
          2    1    1    2  501    0  0.65788823670E+02  0.37887803589E+03  0.76858001404E+03  0.85941373818E+03  0.00000000000E+00 0.  1.
          1    1    1    2  502    0 -0.95790111338E+02 -0.42495903134E+03 -0.14745383651E+04  0.15375400202E+04  0.00000000000E+00 0.  1.
         22    1    1    2    0    0  0.19653640608E+02  0.35894515591E+02 -0.17467981198E+03  0.17940936027E+03  0.00000000000E+00 0.  1.
         22    1    1    2    0    0  0.10347647061E+02  0.10186479855E+02  0.21941031704E+02  0.26310588054E+02  0.00000000000E+00 0.  1.
</event>
<event>
 6    1  0.2406404E-005  0.2171467E+03  0.7818608E-02  0.1141107E+00
          2   -1    0    0  502    0  0.00000000000E+00  0.00000000000E+00  0.32692100159E+03  0.32692100159E+03  0.00000000000E+00 0. -1.
          1   -1    0    0  501    0 -0.00000000000E+00 -0.00000000000E+00 -0.16837141318E+03  0.16837141318E+03  0.00000000000E+00 0. -1.
          2    1    1    2  501    0  0.96901349422E+02 -0.88129972090E+02  0.18187271638E+03  0.22413042735E+03  0.00000000000E+00 0. -1.
          1    1    1    2  502    0  0.48231795586E+01  0.74717985784E+02  0.50848342076E+02  0.90507427057E+02  0.00000000000E+00 0. -1.
         22    1    1    2    0    0 -0.33728944719E+02  0.31709463661E+02 -0.96296128948E+02  0.10684603993E+03  0.00000000000E+00 0. -1.
         22    1    1    2    0    0 -0.67995584262E+02 -0.18297477355E+02  0.22124658906E+02  0.73808520432E+02  0.00000000000E+00 0. -1.
</event>
<event>
 6    1  0.2406404E-005  0.8453165E+02  0.7818608E-02  0.1319710E+00
          2   -1    0    0  502    0  0.00000000000E+00  0.00000000000E+00  0.34856691745E+02  0.34856691745E+02  0.00000000000E+00 0.  1.
          1   -1    0    0  501    0 -0.00000000000E+00 -0.00000000000E+00 -0.35203519764E+03  0.35203519764E+03  0.00000000000E+00 0. -1.
          2    1    1    2  501    0 -0.18263290422E+02  0.47076829756E+02 -0.35494263813E+02  0.61722106579E+02  0.00000000000E+00 0.  1.
          1    1    1    2  502    0 -0.17306153573E+02 -0.24251421266E+02 -0.89229707471E+02  0.94072180161E+02  0.00000000000E+00 0. -1.
         22    1    1    2    0    0  0.32570464000E+02 -0.43497935451E+02 -0.20123162355E+03  0.20843961195E+03  0.00000000000E+00 0. -1.
         22    1    1    2    0    0  0.29989799952E+01  0.20672526961E+02  0.87770889399E+01  0.22657990693E+02  0.00000000000E+00 0.  1.
</event>
<event>
 6    1  0.2406404E-005  0.1140753E+03  0.7818608E-02  0.1254183E+00
          2   -1    0    0  502    0  0.00000000000E+00  0.00000000000E+00  0.17166147520E+03  0.17166147520E+03  0.00000000000E+00 0. -1.
          1   -1    0    0  501    0 -0.00000000000E+00 -0.00000000000E+00 -0.86492146869E+02  0.86492146869E+02  0.00000000000E+00 0. -1.
          2    1    1    2  501    0  0.22367703299E+02  0.52610585294E+02 -0.67546147727E+01  0.57565724668E+02  0.00000000000E+00 0. -1.
          1    1    1    2  502    0 -0.11752940327E+01 -0.36864029415E+02  0.58444385406E+02  0.69109219112E+02  0.00000000000E+00 0. -1.
         22    1    1    2    0    0  0.43036083189E+02 -0.36795899943E+02  0.13427248807E+01  0.56637846171E+02  0.00000000000E+00 0.  1.
         22    1    1    2    0    0 -0.64228492456E+02  0.21049344064E+02  0.32136832820E+02  0.74840832119E+02  0.00000000000E+00 0. -1.
</event>
<event>
 6    1  0.2406404E-005  0.1391831E+03  0.7818608E-02  0.1217937E+00
          2   -1    0    0  502    0  0.00000000000E+00  0.00000000000E+00  0.47824636225E+03  0.47824636225E+03  0.00000000000E+00 0. -1.
          1   -1    0    0  501    0 -0.00000000000E+00 -0.00000000000E+00 -0.25719319031E+03  0.25719319031E+03  0.00000000000E+00 0. -1.
          2    1    1    2  501    0  0.44605213780E+02 -0.76181552383E+02  0.25019882477E+03  0.26531623761E+03  0.00000000000E+00 0. -1.
          1    1    1    2  502    0 -0.25327944148E+02  0.11287418376E+03 -0.21532921532E+03  0.24443558882E+03  0.00000000000E+00 0. -1.
         22    1    1    2    0    0 -0.12430983347E+02 -0.47316876163E+02  0.20062081108E+03  0.20649969965E+03  0.00000000000E+00 0. -1.
         22    1    1    2    0    0 -0.68462862855E+01  0.10624244782E+02 -0.14437248600E+02  0.19188026481E+02  0.00000000000E+00 0. -1.
</event>
<event>
 6    1  0.2406404E-005  0.1217732E+03  0.7818608E-02  0.1265099E+00
          2   -1    0    0  502    0  0.00000000000E+00  0.00000000000E+00  0.77705494537E+02  0.77705494537E+02  0.00000000000E+00 0.  1.
          1   -1    0    0  501    0 -0.00000000000E+00 -0.00000000000E+00 -0.47455142040E+03  0.47455142040E+03  0.00000000000E+00 0.  1.
          2    1    1    2  501    0 -0.57450508384E+02  0.65414070594E+02 -0.16619072166E+02  0.88632697719E+02  0.00000000000E+00 0.  1.
          1    1    1    2  502    0  0.10012562143E+03 -0.25300483878E+02 -0.25370924914E+03  0.27392268553E+03  0.00000000000E+00 0.  1.
         22    1    1    2    0    0  0.27393418754E+02 -0.15686044077E+02 -0.10897060245E+03  0.11345062172E+03  0.00000000000E+00 0.  1.
         22    1    1    2    0    0 -0.70068531803E+02 -0.24427542640E+02 -0.17547002114E+02  0.76250909972E+02  0.00000000000E+00 0.  1.
</event>
<event>
 6    1  0.2406404E-005  0.6009430E+02  0.7818608E-02  0.1464452E+00
          2   -1    0    0  502    0  0.00000000000E+00  0.00000000000E+00  0.45631021162E+02  0.45631021162E+02  0.00000000000E+00 0. -1.
          1   -1    0    0  501    0 -0.00000000000E+00 -0.00000000000E+00 -0.53380379335E+03  0.53380379335E+03  0.00000000000E+00 0. -1.
          2    1    1    2  501    0 -0.19384689247E+02 -0.34012637957E+02  0.15072671585E+01  0.39177768853E+02  0.00000000000E+00 0. -1.
          1    1    1    2  502    0  0.15617791290E+02  0.29587635863E+02 -0.35665082042E+03  0.35821662623E+03  0.00000000000E+00 0. -1.
         22    1    1    2    0    0  0.51666952244E+01 -0.21151818775E+02  0.18371138168E+02  0.28488469503E+02  0.00000000000E+00 0. -1.
         22    1    1    2    0    0 -0.13997972674E+01  0.25576820869E+02 -0.15140035710E+03  0.15355194994E+03  0.00000000000E+00 0. -1.
</event>
<event>
 6    1  0.2406404E-005  0.7719244E+02  0.7818608E-02  0.1411643E+00
          2   -1    0    0  502    0  0.00000000000E+00  0.00000000000E+00  0.28532235826E+03  0.28532235826E+03  0.00000000000E+00 0. -1.
          1   -1    0    0  501    0 -0.00000000000E+00 -0.00000000000E+00 -0.18435287216E+03  0.18435287216E+03  0.00000000000E+00 0.  1.
          2    1    1    2  501    0  0.51498063169E+01  0.41919946056E+02  0.13721016815E+03  0.14356334012E+03  0.00000000000E+00 0. -1.
          1    1    1    2  502    0 -0.30219318237E+02 -0.49748304898E+02 -0.14508319637E+03  0.15632413410E+03  0.00000000000E+00 0.  1.
         22    1    1    2    0    0  0.58221068250E+01 -0.21914820490E+02 -0.23576781799E+02  0.32711174314E+02  0.00000000000E+00 0.  1.
         22    1    1    2    0    0  0.19247405095E+02  0.29743179333E+02  0.13241929610E+03  0.13707658188E+03  0.00000000000E+00 0. -1.
</event>
<event>
 6    1  0.2406404E-005  0.9258970E+02  0.7818608E-02  0.1307842E+00
          2   -1    0    0  502    0  0.00000000000E+00  0.00000000000E+00  0.36312222766E+03  0.36312222766E+03  0.00000000000E+00 0. -1.
          1   -1    0    0  501    0 -0.00000000000E+00 -0.00000000000E+00 -0.80470457866E+02  0.80470457866E+02  0.00000000000E+00 0.  1.
          2    1    1    2  501    0  0.43895615185E+02  0.44838999654E+02  0.27759473294E+03  0.28459830758E+03  0.00000000000E+00 0. -1.
          1    1    1    2  502    0 -0.20348431022E+02 -0.21805820028E+02  0.10362321887E+02  0.31574200656E+02  0.00000000000E+00 0.  1.
         22    1    1    2    0    0 -0.24567210014E+02 -0.35679112303E+02 -0.58466569375E+02  0.72765971422E+02  0.00000000000E+00 0.  1.
         22    1    1    2    0    0  0.10200258503E+01  0.12645932677E+02  0.53161284344E+02  0.54654205869E+02  0.00000000000E+00 0. -1.
</event>
<event>
 6    1  0.2406404E-005  0.1427496E+03  0.7818608E-02  0.1230168E+00
          2   -1    0    0  502    0  0.00000000000E+00  0.00000000000E+00  0.87325759575E+03  0.87325759575E+03  0.00000000000E+00 0. -1.
          1   -1    0    0  501    0 -0.00000000000E+00 -0.00000000000E+00 -0.62623717676E+02  0.62623717676E+02  0.00000000000E+00 0. -1.
          2    1    1    2  501    0 -0.55574030367E+02 -0.21734310911E+02  0.71331487896E+03  0.71580651692E+03  0.00000000000E+00 0. -1.
          1    1    1    2  502    0  0.59686476947E+02 -0.15064642888E+02  0.84215214678E+01  0.62131642659E+02  0.00000000000E+00 0. -1.
         22    1    1    2    0    0  0.11064491552E+02  0.47105371433E+02  0.11573016131E+03  0.12543846790E+03  0.00000000000E+00 0. -1.
         22    1    1    2    0    0 -0.15176938132E+02 -0.10306417634E+02 -0.26832683669E+02  0.32504685945E+02  0.00000000000E+00 0. -1.
</event>
<event>
 6    1  0.2406404E-005  0.8596392E+02  0.7818608E-02  0.1419279E+00
          2   -1    0    0  502    0  0.00000000000E+00  0.00000000000E+00  0.48317125831E+03  0.48317125831E+03  0.00000000000E+00 0. -1.
          1   -1    0    0  501    0 -0.00000000000E+00 -0.00000000000E+00 -0.10741231524E+03  0.10741231524E+03  0.00000000000E+00 0. -1.
          2    1    1    2  501    0  0.70770745126E+02  0.27889200976E+01  0.36524945965E+03  0.37205301264E+03  0.00000000000E+00 0. -1.
          1    1    1    2  502    0 -0.84728437093E+02  0.24584846951E+01 -0.24123105203E+02  0.88129883717E+02  0.00000000000E+00 0. -1.
         22    1    1    2    0    0  0.12011295256E+02  0.92096279753E+01  0.80685392450E+02  0.82092758608E+02  0.00000000000E+00 0. -1.
         22    1    1    2    0    0  0.19463967120E+01 -0.14457032768E+02 -0.46052803833E+02  0.48307918579E+02  0.00000000000E+00 0.  1.
</event>
<event>
 6    1  0.2406404E-005  0.9620666E+02  0.7818608E-02  0.1323744E+00
          2   -1    0    0  502    0  0.00000000000E+00  0.00000000000E+00  0.81630385974E+02  0.81630385974E+02  0.00000000000E+00 0.  1.
          1   -1    0    0  501    0 -0.00000000000E+00 -0.00000000000E+00 -0.18640716239E+03  0.18640716239E+03  0.00000000000E+00 0. -1.
          2    1    1    2  501    0  0.84554756437E+01  0.27895916810E+02 -0.14105417692E+02  0.32382712229E+02  0.00000000000E+00 0.  1.
          1    1    1    2  502    0  0.27419114330E+02 -0.18775828353E+02 -0.99309637539E+02  0.10472222147E+03  0.00000000000E+00 0. -1.
         22    1    1    2    0    0 -0.41877349444E+02  0.70959802729E+01  0.61822961104E+02  0.75007625293E+02  0.00000000000E+00 0.  1.
         22    1    1    2    0    0  0.60027594698E+01 -0.16216068730E+02 -0.53184682289E+02  0.55924989374E+02  0.00000000000E+00 0. -1.
</event>
<event>
 6    1  0.2406404E-005  0.1485548E+03  0.7818608E-02  0.1210294E+00
          2   -1    0    0  502    0  0.00000000000E+00  0.00000000000E+00  0.16539033331E+03  0.16539033331E+03  0.00000000000E+00 0. -1.
          1   -1    0    0  501    0 -0.00000000000E+00 -0.00000000000E+00 -0.16414040955E+03  0.16414040955E+03  0.00000000000E+00 0. -1.
          2    1    1    2  501    0 -0.60019211541E+02  0.24026490140E+02 -0.68808425290E+02  0.94414921349E+02  0.00000000000E+00 0. -1.
          1    1    1    2  502    0  0.44397834320E+02 -0.13974905876E+02  0.92652345717E+02  0.10368665707E+03  0.00000000000E+00 0. -1.
         22    1    1    2    0    0 -0.55519498037E+02 -0.71031926188E+01 -0.22233713417E+02  0.60226306710E+02  0.00000000000E+00 0.  1.
         22    1    1    2    0    0  0.71140875258E+02 -0.29483916445E+01 -0.36028325328E+00  0.71202857736E+02  0.00000000000E+00 0. -1.
</event>
<event>
 6    1  0.2406404E-005  0.1120441E+03  0.7818608E-02  0.1257353E+00
          2   -1    0    0  502    0  0.00000000000E+00  0.00000000000E+00  0.20679819252E+03  0.20679819252E+03  0.00000000000E+00 0.  1.
          1   -1    0    0  501    0 -0.00000000000E+00 -0.00000000000E+00 -0.30142144090E+03  0.30142144090E+03  0.00000000000E+00 0.  1.
          2    1    1    2  501    0 -0.33242369508E+02  0.66057150429E+02  0.10180504827E+03  0.12582873323E+03  0.00000000000E+00 0.  1.
          1    1    1    2  502    0  0.47293899249E+02 -0.84247450295E+02 -0.22768324618E+03  0.24733379547E+03  0.00000000000E+00 0.  1.
         22    1    1    2    0    0  0.10290298234E+02 -0.86865554163E+01 -0.46956051542E+02  0.48848922805E+02  0.00000000000E+00 0. -1.
         22    1    1    2    0    0 -0.24341827974E+02  0.26876855283E+02  0.78211001076E+02  0.86208181911E+02  0.00000000000E+00 0.  1.
</event>
<event>
 6    1  0.2406404E-005  0.1104514E+03  0.7818608E-02  0.1260759E+00
          2   -1    0    0  502    0  0.00000000000E+00  0.00000000000E+00  0.43028814141E+02  0.43028814141E+02  0.00000000000E+00 0.  1.
          1   -1    0    0  501    0 -0.00000000000E+00 -0.00000000000E+00 -0.51813225552E+03  0.51813225552E+03  0.00000000000E+00 0.  1.
          2    1    1    2  501    0  0.26599501390E+02  0.10325969133E+02 -0.18775644140E+02  0.34156755197E+02  0.00000000000E+00 0.  1.
          1    1    1    2  502    0 -0.47512214469E+02 -0.71221332021E+02 -0.31174551253E+03  0.32328803449E+03  0.00000000000E+00 0.  1.
         22    1    1    2    0    0  0.39894918363E+02  0.70677391010E+02 -0.29011409740E+02  0.86189094474E+02  0.00000000000E+00 0. -1.
         22    1    1    2    0    0 -0.18982205284E+02 -0.97820281224E+01 -0.11557087497E+03  0.11752718551E+03  0.00000000000E+00 0.  1.
</event>
<event>
 6    1  0.2406404E-005  0.1119294E+03  0.7818608E-02  0.1318718E+00
          2   -1    0    0  502    0  0.00000000000E+00  0.00000000000E+00  0.48673798439E+03  0.48673798439E+03  0.00000000000E+00 0. -1.
          1   -1    0    0  501    0 -0.00000000000E+00 -0.00000000000E+00 -0.41346351012E+03  0.41346351012E+03  0.00000000000E+00 0. -1.
          2    1    1    2  501    0  0.26560504598E+03 -0.20649613810E+02  0.15202407056E+03  0.30673076962E+03  0.00000000000E+00 0. -1.
          1    1    1    2  502    0 -0.22594998841E+03  0.28715300268E+02 -0.27666098293E+03  0.35835633831E+03  0.00000000000E+00 0. -1.
         22    1    1    2    0    0  0.11350849771E+02  0.13000821524E+02 -0.10039042258E+02  0.19966109292E+02  0.00000000000E+00 0.  1.
         22    1    1    2    0    0 -0.51005907343E+02 -0.21066507982E+02  0.20795042890E+03  0.21514827729E+03  0.00000000000E+00 0.  1.
</event>
<event>
 6    1  0.2406404E-005  0.1114792E+03  0.7818608E-02  0.1265556E+00
          2   -1    0    0  502    0  0.00000000000E+00  0.00000000000E+00  0.46824657572E+03  0.46824657572E+03  0.00000000000E+00 0.  1.
          1   -1    0    0  501    0 -0.00000000000E+00 -0.00000000000E+00 -0.49462448857E+02  0.49462448857E+02  0.00000000000E+00 0.  1.
          2    1    1    2  501    0 -0.28846272996E+02  0.59781544930E+02  0.23584802865E+03  0.24501067976E+03  0.00000000000E+00 0.  1.
          1    1    1    2  502    0  0.33704471092E+02 -0.21107636513E+02 -0.89298771650E+01  0.40758635857E+02  0.00000000000E+00 0.  1.
         22    1    1    2    0    0 -0.98806363134E+01  0.25626487298E+02  0.15548090522E+03  0.15788811138E+03  0.00000000000E+00 0.  1.
         22    1    1    2    0    0  0.50224382171E+01 -0.64300395714E+02  0.36385070164E+02  0.74051597589E+02  0.00000000000E+00 0.  1.
</event>
<event>
 6    1  0.2406404E-005  0.1825247E+03  0.7818608E-02  0.1170832E+00
          2   -1    0    0  502    0  0.00000000000E+00  0.00000000000E+00  0.36611095766E+02  0.36611095766E+02  0.00000000000E+00 0.  1.
          1   -1    0    0  501    0 -0.00000000000E+00 -0.00000000000E+00 -0.89219755275E+03  0.89219755275E+03  0.00000000000E+00 0.  1.
          2    1    1    2  501    0 -0.17895510863E+02  0.21345610150E+02 -0.50337655463E+02  0.57530547879E+02  0.00000000000E+00 0.  1.
          1    1    1    2  502    0 -0.67164522062E+02 -0.12245133730E+03 -0.23890806951E+03  0.27673537668E+03  0.00000000000E+00 0.  1.
         22    1    1    2    0    0 -0.30523255891E+01 -0.19767781805E+02 -0.20758172985E+02  0.28826786756E+02  0.00000000000E+00 0.  1.
         22    1    1    2    0    0  0.88112358514E+02  0.12087350895E+03 -0.54558255903E+03  0.56571593720E+03  0.00000000000E+00 0.  1.
</event>
<event>
 6    1  0.2406404E-005  0.6334307E+02  0.7818608E-02  0.1489171E+00
          2   -1    0    0  502    0  0.00000000000E+00  0.00000000000E+00  0.86092445380E+02  0.86092445380E+02  0.00000000000E+00 0.  1.
          1   -1    0    0  501    0 -0.00000000000E+00 -0.00000000000E+00 -0.54123180873E+03  0.54123180873E+03  0.00000000000E+00 0.  1.
          2    1    1    2  501    0 -0.11005864806E+01  0.27230707479E+02  0.15336428688E+02  0.31271852604E+02  0.00000000000E+00 0.  1.
          1    1    1    2  502    0 -0.92190986322E+01 -0.48211401894E+02 -0.46606046682E+03  0.46863812242E+03  0.00000000000E+00 0.  1.
         22    1    1    2    0    0  0.22512098713E+01  0.31290273219E+02  0.56760724964E+02  0.64853134407E+02  0.00000000000E+00 0.  1.
         22    1    1    2    0    0  0.80684752415E+01 -0.10309578804E+02 -0.61176050177E+02  0.62561144675E+02  0.00000000000E+00 0.  1.
</event>
<event>
 6    1  0.2406404E-005  0.4773221E+02  0.7818608E-02  0.1512589E+00
          2   -1    0    0  502    0  0.00000000000E+00  0.00000000000E+00  0.72816622636E+02  0.72816622636E+02  0.00000000000E+00 0. -1.
          1   -1    0    0  501    0 -0.00000000000E+00 -0.00000000000E+00 -0.30641791342E+03  0.30641791342E+03  0.00000000000E+00 0.  1.
          2    1    1    2  501    0 -0.25537551718E+02  0.26567912893E+01  0.22550533877E+02  0.34172381624E+02  0.00000000000E+00 0. -1.
          1    1    1    2  502    0  0.27250209032E+02 -0.19732639100E+02 -0.21249885996E+03  0.21514580271E+03  0.00000000000E+00 0.  1.
         22    1    1    2    0    0 -0.19988357155E+02  0.45000163138E+01  0.39153170836E+02  0.44189991571E+02  0.00000000000E+00 0. -1.
         22    1    1    2    0    0  0.18275699841E+02  0.12575831496E+02 -0.82806135533E+02  0.85726360149E+02  0.00000000000E+00 0.  1.
</event>
<event>
 6    1  0.2406404E-005  0.8543273E+02  0.7818608E-02  0.1317804E+00
          2   -1    0    0  502    0  0.00000000000E+00  0.00000000000E+00  0.44928169053E+03  0.44928169053E+03  0.00000000000E+00 0. -1.
          1   -1    0    0  501    0 -0.00000000000E+00 -0.00000000000E+00 -0.90742814870E+02  0.90742814870E+02  0.00000000000E+00 0.  1.
          2    1    1    2  501    0  0.13139742397E+02 -0.18246283806E+02  0.10347715806E+03  0.10589193521E+03  0.00000000000E+00 0. -1.
          1    1    1    2  502    0 -0.65879492183E+02  0.20504088493E+02 -0.59327055723E+02  0.90995739878E+02  0.00000000000E+00 0.  1.
         22    1    1    2    0    0 -0.10054019677E+02 -0.49386298226E+01 -0.85796524211E+01  0.14109706300E+02  0.00000000000E+00 0.  1.
         22    1    1    2    0    0  0.62793769463E+02  0.26808251351E+01  0.32296842575E+03  0.32902712401E+03  0.00000000000E+00 0. -1.
</event>
<event>
 6    1  0.2406404E-005  0.1352492E+03  0.7818608E-02  0.1307867E+00
          2   -1    0    0  502    0  0.00000000000E+00  0.00000000000E+00  0.15803451762E+03  0.15803451762E+03  0.00000000000E+00 0. -1.
          1   -1    0    0  501    0 -0.00000000000E+00 -0.00000000000E+00 -0.33008695450E+03  0.33008695450E+03  0.00000000000E+00 0.  1.
          2    1    1    2  501    0 -0.10005097931E+03 -0.58237613706E+02  0.33002569112E+02  0.12037851834E+03  0.00000000000E+00 0. -1.
          1    1    1    2  502    0  0.99259976835E+02  0.67529512273E+02 -0.21374774169E+03  0.24515479826E+03  0.00000000000E+00 0.  1.
         22    1    1    2    0    0 -0.10689622943E+02 -0.21707025081E+02  0.62057804724E+02  0.66608063353E+02  0.00000000000E+00 0. -1.
         22    1    1    2    0    0  0.11480625415E+02  0.12415126513E+02 -0.53365069022E+02  0.55980092158E+02  0.00000000000E+00 0. -1.
</event>
<event>
 6    1  0.2406404E-005  0.1053617E+03  0.7818608E-02  0.1270330E+00
          2   -1    0    0  502    0  0.00000000000E+00  0.00000000000E+00  0.99555027381E+02  0.99555027381E+02  0.00000000000E+00 0. -1.
          1   -1    0    0  501    0 -0.00000000000E+00 -0.00000000000E+00 -0.16167456088E+03  0.16167456088E+03  0.00000000000E+00 0.  1.
          2    1    1    2  501    0 -0.25182195783E+02  0.24284704900E+02  0.66786452211E+01  0.35615925911E+02  0.00000000000E+00 0. -1.
          1    1    1    2  502    0  0.27658932635E+02 -0.53280937584E+02 -0.81428363047E+02  0.10116547421E+03  0.00000000000E+00 0.  1.
         22    1    1    2    0    0  0.26933298089E+02 -0.31485135437E+02 -0.23984105888E+02  0.47874352577E+02  0.00000000000E+00 0.  1.
         22    1    1    2    0    0 -0.29410034941E+02  0.60481368122E+02  0.36614290212E+02  0.76573835563E+02  0.00000000000E+00 0. -1.
</event>
<event>
 6    1  0.2406404E-005  0.1981068E+03  0.7818608E-02  0.1151627E+00
          2   -1    0    0  502    0  0.00000000000E+00  0.00000000000E+00  0.10144928951E+03  0.10144928951E+03  0.00000000000E+00 0. -1.
          1   -1    0    0  501    0 -0.00000000000E+00 -0.00000000000E+00 -0.50017056562E+03  0.50017056562E+03  0.00000000000E+00 0.  1.
          2    1    1    2  501    0 -0.22935132675E+02 -0.12440173122E+03 -0.32969944913E+02  0.13072424530E+03  0.00000000000E+00 0. -1.
          1    1    1    2  502    0  0.66218156675E+01  0.15941434032E+03 -0.25178628931E+03  0.29808239772E+03  0.00000000000E+00 0.  1.
         22    1    1    2    0    0  0.19833172959E+02 -0.68755651896E+02 -0.22115783168E+02  0.74898613354E+02  0.00000000000E+00 0. -1.
         22    1    1    2    0    0 -0.35198559516E+01  0.33743042796E+02 -0.91849258714E+02  0.97914598755E+02  0.00000000000E+00 0.  1.
</event>
<event>
 6    1  0.2406404E-005  0.2896337E+03  0.7818608E-02  0.1090554E+00
          2   -1    0    0  502    0  0.00000000000E+00  0.00000000000E+00  0.19380761579E+03  0.19380761579E+03  0.00000000000E+00 0. -1.
          1   -1    0    0  501    0 -0.00000000000E+00 -0.00000000000E+00 -0.43306612075E+03  0.43306612075E+03  0.00000000000E+00 0. -1.
          2    1    1    2  501    0 -0.23335312185E+03  0.68611668979E+01 -0.12974218838E+03  0.26708386424E+03  0.00000000000E+00 0. -1.
          1    1    1    2  502    0  0.21270730255E+03 -0.11711765912E+02 -0.52648623246E+02  0.21943891986E+03  0.00000000000E+00 0. -1.
         22    1    1    2    0    0  0.60206012435E+02  0.35147625284E+02 -0.57730168645E+02  0.90514594780E+02  0.00000000000E+00 0. -1.
         22    1    1    2    0    0 -0.39560193133E+02 -0.30297026269E+02  0.86247531993E+00  0.49836357664E+02  0.00000000000E+00 0. -1.
</event>
<event>
 6    1  0.2406404E-005  0.7528174E+02  0.7818608E-02  0.1365895E+00
          2   -1    0    0  502    0  0.00000000000E+00  0.00000000000E+00  0.49823352343E+02  0.49823352343E+02  0.00000000000E+00 0.  1.
          1   -1    0    0  501    0 -0.00000000000E+00 -0.00000000000E+00 -0.27487917313E+03  0.27487917313E+03  0.00000000000E+00 0.  1.
          2    1    1    2  501    0 -0.16255987825E+02 -0.11943552082E+02 -0.18336473416E+02  0.27260444491E+02  0.00000000000E+00 0.  1.
          1    1    1    2  502    0 -0.27002842008E+02  0.12695343823E+00 -0.14498007827E+03  0.14747336264E+03  0.00000000000E+00 0.  1.
         22    1    1    2    0    0  0.94857989402E+01  0.21650170318E+02 -0.97192981603E+02  0.10002592628E+03  0.00000000000E+00 0.  1.
         22    1    1    2    0    0  0.33773030893E+02 -0.98335716740E+01  0.35453712504E+02  0.49942792052E+02  0.00000000000E+00 0.  1.
</event>
<event>
 6    1  0.2406404E-005  0.9473450E+02  0.7818608E-02  0.1292886E+00
          2   -1    0    0  502    0  0.00000000000E+00  0.00000000000E+00  0.56578048752E+02  0.56578048752E+02  0.00000000000E+00 0.  1.
          1   -1    0    0  501    0 -0.00000000000E+00 -0.00000000000E+00 -0.19711709231E+03  0.19711709231E+03  0.00000000000E+00 0.  1.
          2    1    1    2  501    0  0.53553982975E+02  0.30699027162E+01 -0.25755440195E+02  0.59504588855E+02  0.00000000000E+00 0.  1.
          1    1    1    2  502    0 -0.26893589991E+02  0.15167250425E+02 -0.28716755020E+02  0.42165894831E+02  0.00000000000E+00 0.  1.
         22    1    1    2    0    0 -0.56660916389E+02 -0.25040313893E+02 -0.10048954186E+03  0.11804924731E+03  0.00000000000E+00 0.  1.
         22    1    1    2    0    0  0.30000523405E+02  0.68031607516E+01  0.14422693522E+02  0.33975410067E+02  0.00000000000E+00 0.  1.
</event>
<event>
 6    1  0.2406404E-005  0.7122414E+02  0.7818608E-02  0.1440731E+00
          2   -1    0    0  502    0  0.00000000000E+00  0.00000000000E+00  0.32232472242E+03  0.32232472242E+03  0.00000000000E+00 0. -1.
          1   -1    0    0  501    0 -0.00000000000E+00 -0.00000000000E+00 -0.88814964744E+02  0.88814964744E+02  0.00000000000E+00 0. -1.
          2    1    1    2  501    0 -0.30834654780E+02 -0.16020359640E+02  0.18876968170E+03  0.19194119044E+03  0.00000000000E+00 0. -1.
          1    1    1    2  502    0  0.50066999500E+02  0.23422904839E+02 -0.36890939065E+02  0.66455084795E+02  0.00000000000E+00 0. -1.
         22    1    1    2    0    0 -0.24626123196E+02 -0.25126471283E+02  0.11187473200E+03  0.11727634528E+03  0.00000000000E+00 0.  1.
         22    1    1    2    0    0  0.53937784757E+01  0.17723926084E+02 -0.30243716951E+02  0.35467066654E+02  0.00000000000E+00 0. -1.
</event>
<event>
 6    1  0.2406404E-005  0.6887501E+02  0.7818608E-02  0.1365033E+00
          2   -1    0    0  502    0  0.00000000000E+00  0.00000000000E+00  0.39770929843E+03  0.39770929843E+03  0.00000000000E+00 0.  1.
          1   -1    0    0  501    0 -0.00000000000E+00 -0.00000000000E+00 -0.13534339838E+03  0.13534339838E+03  0.00000000000E+00 0. -1.
          2    1    1    2  501    0 -0.12056200279E+02 -0.50698722853E+02  0.29279449109E+03  0.29739590864E+03  0.00000000000E+00 0.  1.
          1    1    1    2  502    0  0.70890108970E+01  0.46087449209E+02 -0.85271014927E+02  0.97187720607E+02  0.00000000000E+00 0. -1.
         22    1    1    2    0    0 -0.93746103378E+01 -0.12364627880E+02  0.93014148900E+02  0.94299518754E+02  0.00000000000E+00 0. -1.
         22    1    1    2    0    0  0.14341799720E+02  0.16975901524E+02 -0.38171725014E+02  0.44169548812E+02  0.00000000000E+00 0.  1.
</event>
<event>
 6    1  0.2406404E-005  0.5859659E+02  0.7818608E-02  0.1436207E+00
          2   -1    0    0  502    0  0.00000000000E+00  0.00000000000E+00  0.32629416500E+03  0.32629416500E+03  0.00000000000E+00 0.  1.
          1   -1    0    0  501    0 -0.00000000000E+00 -0.00000000000E+00 -0.59367432567E+02  0.59367432567E+02  0.00000000000E+00 0. -1.
          2    1    1    2  501    0 -0.72133314039E+02  0.28395152145E+02  0.72706571244E+02  0.10628144317E+03  0.00000000000E+00 0.  1.
          1    1    1    2  502    0  0.71174071754E+02 -0.27135805741E+01  0.50366368678E+02  0.87234643940E+02  0.00000000000E+00 0. -1.
         22    1    1    2    0    0  0.19088891545E+02 -0.48075654413E+02  0.68896569126E+01  0.52183538593E+02  0.00000000000E+00 0. -1.
         22    1    1    2    0    0 -0.18129649260E+02  0.22394082843E+02  0.13696413560E+03  0.13996197187E+03  0.00000000000E+00 0.  1.
</event>
<event>
 6    1  0.2406404E-005  0.4983246E+02  0.7818608E-02  0.1532262E+00
          2   -1    0    0  502    0  0.00000000000E+00  0.00000000000E+00  0.11636448365E+03  0.11636448365E+03  0.00000000000E+00 0. -1.
          1   -1    0    0  501    0 -0.00000000000E+00 -0.00000000000E+00 -0.22869600007E+03  0.22869600007E+03  0.00000000000E+00 0.  1.
          2    1    1    2  501    0 -0.19967481754E+01  0.34905246416E+02  0.39715975692E+02  0.52912398885E+02  0.00000000000E+00 0. -1.
          1    1    1    2  502    0 -0.56216246501E+01 -0.37798219423E+02 -0.16073062732E+03  0.16521090343E+03  0.00000000000E+00 0.  1.
         22    1    1    2    0    0  0.41639076283E+01 -0.11702692428E+02 -0.57627704588E+02  0.58951195687E+02  0.00000000000E+00 0. -1.
         22    1    1    2    0    0  0.34544651971E+01  0.14595665436E+02  0.66310839791E+02  0.67985985711E+02  0.00000000000E+00 0. -1.
</event>
<event>
 6    1  0.2406404E-005  0.1468373E+03  0.7818608E-02  0.1204847E+00
          2   -1    0    0  502    0  0.00000000000E+00  0.00000000000E+00  0.74113182463E+03  0.74113182463E+03  0.00000000000E+00 0. -1.
          1   -1    0    0  501    0 -0.00000000000E+00 -0.00000000000E+00 -0.34638740452E+02  0.34638740452E+02  0.00000000000E+00 0. -1.
          2    1    1    2  501    0  0.74655210095E+02  0.19315211457E+02  0.33132896740E+03  0.34018430655E+03  0.00000000000E+00 0. -1.
          1    1    1    2  502    0 -0.89558226271E+02 -0.95328909244E+01  0.12915671930E+03  0.15745796278E+03  0.00000000000E+00 0. -1.
         22    1    1    2    0    0  0.61165037587E+02  0.22409004246E+02  0.17948709625E+03  0.19094225047E+03  0.00000000000E+00 0. -1.
         22    1    1    2    0    0 -0.46262021411E+02 -0.32191324779E+02  0.66520301232E+02  0.87186045283E+02  0.00000000000E+00 0. -1.
</event>
<event>
 6    1  0.2406404E-005  0.4501421E+02  0.7818608E-02  0.1477126E+00
          2   -1    0    0  502    0  0.00000000000E+00  0.00000000000E+00  0.38705288758E+03  0.38705288758E+03  0.00000000000E+00 0. -1.
          1   -1    0    0  501    0 -0.00000000000E+00 -0.00000000000E+00 -0.11202501318E+03  0.11202501318E+03  0.00000000000E+00 0. -1.
          2    1    1    2  501    0 -0.74886165691E+01  0.29567150955E+02  0.30279425866E+03  0.30432656616E+03  0.00000000000E+00 0. -1.
          1    1    1    2  502    0  0.16105740515E+02 -0.20834894823E+02 -0.60284103474E+02  0.65784959159E+02  0.00000000000E+00 0. -1.
         22    1    1    2    0    0  0.21013957079E+01 -0.16590672754E+02 -0.46200515099E+02  0.49134039949E+02  0.00000000000E+00 0.  1.
         22    1    1    2    0    0 -0.10718519654E+02  0.78584166225E+01  0.78718234317E+02  0.79832335488E+02  0.00000000000E+00 0. -1.
</event>
<event>
 6    1  0.2406404E-005  0.7219395E+02  0.7818608E-02  0.1354759E+00
          2   -1    0    0  502    0  0.00000000000E+00  0.00000000000E+00  0.32035182047E+02  0.32035182047E+02  0.00000000000E+00 0.  1.
          1   -1    0    0  501    0 -0.00000000000E+00 -0.00000000000E+00 -0.29869350682E+03  0.29869350682E+03  0.00000000000E+00 0.  1.
          2    1    1    2  501    0 -0.27796951664E+02 -0.11361525047E+02 -0.24022086180E+02  0.38455368905E+02  0.00000000000E+00 0.  1.
          1    1    1    2  502    0  0.36805220609E+02  0.33169847606E+01 -0.88278859910E+02  0.95701534779E+02  0.00000000000E+00 0.  1.
         22    1    1    2    0    0 -0.35965634496E+02  0.63597066661E+01  0.32489141842E+01  0.36667808456E+02  0.00000000000E+00 0.  1.
         22    1    1    2    0    0  0.26957365551E+02  0.16848336208E+01 -0.15760629286E+03  0.15990397672E+03  0.00000000000E+00 0.  1.
</event>
<event>
 6    1  0.2406404E-005  0.1071600E+03  0.7818608E-02  0.1267320E+00
          2   -1    0    0  502    0  0.00000000000E+00  0.00000000000E+00  0.32452483750E+03  0.32452483750E+03  0.00000000000E+00 0. -1.
          1   -1    0    0  501    0 -0.00000000000E+00 -0.00000000000E+00 -0.22399494011E+03  0.22399494011E+03  0.00000000000E+00 0. -1.
          2    1    1    2  501    0 -0.27699174901E+02  0.68725456795E+02  0.21308599956E+03  0.22560158668E+03  0.00000000000E+00 0. -1.
          1    1    1    2  502    0  0.29466449436E+02 -0.71386969685E+02 -0.16635856125E+03  0.18341085569E+03  0.00000000000E+00 0. -1.
         22    1    1    2    0    0 -0.59806486844E+01 -0.27222968679E+02 -0.35562662927E+02  0.45183638375E+02  0.00000000000E+00 0. -1.
         22    1    1    2    0    0  0.42133741494E+01  0.29884481569E+02  0.89365122008E+02  0.94323696873E+02  0.00000000000E+00 0. -1.
</event>
<event>
 6    1  0.2406404E-005  0.1523047E+03  0.7818608E-02  0.1258022E+00
          2   -1    0    0  502    0  0.00000000000E+00  0.00000000000E+00  0.12868515674E+04  0.12868515674E+04  0.00000000000E+00 0. -1.
          1   -1    0    0  501    0 -0.00000000000E+00 -0.00000000000E+00 -0.23388169262E+02  0.23388169262E+02  0.00000000000E+00 0. -1.
          2    1    1    2  501    0  0.13452587957E+03 -0.47221409138E+02  0.52192784443E+03  0.54105059703E+03  0.00000000000E+00 0. -1.
          1    1    1    2  502    0 -0.36851550026E+02  0.11416746359E+02  0.18218351437E+03  0.18622355314E+03  0.00000000000E+00 0. -1.
         22    1    1    2    0    0 -0.67446454383E+01 -0.43046262486E+02  0.16499846393E+03  0.17065451666E+03  0.00000000000E+00 0.  1.
         22    1    1    2    0    0 -0.90929684110E+02  0.78850925265E+02  0.39435357537E+03  0.41231106980E+03  0.00000000000E+00 0. -1.
</event>
<event>
 6    1  0.2406404E-005  0.9567655E+02  0.7818608E-02  0.1296347E+00
          2   -1    0    0  502    0  0.00000000000E+00  0.00000000000E+00  0.28642508268E+03  0.28642508268E+03  0.00000000000E+00 0.  1.
          1   -1    0    0  501    0 -0.00000000000E+00 -0.00000000000E+00 -0.52141049413E+02  0.52141049413E+02  0.00000000000E+00 0.  1.
          2    1    1    2  501    0 -0.55554134533E+02  0.13327072558E+02  0.13357967660E+03  0.14528386947E+03  0.00000000000E+00 0.  1.
          1    1    1    2  502    0  0.31338452901E+02 -0.23948931038E+02  0.18460379441E+02  0.43548083049E+02  0.00000000000E+00 0.  1.
         22    1    1    2    0    0  0.49979585629E+02  0.10441739413E+02 -0.11648778124E+02  0.52370630447E+02  0.00000000000E+00 0.  1.
         22    1    1    2    0    0 -0.25763903997E+02  0.18011906683E+00  0.93892755348E+02  0.97363549128E+02  0.00000000000E+00 0.  1.
</event>
<event>
 6    1  0.2406404E-005  0.1100931E+03  0.7818608E-02  0.1299047E+00
          2   -1    0    0  502    0  0.00000000000E+00  0.00000000000E+00  0.20309363805E+02  0.20309363805E+02  0.00000000000E+00 0. -1.
          1   -1    0    0  501    0 -0.00000000000E+00 -0.00000000000E+00 -0.55331520387E+03  0.55331520387E+03  0.00000000000E+00 0.  1.
          2    1    1    2  501    0  0.10405238801E+02 -0.18188129182E+02 -0.32323838831E+02  0.38521521185E+02  0.00000000000E+00 0. -1.
          1    1    1    2  502    0 -0.50272836089E+02  0.44486242581E+01 -0.19763319902E+03  0.20397556143E+03  0.00000000000E+00 0.  1.
         22    1    1    2    0    0  0.58655099620E+02 -0.16805349347E+01 -0.30107745434E+03  0.30674236489E+03  0.00000000000E+00 0. -1.
         22    1    1    2    0    0 -0.18787502332E+02  0.15420039859E+02 -0.19713478776E+01  0.24385120167E+02  0.00000000000E+00 0. -1.
</event>
<event>
 6    1  0.2406404E-005  0.2302833E+02  0.7818608E-02  0.1704079E+00
          2   -1    0    0  502    0  0.00000000000E+00  0.00000000000E+00  0.13092082423E+04  0.13092082423E+04  0.00000000000E+00 0.  1.
          1   -1    0    0  501    0 -0.00000000000E+00 -0.00000000000E+00 -0.30650018590E+03  0.30650018590E+03  0.00000000000E+00 0. -1.
          2    1    1    2  501    0 -0.31118941298E+02 -0.20639131507E+02  0.12363824281E+04  0.12369461875E+04  0.00000000000E+00 0.  1.
          1    1    1    2  502    0  0.19684301319E+02  0.61463238445E+01 -0.25038861132E+03  0.25123635424E+03  0.00000000000E+00 0. -1.
         22    1    1    2    0    0 -0.22309744087E+01  0.15603067843E+02  0.70386709844E+02  0.72129895990E+02  0.00000000000E+00 0. -1.
         22    1    1    2    0    0  0.13665614388E+02 -0.11102601809E+01 -0.53672470255E+02  0.55395990446E+02  0.00000000000E+00 0. -1.
</event>
<event>
 6    1  0.2406404E-005  0.8632140E+02  0.7818608E-02  0.1327979E+00
          2   -1    0    0  502    0  0.00000000000E+00  0.00000000000E+00  0.13201029576E+03  0.13201029576E+03  0.00000000000E+00 0. -1.
          1   -1    0    0  501    0 -0.00000000000E+00 -0.00000000000E+00 -0.14249279936E+03  0.14249279936E+03  0.00000000000E+00 0.  1.
          2    1    1    2  501    0  0.24957044062E+02 -0.43115490434E+02  0.78475524362E+02  0.92952716408E+02  0.00000000000E+00 0. -1.
          1    1    1    2  502    0 -0.28883157156E+02  0.20120508741E+02 -0.18638721879E+02  0.39830561037E+02  0.00000000000E+00 0.  1.
         22    1    1    2    0    0  0.11712098985E+02  0.35511211934E+02 -0.10099031466E+03  0.10769058961E+03  0.00000000000E+00 0.  1.
         22    1    1    2    0    0 -0.77859858912E+01 -0.12516230241E+02  0.30671008573E+02  0.34029228064E+02  0.00000000000E+00 0. -1.
</event>
<event>
 6    1  0.2406404E-005  0.7097776E+02  0.7818608E-02  0.1452770E+00
          2   -1    0    0  502    0  0.00000000000E+00  0.00000000000E+00  0.10297238849E+03  0.10297238849E+03  0.00000000000E+00 0.  1.
          1   -1    0    0  501    0 -0.00000000000E+00 -0.00000000000E+00 -0.24645072533E+03  0.24645072533E+03  0.00000000000E+00 0.  1.
          2    1    1    2  501    0  0.56821799980E+02  0.98434805894E+01  0.35134658818E+02  0.67528181623E+02  0.00000000000E+00 0.  1.
          1    1    1    2  502    0 -0.50125491233E+02 -0.20010875268E+02 -0.14308008373E+03  0.15292125543E+03  0.00000000000E+00 0.  1.
         22    1    1    2    0    0  0.88381881904E+01  0.12932789696E+02  0.44616234652E+02  0.47286139770E+02  0.00000000000E+00 0. -1.
         22    1    1    2    0    0 -0.15534496937E+02 -0.27653950174E+01 -0.80149146576E+02  0.81687537003E+02  0.00000000000E+00 0.  1.
</event>
<event>
 6    1  0.2406404E-005  0.1006469E+03  0.7818608E-02  0.1396877E+00
          2   -1    0    0  502    0  0.00000000000E+00  0.00000000000E+00  0.13258437595E+03  0.13258437595E+03  0.00000000000E+00 0.  1.
          1   -1    0    0  501    0 -0.00000000000E+00 -0.00000000000E+00 -0.52600806839E+03  0.52600806839E+03  0.00000000000E+00 0. -1.
          2    1    1    2  501    0 -0.19090233117E+02 -0.98394644842E+02  0.78428036157E+02  0.12726704204E+03  0.00000000000E+00 0.  1.
          1    1    1    2  502    0 -0.84625678567E+01  0.64623047462E+02 -0.33371911645E+03  0.34002382564E+03  0.00000000000E+00 0. -1.
         22    1    1    2    0    0  0.12778738162E+02  0.18080032036E+01  0.22996041226E+02  0.26370114461E+02  0.00000000000E+00 0.  1.
         22    1    1    2    0    0  0.14774062812E+02  0.31963594177E+02 -0.16112865338E+03  0.16493146220E+03  0.00000000000E+00 0. -1.
</event>
<event>
 6    1  0.2406404E-005  0.1277191E+03  0.7818608E-02  0.1248324E+00
          2   -1    0    0  502    0  0.00000000000E+00  0.00000000000E+00  0.41805186806E+03  0.41805186806E+03  0.00000000000E+00 0. -1.
          1   -1    0    0  501    0 -0.00000000000E+00 -0.00000000000E+00 -0.74624457646E+02  0.74624457646E+02  0.00000000000E+00 0. -1.
          2    1    1    2  501    0 -0.12864065010E+02  0.76136906824E+02  0.29256229822E+03  0.30258058611E+03  0.00000000000E+00 0. -1.
          1    1    1    2  502    0  0.22141093103E+02 -0.20774004706E+02  0.45909575651E+02  0.55040679609E+02  0.00000000000E+00 0. -1.
         22    1    1    2    0    0 -0.14721975757E+02 -0.44725995686E+02 -0.55870617892E+02  0.73066252155E+02  0.00000000000E+00 0. -1.
         22    1    1    2    0    0  0.54449476636E+01 -0.10636906431E+02  0.60826154438E+02  0.61988807839E+02  0.00000000000E+00 0.  1.
</event>
<event>
 6    1  0.2406404E-005  0.2414125E+03  0.7818608E-02  0.1129116E+00
          2   -1    0    0  502    0  0.00000000000E+00  0.00000000000E+00  0.17987924522E+03  0.17987924522E+03  0.00000000000E+00 0.  1.
          1   -1    0    0  501    0 -0.00000000000E+00 -0.00000000000E+00 -0.39765742498E+03  0.39765742498E+03  0.00000000000E+00 0.  1.
          2    1    1    2  501    0  0.89287244848E+02  0.14611437138E+03  0.62929845018E+02  0.18243296580E+03  0.00000000000E+00 0.  1.
          1    1    1    2  502    0 -0.71035084819E+02  0.14912710971E+02 -0.83978800694E+02  0.11099914950E+03  0.00000000000E+00 0.  1.
         22    1    1    2    0    0 -0.33237847290E+02 -0.16548393146E+03 -0.20569412529E+03  0.26608224150E+03  0.00000000000E+00 0.  1.
         22    1    1    2    0    0  0.14985687261E+02  0.44568491025E+01  0.89649012097E+01  0.18022313401E+02  0.00000000000E+00 0.  1.
</event>
<event>
 6    1  0.2406404E-005  0.1230402E+03  0.7818608E-02  0.1243591E+00
          2   -1    0    0  502    0  0.00000000000E+00  0.00000000000E+00  0.24271713658E+03  0.24271713658E+03  0.00000000000E+00 0.  1.
          1   -1    0    0  501    0 -0.00000000000E+00 -0.00000000000E+00 -0.20498060271E+03  0.20498060271E+03  0.00000000000E+00 0.  1.
          2    1    1    2  501    0  0.24234170404E+02 -0.28561161577E+02  0.11512439663E+03  0.12106470033E+03  0.00000000000E+00 0.  1.
          1    1    1    2  502    0 -0.87560051441E+02  0.32091012971E+02 -0.14669792769E+03  0.17383002534E+03  0.00000000000E+00 0.  1.
         22    1    1    2    0    0  0.75706806273E+02 -0.15106402968E+02  0.94759533122E+02  0.12222558261E+03  0.00000000000E+00 0.  1.
         22    1    1    2    0    0 -0.12380925237E+02  0.11576551574E+02 -0.25449468189E+02  0.30577431010E+02  0.00000000000E+00 0.  1.
</event>
<event>
 6    1  0.2406404E-005  0.5686655E+02  0.7818608E-02  0.1530583E+00
          2   -1    0    0  502    0  0.00000000000E+00  0.00000000000E+00  0.43584904393E+03  0.43584904393E+03  0.00000000000E+00 0.  1.
          1   -1    0    0  501    0 -0.00000000000E+00 -0.00000000000E+00 -0.12016612579E+03  0.12016612579E+03  0.00000000000E+00 0.  1.
          2    1    1    2  501    0 -0.35790161244E+02  0.20370916468E+02  0.35925229619E+03  0.36160492557E+03  0.00000000000E+00 0.  1.
          1    1    1    2  502    0  0.53769657824E+02 -0.24489826950E+02 -0.42589385712E+02  0.72833944709E+02  0.00000000000E+00 0.  1.
         22    1    1    2    0    0 -0.87566121081E+01 -0.54587007069E+01 -0.60100076682E+02  0.60979462823E+02  0.00000000000E+00 0. -1.
         22    1    1    2    0    0 -0.92228844719E+01  0.95776111891E+01  0.59120084349E+02  0.60596836613E+02  0.00000000000E+00 0. -1.
</event>
<event>
 6    1  0.2406404E-005  0.1204070E+03  0.7818608E-02  0.1257159E+00
          2   -1    0    0  502    0  0.00000000000E+00  0.00000000000E+00  0.13161842985E+02  0.13161842985E+02  0.00000000000E+00 0. -1.
          1   -1    0    0  501    0 -0.00000000000E+00 -0.00000000000E+00 -0.83922822163E+03  0.83922822163E+03  0.00000000000E+00 0. -1.
          2    1    1    2  501    0 -0.57623732352E+01  0.20114791915E+02 -0.51391136964E+02  0.55487464869E+02  0.00000000000E+00 0. -1.
          1    1    1    2  502    0  0.46523975150E+02  0.21340427898E+02 -0.20090846650E+03  0.20732608625E+03  0.00000000000E+00 0. -1.
         22    1    1    2    0    0 -0.66434294160E+02 -0.70074517816E+02 -0.43450399510E+03  0.44510411731E+03  0.00000000000E+00 0. -1.
         22    1    1    2    0    0  0.25672692245E+02  0.28619298003E+02 -0.13926278007E+03  0.14447239618E+03  0.00000000000E+00 0. -1.
</event>
<event>
 6    1  0.2406404E-005  0.2280536E+03  0.7818608E-02  0.1178547E+00
          2   -1    0    0  502    0  0.00000000000E+00  0.00000000000E+00  0.54539106449E+02  0.54539106449E+02  0.00000000000E+00 0. -1.
          1   -1    0    0  501    0 -0.00000000000E+00 -0.00000000000E+00 -0.42849156953E+03  0.42849156953E+03  0.00000000000E+00 0. -1.
          2    1    1    2  501    0 -0.46444553246E+02 -0.95955688855E+01 -0.41399253499E+02  0.62952916205E+02  0.00000000000E+00 0. -1.
          1    1    1    2  502    0 -0.11656125860E+02 -0.36660308258E+02  0.16857755931E+02  0.42000326269E+02  0.00000000000E+00 0. -1.
         22    1    1    2    0    0  0.72438622972E+02  0.59030855186E+02 -0.34622217972E+03  0.35861092244E+03  0.00000000000E+00 0. -1.
         22    1    1    2    0    0 -0.14337943866E+02 -0.12774978042E+02 -0.31887857936E+01  0.19466511067E+02  0.00000000000E+00 0.  1.
</event>
<event>
 6    1  0.2406404E-005  0.3778184E+02  0.7818608E-02  0.1596628E+00
          2   -1    0    0  502    0  0.00000000000E+00  0.00000000000E+00  0.13680857323E+03  0.13680857323E+03  0.00000000000E+00 0. -1.
          1   -1    0    0  501    0 -0.00000000000E+00 -0.00000000000E+00 -0.10969966612E+03  0.10969966612E+03  0.00000000000E+00 0. -1.
          2    1    1    2  501    0 -0.11016694261E+02  0.19055867243E+02  0.72940089764E+02  0.76188912077E+02  0.00000000000E+00 0. -1.
          1    1    1    2  502    0  0.44756834334E+01 -0.22302965687E+02 -0.34996820137E+02  0.41740046003E+02  0.00000000000E+00 0. -1.
         22    1    1    2    0    0  0.71398381837E+01 -0.13516022504E+02 -0.67641626639E+02  0.69347312911E+02  0.00000000000E+00 0. -1.
         22    1    1    2    0    0 -0.59882735650E+00  0.16763120948E+02  0.56807264125E+02  0.59231968358E+02  0.00000000000E+00 0.  1.
</event>
<event>
 6    1  0.2406404E-005  0.4958123E+02  0.7818608E-02  0.1465609E+00
          2   -1    0    0  502    0  0.00000000000E+00  0.00000000000E+00  0.21679005917E+03  0.21679005917E+03  0.00000000000E+00 0.  1.
          1   -1    0    0  501    0 -0.00000000000E+00 -0.00000000000E+00 -0.15027681854E+03  0.15027681854E+03  0.00000000000E+00 0.  1.
          2    1    1    2  501    0  0.21161731552E+02  0.58507562523E+01  0.15156157887E+03  0.15314360066E+03  0.00000000000E+00 0.  1.
          1    1    1    2  502    0 -0.18756356630E+02  0.16545911348E+02 -0.80663010667E+02  0.84451698539E+02  0.00000000000E+00 0.  1.
         22    1    1    2    0    0  0.96236248106E+01 -0.20545600327E+02  0.59895638629E+02  0.64048601656E+02  0.00000000000E+00 0.  1.
         22    1    1    2    0    0 -0.12028999733E+02 -0.18510672732E+01 -0.64280966202E+02  0.65422976854E+02  0.00000000000E+00 0.  1.
</event>
<event>
 6    1  0.2406404E-005  0.1472073E+03  0.7818608E-02  0.1223888E+00
          2   -1    0    0  502    0  0.00000000000E+00  0.00000000000E+00  0.55043493800E+03  0.55043493800E+03  0.00000000000E+00 0.  1.
          1   -1    0    0  501    0 -0.00000000000E+00 -0.00000000000E+00 -0.26997491615E+02  0.26997491615E+02  0.00000000000E+00 0.  1.
          2    1    1    2  501    0  0.22239262446E+02  0.28495843310E+02  0.63574118328E+02  0.73131842595E+02  0.00000000000E+00 0.  1.
          1    1    1    2  502    0 -0.34102240894E+02 -0.38070345317E+02  0.28272091653E+03  0.28730372547E+03  0.00000000000E+00 0.  1.
         22    1    1    2    0    0  0.28877115693E+02 -0.47735599232E+02  0.44015379109E+02  0.71062851356E+02  0.00000000000E+00 0.  1.
         22    1    1    2    0    0 -0.17014137244E+02  0.57310101239E+02  0.13312703242E+03  0.14593401019E+03  0.00000000000E+00 0.  1.
</event>
<event>
 6    1  0.2406404E-005  0.8151148E+02  0.7818608E-02  0.1327458E+00
          2   -1    0    0  502    0  0.00000000000E+00  0.00000000000E+00  0.86758412984E+02  0.86758412984E+02  0.00000000000E+00 0. -1.
          1   -1    0    0  501    0 -0.00000000000E+00 -0.00000000000E+00 -0.12291448269E+03  0.12291448269E+03  0.00000000000E+00 0. -1.
          2    1    1    2  501    0 -0.80128542506E+01 -0.38555788224E+02  0.13460236381E+02  0.41616494353E+02  0.00000000000E+00 0. -1.
          1    1    1    2  502    0 -0.37319988996E+01  0.23026654449E+02 -0.26896055387E+02  0.35602702514E+02  0.00000000000E+00 0. -1.
         22    1    1    2    0    0 -0.40081577633E+02 -0.10957700459E+01  0.34924576659E+02  0.53173862304E+02  0.00000000000E+00 0. -1.
         22    1    1    2    0    0  0.51826430783E+02  0.16624903821E+02 -0.57644827362E+02  0.79279836506E+02  0.00000000000E+00 0. -1.
</event>
<event>
 6    1  0.2406404E-005  0.9720914E+02  0.7818608E-02  0.1301633E+00
          2   -1    0    0  502    0  0.00000000000E+00  0.00000000000E+00  0.76711624744E+02  0.76711624744E+02  0.00000000000E+00 0.  1.
          1   -1    0    0  501    0 -0.00000000000E+00 -0.00000000000E+00 -0.22908943730E+03  0.22908943730E+03  0.00000000000E+00 0.  1.
          2    1    1    2  501    0 -0.52447074352E+02  0.13900835851E+02  0.26992754674E+02  0.60601465744E+02  0.00000000000E+00 0.  1.
          1    1    1    2  502    0  0.27179748561E+02  0.22393358197E+02 -0.40349654439E+02  0.53556473339E+02  0.00000000000E+00 0.  1.
         22    1    1    2    0    0 -0.17559125504E+02 -0.14037910617E+01  0.18002233885E+02  0.25186781109E+02  0.00000000000E+00 0. -1.
         22    1    1    2    0    0  0.42826451294E+02 -0.34890402986E+02 -0.15702314667E+03  0.16645634185E+03  0.00000000000E+00 0.  1.
</event>
<event>
 6    1  0.2406404E-005  0.1227996E+03  0.7818608E-02  0.1249901E+00
          2   -1    0    0  502    0  0.00000000000E+00  0.00000000000E+00  0.26358853846E+02  0.26358853846E+02  0.00000000000E+00 0. -1.
          1   -1    0    0  501    0 -0.00000000000E+00 -0.00000000000E+00 -0.66283366960E+03  0.66283366960E+03  0.00000000000E+00 0. -1.
          2    1    1    2  501    0  0.57430379348E+01  0.44261190069E+02 -0.39148557214E+03  0.39402155858E+03  0.00000000000E+00 0. -1.
          1    1    1    2  502    0  0.15973273976E+02  0.13484441730E+02 -0.12106028692E+02  0.24156398344E+02  0.00000000000E+00 0. -1.
         22    1    1    2    0    0  0.10037513900E+02  0.35628171582E+02 -0.90812241438E+02  0.98066209729E+02  0.00000000000E+00 0. -1.
         22    1    1    2    0    0 -0.31753825811E+02 -0.93373803380E+02 -0.14207097349E+03  0.17294835680E+03  0.00000000000E+00 0. -1.
</event>
<event>
 6    1  0.2406404E-005  0.1129470E+03  0.7818608E-02  0.1364674E+00
          2   -1    0    0  502    0  0.00000000000E+00  0.00000000000E+00  0.35438222055E+03  0.35438222055E+03  0.00000000000E+00 0. -1.
          1   -1    0    0  501    0 -0.00000000000E+00 -0.00000000000E+00 -0.18483714415E+03  0.18483714415E+03  0.00000000000E+00 0. -1.
          2    1    1    2  501    0  0.40605083372E+02  0.24161529919E+02  0.15328244087E+03  0.16039968517E+03  0.00000000000E+00 0. -1.
          1    1    1    2  502    0 -0.98092430934E+02  0.14937011408E+01 -0.13750534723E+03  0.16891440633E+03  0.00000000000E+00 0. -1.
         22    1    1    2    0    0  0.64545753714E+02 -0.11930958733E+02  0.17312405772E+03  0.18514978115E+03  0.00000000000E+00 0. -1.
         22    1    1    2    0    0 -0.70584061524E+01 -0.13724272328E+02 -0.19356074963E+02  0.24755492044E+02  0.00000000000E+00 0.  1.
</event>
<event>
 6    1  0.2406404E-005  0.9826375E+02  0.7818608E-02  0.1286974E+00
          2   -1    0    0  502    0  0.00000000000E+00  0.00000000000E+00  0.48139948281E+02  0.48139948281E+02  0.00000000000E+00 0. -1.
          1   -1    0    0  501    0 -0.00000000000E+00 -0.00000000000E+00 -0.21966637662E+03  0.21966637662E+03  0.00000000000E+00 0. -1.
          2    1    1    2  501    0 -0.18487839192E+02 -0.11743203953E+02 -0.31733091428E+02  0.38557646824E+02  0.00000000000E+00 0. -1.
          1    1    1    2  502    0  0.38407328865E+02  0.32034758838E+02 -0.42962287894E+02  0.65932593347E+02  0.00000000000E+00 0. -1.
         22    1    1    2    0    0  0.39710820359E+02 -0.10702288279E+02 -0.94286493566E+02  0.10286608332E+03  0.00000000000E+00 0. -1.
         22    1    1    2    0    0 -0.59630310032E+02 -0.95892666061E+01 -0.25445554540E+01  0.60450001415E+02  0.00000000000E+00 0. -1.
</event>
<event>
 6    1  0.2406404E-005  0.9727048E+02  0.7818608E-02  0.1286998E+00
          2   -1    0    0  502    0  0.00000000000E+00  0.00000000000E+00  0.12814678916E+03  0.12814678916E+03  0.00000000000E+00 0.  1.
          1   -1    0    0  501    0 -0.00000000000E+00 -0.00000000000E+00 -0.43375286398E+03  0.43375286398E+03  0.00000000000E+00 0.  1.
          2    1    1    2  501    0  0.12252835369E+02 -0.50881166600E+02  0.70827365495E+02  0.88065548270E+02  0.00000000000E+00 0.  1.
          1    1    1    2  502    0 -0.48689872072E+02  0.59479372213E+02 -0.32006546223E+03  0.32916621861E+03  0.00000000000E+00 0.  1.
         22    1    1    2    0    0  0.31137628996E+01  0.18465411968E+02 -0.88871012463E+02  0.90822485183E+02  0.00000000000E+00 0. -1.
         22    1    1    2    0    0  0.33323273804E+02 -0.27063617582E+02  0.32503034380E+02  0.53845401080E+02  0.00000000000E+00 0.  1.
</event>
<event>
 6    1  0.2406404E-005  0.2198934E+03  0.7818608E-02  0.1146119E+00
          2   -1    0    0  502    0  0.00000000000E+00  0.00000000000E+00  0.13360469347E+03  0.13360469347E+03  0.00000000000E+00 0.  1.
          1   -1    0    0  501    0 -0.00000000000E+00 -0.00000000000E+00 -0.31603090833E+03  0.31603090833E+03  0.00000000000E+00 0.  1.
          2    1    1    2  501    0  0.24163986200E+02  0.10058904405E+02 -0.87777109640E+02  0.91596401477E+02  0.00000000000E+00 0.  1.
          1    1    1    2  502    0  0.98803796049E+02 -0.94011926511E+02  0.70248496432E+01  0.13656420085E+03  0.00000000000E+00 0.  1.
         22    1    1    2    0    0 -0.14921264861E+03  0.80314601959E+02 -0.94507318040E+02  0.19402701604E+03  0.00000000000E+00 0.  1.
         22    1    1    2    0    0  0.26244866357E+02  0.36384201465E+01 -0.71666368236E+01  0.27447983434E+02  0.00000000000E+00 0.  1.
</event>
<event>
 6    1  0.2406404E-005  0.2755233E+03  0.7818608E-02  0.1098706E+00
          2   -1    0    0  502    0  0.00000000000E+00  0.00000000000E+00  0.37589017158E+02  0.37589017158E+02  0.00000000000E+00 0.  1.
          1   -1    0    0  501    0 -0.00000000000E+00 -0.00000000000E+00 -0.21235794961E+04  0.21235794961E+04  0.00000000000E+00 0.  1.
          2    1    1    2  501    0 -0.62384584197E+02 -0.24737352524E+03 -0.70279112857E+03  0.74766360600E+03  0.00000000000E+00 0.  1.
          1    1    1    2  502    0  0.75786795236E+00  0.31830025313E+02 -0.93142891447E+02  0.98434359359E+02  0.00000000000E+00 0.  1.
         22    1    1    2    0    0 -0.61555689830E+01 -0.14159958743E+02 -0.63412582061E+02  0.65265235959E+02  0.00000000000E+00 0.  1.
         22    1    1    2    0    0  0.67782285228E+02  0.22970345867E+03 -0.12266438769E+04  0.12498053120E+04  0.00000000000E+00 0.  1.
</event>
<event>
 6    1  0.2406404E-005  0.3993836E+03  0.7818608E-02  0.1144616E+00
          2   -1    0    0  502    0  0.00000000000E+00  0.00000000000E+00  0.13692939856E+04  0.13692939856E+04  0.00000000000E+00 0. -1.
          1   -1    0    0  501    0 -0.00000000000E+00 -0.00000000000E+00 -0.12571601911E+03  0.12571601911E+03  0.00000000000E+00 0. -1.
          2    1    1    2  501    0 -0.16735670375E+03  0.27559043825E+03  0.44514589677E+03  0.54964827423E+03  0.00000000000E+00 0. -1.
          1    1    1    2  502    0  0.17613409892E+03 -0.32728531738E+03  0.57164635752E+03  0.68184929261E+03  0.00000000000E+00 0. -1.
         22    1    1    2    0    0 -0.30072013970E+02  0.70447973985E+02  0.22186312426E+03  0.23471363183E+03  0.00000000000E+00 0. -1.
         22    1    1    2    0    0  0.21294618798E+02 -0.18753094862E+02  0.49225879347E+01  0.28798806028E+02  0.00000000000E+00 0. -1.
</event>
<event>
 6    1  0.2406404E-005  0.1517571E+03  0.7818608E-02  0.1239363E+00
          2   -1    0    0  502    0  0.00000000000E+00  0.00000000000E+00  0.41239990231E+03  0.41239990231E+03  0.00000000000E+00 0. -1.
          1   -1    0    0  501    0 -0.00000000000E+00 -0.00000000000E+00 -0.59708282117E+02  0.59708282117E+02  0.00000000000E+00 0.  1.
          2    1    1    2  501    0  0.51301084655E+02  0.14443793306E+02  0.26868079678E+03  0.27391567135E+03  0.00000000000E+00 0. -1.
          1    1    1    2  502    0  0.64648126017E+01 -0.19514312774E+02 -0.15467197847E+02  0.25726181494E+02  0.00000000000E+00 0.  1.
         22    1    1    2    0    0 -0.59962090551E+02  0.46469940833E+02  0.10615418285E+03  0.13047458849E+03  0.00000000000E+00 0. -1.
         22    1    1    2    0    0  0.21961932946E+01 -0.41399421365E+02 -0.66761615957E+01  0.41991743093E+02  0.00000000000E+00 0.  1.
</event>
<event>
 6    1  0.2406404E-005  0.1112112E+03  0.7818608E-02  0.1260289E+00
          2   -1    0    0  502    0  0.00000000000E+00  0.00000000000E+00  0.17601888104E+03  0.17601888104E+03  0.00000000000E+00 0.  1.
          1   -1    0    0  501    0 -0.00000000000E+00 -0.00000000000E+00 -0.50784618919E+03  0.50784618919E+03  0.00000000000E+00 0.  1.
          2    1    1    2  501    0  0.84196348402E+02  0.45920032988E+02  0.14451188645E+03  0.17343978736E+03  0.00000000000E+00 0.  1.
          1    1    1    2  502    0 -0.18175294994E+02 -0.21287415557E+02 -0.18057305766E+03  0.18272964883E+03  0.00000000000E+00 0.  1.
         22    1    1    2    0    0 -0.76147307937E+02 -0.25679333619E+02 -0.30410029958E+03  0.31453908006E+03  0.00000000000E+00 0.  1.
         22    1    1    2    0    0  0.10126254529E+02  0.10467161885E+01  0.83341626491E+01  0.13156553980E+02  0.00000000000E+00 0.  1.
</event>
<event>
 6    1  0.2406404E-005  0.3571500E+03  0.7818608E-02  0.1075437E+00
          2   -1    0    0  502    0  0.00000000000E+00  0.00000000000E+00  0.14937243799E+03  0.14937243799E+03  0.00000000000E+00 0.  1.
          1   -1    0    0  501    0 -0.00000000000E+00 -0.00000000000E+00 -0.70343575530E+03  0.70343575530E+03  0.00000000000E+00 0.  1.
          2    1    1    2  501    0  0.18841928376E+03  0.10238702846E+03 -0.47556308226E+02  0.21965093340E+03  0.00000000000E+00 0.  1.
          1    1    1    2  502    0 -0.96645719649E+02 -0.54232087531E+02 -0.11424804920E+02  0.11140933808E+03  0.00000000000E+00 0.  1.
         22    1    1    2    0    0 -0.10172798305E+03 -0.61922585572E+02 -0.48962979067E+03  0.50390507146E+03  0.00000000000E+00 0. -1.
         22    1    1    2    0    0  0.99544189398E+01  0.13767644641E+02 -0.54524134939E+01  0.17842850341E+02  0.00000000000E+00 0.  1.
</event>
<event>
 6    1  0.2406404E-005  0.8971940E+02  0.7818608E-02  0.1305056E+00
          2   -1    0    0  502    0  0.00000000000E+00  0.00000000000E+00  0.33041938516E+03  0.33041938516E+03  0.00000000000E+00 0.  1.
          1   -1    0    0  501    0 -0.00000000000E+00 -0.00000000000E+00 -0.17527272843E+03  0.17527272843E+03  0.00000000000E+00 0. -1.
          2    1    1    2  501    0  0.73504781646E+02 -0.17684723126E+02  0.28189672614E+03  0.29185864141E+03  0.00000000000E+00 0.  1.
          1    1    1    2  502    0 -0.34204225586E+02 -0.38772591846E+01 -0.55327657615E+02  0.65162196739E+02  0.00000000000E+00 0. -1.
         22    1    1    2    0    0  0.64915233831E+01 -0.91501062423E+01  0.30660962460E+02  0.32649026618E+02  0.00000000000E+00 0. -1.
         22    1    1    2    0    0 -0.45792079443E+02  0.30712088553E+02 -0.10208337425E+03  0.11602224882E+03  0.00000000000E+00 0. -1.
</event>
<event>
 6    1  0.2406404E-005  0.1448596E+03  0.7818608E-02  0.1216328E+00
          2   -1    0    0  502    0  0.00000000000E+00  0.00000000000E+00  0.66120963879E+03  0.66120963879E+03  0.00000000000E+00 0. -1.
          1   -1    0    0  501    0 -0.00000000000E+00 -0.00000000000E+00 -0.43146981479E+02  0.43146981479E+02  0.00000000000E+00 0. -1.
          2    1    1    2  501    0  0.20151049288E+02 -0.19731640361E+02  0.49013455609E+02  0.56548397408E+02  0.00000000000E+00 0. -1.
          1    1    1    2  502    0  0.85005182018E+02  0.43257224507E+02  0.59454187386E+02  0.11239158705E+03  0.00000000000E+00 0. -1.
         22    1    1    2    0    0 -0.83580256137E+01  0.21507882390E+02  0.11078516218E+02  0.25596466917E+02  0.00000000000E+00 0.  1.
         22    1    1    2    0    0 -0.96798205692E+02 -0.45033466536E+02  0.49851649810E+03  0.50982016889E+03  0.00000000000E+00 0. -1.
</event>
<event>
 6    1  0.2406404E-005  0.5196344E+02  0.7818608E-02  0.1484662E+00
          2   -1    0    0  502    0  0.00000000000E+00  0.00000000000E+00  0.16442973328E+03  0.16442973328E+03  0.00000000000E+00 0. -1.
          1   -1    0    0  501    0 -0.00000000000E+00 -0.00000000000E+00 -0.56470763988E+02  0.56470763988E+02  0.00000000000E+00 0.  1.
          2    1    1    2  501    0 -0.85626121652E+01 -0.29334984824E+02  0.41382664297E+02  0.51443022520E+02  0.00000000000E+00 0. -1.
          1    1    1    2  502    0  0.11806095181E+02  0.25789741702E+02 -0.55074451393E+01  0.28893366236E+02  0.00000000000E+00 0.  1.
         22    1    1    2    0    0  0.15049746902E+02  0.20960980375E+02 -0.27568483800E+02  0.37760811421E+02  0.00000000000E+00 0.  1.
         22    1    1    2    0    0 -0.18293229918E+02 -0.17415737253E+02  0.99652233932E+02  0.10280329709E+03  0.00000000000E+00 0. -1.
</event>
<event>
 6    1  0.2406404E-005  0.1985077E+03  0.7818608E-02  0.1152007E+00
          2   -1    0    0  502    0  0.00000000000E+00  0.00000000000E+00  0.10169821499E+04  0.10169821499E+04  0.00000000000E+00 0. -1.
          1   -1    0    0  501    0 -0.00000000000E+00 -0.00000000000E+00 -0.47118075030E+02  0.47118075030E+02  0.00000000000E+00 0. -1.
          2    1    1    2  501    0 -0.12302138272E+03 -0.35371407078E+02  0.12575962749E+03  0.17944603910E+03  0.00000000000E+00 0. -1.
          1    1    1    2  502    0  0.11280128300E+03  0.69098928167E+02  0.44373952740E+03  0.46303731977E+03  0.00000000000E+00 0. -1.
         22    1    1    2    0    0 -0.53912115429E+02 -0.24041990145E+02  0.11853669633E+03  0.13242160646E+03  0.00000000000E+00 0. -1.
         22    1    1    2    0    0  0.64132215140E+02 -0.96855309439E+01  0.28182822364E+03  0.28919525959E+03  0.00000000000E+00 0.  1.
</event>
<event>
 6    1  0.2406404E-005  0.5762411E+02  0.7818608E-02  0.1414291E+00
          2   -1    0    0  502    0  0.00000000000E+00  0.00000000000E+00  0.78745962026E+02  0.78745962026E+02  0.00000000000E+00 0.  1.
          1   -1    0    0  501    0 -0.00000000000E+00 -0.00000000000E+00 -0.33846048740E+03  0.33846048740E+03  0.00000000000E+00 0. -1.
          2    1    1    2  501    0  0.17082309934E+02 -0.17939299297E+02  0.11560379974E+02  0.27336169393E+02  0.00000000000E+00 0.  1.
          1    1    1    2  502    0 -0.35078200326E+02  0.17917934822E+02 -0.25883958472E+03  0.26181952400E+03  0.00000000000E+00 0. -1.
         22    1    1    2    0    0  0.23238555523E+02 -0.11533672915E+02  0.54268466925E+02  0.60150831882E+02  0.00000000000E+00 0.  1.
         22    1    1    2    0    0 -0.52426651312E+01  0.11555037389E+02 -0.66703787545E+02  0.67899924150E+02  0.00000000000E+00 0. -1.
</event>
<event>
 6    1  0.2406404E-005  0.7225201E+02  0.7818608E-02  0.1448178E+00
          2   -1    0    0  502    0  0.00000000000E+00  0.00000000000E+00  0.16297827291E+03  0.16297827291E+03  0.00000000000E+00 0.  1.
          1   -1    0    0  501    0 -0.00000000000E+00 -0.00000000000E+00 -0.13590973873E+03  0.13590973873E+03  0.00000000000E+00 0.  1.
          2    1    1    2  501    0 -0.36460598214E+02  0.11480995224E+02  0.62297922796E+02  0.73090489519E+02  0.00000000000E+00 0.  1.
          1    1    1    2  502    0  0.64478677247E+02 -0.17272593076E+02 -0.68546892572E+02  0.95679249435E+02  0.00000000000E+00 0.  1.
         22    1    1    2    0    0 -0.20296358724E+01 -0.15758752908E+02 -0.43445074671E+02  0.46259401511E+02  0.00000000000E+00 0. -1.
         22    1    1    2    0    0 -0.25988443161E+02  0.21550350761E+02  0.76762578636E+02  0.83858871175E+02  0.00000000000E+00 0.  1.
</event>
<event>
 6    1  0.2406404E-005  0.7228565E+02  0.7818608E-02  0.1412298E+00
          2   -1    0    0  502    0  0.00000000000E+00  0.00000000000E+00  0.20548349302E+03  0.20548349302E+03  0.00000000000E+00 0.  1.
          1   -1    0    0  501    0 -0.00000000000E+00 -0.00000000000E+00 -0.92634080124E+02  0.92634080124E+02  0.00000000000E+00 0.  1.
          2    1    1    2  501    0 -0.57860145267E+02 -0.46402858037E+02  0.37634272431E+02  0.83170668542E+02  0.00000000000E+00 0.  1.
          1    1    1    2  502    0  0.26590322074E+02  0.40412955013E+02 -0.21597314556E+02  0.52978261173E+02  0.00000000000E+00 0.  1.
         22    1    1    2    0    0  0.69201437318E+01  0.18407757015E+02 -0.27990149892E+02  0.34207928885E+02  0.00000000000E+00 0.  1.
         22    1    1    2    0    0  0.24349679461E+02 -0.12417853991E+02  0.12480260491E+03  0.12776071454E+03  0.00000000000E+00 0.  1.
</event>
<event>
 6    1  0.2406404E-005  0.4392668E+02  0.7818608E-02  0.1503539E+00
          2   -1    0    0  502    0  0.00000000000E+00  0.00000000000E+00  0.11600211508E+03  0.11600211508E+03  0.00000000000E+00 0. -1.
          1   -1    0    0  501    0 -0.00000000000E+00 -0.00000000000E+00 -0.11142483026E+03  0.11142483026E+03  0.00000000000E+00 0.  1.
          2    1    1    2  501    0 -0.48849475517E+02 -0.91307052570E+01  0.15950614586E+02  0.52192558305E+02  0.00000000000E+00 0. -1.
          1    1    1    2  502    0  0.46661959470E+02 -0.11174189960E+02 -0.24971071071E+01  0.48046191595E+02  0.00000000000E+00 0.  1.
         22    1    1    2    0    0 -0.19316190856E+02  0.40212096319E+02  0.46560763631E+02  0.64482808790E+02  0.00000000000E+00 0. -1.
         22    1    1    2    0    0  0.21503706903E+02 -0.19907201102E+02 -0.55436986292E+02  0.62705386654E+02  0.00000000000E+00 0.  1.
</event>
<event>
 6    1  0.2406404E-005  0.5369985E+02  0.7818608E-02  0.1426679E+00
          2   -1    0    0  502    0  0.00000000000E+00  0.00000000000E+00  0.17321941759E+03  0.17321941759E+03  0.00000000000E+00 0. -1.
          1   -1    0    0  501    0 -0.00000000000E+00 -0.00000000000E+00 -0.16687910735E+03  0.16687910735E+03  0.00000000000E+00 0. -1.
          2    1    1    2  501    0  0.22937109098E+02  0.18744912149E+02  0.10109729716E+03  0.10534773941E+03  0.00000000000E+00 0. -1.
          1    1    1    2  502    0 -0.17905469007E+02 -0.22586234316E+02 -0.10434904826E+03  0.10825649022E+03  0.00000000000E+00 0. -1.
         22    1    1    2    0    0 -0.17122129791E+02 -0.16293743599E+02 -0.53869251636E+02  0.58826436921E+02  0.00000000000E+00 0.  1.
         22    1    1    2    0    0  0.12090489700E+02  0.20135065766E+02  0.63461312985E+02  0.67667858399E+02  0.00000000000E+00 0. -1.
</event>
<event>
 6    1  0.2406404E-005  0.1237105E+03  0.7818608E-02  0.1294379E+00
          2   -1    0    0  502    0  0.00000000000E+00  0.00000000000E+00  0.31826989993E+03  0.31826989993E+03  0.00000000000E+00 0.  1.
          1   -1    0    0  501    0 -0.00000000000E+00 -0.00000000000E+00 -0.32631155190E+03  0.32631155190E+03  0.00000000000E+00 0.  1.
          2    1    1    2  501    0 -0.10588302267E+03 -0.33652597508E+02  0.26379796920E+03  0.28623955066E+03  0.00000000000E+00 0.  1.
          1    1    1    2  502    0  0.78518468839E+02  0.52408385056E+02 -0.15816728110E+03  0.18419738756E+03  0.00000000000E+00 0.  1.
         22    1    1    2    0    0 -0.11812002036E+02 -0.83844788873E+01  0.25426059170E+02  0.29262729934E+02  0.00000000000E+00 0.  1.
         22    1    1    2    0    0  0.39176555867E+02 -0.10371308661E+02 -0.13909839924E+03  0.14488178368E+03  0.00000000000E+00 0. -1.
</event>
<event>
 6    1  0.2406404E-005  0.7833057E+02  0.7818608E-02  0.1358403E+00
          2   -1    0    0  502    0  0.00000000000E+00  0.00000000000E+00  0.71328825414E+02  0.71328825414E+02  0.00000000000E+00 0.  1.
          1   -1    0    0  501    0 -0.00000000000E+00 -0.00000000000E+00 -0.16268655492E+03  0.16268655492E+03  0.00000000000E+00 0.  1.
          2    1    1    2  501    0 -0.27839677120E+02 -0.56760504055E+01 -0.15763508821E+02  0.32492358805E+02  0.00000000000E+00 0.  1.
          1    1    1    2  502    0  0.54782647309E+02 -0.13791550856E+02 -0.40658059028E+02  0.69601889954E+02  0.00000000000E+00 0.  1.
         22    1    1    2    0    0  0.35386340280E+02  0.37277628069E+02 -0.42451645474E+02  0.66663009506E+02  0.00000000000E+00 0.  1.
         22    1    1    2    0    0 -0.62329310469E+02 -0.17810026808E+02  0.75154838213E+01  0.65258122065E+02  0.00000000000E+00 0.  1.
</event>
<event>
 6    1  0.2406404E-005  0.2597789E+03  0.7818608E-02  0.1132677E+00
          2   -1    0    0  502    0  0.00000000000E+00  0.00000000000E+00  0.15707998061E+04  0.15707998061E+04  0.00000000000E+00 0. -1.
          1   -1    0    0  501    0 -0.00000000000E+00 -0.00000000000E+00 -0.76229335528E+02  0.76229335528E+02  0.00000000000E+00 0. -1.
          2    1    1    2  501    0 -0.23090066889E+03  0.12540540275E+03  0.48040089993E+03  0.54756429630E+03  0.00000000000E+00 0. -1.
          1    1    1    2  502    0  0.14081181206E+03 -0.19927818706E+03  0.70284179807E+03  0.74399351837E+03  0.00000000000E+00 0. -1.
         22    1    1    2    0    0 -0.27902637454E+02  0.30465258117E+01  0.95182904919E+02  0.99235194791E+02  0.00000000000E+00 0.  1.
         22    1    1    2    0    0  0.11799149428E+03  0.70826258500E+02  0.21614486764E+03  0.25623613216E+03  0.00000000000E+00 0.  1.
</event>
<event>
 6    1  0.2406404E-005  0.5951167E+02  0.7818608E-02  0.1456273E+00
          2   -1    0    0  502    0  0.00000000000E+00  0.00000000000E+00  0.29142480614E+03  0.29142480614E+03  0.00000000000E+00 0.  1.
          1   -1    0    0  501    0 -0.00000000000E+00 -0.00000000000E+00 -0.33261743910E+03  0.33261743910E+03  0.00000000000E+00 0.  1.
          2    1    1    2  501    0 -0.37902641895E+02 -0.97129149397E+01  0.19061882490E+03  0.19459313294E+03  0.00000000000E+00 0.  1.
          1    1    1    2  502    0  0.53217246651E+02 -0.11823546298E+01 -0.28601950460E+03  0.29093062802E+03  0.00000000000E+00 0.  1.
         22    1    1    2    0    0 -0.75183850220E+00  0.25235183343E+02 -0.37142030850E+02  0.44910023326E+02  0.00000000000E+00 0. -1.
         22    1    1    2    0    0 -0.14562766254E+02 -0.14339913774E+02  0.91350077590E+02  0.93608460962E+02  0.00000000000E+00 0.  1.
</event>
<event>
 6    1  0.2406404E-005  0.7000082E+02  0.7818608E-02  0.1361159E+00
          2   -1    0    0  502    0  0.00000000000E+00  0.00000000000E+00  0.73131821222E+02  0.73131821222E+02  0.00000000000E+00 0. -1.
          1   -1    0    0  501    0 -0.00000000000E+00 -0.00000000000E+00 -0.28870963322E+03  0.28870963322E+03  0.00000000000E+00 0. -1.
          2    1    1    2  501    0 -0.13288277725E+02 -0.32079029189E+02  0.18760814058E+02  0.39466575513E+02  0.00000000000E+00 0. -1.
          1    1    1    2  502    0 -0.17732451804E+01  0.45902494533E+02 -0.18270006814E+03  0.18838656614E+03  0.00000000000E+00 0. -1.
         22    1    1    2    0    0  0.46575341120E+01 -0.34084401954E+02  0.32194691523E+02  0.47116209979E+02  0.00000000000E+00 0. -1.
         22    1    1    2    0    0  0.10403988794E+02  0.20260936610E+02 -0.83833249438E+02  0.86872102809E+02  0.00000000000E+00 0. -1.
</event>
<event>
 6    1  0.2406404E-005  0.1202753E+03  0.7818608E-02  0.1244755E+00
          2   -1    0    0  502    0  0.00000000000E+00  0.00000000000E+00  0.16329942656E+03  0.16329942656E+03  0.00000000000E+00 0. -1.
          1   -1    0    0  501    0 -0.00000000000E+00 -0.00000000000E+00 -0.14008962854E+03  0.14008962854E+03  0.00000000000E+00 0. -1.
          2    1    1    2  501    0  0.63505615259E+02  0.22712591207E+02  0.96288215021E+02  0.11755953947E+03  0.00000000000E+00 0. -1.
          1    1    1    2  502    0  0.83184443715E+01 -0.22662253920E+02 -0.12663454013E+02  0.27260545428E+02  0.00000000000E+00 0. -1.
         22    1    1    2    0    0 -0.80801039915E+02 -0.41130819664E+02 -0.71056276652E+02  0.11519351904E+03  0.00000000000E+00 0. -1.
         22    1    1    2    0    0  0.89769802837E+01  0.41080482376E+02  0.10641313660E+02  0.43375451164E+02  0.00000000000E+00 0.  1.
</event>
<event>
 6    1  0.2406404E-005  0.1617533E+03  0.7818608E-02  0.1197826E+00
          2   -1    0    0  502    0  0.00000000000E+00  0.00000000000E+00  0.75972763744E+03  0.75972763744E+03  0.00000000000E+00 0.  1.
          1   -1    0    0  501    0 -0.00000000000E+00 -0.00000000000E+00 -0.54332340082E+02  0.54332340082E+02  0.00000000000E+00 0.  1.
          2    1    1    2  501    0 -0.61262408943E+02  0.12864075921E+02  0.49634335516E+03  0.50027521767E+03  0.00000000000E+00 0.  1.
          1    1    1    2  502    0  0.87811802562E+02  0.25719301877E+02  0.50651509701E+02  0.10458475316E+03  0.00000000000E+00 0.  1.
         22    1    1    2    0    0 -0.54248940823E+02 -0.49034251673E+02  0.16354693595E+03  0.17915051123E+03  0.00000000000E+00 0.  1.
         22    1    1    2    0    0  0.27699547204E+02  0.10450873875E+02 -0.51465034476E+01  0.30049495467E+02  0.00000000000E+00 0.  1.
</event>
<event>
 6    1  0.2406404E-005  0.2240504E+03  0.7818608E-02  0.1134996E+00
          2   -1    0    0  502    0  0.00000000000E+00  0.00000000000E+00  0.34123424911E+03  0.34123424911E+03  0.00000000000E+00 0. -1.
          1   -1    0    0  501    0 -0.00000000000E+00 -0.00000000000E+00 -0.16216676167E+03  0.16216676167E+03  0.00000000000E+00 0. -1.
          2    1    1    2  501    0  0.74587419890E+01 -0.10090614444E+03  0.16959884829E+02  0.10259298471E+03  0.00000000000E+00 0. -1.
          1    1    1    2  502    0 -0.34945969962E+02  0.17911215706E+03  0.17634702346E+03  0.25377284785E+03  0.00000000000E+00 0. -1.
         22    1    1    2    0    0 -0.93301744705E+01 -0.93645876905E+02 -0.36950556229E+02  0.10110364001E+03  0.00000000000E+00 0. -1.
         22    1    1    2    0    0  0.36817402444E+02  0.15439864287E+02  0.22711135381E+02  0.45931538209E+02  0.00000000000E+00 0. -1.
</event>
<event>
 6    1  0.2406404E-005  0.5582125E+02  0.7818608E-02  0.1417773E+00
          2   -1    0    0  502    0  0.00000000000E+00  0.00000000000E+00  0.79202172769E+02  0.79202172769E+02  0.00000000000E+00 0. -1.
          1   -1    0    0  501    0 -0.00000000000E+00 -0.00000000000E+00 -0.13381630959E+03  0.13381630959E+03  0.00000000000E+00 0.  1.
          2    1    1    2  501    0  0.59149910100E+01  0.35425625156E+02  0.25726577457E+02  0.44179393658E+02  0.00000000000E+00 0. -1.
          1    1    1    2  502    0  0.77015762751E+01 -0.18524848368E+02 -0.23774012663E+02  0.31107683332E+02  0.00000000000E+00 0.  1.
         22    1    1    2    0    0 -0.13089794494E+02 -0.29022258306E+02 -0.93544490776E+02  0.98813996740E+02  0.00000000000E+00 0.  1.
         22    1    1    2    0    0 -0.52677279151E+00  0.12121481518E+02  0.36977789157E+02  0.38917408633E+02  0.00000000000E+00 0. -1.
</event>
<event>
 6    1  0.2406404E-005  0.3930324E+02  0.7818608E-02  0.1543341E+00
          2   -1    0    0  502    0  0.00000000000E+00  0.00000000000E+00  0.11872898969E+03  0.11872898969E+03  0.00000000000E+00 0. -1.
          1   -1    0    0  501    0 -0.00000000000E+00 -0.00000000000E+00 -0.22772461979E+03  0.22772461979E+03  0.00000000000E+00 0.  1.
          2    1    1    2  501    0  0.94276314398E+00 -0.39964078123E+02  0.81294912028E+00  0.39983461942E+02  0.00000000000E+00 0. -1.
          1    1    1    2  502    0  0.14918363988E+02  0.72809250866E+02 -0.15339927590E+03  0.17045551455E+03  0.00000000000E+00 0.  1.
         22    1    1    2    0    0  0.76462019048E+01 -0.17614955951E+02  0.84378131933E+02  0.86535658691E+02  0.00000000000E+00 0. -1.
         22    1    1    2    0    0 -0.23507329037E+02 -0.15230216792E+02 -0.40787435261E+02  0.49478974294E+02  0.00000000000E+00 0. -1.
</event>
<event>
 6    1  0.2406404E-005  0.7194061E+02  0.7818608E-02  0.1441065E+00
          2   -1    0    0  502    0  0.00000000000E+00  0.00000000000E+00  0.10273640202E+03  0.10273640202E+03  0.00000000000E+00 0. -1.
          1   -1    0    0  501    0 -0.00000000000E+00 -0.00000000000E+00 -0.17667372786E+03  0.17667372786E+03  0.00000000000E+00 0.  1.
          2    1    1    2  501    0 -0.51951572355E+02  0.52706085451E+02  0.23827699176E+02  0.77747389420E+02  0.00000000000E+00 0. -1.
          1    1    1    2  502    0  0.26102423501E+02 -0.18081163098E+02 -0.50642730721E+02  0.59774167886E+02  0.00000000000E+00 0.  1.
         22    1    1    2    0    0  0.17673082188E+02  0.27717849182E+01  0.41587502498E+02  0.45271856486E+02  0.00000000000E+00 0.  1.
         22    1    1    2    0    0  0.81760666659E+01 -0.37396707271E+02 -0.88709796788E+02  0.96616716085E+02  0.00000000000E+00 0.  1.
</event>
<event>
 6    1  0.2406404E-005  0.7591645E+02  0.7818608E-02  0.1381985E+00
          2   -1    0    0  502    0  0.00000000000E+00  0.00000000000E+00  0.52374708113E+03  0.52374708113E+03  0.00000000000E+00 0.  1.
          1   -1    0    0  501    0 -0.00000000000E+00 -0.00000000000E+00 -0.54312614688E+02  0.54312614688E+02  0.00000000000E+00 0.  1.
          2    1    1    2  501    0  0.36310256530E+02  0.52984578464E+02  0.35516806986E+03  0.36092957503E+03  0.00000000000E+00 0.  1.
          1    1    1    2  502    0  0.24384933644E+00 -0.43889873388E+02 -0.29679209378E+01  0.43990783162E+02  0.00000000000E+00 0.  1.
         22    1    1    2    0    0 -0.57260057937E+01 -0.31675521273E+02 -0.14986898918E+02  0.35506801172E+02  0.00000000000E+00 0.  1.
         22    1    1    2    0    0 -0.30828100072E+02  0.22580816196E+02  0.13222121644E+03  0.13763253645E+03  0.00000000000E+00 0. -1.
</event>
<event>
 6    1  0.2406404E-005  0.1673373E+03  0.7818608E-02  0.1180827E+00
          2   -1    0    0  502    0  0.00000000000E+00  0.00000000000E+00  0.41644858664E+03  0.41644858664E+03  0.00000000000E+00 0.  1.
          1   -1    0    0  501    0 -0.00000000000E+00 -0.00000000000E+00 -0.24699342854E+03  0.24699342854E+03  0.00000000000E+00 0. -1.
          2    1    1    2  501    0 -0.99518891942E+02  0.79370927303E+02  0.28294869849E+03  0.31026395203E+03  0.00000000000E+00 0.  1.
          1    1    1    2  502    0  0.12533677193E+03 -0.74444080716E+02 -0.16075974172E+03  0.21701364499E+03  0.00000000000E+00 0. -1.
         22    1    1    2    0    0  0.13298455595E+02 -0.13371958560E+02 -0.37751228490E+02  0.42199685418E+02  0.00000000000E+00 0.  1.
         22    1    1    2    0    0 -0.39116335587E+02  0.84451119726E+01  0.85017429817E+02  0.93964732739E+02  0.00000000000E+00 0. -1.
</event>
<event>
 6    1  0.2406404E-005  0.1172090E+03  0.7818608E-02  0.1248903E+00
          2   -1    0    0  502    0  0.00000000000E+00  0.00000000000E+00  0.37937572854E+03  0.37937572854E+03  0.00000000000E+00 0.  1.
          1   -1    0    0  501    0 -0.00000000000E+00 -0.00000000000E+00 -0.60506218243E+03  0.60506218243E+03  0.00000000000E+00 0.  1.
          2    1    1    2  501    0  0.32038441217E+02 -0.77586912325E+02  0.30530457782E+03  0.31663397783E+03  0.00000000000E+00 0.  1.
          1    1    1    2  502    0 -0.46870170771E+02  0.82964106549E+02 -0.53506784720E+03  0.54348639080E+03  0.00000000000E+00 0.  1.
         22    1    1    2    0    0  0.14077946590E+02 -0.24164632523E+02  0.59525407664E+02  0.65767713984E+02  0.00000000000E+00 0.  1.
         22    1    1    2    0    0  0.75378296381E+00  0.18787438299E+02 -0.55448592168E+02  0.58549828352E+02  0.00000000000E+00 0. -1.
</event>
<event>
 6    1  0.2406404E-005  0.1089380E+03  0.7818608E-02  0.1292888E+00
          2   -1    0    0  502    0  0.00000000000E+00  0.00000000000E+00  0.50060725151E+02  0.50060725151E+02  0.00000000000E+00 0. -1.
          1   -1    0    0  501    0 -0.00000000000E+00 -0.00000000000E+00 -0.19750156889E+03  0.19750156889E+03  0.00000000000E+00 0.  1.
          2    1    1    2  501    0  0.14907673228E+02  0.14697413449E+02 -0.14303720711E+02  0.25354469218E+02  0.00000000000E+00 0. -1.
          1    1    1    2  502    0  0.28981717629E+02 -0.31925776406E+02 -0.54016165647E+02  0.69115420183E+02  0.00000000000E+00 0.  1.
         22    1    1    2    0    0 -0.65396514273E+02 -0.48845228240E+01 -0.97263108138E+02  0.11730590286E+03  0.00000000000E+00 0. -1.
         22    1    1    2    0    0  0.21507123415E+02  0.22112885782E+02  0.18142150758E+02  0.35786501775E+02  0.00000000000E+00 0.  1.
</event>
<event>
 6    1  0.2406404E-005  0.4437929E+02  0.7818608E-02  0.1501164E+00
          2   -1    0    0  502    0  0.00000000000E+00  0.00000000000E+00  0.12435224583E+03  0.12435224583E+03  0.00000000000E+00 0. -1.
          1   -1    0    0  501    0 -0.00000000000E+00 -0.00000000000E+00 -0.80795722600E+03  0.80795722600E+03  0.00000000000E+00 0. -1.
          2    1    1    2  501    0 -0.54459952380E+02 -0.17011667702E+02  0.74310563796E+02  0.93687475913E+02  0.00000000000E+00 0. -1.
          1    1    1    2  502    0  0.57752253179E+02  0.94474106906E+01 -0.70105387064E+03  0.70349207945E+03  0.00000000000E+00 0. -1.
         22    1    1    2    0    0 -0.18653686756E+02  0.20101948083E+02  0.33114069411E+02  0.42995231588E+02  0.00000000000E+00 0. -1.
         22    1    1    2    0    0  0.15361385958E+02 -0.12537691073E+02 -0.89975742744E+02  0.92134684882E+02  0.00000000000E+00 0. -1.
</event>
<event>
 6    1  0.2406404E-005  0.1159080E+03  0.7818608E-02  0.1278528E+00
          2   -1    0    0  502    0  0.00000000000E+00  0.00000000000E+00  0.13616434423E+03  0.13616434423E+03  0.00000000000E+00 0.  1.
          1   -1    0    0  501    0 -0.00000000000E+00 -0.00000000000E+00 -0.16412498660E+03  0.16412498660E+03  0.00000000000E+00 0.  1.
          2    1    1    2  501    0 -0.20941728932E+02  0.24365658280E+02  0.75672584959E+02  0.82210591947E+02  0.00000000000E+00 0.  1.
          1    1    1    2  502    0 -0.63355775442E+01  0.24219258966E+02 -0.74946122277E+02  0.79016664648E+02  0.00000000000E+00 0.  1.
         22    1    1    2    0    0  0.60332586762E+02 -0.29601495052E+02  0.26290267031E+02  0.72162647369E+02  0.00000000000E+00 0.  1.
         22    1    1    2    0    0 -0.33055280286E+02 -0.18983422194E+02 -0.54977372085E+02  0.66899426861E+02  0.00000000000E+00 0. -1.
</event>
<event>
 6    1  0.2406404E-005  0.6105527E+02  0.7818608E-02  0.1459757E+00
          2   -1    0    0  502    0  0.00000000000E+00  0.00000000000E+00  0.12222897908E+03  0.12222897908E+03  0.00000000000E+00 0.  1.
          1   -1    0    0  501    0 -0.00000000000E+00 -0.00000000000E+00 -0.27373082622E+03  0.27373082622E+03  0.00000000000E+00 0. -1.
          2    1    1    2  501    0  0.25136691136E+01 -0.33388345686E+02  0.88581498333E+02  0.94698373835E+02  0.00000000000E+00 0.  1.
          1    1    1    2  502    0  0.91092229256E+01  0.40180440692E+02 -0.13224880702E+03  0.13851784258E+03  0.00000000000E+00 0. -1.
         22    1    1    2    0    0 -0.15333758833E+02  0.16084627854E+02 -0.12927511285E+03  0.13117124005E+03  0.00000000000E+00 0.  1.
         22    1    1    2    0    0  0.37108667938E+01 -0.22876722861E+02  0.21440574391E+02  0.31572348842E+02  0.00000000000E+00 0. -1.
</event>
<event>
 6    1  0.2406404E-005  0.7403762E+02  0.7818608E-02  0.1349865E+00
          2   -1    0    0  502    0  0.00000000000E+00  0.00000000000E+00  0.72496921888E+02  0.72496921888E+02  0.00000000000E+00 0.  1.
          1   -1    0    0  501    0 -0.00000000000E+00 -0.00000000000E+00 -0.37993931154E+03  0.37993931154E+03  0.00000000000E+00 0.  1.
          2    1    1    2  501    0 -0.76501155654E+01  0.19756769389E+02  0.89409279924E+01  0.22995529962E+02  0.00000000000E+00 0.  1.
          1    1    1    2  502    0  0.35058475264E+02 -0.45913012177E+02 -0.28518845845E+03  0.29098033990E+03  0.00000000000E+00 0.  1.
         22    1    1    2    0    0 -0.23630384620E+02  0.41927679130E+02  0.41762941148E+02  0.63721806376E+02  0.00000000000E+00 0.  1.
         22    1    1    2    0    0 -0.37779750783E+01 -0.15771436342E+02 -0.72957800339E+02  0.74738557186E+02  0.00000000000E+00 0.  1.
</event>
<event>
 6    1  0.2406404E-005  0.7672595E+02  0.7818608E-02  0.1341798E+00
          2   -1    0    0  502    0  0.00000000000E+00  0.00000000000E+00  0.14000607864E+03  0.14000607864E+03  0.00000000000E+00 0. -1.
          1   -1    0    0  501    0 -0.00000000000E+00 -0.00000000000E+00 -0.17332934203E+03  0.17332934203E+03  0.00000000000E+00 0. -1.
          2    1    1    2  501    0 -0.35261169922E+02  0.49074684826E+02  0.94325061547E+02  0.11202183730E+03  0.00000000000E+00 0. -1.
          1    1    1    2  502    0  0.98294356029E+01 -0.20468161652E+02 -0.24056596266E+02  0.33079952684E+02  0.00000000000E+00 0. -1.
         22    1    1    2    0    0  0.35805377051E+02 -0.33821139388E+02 -0.13019885554E+03  0.13920357926E+03  0.00000000000E+00 0. -1.
         22    1    1    2    0    0 -0.10373642732E+02  0.52146162141E+01  0.26607126870E+02  0.29030051431E+02  0.00000000000E+00 0. -1.
</event>
<event>
 6    1  0.2406404E-005  0.1835723E+03  0.7818608E-02  0.1165034E+00
          2   -1    0    0  502    0  0.00000000000E+00  0.00000000000E+00  0.14617251929E+03  0.14617251929E+03  0.00000000000E+00 0. -1.
          1   -1    0    0  501    0 -0.00000000000E+00 -0.00000000000E+00 -0.54381371293E+03  0.54381371293E+03  0.00000000000E+00 0. -1.
          2    1    1    2  501    0  0.13950419781E+03  0.26477404883E+02  0.37255397789E+02  0.14680067725E+03  0.00000000000E+00 0. -1.
          1    1    1    2  502    0 -0.15559927549E+03 -0.29598709939E+02 -0.37437943219E+03  0.40650606073E+03  0.00000000000E+00 0. -1.
         22    1    1    2    0    0 -0.17984396138E+02  0.14420969973E+02 -0.88313929874E+02  0.91272959244E+02  0.00000000000E+00 0. -1.
         22    1    1    2    0    0  0.34079473818E+02 -0.11299664918E+02  0.27796770630E+02  0.45406534997E+02  0.00000000000E+00 0.  1.
</event>
<event>
 6    1  0.2406404E-005  0.1241603E+03  0.7818608E-02  0.1243463E+00
          2   -1    0    0  502    0  0.00000000000E+00  0.00000000000E+00  0.30193093046E+03  0.30193093046E+03  0.00000000000E+00 0. -1.
          1   -1    0    0  501    0 -0.00000000000E+00 -0.00000000000E+00 -0.44456645481E+02  0.44456645481E+02  0.00000000000E+00 0. -1.
          2    1    1    2  501    0  0.43513535364E+02  0.25642756354E+02  0.31513398206E+02  0.59532117212E+02  0.00000000000E+00 0. -1.
          1    1    1    2  502    0 -0.11805128734E+02 -0.30176981473E+02  0.98073492759E+02  0.10328804992E+03  0.00000000000E+00 0. -1.
         22    1    1    2    0    0  0.31054227776E+02  0.38608170442E+02  0.89967604384E+02  0.10270893693E+03  0.00000000000E+00 0. -1.
         22    1    1    2    0    0 -0.62762634405E+02 -0.34073945322E+02  0.37919789625E+02  0.80858471866E+02  0.00000000000E+00 0. -1.
</event>
<event>
 6    1  0.2406404E-005  0.1319008E+03  0.7818608E-02  0.1229556E+00
          2   -1    0    0  502    0  0.00000000000E+00  0.00000000000E+00  0.29835972097E+03  0.29835972097E+03  0.00000000000E+00 0.  1.
          1   -1    0    0  501    0 -0.00000000000E+00 -0.00000000000E+00 -0.21951588355E+03  0.21951588355E+03  0.00000000000E+00 0.  1.
          2    1    1    2  501    0 -0.30535742872E+02 -0.87812713629E+02  0.23129067901E+03  0.24927671866E+03  0.00000000000E+00 0.  1.
          1    1    1    2  502    0 -0.37191741132E+01  0.81781456493E+02 -0.96044866341E+02  0.12620085274E+03  0.00000000000E+00 0.  1.
         22    1    1    2    0    0  0.37498048713E+02  0.29561943785E+02 -0.89628469142E+02  0.10155429414E+03  0.00000000000E+00 0.  1.
         22    1    1    2    0    0 -0.32431317280E+01 -0.23530686649E+02  0.33226493893E+02  0.40843738982E+02  0.00000000000E+00 0. -1.
</event>
<event>
 6    1  0.2406404E-005  0.8804204E+02  0.7818608E-02  0.1308823E+00
          2   -1    0    0  502    0  0.00000000000E+00  0.00000000000E+00  0.84587947537E+02  0.84587947537E+02  0.00000000000E+00 0. -1.
          1   -1    0    0  501    0 -0.00000000000E+00 -0.00000000000E+00 -0.20180706689E+03  0.20180706689E+03  0.00000000000E+00 0.  1.
          2    1    1    2  501    0  0.47641442779E+02 -0.19393284951E+02  0.23511466783E+02  0.56556128240E+02  0.00000000000E+00 0. -1.
          1    1    1    2  502    0 -0.42002296463E+02  0.20732289569E+02 -0.73669866274E+02  0.87299885085E+02  0.00000000000E+00 0.  1.
         22    1    1    2    0    0  0.33893116625E+02  0.46642234868E+01  0.24864739301E+02  0.42293659049E+02  0.00000000000E+00 0. -1.
         22    1    1    2    0    0 -0.39532262941E+02 -0.60032281043E+01 -0.91925459165E+02  0.10024534205E+03  0.00000000000E+00 0.  1.
</event>
<event>
 6    1  0.2406404E-005  0.6611970E+02  0.7818608E-02  0.1401606E+00
          2   -1    0    0  502    0  0.00000000000E+00  0.00000000000E+00  0.10606854833E+03  0.10606854833E+03  0.00000000000E+00 0. -1.
          1   -1    0    0  501    0 -0.00000000000E+00 -0.00000000000E+00 -0.10826279903E+03  0.10826279903E+03  0.00000000000E+00 0. -1.
          2    1    1    2  501    0 -0.97981607416E+01  0.20053329901E+02  0.27149951324E+02  0.35146263684E+02  0.00000000000E+00 0. -1.
          1    1    1    2  502    0  0.24896750855E+02  0.49973664940E+01 -0.40987970895E+02  0.48216549370E+02  0.00000000000E+00 0. -1.
         22    1    1    2    0    0 -0.14926406955E+01  0.13048696283E+02  0.63700215261E+02  0.65040094366E+02  0.00000000000E+00 0. -1.
         22    1    1    2    0    0 -0.13605949418E+02 -0.38099392678E+02 -0.52056446393E+02  0.65928439941E+02  0.00000000000E+00 0. -1.
</event>
<event>
 6    1  0.5092661E-005  0.1481027E+03  0.7818608E-02  0.1282994E+00
          2   -1    0    0  502    0  0.00000000000E+00  0.00000000000E+00  0.23183936984E+03  0.23183936984E+03  0.00000000000E+00 0. -1.
          1   -1    0    0  501    0 -0.00000000000E+00 -0.00000000000E+00 -0.36795018561E+03  0.36795018561E+03  0.00000000000E+00 0.  1.
          2    1    1    2  501    0  0.98331971084E+02  0.71408265151E+02  0.91005868045E+02  0.15182353206E+03  0.00000000000E+00 0. -1.
          1    1    1    2  502    0 -0.11049869310E+03 -0.84294969877E+02 -0.27997154278E+03  0.31256946091E+03  0.00000000000E+00 0.  1.
         22    1    1    2    0    0  0.20551892143E+02  0.20807773159E+02  0.90979724211E+02  0.95564919882E+02  0.00000000000E+00 0. -1.
         22    1    1    2    0    0 -0.83851701232E+01 -0.79210684331E+01 -0.38124865239E+02  0.39831642605E+02  0.00000000000E+00 0.  1.
</event>
<event>
 6    1  0.2406404E-005  0.1510495E+03  0.7818608E-02  0.1200219E+00
          2   -1    0    0  502    0  0.00000000000E+00  0.00000000000E+00  0.20563616039E+02  0.20563616039E+02  0.00000000000E+00 0. -1.
          1   -1    0    0  501    0 -0.00000000000E+00 -0.00000000000E+00 -0.17230824738E+04  0.17230824738E+04  0.00000000000E+00 0. -1.
          2    1    1    2  501    0  0.49083150508E+02  0.12889037295E+01 -0.10399581398E+04  0.10411165878E+04  0.00000000000E+00 0. -1.
          1    1    1    2  502    0 -0.64854583136E+02 -0.22508461131E+02 -0.77688292525E+02  0.10367361560E+03  0.00000000000E+00 0. -1.
         22    1    1    2    0    0 -0.50915323817E+02  0.32627986069E+02 -0.24910310161E+03  0.25633827436E+03  0.00000000000E+00 0. -1.
         22    1    1    2    0    0  0.66686756445E+02 -0.11408428667E+02 -0.33576932390E+03  0.34251761210E+03  0.00000000000E+00 0. -1.
</event>
<event>
 6    1  0.2406404E-005  0.1972164E+03  0.7818608E-02  0.1198875E+00
          2   -1    0    0  502    0  0.00000000000E+00  0.00000000000E+00  0.15479720680E+03  0.15479720680E+03  0.00000000000E+00 0. -1.
          1   -1    0    0  501    0 -0.00000000000E+00 -0.00000000000E+00 -0.50544768707E+03  0.50544768707E+03  0.00000000000E+00 0. -1.
          2    1    1    2  501    0  0.19282388148E+02  0.16761101528E+03 -0.29742622545E+03  0.34194681241E+03  0.00000000000E+00 0. -1.
          1    1    1    2  502    0 -0.14719126602E+02 -0.18168403477E+03  0.46940004850E+01  0.18233972364E+03  0.00000000000E+00 0. -1.
         22    1    1    2    0    0 -0.29586469713E+02  0.61593329461E+02 -0.23924683884E+02  0.72398120991E+02  0.00000000000E+00 0.  1.
         22    1    1    2    0    0  0.25023208167E+02 -0.47520309973E+02 -0.33993571418E+02  0.63560236821E+02  0.00000000000E+00 0. -1.
</event>
<event>
 6    1  0.2406404E-005  0.6177616E+02  0.7818608E-02  0.1449778E+00
          2   -1    0    0  502    0  0.00000000000E+00  0.00000000000E+00  0.28689401800E+03  0.28689401800E+03  0.00000000000E+00 0.  1.
          1   -1    0    0  501    0 -0.00000000000E+00 -0.00000000000E+00 -0.10814598924E+03  0.10814598924E+03  0.00000000000E+00 0. -1.
          2    1    1    2  501    0  0.28328054406E+02 -0.61081490906E+01  0.12105988414E+03  0.12448005342E+03  0.00000000000E+00 0.  1.
          1    1    1    2  502    0 -0.26299455551E+02  0.27937059448E+02 -0.75190992003E+02  0.84414607334E+02  0.00000000000E+00 0. -1.
         22    1    1    2    0    0  0.22599774926E+02 -0.24965389820E+02  0.15144508533E+03  0.15514391508E+03  0.00000000000E+00 0.  1.
         22    1    1    2    0    0 -0.24628373781E+02  0.31364794626E+01 -0.18565948697E+02  0.31001431411E+02  0.00000000000E+00 0. -1.
</event>
<event>
 6    1  0.2406404E-005  0.2377996E+03  0.7818608E-02  0.1121944E+00
          2   -1    0    0  502    0  0.00000000000E+00  0.00000000000E+00  0.17688391427E+03  0.17688391427E+03  0.00000000000E+00 0. -1.
          1   -1    0    0  501    0 -0.00000000000E+00 -0.00000000000E+00 -0.59519073472E+03  0.59519073472E+03  0.00000000000E+00 0. -1.
          2    1    1    2  501    0  0.15182212819E+03  0.13899049723E+03  0.38215214409E+02  0.20935309776E+03  0.00000000000E+00 0. -1.
          1    1    1    2  502    0 -0.13354313422E+03 -0.10059355292E+03 -0.37557955248E+03  0.41111170237E+03  0.00000000000E+00 0. -1.
         22    1    1    2    0    0 -0.32720482042E+02 -0.58907451890E+02 -0.99665936755E+02  0.12030800797E+03  0.00000000000E+00 0.  1.
         22    1    1    2    0    0  0.14441488077E+02  0.20510507583E+02  0.18723454371E+02  0.31301840885E+02  0.00000000000E+00 0. -1.
</event>
<event>
 6    1  0.2406404E-005  0.7853201E+02  0.7818608E-02  0.1336346E+00
          2   -1    0    0  502    0  0.00000000000E+00  0.00000000000E+00  0.14039975560E+03  0.14039975560E+03  0.00000000000E+00 0.  1.
          1   -1    0    0  501    0 -0.00000000000E+00 -0.00000000000E+00 -0.11468049823E+03  0.11468049823E+03  0.00000000000E+00 0. -1.
          2    1    1    2  501    0  0.27243175865E+02 -0.21394030561E+02  0.50684696366E+02  0.61390826844E+02  0.00000000000E+00 0.  1.
          1    1    1    2  502    0 -0.44624004073E+02  0.42132989959E+01 -0.45117251688E+02  0.63597327207E+02  0.00000000000E+00 0. -1.
         22    1    1    2    0    0  0.38847870923E+02 -0.83196934402E+01  0.63807864914E+02  0.75165271230E+02  0.00000000000E+00 0.  1.
         22    1    1    2    0    0 -0.21467042715E+02  0.25500425006E+02 -0.43656052222E+02  0.54926828545E+02  0.00000000000E+00 0.  1.
</event>
<event>
 6    1  0.2406404E-005  0.2963458E+02  0.7818608E-02  0.1608006E+00
          2   -1    0    0  502    0  0.00000000000E+00  0.00000000000E+00  0.27523151827E+03  0.27523151827E+03  0.00000000000E+00 0.  1.
          1   -1    0    0  501    0 -0.00000000000E+00 -0.00000000000E+00 -0.41171783662E+02  0.41171783662E+02  0.00000000000E+00 0. -1.
          2    1    1    2  501    0  0.35845685540E+02 -0.19506951835E+02  0.11672991614E+03  0.12365802709E+03  0.00000000000E+00 0.  1.
          1    1    1    2  502    0 -0.27663145144E+02  0.87617348131E+01  0.33906377915E+02  0.44628018772E+02  0.00000000000E+00 0. -1.
         22    1    1    2    0    0 -0.16563034117E+02 -0.16270548813E+02 -0.26139499670E+02  0.34961955049E+02  0.00000000000E+00 0. -1.
         22    1    1    2    0    0  0.83804937206E+01  0.27015765835E+02  0.10956294021E+03  0.11315530101E+03  0.00000000000E+00 0.  1.
</event>
<event>
 6    1  0.2406404E-005  0.5455279E+03  0.7818608E-02  0.1135337E+00
          2   -1    0    0  502    0  0.00000000000E+00  0.00000000000E+00  0.64096624705E+03  0.64096624705E+03  0.00000000000E+00 0. -1.
          1   -1    0    0  501    0 -0.00000000000E+00 -0.00000000000E+00 -0.57672585518E+03  0.57672585518E+03  0.00000000000E+00 0. -1.
          2    1    1    2  501    0 -0.26439475730E+03 -0.35846083025E+03  0.20715241117E+03  0.49123403380E+03  0.00000000000E+00 0. -1.
          1    1    1    2  502    0  0.34515531121E+03  0.38252528416E+03 -0.21568031377E+03  0.55854792061E+03  0.00000000000E+00 0. -1.
         22    1    1    2    0    0 -0.88893409472E+02 -0.35370115372E+02  0.99334610202E+02  0.13791464060E+03  0.00000000000E+00 0. -1.
         22    1    1    2    0    0  0.81328555712E+01  0.11305661461E+02 -0.26566315740E+02  0.29995507211E+02  0.00000000000E+00 0. -1.
</event>
<event>
 6    1  0.2406404E-005  0.5627589E+02  0.7818608E-02  0.1414496E+00
          2   -1    0    0  502    0  0.00000000000E+00  0.00000000000E+00  0.20702702921E+03  0.20702702921E+03  0.00000000000E+00 0.  1.
          1   -1    0    0  501    0 -0.00000000000E+00 -0.00000000000E+00 -0.13729995357E+03  0.13729995357E+03  0.00000000000E+00 0.  1.
          2    1    1    2  501    0  0.24775883030E+02 -0.16036663247E+02  0.85710966351E+02  0.90649813573E+02  0.00000000000E+00 0.  1.
          1    1    1    2  502    0 -0.24427204915E+02  0.31818692611E+02 -0.95047238134E+02  0.10316537702E+03  0.00000000000E+00 0.  1.
         22    1    1    2    0    0  0.14420570094E+02 -0.21325926279E+02  0.11150480883E+03  0.11443806345E+03  0.00000000000E+00 0.  1.
         22    1    1    2    0    0 -0.14769248208E+02  0.55438969148E+01 -0.32441461415E+02  0.36073728728E+02  0.00000000000E+00 0.  1.
</event>
<event>
 6    1  0.2406404E-005  0.6871752E+02  0.7818608E-02  0.1365067E+00
          2   -1    0    0  502    0  0.00000000000E+00  0.00000000000E+00  0.12617170944E+03  0.12617170944E+03  0.00000000000E+00 0. -1.
          1   -1    0    0  501    0 -0.00000000000E+00 -0.00000000000E+00 -0.78434911406E+02  0.78434911406E+02  0.00000000000E+00 0. -1.
          2    1    1    2  501    0 -0.20720824628E+02  0.13048890326E+01  0.24460868844E+02  0.32084099072E+02  0.00000000000E+00 0. -1.
          1    1    1    2  502    0  0.30555439470E+02 -0.13946605710E+02 -0.14731806763E+02  0.36676543220E+02  0.00000000000E+00 0. -1.
         22    1    1    2    0    0 -0.41346670244E+02  0.22214759556E+02  0.73638973448E+02  0.87325489365E+02  0.00000000000E+00 0. -1.
         22    1    1    2    0    0  0.31512055402E+02 -0.95730428785E+01 -0.35631237496E+02  0.48520489188E+02  0.00000000000E+00 0. -1.
</event>
<event>
 6    1  0.2406404E-005  0.1539075E+03  0.7818608E-02  0.1195977E+00
          2   -1    0    0  502    0  0.00000000000E+00  0.00000000000E+00  0.47121978540E+02  0.47121978540E+02  0.00000000000E+00 0.  1.
          1   -1    0    0  501    0 -0.00000000000E+00 -0.00000000000E+00 -0.10598691250E+04  0.10598691250E+04  0.00000000000E+00 0. -1.
          2    1    1    2  501    0 -0.23684204370E+02 -0.10662604697E+03 -0.90892563842E+02  0.14209684581E+03  0.00000000000E+00 0.  1.
          1    1    1    2  502    0  0.54110727411E+02  0.91059334481E+02 -0.70469560821E+03  0.71261186732E+03  0.00000000000E+00 0. -1.
         22    1    1    2    0    0 -0.26022700254E+01  0.45505858944E+02 -0.20446560058E+03  0.20948445486E+03  0.00000000000E+00 0.  1.
         22    1    1    2    0    0 -0.27824253016E+02 -0.29939146459E+02 -0.12693373807E+02  0.42797935524E+02  0.00000000000E+00 0. -1.
</event>
<event>
 6    1  0.2406404E-005  0.8919421E+02  0.7818608E-02  0.1339374E+00
          2   -1    0    0  502    0  0.00000000000E+00  0.00000000000E+00  0.13669478249E+03  0.13669478249E+03  0.00000000000E+00 0.  1.
          1   -1    0    0  501    0 -0.00000000000E+00 -0.00000000000E+00 -0.13555320864E+03  0.13555320864E+03  0.00000000000E+00 0.  1.
          2    1    1    2  501    0 -0.27376457735E+02 -0.12870671834E+02  0.48273473666E+01  0.30633770812E+02  0.00000000000E+00 0.  1.
          1    1    1    2  502    0  0.27903360106E+02 -0.19953409110E+02 -0.85630175047E+02  0.92245666125E+02  0.00000000000E+00 0.  1.
         22    1    1    2    0    0 -0.13624236941E+02  0.28443644153E+02  0.11196585687E+03  0.11632288609E+03  0.00000000000E+00 0.  1.
         22    1    1    2    0    0  0.13097334571E+02  0.43804367906E+01 -0.30021455338E+02  0.33045668097E+02  0.00000000000E+00 0.  1.
</event>
<event>
 6    1  0.2406404E-005  0.1497635E+03  0.7818608E-02  0.1203788E+00
          2   -1    0    0  502    0  0.00000000000E+00  0.00000000000E+00  0.19518149682E+02  0.19518149682E+02  0.00000000000E+00 0. -1.
          1   -1    0    0  501    0 -0.00000000000E+00 -0.00000000000E+00 -0.10839814547E+04  0.10839814547E+04  0.00000000000E+00 0. -1.
          2    1    1    2  501    0  0.71202330703E+02 -0.37831877265E+01 -0.22258616322E+03  0.23372779994E+03  0.00000000000E+00 0. -1.
          1    1    1    2  502    0 -0.84786568428E+02 -0.15517643986E+02 -0.24618623151E+03  0.26083945263E+03  0.00000000000E+00 0. -1.
         22    1    1    2    0    0  0.41301156635E+02  0.62424216336E+02 -0.36953793333E+03  0.37704224232E+03  0.00000000000E+00 0.  1.
         22    1    1    2    0    0 -0.27716918911E+02 -0.43123384624E+02 -0.22615297692E+03  0.23189010946E+03  0.00000000000E+00 0.  1.
</event>
<event>
 6    1  0.2406404E-005  0.6326871E+02  0.7818608E-02  0.1419823E+00
          2   -1    0    0  502    0  0.00000000000E+00  0.00000000000E+00  0.15679094315E+03  0.15679094315E+03  0.00000000000E+00 0. -1.
          1   -1    0    0  501    0 -0.00000000000E+00 -0.00000000000E+00 -0.19948862732E+03  0.19948862732E+03  0.00000000000E+00 0. -1.
          2    1    1    2  501    0  0.28706667305E+02 -0.28865158307E+02  0.10917465544E+03  0.11651770467E+03  0.00000000000E+00 0. -1.
          1    1    1    2  502    0 -0.24385499961E+02  0.71777443415E+01 -0.93933502125E+02  0.97312257418E+02  0.00000000000E+00 0. -1.
         22    1    1    2    0    0 -0.37176714815E+02  0.62890753921E+01 -0.87737937644E+02  0.95496629761E+02  0.00000000000E+00 0. -1.
         22    1    1    2    0    0  0.32855547471E+02  0.15398338574E+02  0.29799100163E+02  0.46952978617E+02  0.00000000000E+00 0. -1.
</event>
<event>
 6    1  0.2406404E-005  0.3993967E+02  0.7818608E-02  0.1537790E+00
          2   -1    0    0  502    0  0.00000000000E+00  0.00000000000E+00  0.71344907379E+02  0.71344907379E+02  0.00000000000E+00 0. -1.
          1   -1    0    0  501    0 -0.00000000000E+00 -0.00000000000E+00 -0.17391955015E+03  0.17391955015E+03  0.00000000000E+00 0. -1.
          2    1    1    2  501    0 -0.15008423594E+02 -0.15107270256E+02  0.17008611957E+02  0.27253903831E+02  0.00000000000E+00 0. -1.
          1    1    1    2  502    0  0.44575017462E+02 -0.78687202496E+01 -0.11765384325E+02  0.46768292768E+02  0.00000000000E+00 0. -1.
         22    1    1    2    0    0 -0.16587303932E+02 -0.80990550565E+00  0.28104975283E+02  0.32644819410E+02  0.00000000000E+00 0.  1.
         22    1    1    2    0    0 -0.12979289937E+02  0.23785896012E+02 -0.13592284569E+03  0.13859744152E+03  0.00000000000E+00 0. -1.
</event>
<event>
 6    1  0.2406404E-005  0.1178167E+03  0.7818608E-02  0.1247366E+00
          2   -1    0    0  502    0  0.00000000000E+00  0.00000000000E+00  0.11820838664E+02  0.11820838664E+02  0.00000000000E+00 0.  1.
          1   -1    0    0  501    0 -0.00000000000E+00 -0.00000000000E+00 -0.11676340187E+04  0.11676340187E+04  0.00000000000E+00 0.  1.
          2    1    1    2  501    0 -0.38871610199E+02  0.35662001530E+02 -0.48953914784E+03  0.49237318947E+03  0.00000000000E+00 0.  1.
          1    1    1    2  502    0  0.16936016299E+02  0.19433610964E+02 -0.15935764126E+03  0.16142909190E+03  0.00000000000E+00 0.  1.
         22    1    1    2    0    0  0.37611851761E+02 -0.82028442157E+02 -0.46354220622E+03  0.47224431565E+03  0.00000000000E+00 0.  1.
         22    1    1    2    0    0 -0.15676257861E+02  0.26932829663E+02 -0.43374184710E+02  0.53408260348E+02  0.00000000000E+00 0. -1.
</event>
<event>
 6    1  0.2406404E-005  0.1931557E+03  0.7818608E-02  0.1157172E+00
          2   -1    0    0  502    0  0.00000000000E+00  0.00000000000E+00  0.12185325638E+03  0.12185325638E+03  0.00000000000E+00 0.  1.
          1   -1    0    0  501    0 -0.00000000000E+00 -0.00000000000E+00 -0.47745609526E+03  0.47745609526E+03  0.00000000000E+00 0.  1.
          2    1    1    2  501    0  0.13257937891E+03  0.92360908681E+02  0.97337516471E+01  0.16187209483E+03  0.00000000000E+00 0.  1.
          1    1    1    2  502    0 -0.67234974426E+02 -0.71113780681E+02 -0.15684243802E+03  0.18487093323E+03  0.00000000000E+00 0.  1.
         22    1    1    2    0    0  0.24312208143E+02  0.44293968304E+01 -0.60860480591E+00  0.24719899290E+02  0.00000000000E+00 0.  1.
         22    1    1    2    0    0 -0.89656612628E+02 -0.25676524830E+02 -0.20788554771E+03  0.22784642429E+03  0.00000000000E+00 0.  1.
</event>
<event>
 6    1  0.2406404E-005  0.1146828E+03  0.7818608E-02  0.1384636E+00
          2   -1    0    0  502    0  0.00000000000E+00  0.00000000000E+00  0.10489807451E+04  0.10489807451E+04  0.00000000000E+00 0.  1.
          1   -1    0    0  501    0 -0.00000000000E+00 -0.00000000000E+00 -0.79729988496E+02  0.79729988496E+02  0.00000000000E+00 0.  1.
          2    1    1    2  501    0  0.51937484728E+02 -0.95907655646E+02  0.94843344904E+03  0.95468412995E+03  0.00000000000E+00 0.  1.
          1    1    1    2  502    0 -0.16306010768E+02  0.13396122425E+02  0.16367893525E+01  0.21166510402E+02  0.00000000000E+00 0.  1.
         22    1    1    2    0    0 -0.45888415364E+02  0.79766308055E+02 -0.34395649369E+02  0.98241901758E+02  0.00000000000E+00 0.  1.
         22    1    1    2    0    0  0.10256941405E+02  0.27452251658E+01  0.53576167624E+02  0.54618191525E+02  0.00000000000E+00 0. -1.
</event>
<event>
 6    1  0.2406404E-005  0.3185897E+02  0.7818608E-02  0.1652903E+00
          2   -1    0    0  502    0  0.00000000000E+00  0.00000000000E+00  0.53502706784E+03  0.53502706784E+03  0.00000000000E+00 0.  1.
          1   -1    0    0  501    0 -0.00000000000E+00 -0.00000000000E+00 -0.10963754169E+03  0.10963754169E+03  0.00000000000E+00 0.  1.
          2    1    1    2  501    0 -0.80607103331E+01 -0.23987911394E+02  0.45679650353E+03  0.45749692959E+03  0.00000000000E+00 0.  1.
          1    1    1    2  502    0  0.15317088776E+02  0.13013691558E+02 -0.56325683548E+02  0.59804280814E+02  0.00000000000E+00 0.  1.
         22    1    1    2    0    0  0.58686787326E+01  0.93389729213E+01 -0.50042820397E+02  0.51243942847E+02  0.00000000000E+00 0.  1.
         22    1    1    2    0    0 -0.13125057175E+02  0.16352469144E+01  0.74961526566E+02  0.76119456274E+02  0.00000000000E+00 0. -1.
</event>
<event>
 6    1  0.2406404E-005  0.1273951E+03  0.7818608E-02  0.1259315E+00
          2   -1    0    0  502    0  0.00000000000E+00  0.00000000000E+00  0.89684032816E+02  0.89684032816E+02  0.00000000000E+00 0. -1.
          1   -1    0    0  501    0 -0.00000000000E+00 -0.00000000000E+00 -0.11995103886E+03  0.11995103886E+03  0.00000000000E+00 0.  1.
          2    1    1    2  501    0 -0.43291403136E+01 -0.26865290468E+02 -0.78643980611E+00  0.27223221252E+02  0.00000000000E+00 0. -1.
          1    1    1    2  502    0  0.23277229424E+01  0.25545333077E+02  0.34855111530E+02  0.43276565666E+02  0.00000000000E+00 0.  1.
         22    1    1    2    0    0  0.19975203903E+02 -0.39281835561E+02  0.16378365072E+02  0.47014064049E+02  0.00000000000E+00 0. -1.
         22    1    1    2    0    0 -0.17973786532E+02  0.40601792951E+02 -0.80714042837E+02  0.92121220706E+02  0.00000000000E+00 0.  1.
</event>
<event>
 6    1  0.2406404E-005  0.1728969E+03  0.7818608E-02  0.1175313E+00
          2   -1    0    0  502    0  0.00000000000E+00  0.00000000000E+00  0.31261409127E+03  0.31261409127E+03  0.00000000000E+00 0.  1.
          1   -1    0    0  501    0 -0.00000000000E+00 -0.00000000000E+00 -0.25343011654E+03  0.25343011654E+03  0.00000000000E+00 0. -1.
          2    1    1    2  501    0  0.10240485527E+02 -0.14240658278E+03  0.23604629980E+03  0.27586655834E+03  0.00000000000E+00 0.  1.
          1    1    1    2  502    0 -0.30548254705E+02  0.74760935542E+02 -0.85604152427E+02  0.11768799540E+03  0.00000000000E+00 0. -1.
         22    1    1    2    0    0  0.13312160571E+02  0.91024532966E+02 -0.10876840150E+03  0.14245435896E+03  0.00000000000E+00 0. -1.
         22    1    1    2    0    0  0.69956086069E+01 -0.23378885732E+02  0.17510228861E+02  0.30035295114E+02  0.00000000000E+00 0.  1.
</event>
<event>
 6    1  0.2406404E-005  0.7847242E+02  0.7818608E-02  0.1409093E+00
          2   -1    0    0  502    0  0.00000000000E+00  0.00000000000E+00  0.18857618882E+03  0.18857618882E+03  0.00000000000E+00 0.  1.
          1   -1    0    0  501    0 -0.00000000000E+00 -0.00000000000E+00 -0.15417343141E+03  0.15417343141E+03  0.00000000000E+00 0.  1.
          2    1    1    2  501    0  0.31795561279E+02  0.50450467789E+02  0.13568793937E+03  0.14821411643E+03  0.00000000000E+00 0.  1.
          1    1    1    2  502    0 -0.32074492634E+02 -0.16698182815E+02 -0.38080140124E+02  0.52513802556E+02  0.00000000000E+00 0.  1.
         22    1    1    2    0    0  0.22334195349E+02 -0.23676382916E+01  0.32162816541E+02  0.39228417770E+02  0.00000000000E+00 0.  1.
         22    1    1    2    0    0 -0.22055263994E+02 -0.31384646683E+02 -0.95367858380E+02  0.10279328348E+03  0.00000000000E+00 0.  1.
</event>
<event>
 6    1  0.2406404E-005  0.1663930E+03  0.7818608E-02  0.1183740E+00
          2   -1    0    0  502    0  0.00000000000E+00  0.00000000000E+00  0.75613730434E+03  0.75613730434E+03  0.00000000000E+00 0.  1.
          1   -1    0    0  501    0 -0.00000000000E+00 -0.00000000000E+00 -0.46449252085E+02  0.46449252085E+02  0.00000000000E+00 0. -1.
          2    1    1    2  501    0 -0.52976308634E+02  0.54706281194E+02  0.21378352371E+03  0.22694197824E+03  0.00000000000E+00 0.  1.
          1    1    1    2  502    0  0.82898936529E+02 -0.97447683800E+02  0.12099355914E+03  0.17609010792E+03  0.00000000000E+00 0. -1.
         22    1    1    2    0    0  0.38334660345E+02  0.13948768005E+01  0.40620881626E+02  0.55870814287E+02  0.00000000000E+00 0.  1.
         22    1    1    2    0    0 -0.68257288239E+02  0.41346525805E+02  0.33429008778E+03  0.34368365597E+03  0.00000000000E+00 0.  1.
</event>
<event>
 6    1  0.2406404E-005  0.1101794E+03  0.7818608E-02  0.1295205E+00
          2   -1    0    0  502    0  0.00000000000E+00  0.00000000000E+00  0.30102365548E+02  0.30102365548E+02  0.00000000000E+00 0.  1.
          1   -1    0    0  501    0 -0.00000000000E+00 -0.00000000000E+00 -0.10219623987E+04  0.10219623987E+04  0.00000000000E+00 0. -1.
          2    1    1    2  501    0 -0.29737414969E+02 -0.57803782686E+02 -0.56538263256E+02  0.86151995646E+02  0.00000000000E+00 0.  1.
          1    1    1    2  502    0  0.73687156912E+02  0.17207462932E+02 -0.55853308727E+03  0.56363561230E+03  0.00000000000E+00 0. -1.
         22    1    1    2    0    0  0.59477694901E+01  0.56178368568E+02 -0.32057394943E+03  0.32551350526E+03  0.00000000000E+00 0. -1.
         22    1    1    2    0    0 -0.49897511433E+02 -0.15582048814E+02 -0.56214733194E+02  0.76763651036E+02  0.00000000000E+00 0.  1.
</event>
<event>
 6    1  0.2406404E-005  0.6422475E+02  0.7818608E-02  0.1388087E+00
          2   -1    0    0  502    0  0.00000000000E+00  0.00000000000E+00  0.23828809745E+03  0.23828809745E+03  0.00000000000E+00 0. -1.
          1   -1    0    0  501    0 -0.00000000000E+00 -0.00000000000E+00 -0.47246198479E+02  0.47246198479E+02  0.00000000000E+00 0. -1.
          2    1    1    2  501    0  0.32554751370E+02  0.29212077356E+01  0.99026781547E+02  0.10428158397E+03  0.00000000000E+00 0. -1.
          1    1    1    2  502    0 -0.27075430461E+02 -0.80032587613E+01  0.39713190504E+01  0.28511444376E+02  0.00000000000E+00 0. -1.
         22    1    1    2    0    0 -0.22307495634E+02  0.20910411061E+02 -0.23667896971E+02  0.38665734174E+02  0.00000000000E+00 0. -1.
         22    1    1    2    0    0  0.16828174724E+02 -0.15828360035E+02  0.11171169535E+03  0.11407553341E+03  0.00000000000E+00 0. -1.
</event>
<event>
 6    1  0.2406404E-005  0.1008775E+03  0.7818608E-02  0.1335427E+00
          2   -1    0    0  502    0  0.00000000000E+00  0.00000000000E+00  0.30421879285E+03  0.30421879285E+03  0.00000000000E+00 0. -1.
          1   -1    0    0  501    0 -0.00000000000E+00 -0.00000000000E+00 -0.27378707563E+03  0.27378707563E+03  0.00000000000E+00 0.  1.
          2    1    1    2  501    0 -0.87801296379E+01  0.73209084641E+02  0.25772415273E+03  0.26806417077E+03  0.00000000000E+00 0. -1.
          1    1    1    2  502    0  0.37669892928E+01 -0.60879811318E+02 -0.14408397676E+03  0.15646320332E+03  0.00000000000E+00 0.  1.
         22    1    1    2    0    0 -0.24315296156E+02 -0.32650620787E+02 -0.10434635846E+03  0.11200651405E+03  0.00000000000E+00 0.  1.
         22    1    1    2    0    0  0.29328436501E+02  0.20321347464E+02  0.21137899704E+02  0.41471980351E+02  0.00000000000E+00 0.  1.
</event>
<event>
 6    1  0.2406404E-005  0.7364941E+02  0.7818608E-02  0.1348960E+00
          2   -1    0    0  502    0  0.00000000000E+00  0.00000000000E+00  0.18407641115E+03  0.18407641115E+03  0.00000000000E+00 0.  1.
          1   -1    0    0  501    0 -0.00000000000E+00 -0.00000000000E+00 -0.22403601138E+03  0.22403601138E+03  0.00000000000E+00 0.  1.
          2    1    1    2  501    0 -0.52617432859E+02  0.26424444611E+02  0.14188607146E+03  0.15361804187E+03  0.00000000000E+00 0.  1.
          1    1    1    2  502    0  0.36996944549E+02 -0.32744276549E+01 -0.97681729808E+02  0.10450462248E+03  0.00000000000E+00 0.  1.
         22    1    1    2    0    0  0.29564299557E+02 -0.18958305916E+02 -0.11265023468E+03  0.11799805314E+03  0.00000000000E+00 0.  1.
         22    1    1    2    0    0 -0.13943811246E+02 -0.41917110405E+01  0.28486292797E+02  0.31991705031E+02  0.00000000000E+00 0.  1.
</event>
<event>
 6    1  0.2406404E-005  0.9473756E+02  0.7818608E-02  0.1293106E+00
          2   -1    0    0  502    0  0.00000000000E+00  0.00000000000E+00  0.46853678412E+03  0.46853678412E+03  0.00000000000E+00 0. -1.
          1   -1    0    0  501    0 -0.00000000000E+00 -0.00000000000E+00 -0.23181779079E+03  0.23181779079E+03  0.00000000000E+00 0.  1.
          2    1    1    2  501    0  0.13613915960E+02  0.66910388004E+02  0.40314560911E+03  0.40888717378E+03  0.00000000000E+00 0. -1.
          1    1    1    2  502    0 -0.20185852275E+02 -0.69668336648E+02 -0.14514858706E+03  0.16226292888E+03  0.00000000000E+00 0.  1.
         22    1    1    2    0    0 -0.33442137398E+01 -0.15409165742E+02 -0.72376125858E+02  0.74073812840E+02  0.00000000000E+00 0.  1.
         22    1    1    2    0    0  0.99161500547E+01  0.18167114386E+02  0.51098097135E+02  0.55130659418E+02  0.00000000000E+00 0.  1.
</event>
<event>
 6    1  0.2406404E-005  0.1277718E+03  0.7818608E-02  0.1240850E+00
          2   -1    0    0  502    0  0.00000000000E+00  0.00000000000E+00  0.43978333628E+02  0.43978333628E+02  0.00000000000E+00 0.  1.
          1   -1    0    0  501    0 -0.00000000000E+00 -0.00000000000E+00 -0.32090649018E+03  0.32090649018E+03  0.00000000000E+00 0.  1.
          2    1    1    2  501    0 -0.42829723028E+02 -0.15356988782E+02 -0.17107042922E+02  0.48609394119E+02  0.00000000000E+00 0.  1.
          1    1    1    2  502    0 -0.23510513816E+02  0.17905768430E+02 -0.15661373408E+02  0.33446067332E+02  0.00000000000E+00 0.  1.
         22    1    1    2    0    0  0.73202941855E+02  0.49316114115E+02 -0.17613192935E+03  0.19701067571E+03  0.00000000000E+00 0.  1.
         22    1    1    2    0    0 -0.68627050116E+01 -0.51864893764E+02 -0.68027810865E+02  0.85818686638E+02  0.00000000000E+00 0.  1.
</event>
<event>
 6    1  0.2406404E-005  0.1951627E+03  0.7818608E-02  0.1160427E+00
          2   -1    0    0  502    0  0.00000000000E+00  0.00000000000E+00  0.23501491788E+04  0.23501491788E+04  0.00000000000E+00 0. -1.
          1   -1    0    0  501    0 -0.00000000000E+00 -0.00000000000E+00 -0.16077755912E+02  0.16077755912E+02  0.00000000000E+00 0. -1.
          2    1    1    2  501    0 -0.36498775070E+00  0.32738892769E+02  0.39057389286E+02  0.50965164315E+02  0.00000000000E+00 0. -1.
          1    1    1    2  502    0 -0.52478879573E+02 -0.11852450117E+03  0.13591952850E+04  0.13653621912E+04  0.00000000000E+00 0. -1.
         22    1    1    2    0    0  0.65559581300E+02  0.11408805816E+03  0.78012865215E+03  0.79114781022E+03  0.00000000000E+00 0. -1.
         22    1    1    2    0    0 -0.12715713976E+02 -0.28302449754E+02  0.15569009648E+03  0.15875176908E+03  0.00000000000E+00 0. -1.
</event>
<event>
 6    1  0.2406404E-005  0.1454804E+03  0.7818608E-02  0.1287733E+00
          2   -1    0    0  502    0  0.00000000000E+00  0.00000000000E+00  0.11829198783E+03  0.11829198783E+03  0.00000000000E+00 0. -1.
          1   -1    0    0  501    0 -0.00000000000E+00 -0.00000000000E+00 -0.12391719963E+04  0.12391719963E+04  0.00000000000E+00 0.  1.
          2    1    1    2  501    0  0.28957190951E+01  0.97212327669E+02  0.20196190517E+02  0.99330297247E+02  0.00000000000E+00 0. -1.
          1    1    1    2  502    0  0.19644101335E+02 -0.10765633102E+03 -0.11243542115E+04  0.11296672825E+04  0.00000000000E+00 0.  1.
         22    1    1    2    0    0 -0.61805578440E+01 -0.27531699588E+02 -0.61410315269E+02  0.67582694522E+02  0.00000000000E+00 0. -1.
         22    1    1    2    0    0 -0.16359262586E+02  0.37975702941E+02  0.44688327757E+02  0.60883709840E+02  0.00000000000E+00 0. -1.
</event>
<event>
 6    1  0.2406404E-005  0.1595686E+03  0.7818608E-02  0.1203287E+00
          2   -1    0    0  502    0  0.00000000000E+00  0.00000000000E+00  0.35964536766E+03  0.35964536766E+03  0.00000000000E+00 0. -1.
          1   -1    0    0  501    0 -0.00000000000E+00 -0.00000000000E+00 -0.25160217701E+03  0.25160217701E+03  0.00000000000E+00 0. -1.
          2    1    1    2  501    0  0.32956903982E+02 -0.97313372040E+02  0.30184717673E+03  0.31885383485E+03  0.00000000000E+00 0. -1.
          1    1    1    2  502    0  0.38351750968E+02  0.47415801526E+02 -0.80950305447E+02  0.10135120615E+03  0.00000000000E+00 0. -1.
         22    1    1    2    0    0  0.58368651400E+01 -0.11470670535E+02  0.21106515111E+02  0.24721048871E+02  0.00000000000E+00 0.  1.
         22    1    1    2    0    0 -0.77145520089E+02  0.61368241048E+02 -0.13396019575E+03  0.16632145479E+03  0.00000000000E+00 0. -1.
</event>
<event>
 6    1  0.2406404E-005  0.9899180E+02  0.7818608E-02  0.1283086E+00
          2   -1    0    0  502    0  0.00000000000E+00  0.00000000000E+00  0.34029092437E+03  0.34029092437E+03  0.00000000000E+00 0.  1.
          1   -1    0    0  501    0 -0.00000000000E+00 -0.00000000000E+00 -0.78652905916E+02  0.78652905916E+02  0.00000000000E+00 0.  1.
          2    1    1    2  501    0  0.61121314879E+02  0.27313312186E+02  0.16841238757E+03  0.18123069399E+03  0.00000000000E+00 0.  1.
          1    1    1    2  502    0 -0.54450026281E+02 -0.19308012824E+02 -0.27960586582E+02  0.64182545316E+02  0.00000000000E+00 0.  1.
         22    1    1    2    0    0  0.18324980080E+02  0.22330048689E+02  0.13006420301E+03  0.13323337747E+03  0.00000000000E+00 0.  1.
         22    1    1    2    0    0 -0.24996268678E+02 -0.30335348051E+02 -0.88779855442E+01  0.40297213508E+02  0.00000000000E+00 0.  1.
</event>
<event>
 6    1  0.2406404E-005  0.5772774E+02  0.7818608E-02  0.1408149E+00
          2   -1    0    0  502    0  0.00000000000E+00  0.00000000000E+00  0.19352847286E+03  0.19352847286E+03  0.00000000000E+00 0.  1.
          1   -1    0    0  501    0 -0.00000000000E+00 -0.00000000000E+00 -0.56090036324E+02  0.56090036324E+02  0.00000000000E+00 0.  1.
          2    1    1    2  501    0 -0.30100647662E+02 -0.11165007925E+02  0.82418472770E+02  0.88450613595E+02  0.00000000000E+00 0.  1.
          1    1    1    2  502    0  0.19412112712E+02  0.13579164383E+02 -0.82003417634E+01  0.25069292578E+02  0.00000000000E+00 0.  1.
         22    1    1    2    0    0 -0.20318702701E+02 -0.13311290708E+02  0.90302040570E+02  0.93512024205E+02  0.00000000000E+00 0.  1.
         22    1    1    2    0    0  0.31007237651E+02  0.10897134250E+02 -0.27081735040E+02  0.42586578806E+02  0.00000000000E+00 0.  1.
</event>
<event>
 6    1  0.2406404E-005  0.1252179E+03  0.7818608E-02  0.1294803E+00
          2   -1    0    0  502    0  0.00000000000E+00  0.00000000000E+00  0.76068719402E+02  0.76068719402E+02  0.00000000000E+00 0. -1.
          1   -1    0    0  501    0 -0.00000000000E+00 -0.00000000000E+00 -0.72960788630E+03  0.72960788630E+03  0.00000000000E+00 0. -1.
          2    1    1    2  501    0  0.15586068512E+03 -0.23627403724E+02 -0.26755857223E+03  0.31054532189E+03  0.00000000000E+00 0. -1.
          1    1    1    2  502    0 -0.11064741964E+03 -0.82067609314E+02 -0.14206953417E+03  0.19789314417E+03  0.00000000000E+00 0. -1.
         22    1    1    2    0    0 -0.11457649103E+02  0.11947101520E+03 -0.12684422117E+03  0.17462547821E+03  0.00000000000E+00 0. -1.
         22    1    1    2    0    0 -0.33755616382E+02 -0.13776002162E+02 -0.11706683933E+03  0.12261266143E+03  0.00000000000E+00 0.  1.
</event>
<event>
 6    1  0.2406404E-005  0.1626102E+03  0.7818608E-02  0.1190181E+00
          2   -1    0    0  502    0  0.00000000000E+00  0.00000000000E+00  0.47455302363E+02  0.47455302363E+02  0.00000000000E+00 0.  1.
          1   -1    0    0  501    0 -0.00000000000E+00 -0.00000000000E+00 -0.74289104173E+03  0.74289104173E+03  0.00000000000E+00 0.  1.
          2    1    1    2  501    0 -0.36419514941E+02  0.59592333608E+02 -0.46708689237E+02  0.84019812804E+02  0.00000000000E+00 0.  1.
          1    1    1    2  502    0  0.30766674588E+02 -0.92052161803E+02 -0.50812641023E+03  0.51731290099E+03  0.00000000000E+00 0.  1.
         22    1    1    2    0    0 -0.53220076036E+01  0.77028504676E+02 -0.66769958099E+02  0.10207811520E+03  0.00000000000E+00 0.  1.
         22    1    1    2    0    0  0.10974847956E+02 -0.44568676481E+02 -0.73830681805E+02  0.86935515106E+02  0.00000000000E+00 0.  1.
</event>
<event>
 6    1  0.2406404E-005  0.1724647E+03  0.7818608E-02  0.1183177E+00
          2   -1    0    0  502    0  0.00000000000E+00  0.00000000000E+00  0.70380958639E+03  0.70380958639E+03  0.00000000000E+00 0. -1.
          1   -1    0    0  501    0 -0.00000000000E+00 -0.00000000000E+00 -0.19284309251E+03  0.19284309251E+03  0.00000000000E+00 0. -1.
          2    1    1    2  501    0  0.25027003659E+02 -0.21934012730E+02  0.68909646781E+02  0.76524448682E+02  0.00000000000E+00 0. -1.
          1    1    1    2  502    0  0.17161420840E+02 -0.92286391912E+02 -0.16377369165E+03  0.18876735569E+03  0.00000000000E+00 0. -1.
         22    1    1    2    0    0  0.18794359520E+02 -0.26002628303E+01  0.10633521407E+02  0.21749967679E+02  0.00000000000E+00 0. -1.
         22    1    1    2    0    0 -0.60982784019E+02  0.11682066747E+03  0.59519701734E+03  0.60961090685E+03  0.00000000000E+00 0. -1.
</event>
<event>
 6    1  0.2406404E-005  0.1292627E+03  0.7818608E-02  0.1251449E+00
          2   -1    0    0  502    0  0.00000000000E+00  0.00000000000E+00  0.23216387540E+03  0.23216387540E+03  0.00000000000E+00 0.  1.
          1   -1    0    0  501    0 -0.00000000000E+00 -0.00000000000E+00 -0.44620574241E+03  0.44620574241E+03  0.00000000000E+00 0. -1.
          2    1    1    2  501    0  0.83268415809E+02  0.83417542751E+02  0.16010805819E+03  0.19881324354E+03  0.00000000000E+00 0.  1.
          1    1    1    2  502    0 -0.37095423543E+02 -0.14475619439E+03 -0.15423178986E+03  0.21475071889E+03  0.00000000000E+00 0. -1.
         22    1    1    2    0    0 -0.56959681490E+02  0.57860626284E+02 -0.23344317033E+03  0.24715980896E+03  0.00000000000E+00 0. -1.
         22    1    1    2    0    0  0.10786689223E+02  0.34780253512E+01  0.13525034983E+02  0.17645846424E+02  0.00000000000E+00 0.  1.
</event>
<event>
 6    1  0.2406404E-005  0.8956454E+02  0.7818608E-02  0.1321579E+00
          2   -1    0    0  502    0  0.00000000000E+00  0.00000000000E+00  0.12237126320E+03  0.12237126320E+03  0.00000000000E+00 0. -1.
          1   -1    0    0  501    0 -0.00000000000E+00 -0.00000000000E+00 -0.12066582785E+03  0.12066582785E+03  0.00000000000E+00 0. -1.
          2    1    1    2  501    0 -0.61012465067E+01 -0.20085975821E+02  0.89920909283E+01  0.22837016725E+02  0.00000000000E+00 0. -1.
          1    1    1    2  502    0  0.52212750369E+02  0.26276820246E+02 -0.50867357193E+02  0.77486325317E+02  0.00000000000E+00 0. -1.
         22    1    1    2    0    0 -0.22795337206E+02 -0.24979024123E+02  0.85071355544E+02  0.91546242842E+02  0.00000000000E+00 0. -1.
         22    1    1    2    0    0 -0.23316166657E+02  0.18788179697E+02 -0.41490653930E+02  0.51167506168E+02  0.00000000000E+00 0. -1.
</event>
<event>
 6    1  0.2406404E-005  0.1239318E+03  0.7818608E-02  0.1240590E+00
          2   -1    0    0  502    0  0.00000000000E+00  0.00000000000E+00  0.15943365698E+03  0.15943365698E+03  0.00000000000E+00 0. -1.
          1   -1    0    0  501    0 -0.00000000000E+00 -0.00000000000E+00 -0.96608349946E+02  0.96608349946E+02  0.00000000000E+00 0. -1.
          2    1    1    2  501    0  0.44850925909E+01 -0.61758334706E+02 -0.14670538235E+02  0.63635152654E+02  0.00000000000E+00 0. -1.
          1    1    1    2  502    0 -0.23480091928E+02  0.30457992779E+02  0.37272189238E+02  0.53555766559E+02  0.00000000000E+00 0. -1.
         22    1    1    2    0    0  0.56917096606E+01 -0.49857495449E+02  0.95861410967E+01  0.51088741543E+02  0.00000000000E+00 0. -1.
         22    1    1    2    0    0  0.13303289677E+02  0.81157837375E+02  0.30637514932E+02  0.87762346168E+02  0.00000000000E+00 0. -1.
</event>
<event>
 6    1  0.2406404E-005  0.1851123E+03  0.7818608E-02  0.1166560E+00
          2   -1    0    0  502    0  0.00000000000E+00  0.00000000000E+00  0.33457740585E+03  0.33457740585E+03  0.00000000000E+00 0.  1.
          1   -1    0    0  501    0 -0.00000000000E+00 -0.00000000000E+00 -0.11486313970E+03  0.11486313970E+03  0.00000000000E+00 0.  1.
          2    1    1    2  501    0  0.72841943800E+02  0.62017527141E+02  0.18252669459E+03  0.20607793838E+03  0.00000000000E+00 0.  1.
          1    1    1    2  502    0 -0.70609241470E+02 -0.68334345410E+02  0.65369549000E+02  0.11801875139E+03  0.00000000000E+00 0.  1.
         22    1    1    2    0    0  0.21994280823E+02  0.49610099513E+02  0.18389890510E+02  0.57298328384E+02  0.00000000000E+00 0. -1.
         22    1    1    2    0    0 -0.24226983153E+02 -0.43293281245E+02 -0.46571867947E+02  0.68045527389E+02  0.00000000000E+00 0.  1.
</event>
<event>
 6    1  0.2406404E-005  0.4870641E+02  0.7818608E-02  0.1470419E+00
          2   -1    0    0  502    0  0.00000000000E+00  0.00000000000E+00  0.90948133011E+02  0.90948133011E+02  0.00000000000E+00 0. -1.
          1   -1    0    0  501    0 -0.00000000000E+00 -0.00000000000E+00 -0.27853510685E+03  0.27853510685E+03  0.00000000000E+00 0.  1.
          2    1    1    2  501    0  0.46172286510E+02 -0.11573555717E+02  0.40900338590E+02  0.62758783690E+02  0.00000000000E+00 0. -1.
          1    1    1    2  502    0 -0.65641089138E+02  0.21227188416E+02 -0.13719661314E+03  0.15356515480E+03  0.00000000000E+00 0.  1.
         22    1    1    2    0    0  0.90956949288E+01  0.25595726376E+02 -0.10902605435E+03  0.11235903792E+03  0.00000000000E+00 0.  1.
         22    1    1    2    0    0  0.10373107700E+02 -0.35249359075E+02  0.17735355063E+02  0.40800263452E+02  0.00000000000E+00 0. -1.
</event>
<event>
 6    1  0.2406404E-005  0.7206823E+02  0.7818608E-02  0.1437370E+00
          2   -1    0    0  502    0  0.00000000000E+00  0.00000000000E+00  0.10818495404E+03  0.10818495404E+03  0.00000000000E+00 0. -1.
          1   -1    0    0  501    0 -0.00000000000E+00 -0.00000000000E+00 -0.14077758798E+03  0.14077758798E+03  0.00000000000E+00 0. -1.
          2    1    1    2  501    0  0.22345072561E+02 -0.44992356442E+02 -0.11029789128E+02  0.51432194725E+02  0.00000000000E+00 0. -1.
          1    1    1    2  502    0  0.31514611811E+02 -0.19643971528E+02 -0.29915333067E+02  0.47686303353E+02  0.00000000000E+00 0. -1.
         22    1    1    2    0    0 -0.42946358117E+02  0.79951607602E+02  0.50379432204E+02  0.10380142785E+03  0.00000000000E+00 0. -1.
         22    1    1    2    0    0 -0.10913326255E+02 -0.15315279632E+02 -0.42026943949E+02  0.46042616105E+02  0.00000000000E+00 0. -1.
</event>
<event>
 6    1  0.2406404E-005  0.1245737E+03  0.7818608E-02  0.1243456E+00
          2   -1    0    0  502    0  0.00000000000E+00  0.00000000000E+00  0.36142476688E+03  0.36142476688E+03  0.00000000000E+00 0. -1.
          1   -1    0    0  501    0 -0.00000000000E+00 -0.00000000000E+00 -0.52344819184E+02  0.52344819184E+02  0.00000000000E+00 0.  1.
          2    1    1    2  501    0  0.21497222883E+02  0.53011138411E+02  0.18694644123E+03  0.19550264264E+03  0.00000000000E+00 0. -1.
          1    1    1    2  502    0 -0.42576434112E+02  0.47111385728E+01  0.33975404192E+02  0.54674268705E+02  0.00000000000E+00 0.  1.
         22    1    1    2    0    0  0.40227505382E+02  0.18003020036E+02  0.71086608994E+02  0.83640103407E+02  0.00000000000E+00 0. -1.
         22    1    1    2    0    0 -0.19148294153E+02 -0.75725297020E+02  0.17071493276E+02  0.79952571318E+02  0.00000000000E+00 0.  1.
</event>
<event>
 6    1  0.2406404E-005  0.1893123E+03  0.7818608E-02  0.1160670E+00
          2   -1    0    0  502    0  0.00000000000E+00  0.00000000000E+00  0.54810395069E+03  0.54810395069E+03  0.00000000000E+00 0. -1.
          1   -1    0    0  501    0 -0.00000000000E+00 -0.00000000000E+00 -0.11440135121E+03  0.11440135121E+03  0.00000000000E+00 0.  1.
          2    1    1    2  501    0 -0.78184493076E+02  0.13680786439E+03  0.35466167946E+03  0.38809034205E+03  0.00000000000E+00 0. -1.
          1    1    1    2  502    0  0.36590568942E+02 -0.11567065239E+03  0.66196897275E+00  0.12132191790E+03  0.00000000000E+00 0.  1.
         22    1    1    2    0    0 -0.13504577342E+02  0.18577698665E+02  0.81922086980E+02  0.85080743015E+02  0.00000000000E+00 0. -1.
         22    1    1    2    0    0  0.55098501476E+02 -0.39714910662E+02 -0.35431359360E+01  0.68012298932E+02  0.00000000000E+00 0.  1.
</event>
<event>
 6    1  0.2406404E-005  0.3488218E+02  0.7818608E-02  0.1618804E+00
          2   -1    0    0  502    0  0.00000000000E+00  0.00000000000E+00  0.81962950186E+02  0.81962950186E+02  0.00000000000E+00 0. -1.
          1   -1    0    0  501    0 -0.00000000000E+00 -0.00000000000E+00 -0.25536366384E+03  0.25536366384E+03  0.00000000000E+00 0. -1.
          2    1    1    2  501    0 -0.24725844083E+02 -0.19529569310E+02  0.44143442587E+02  0.54234813234E+02  0.00000000000E+00 0. -1.
          1    1    1    2  502    0  0.27031513837E+02  0.37535953596E+02 -0.10650648578E+03  0.11611753557E+03  0.00000000000E+00 0. -1.
         22    1    1    2    0    0  0.11280682724E+02  0.97552879756E+01  0.24103179238E+02  0.28344006343E+02  0.00000000000E+00 0. -1.
         22    1    1    2    0    0 -0.13586352477E+02 -0.27761672261E+02 -0.13514084970E+03  0.13863025888E+03  0.00000000000E+00 0. -1.
</event>
<event>
 6    1  0.2406404E-005  0.1544491E+03  0.7818608E-02  0.1243605E+00
          2   -1    0    0  502    0  0.00000000000E+00  0.00000000000E+00  0.38816340989E+03  0.38816340989E+03  0.00000000000E+00 0. -1.
          1   -1    0    0  501    0 -0.00000000000E+00 -0.00000000000E+00 -0.63262578229E+02  0.63262578229E+02  0.00000000000E+00 0. -1.
          2    1    1    2  501    0 -0.41822135899E+01  0.26303695263E+02 -0.19995687434E+02  0.33304696531E+02  0.00000000000E+00 0. -1.
          1    1    1    2  502    0  0.66015666063E+02 -0.62317988098E+02  0.13559006231E+03  0.16317556435E+03  0.00000000000E+00 0. -1.
         22    1    1    2    0    0 -0.20036041748E+02  0.20072351212E+02 -0.10793762313E+02  0.30345470122E+02  0.00000000000E+00 0. -1.
         22    1    1    2    0    0 -0.41797410725E+02  0.15941941623E+02  0.22010021910E+03  0.22460025711E+03  0.00000000000E+00 0. -1.
</event>
<event>
 6    1  0.2406404E-005  0.8592098E+02  0.7818608E-02  0.1334129E+00
          2   -1    0    0  502    0  0.00000000000E+00  0.00000000000E+00  0.10735130646E+03  0.10735130646E+03  0.00000000000E+00 0.  1.
          1   -1    0    0  501    0 -0.00000000000E+00 -0.00000000000E+00 -0.17988900361E+03  0.17988900361E+03  0.00000000000E+00 0.  1.
          2    1    1    2  501    0 -0.58860169211E+02 -0.11291639659E+02 -0.62018736089E+01  0.60253496844E+02  0.00000000000E+00 0.  1.
          1    1    1    2  502    0  0.54294580188E+02  0.48932217685E+02 -0.58215238776E+02  0.93441304524E+02  0.00000000000E+00 0.  1.
         22    1    1    2    0    0  0.21161533798E+02  0.19049212651E+02 -0.52458601778E+02  0.59687418405E+02  0.00000000000E+00 0.  1.
         22    1    1    2    0    0 -0.16595944775E+02 -0.56689790678E+02  0.44338017014E+02  0.73858090301E+02  0.00000000000E+00 0.  1.
</event>
<event>
 6    1  0.2406404E-005  0.1162794E+03  0.7818608E-02  0.1251090E+00
          2   -1    0    0  502    0  0.00000000000E+00  0.00000000000E+00  0.33884009629E+03  0.33884009629E+03  0.00000000000E+00 0.  1.
          1   -1    0    0  501    0 -0.00000000000E+00 -0.00000000000E+00 -0.27857277359E+03  0.27857277359E+03  0.00000000000E+00 0.  1.
          2    1    1    2  501    0  0.80917721166E+02  0.59518763355E+02  0.26818086083E+03  0.28637586299E+03  0.00000000000E+00 0.  1.
          1    1    1    2  502    0 -0.63011769621E+02 -0.33260236469E+02 -0.18881658782E+03  0.20181285955E+03  0.00000000000E+00 0.  1.
         22    1    1    2    0    0  0.72608531904E+01  0.77124003641E+01  0.48418747403E+02  0.49563859903E+02  0.00000000000E+00 0.  1.
         22    1    1    2    0    0 -0.25166804736E+02 -0.33970927249E+02 -0.67515697700E+02  0.79660287438E+02  0.00000000000E+00 0.  1.
</event>
<event>
 6    1  0.2406404E-005  0.9033118E+02  0.7818608E-02  0.1333474E+00
          2   -1    0    0  502    0  0.00000000000E+00  0.00000000000E+00  0.56287989548E+02  0.56287989548E+02  0.00000000000E+00 0.  1.
          1   -1    0    0  501    0 -0.00000000000E+00 -0.00000000000E+00 -0.35286405780E+03  0.35286405780E+03  0.00000000000E+00 0. -1.
          2    1    1    2  501    0 -0.16871225257E+02  0.29430829611E+02  0.29024972087E+02  0.44645951417E+02  0.00000000000E+00 0.  1.
          1    1    1    2  502    0  0.19719038246E+02  0.18222237609E+02 -0.65036923410E+02  0.70361152772E+02  0.00000000000E+00 0. -1.
         22    1    1    2    0    0 -0.11999590687E+02  0.11956559344E+02  0.81132527940E+01  0.18782288436E+02  0.00000000000E+00 0.  1.
         22    1    1    2    0    0  0.91517776983E+01 -0.59609626564E+02 -0.26867736973E+03  0.27536265473E+03  0.00000000000E+00 0. -1.
</event>
<event>
 6    1  0.2406404E-005  0.8441824E+02  0.7818608E-02  0.1324595E+00
          2   -1    0    0  502    0  0.00000000000E+00  0.00000000000E+00  0.15215008603E+03  0.15215008603E+03  0.00000000000E+00 0.  1.
          1   -1    0    0  501    0 -0.00000000000E+00 -0.00000000000E+00 -0.60856963909E+02  0.60856963909E+02  0.00000000000E+00 0.  1.
          2    1    1    2  501    0 -0.48692755615E+01  0.20563441043E+02  0.39554971818E+02  0.44845966904E+02  0.00000000000E+00 0.  1.
          1    1    1    2  502    0  0.31514427592E+02 -0.35051910006E+01 -0.31115875902E+01  0.31861065389E+02  0.00000000000E+00 0.  1.
         22    1    1    2    0    0  0.34984265060E+02 -0.22266684819E+02 -0.13981889257E+02  0.43762967013E+02  0.00000000000E+00 0.  1.
         22    1    1    2    0    0 -0.61629417090E+02  0.52084347762E+01  0.68831627152E+02  0.92537050634E+02  0.00000000000E+00 0.  1.
</event>
<event>
 6    1  0.2406404E-005  0.7995744E+02  0.7818608E-02  0.1348253E+00
          2   -1    0    0  502    0  0.00000000000E+00  0.00000000000E+00  0.28141036386E+03  0.28141036386E+03  0.00000000000E+00 0.  1.
          1   -1    0    0  501    0 -0.00000000000E+00 -0.00000000000E+00 -0.72111692364E+02  0.72111692364E+02  0.00000000000E+00 0.  1.
          2    1    1    2  501    0  0.28379623217E+01  0.50953254576E+02  0.13846982884E+03  0.14757432595E+03  0.00000000000E+00 0.  1.
          1    1    1    2  502    0 -0.34935013234E+02 -0.57758188312E+02  0.16453347817E+02  0.69477882244E+02  0.00000000000E+00 0.  1.
         22    1    1    2    0    0  0.53800457653E+02 -0.20041933064E+02 -0.14685711085E+02  0.59260766403E+02  0.00000000000E+00 0. -1.
         22    1    1    2    0    0 -0.21703406742E+02  0.26846866800E+02  0.69061205920E+02  0.77209081618E+02  0.00000000000E+00 0. -1.
</event>
<event>
 6    1  0.2406404E-005  0.1334017E+03  0.7818608E-02  0.1297745E+00
          2   -1    0    0  502    0  0.00000000000E+00  0.00000000000E+00  0.86436547377E+03  0.86436547377E+03  0.00000000000E+00 0.  1.
          1   -1    0    0  501    0 -0.00000000000E+00 -0.00000000000E+00 -0.57335738378E+02  0.57335738378E+02  0.00000000000E+00 0. -1.
          2    1    1    2  501    0 -0.21821305048E+02 -0.94450014797E+02  0.70006898870E+03  0.70674858584E+03  0.00000000000E+00 0.  1.
          1    1    1    2  502    0 -0.97208172208E+01  0.51069603070E+02  0.24578128391E+02  0.57503765445E+02  0.00000000000E+00 0. -1.
         22    1    1    2    0    0 -0.25043076826E+02 -0.17169219961E+02  0.66447918373E+02  0.73056578534E+02  0.00000000000E+00 0.  1.
         22    1    1    2    0    0  0.56585199095E+02  0.60549631688E+02  0.15934699925E+02  0.84392282324E+02  0.00000000000E+00 0. -1.
</event>
<event>
 6    1  0.2406404E-005  0.3859324E+02  0.7818608E-02  0.1566324E+00
          2   -1    0    0  502    0  0.00000000000E+00  0.00000000000E+00  0.88025045492E+03  0.88025045492E+03  0.00000000000E+00 0.  1.
          1   -1    0    0  501    0 -0.00000000000E+00 -0.00000000000E+00 -0.12857755474E+03  0.12857755474E+03  0.00000000000E+00 0. -1.
          2    1    1    2  501    0  0.50846050954E+02 -0.25037988468E+02  0.82424580755E+03  0.82619209208E+03  0.00000000000E+00 0.  1.
          1    1    1    2  502    0 -0.37054677677E+02  0.23548350278E+02 -0.27553464460E+02  0.51834036523E+02  0.00000000000E+00 0. -1.
         22    1    1    2    0    0 -0.18998420864E+02  0.12646331354E+02 -0.85498333434E+02  0.88492003662E+02  0.00000000000E+00 0. -1.
         22    1    1    2    0    0  0.52070475859E+01 -0.11156693164E+02  0.40478890522E+02  0.42309877391E+02  0.00000000000E+00 0. -1.
</event>
<event>
 6    1  0.2406404E-005  0.5158121E+02  0.7818608E-02  0.1523076E+00
          2   -1    0    0  502    0  0.00000000000E+00  0.00000000000E+00  0.98943953312E+02  0.98943953312E+02  0.00000000000E+00 0. -1.
          1   -1    0    0  501    0 -0.00000000000E+00 -0.00000000000E+00 -0.26438602305E+03  0.26438602305E+03  0.00000000000E+00 0.  1.
          2    1    1    2  501    0 -0.92899689053E+01 -0.50664977525E+02  0.57188503590E+02  0.76966021157E+02  0.00000000000E+00 0. -1.
          1    1    1    2  502    0  0.16113151789E+02  0.23941915968E+02 -0.11972580009E+03  0.12315484647E+03  0.00000000000E+00 0.  1.
         22    1    1    2    0    0 -0.14070489514E+02  0.59397199921E+01  0.27232877005E+02  0.31223205132E+02  0.00000000000E+00 0. -1.
         22    1    1    2    0    0  0.72473066311E+01  0.20783341565E+02 -0.13013765024E+03  0.13198590361E+03  0.00000000000E+00 0.  1.
</event>
<event>
 6    1  0.2406404E-005  0.8370470E+02  0.7818608E-02  0.1333223E+00
          2   -1    0    0  502    0  0.00000000000E+00  0.00000000000E+00  0.10510575496E+03  0.10510575496E+03  0.00000000000E+00 0. -1.
          1   -1    0    0  501    0 -0.00000000000E+00 -0.00000000000E+00 -0.15391790565E+04  0.15391790565E+04  0.00000000000E+00 0. -1.
          2    1    1    2  501    0  0.51600662158E+02 -0.70759808152E+02  0.56474158425E+02  0.10420609078E+03  0.00000000000E+00 0. -1.
          1    1    1    2  502    0 -0.84782618761E+02 -0.25246304717E+02 -0.12329211137E+04  0.12360905876E+04  0.00000000000E+00 0. -1.
         22    1    1    2    0    0 -0.12060243508E+02  0.67023737185E+02 -0.23674316249E+03  0.24634316675E+03  0.00000000000E+00 0.  1.
         22    1    1    2    0    0  0.45242200111E+02  0.28982375683E+02 -0.20883183785E+02  0.57644966269E+02  0.00000000000E+00 0.  1.
</event>
<event>
 6    1  0.2406404E-005  0.3306223E+03  0.7818608E-02  0.1071160E+00
          2   -1    0    0  502    0  0.00000000000E+00  0.00000000000E+00  0.19261026167E+04  0.19261026167E+04  0.00000000000E+00 0. -1.
          1   -1    0    0  501    0 -0.00000000000E+00 -0.00000000000E+00 -0.56460032949E+03  0.56460032949E+03  0.00000000000E+00 0.  1.
          2    1    1    2  501    0 -0.17091981684E+03 -0.21354405924E+03  0.16869428789E+04  0.17089736469E+04  0.00000000000E+00 0. -1.
          1    1    1    2  502    0  0.21043064063E+03  0.23768941326E+03 -0.48135037867E+03  0.57660688405E+03  0.00000000000E+00 0.  1.
         22    1    1    2    0    0 -0.37092456069E+02 -0.34119005601E+02  0.17572392349E+03  0.18280824414E+03  0.00000000000E+00 0. -1.
         22    1    1    2    0    0 -0.24183677207E+01  0.99736515825E+01 -0.19814136499E+02  0.22314171137E+02  0.00000000000E+00 0.  1.
</event>
<event>
 6    1  0.2406404E-005  0.6983524E+02  0.7818608E-02  0.1372896E+00
          2   -1    0    0  502    0  0.00000000000E+00  0.00000000000E+00  0.10173544089E+03  0.10173544089E+03  0.00000000000E+00 0.  1.
          1   -1    0    0  501    0 -0.00000000000E+00 -0.00000000000E+00 -0.36665555076E+03  0.36665555076E+03  0.00000000000E+00 0.  1.
          2    1    1    2  501    0  0.28656257478E+02  0.25480380872E+02  0.73610540832E+02  0.82999654359E+02  0.00000000000E+00 0.  1.
          1    1    1    2  502    0  0.27310125370E+01 -0.20306853122E+02 -0.16885583399E+03  0.17009444255E+03  0.00000000000E+00 0.  1.
         22    1    1    2    0    0  0.10685959450E+02  0.13065631357E+02  0.16472301169E+02  0.23584680577E+02  0.00000000000E+00 0.  1.
         22    1    1    2    0    0 -0.42073229465E+02 -0.18239159107E+02 -0.18614711788E+03  0.19171221416E+03  0.00000000000E+00 0. -1.
</event>
<event>
 6    1  0.2406404E-005  0.1240079E+03  0.7818608E-02  0.1257088E+00
          2   -1    0    0  502    0  0.00000000000E+00  0.00000000000E+00  0.39357988120E+03  0.39357988120E+03  0.00000000000E+00 0.  1.
          1   -1    0    0  501    0 -0.00000000000E+00 -0.00000000000E+00 -0.26127403377E+03  0.26127403377E+03  0.00000000000E+00 0. -1.
          2    1    1    2  501    0  0.54171617957E+02 -0.46472361176E+02  0.33554982565E+03  0.34305674464E+03  0.00000000000E+00 0.  1.
          1    1    1    2  502    0 -0.28106566272E+02 -0.10414656592E+02 -0.16683755315E+03  0.16950874101E+03  0.00000000000E+00 0. -1.
         22    1    1    2    0    0  0.10302399724E+02 -0.23709237378E+01  0.38595580574E+02  0.40017240775E+02  0.00000000000E+00 0.  1.
         22    1    1    2    0    0 -0.36367451408E+02  0.59257941506E+02 -0.75002005650E+02  0.10227118854E+03  0.00000000000E+00 0. -1.
</event>
<event>
 6    1  0.2406404E-005  0.2230952E+03  0.7818608E-02  0.1132088E+00
          2   -1    0    0  502    0  0.00000000000E+00  0.00000000000E+00  0.58777279381E+03  0.58777279381E+03  0.00000000000E+00 0.  1.
          1   -1    0    0  501    0 -0.00000000000E+00 -0.00000000000E+00 -0.90193991818E+02  0.90193991818E+02  0.00000000000E+00 0.  1.
          2    1    1    2  501    0 -0.89764141250E+02  0.47947302285E+02  0.14590059673E+03  0.17788628102E+03  0.00000000000E+00 0.  1.
          1    1    1    2  502    0  0.14710178427E+03 -0.12569287673E+03  0.14986560346E+03  0.24473931702E+03  0.00000000000E+00 0.  1.
         22    1    1    2    0    0 -0.74434550733E+02  0.95466811026E+02  0.19545990351E+03  0.22991082670E+03  0.00000000000E+00 0. -1.
         22    1    1    2    0    0  0.17096907717E+02 -0.17721236580E+02  0.63526982900E+01  0.25430360890E+02  0.00000000000E+00 0.  1.
</event>
<event>
 6    1  0.2406404E-005  0.4680136E+02  0.7818608E-02  0.1559712E+00
          2   -1    0    0  502    0  0.00000000000E+00  0.00000000000E+00  0.96845834972E+02  0.96845834972E+02  0.00000000000E+00 0.  1.
          1   -1    0    0  501    0 -0.00000000000E+00 -0.00000000000E+00 -0.19194668121E+03  0.19194668121E+03  0.00000000000E+00 0.  1.
          2    1    1    2  501    0  0.26768568948E+02 -0.34008763677E+00  0.16597355977E+02  0.31498320091E+02  0.00000000000E+00 0.  1.
          1    1    1    2  502    0  0.30471152865E+02  0.28757460760E+02 -0.10908073944E+03  0.11685071854E+03  0.00000000000E+00 0.  1.
         22    1    1    2    0    0  0.12588221761E+02  0.16907227839E+01  0.47633275097E+02  0.49297573643E+02  0.00000000000E+00 0. -1.
         22    1    1    2    0    0 -0.69827943574E+02 -0.30108095908E+02 -0.50250737876E+02  0.91145903913E+02  0.00000000000E+00 0.  1.
</event>
<event>
 6    1  0.2406404E-005  0.5981153E+02  0.7818608E-02  0.1401251E+00
          2   -1    0    0  502    0  0.00000000000E+00  0.00000000000E+00  0.44031573316E+02  0.44031573316E+02  0.00000000000E+00 0.  1.
          1   -1    0    0  501    0 -0.00000000000E+00 -0.00000000000E+00 -0.23566422099E+03  0.23566422099E+03  0.00000000000E+00 0.  1.
          2    1    1    2  501    0 -0.62970172915E+00 -0.20043500309E+02  0.11919612034E+02  0.23328428578E+02  0.00000000000E+00 0.  1.
          1    1    1    2  502    0  0.71449087609E+01  0.25072446660E+02 -0.78435664535E+02  0.82654889594E+02  0.00000000000E+00 0.  1.
         22    1    1    2    0    0 -0.28099309703E+02 -0.26531965232E+02  0.59943076938E+01  0.39108159118E+02  0.00000000000E+00 0.  1.
         22    1    1    2    0    0  0.21584102671E+02  0.21503018881E+02 -0.13111090287E+03  0.13460431702E+03  0.00000000000E+00 0. -1.
</event>
<event>
 6    1  0.2406404E-005  0.1133940E+03  0.7818608E-02  0.1254414E+00
          2   -1    0    0  502    0  0.00000000000E+00  0.00000000000E+00  0.16111044260E+03  0.16111044260E+03  0.00000000000E+00 0.  1.
          1   -1    0    0  501    0 -0.00000000000E+00 -0.00000000000E+00 -0.54063487714E+03  0.54063487714E+03  0.00000000000E+00 0.  1.
          2    1    1    2  501    0  0.14970439752E+03  0.17119197421E+03 -0.66099875489E+02  0.23682755796E+03  0.00000000000E+00 0.  1.
          1    1    1    2  502    0 -0.14098487584E+03 -0.16724086189E+03 -0.22904854039E+03  0.31671671089E+03  0.00000000000E+00 0.  1.
         22    1    1    2    0    0  0.46171590044E+02 -0.33428946606E+02 -0.25385537491E+02  0.62399805385E+02  0.00000000000E+00 0. -1.
         22    1    1    2    0    0 -0.54891111727E+02  0.29477834290E+02 -0.58990481172E+02  0.85801245504E+02  0.00000000000E+00 0.  1.
</event>
<event>
 6    1  0.2406404E-005  0.3725505E+02  0.7818608E-02  0.1566994E+00
          2   -1    0    0  502    0  0.00000000000E+00  0.00000000000E+00  0.15005723402E+03  0.15005723402E+03  0.00000000000E+00 0.  1.
          1   -1    0    0  501    0 -0.00000000000E+00 -0.00000000000E+00 -0.15519062984E+03  0.15519062984E+03  0.00000000000E+00 0. -1.
          2    1    1    2  501    0  0.25523996482E+02  0.64491340821E+00  0.10855910073E+03  0.11152115790E+03  0.00000000000E+00 0.  1.
          1    1    1    2  502    0 -0.24334996273E+02  0.19235847831E+02 -0.12594326829E+02  0.33478753765E+02  0.00000000000E+00 0. -1.
         22    1    1    2    0    0  0.11627349533E+02 -0.81902824924E+00  0.27366751524E+02  0.29745674533E+02  0.00000000000E+00 0.  1.
         22    1    1    2    0    0 -0.12816349742E+02 -0.19061732990E+02 -0.12846492124E+03  0.13050227766E+03  0.00000000000E+00 0. -1.
</event>
<event>
 6    1  0.2406404E-005  0.4998927E+02  0.7818608E-02  0.1487621E+00
          2   -1    0    0  502    0  0.00000000000E+00  0.00000000000E+00  0.25025334608E+03  0.25025334608E+03  0.00000000000E+00 0.  1.
          1   -1    0    0  501    0 -0.00000000000E+00 -0.00000000000E+00 -0.14561699703E+03  0.14561699703E+03  0.00000000000E+00 0. -1.
          2    1    1    2  501    0  0.49919445064E+02  0.34875510240E+02  0.17660963653E+03  0.18681331838E+03  0.00000000000E+00 0.  1.
          1    1    1    2  502    0 -0.65685131510E+02 -0.25867517440E+02 -0.29652986600E+02  0.76569997873E+02  0.00000000000E+00 0. -1.
         22    1    1    2    0    0 -0.16530817374E+02 -0.39526653089E+01 -0.80471128324E+02  0.82246543878E+02  0.00000000000E+00 0. -1.
         22    1    1    2    0    0  0.32296503820E+02 -0.50553274912E+01  0.38150827447E+02  0.50240482979E+02  0.00000000000E+00 0. -1.
</event>
<event>
 6    1  0.2406404E-005  0.5605106E+02  0.7818608E-02  0.1417096E+00
          2   -1    0    0  502    0  0.00000000000E+00  0.00000000000E+00  0.76742724529E+02  0.76742724529E+02  0.00000000000E+00 0. -1.
          1   -1    0    0  501    0 -0.00000000000E+00 -0.00000000000E+00 -0.25983062733E+03  0.25983062733E+03  0.00000000000E+00 0. -1.
          2    1    1    2  501    0  0.20156170473E+02  0.11971552756E+02  0.24603914145E+02  0.33984435772E+02  0.00000000000E+00 0. -1.
          1    1    1    2  502    0 -0.15400463106E+02 -0.35241328206E+02 -0.15695596854E+03  0.16159920030E+03  0.00000000000E+00 0. -1.
         22    1    1    2    0    0 -0.16429389132E+02 -0.52893403949E+01 -0.89668361023E+02  0.91314385053E+02  0.00000000000E+00 0. -1.
         22    1    1    2    0    0  0.11673681765E+02  0.28559115844E+02  0.38932512622E+02  0.49675330727E+02  0.00000000000E+00 0. -1.
</event>
<event>
 6    1  0.2406404E-005  0.6072927E+02  0.7818608E-02  0.1447589E+00
          2   -1    0    0  502    0  0.00000000000E+00  0.00000000000E+00  0.38850607544E+03  0.38850607544E+03  0.00000000000E+00 0. -1.
          1   -1    0    0  501    0 -0.00000000000E+00 -0.00000000000E+00 -0.13862363534E+03  0.13862363534E+03  0.00000000000E+00 0.  1.
          2    1    1    2  501    0  0.11907912301E+02 -0.51153734762E+02  0.32195573357E+03  0.32621158370E+03  0.00000000000E+00 0. -1.
          1    1    1    2  502    0 -0.26950631118E+02  0.23221575923E+02 -0.66806500684E+02  0.75688087832E+02  0.00000000000E+00 0.  1.
         22    1    1    2    0    0 -0.11367777669E+02  0.22360561185E+02 -0.59543890514E+02  0.64611887166E+02  0.00000000000E+00 0. -1.
         22    1    1    2    0    0  0.26410496486E+02  0.55715976532E+01  0.54277097724E+02  0.60618152086E+02  0.00000000000E+00 0.  1.
</event>
<event>
 6    1  0.2406404E-005  0.9272513E+02  0.7818608E-02  0.1301014E+00
          2   -1    0    0  502    0  0.00000000000E+00  0.00000000000E+00  0.49223581858E+03  0.49223581858E+03  0.00000000000E+00 0.  1.
          1   -1    0    0  501    0 -0.00000000000E+00 -0.00000000000E+00 -0.28184547635E+02  0.28184547635E+02  0.00000000000E+00 0.  1.
          2    1    1    2  501    0  0.32492960738E+02 -0.13300760557E+02  0.19080150167E+03  0.19400493748E+03  0.00000000000E+00 0.  1.
          1    1    1    2  502    0 -0.39853428025E+02  0.25718489879E+02  0.40642534470E+02  0.62462405135E+02  0.00000000000E+00 0.  1.
         22    1    1    2    0    0 -0.41851635436E+02 -0.15877958945E+02  0.26488449203E+02  0.52012564925E+02  0.00000000000E+00 0.  1.
         22    1    1    2    0    0  0.49212102723E+02  0.34602296229E+01  0.20611878560E+03  0.21194045867E+03  0.00000000000E+00 0.  1.
</event>
<event>
 6    1  0.2406404E-005  0.9426430E+02  0.7818608E-02  0.1295652E+00
          2   -1    0    0  502    0  0.00000000000E+00  0.00000000000E+00  0.37953195871E+03  0.37953195871E+03  0.00000000000E+00 0.  1.
          1   -1    0    0  501    0 -0.00000000000E+00 -0.00000000000E+00 -0.16803873381E+03  0.16803873381E+03  0.00000000000E+00 0. -1.
          2    1    1    2  501    0  0.46802398833E+02 -0.54364977906E+02  0.30758701458E+03  0.31584139516E+03  0.00000000000E+00 0.  1.
          1    1    1    2  502    0 -0.49687514940E+02  0.20205549654E+02 -0.85776697168E+02  0.10116696672E+03  0.00000000000E+00 0. -1.
         22    1    1    2    0    0  0.16549504773E+02 -0.40920611489E+01  0.52811521252E+02  0.55494935351E+02  0.00000000000E+00 0.  1.
         22    1    1    2    0    0 -0.13664388665E+02  0.38251489401E+02 -0.63128613767E+02  0.75067395287E+02  0.00000000000E+00 0. -1.
</event>
<event>
 6    1  0.2406404E-005  0.6188041E+02  0.7818608E-02  0.1399784E+00
          2   -1    0    0  502    0  0.00000000000E+00  0.00000000000E+00  0.46933717796E+02  0.46933717796E+02  0.00000000000E+00 0.  1.
          1   -1    0    0  501    0 -0.00000000000E+00 -0.00000000000E+00 -0.22257656895E+03  0.22257656895E+03  0.00000000000E+00 0.  1.
          2    1    1    2  501    0  0.13806546703E+02 -0.17507043101E+02 -0.67070542086E+01  0.23283081114E+02  0.00000000000E+00 0.  1.
          1    1    1    2  502    0 -0.39369791025E+01  0.28712647228E+02 -0.98498160609E+02  0.10267328552E+03  0.00000000000E+00 0.  1.
         22    1    1    2    0    0 -0.12694124036E+02  0.20142591702E+02 -0.98529775455E+02  0.10136558310E+03  0.00000000000E+00 0. -1.
         22    1    1    2    0    0  0.28245564355E+01 -0.31348195829E+02  0.28092139113E+02  0.42188337023E+02  0.00000000000E+00 0.  1.
</event>
<event>
 6    1  0.2406404E-005  0.9408295E+02  0.7818608E-02  0.1360594E+00
          2   -1    0    0  502    0  0.00000000000E+00  0.00000000000E+00  0.31310331670E+03  0.31310331670E+03  0.00000000000E+00 0.  1.
          1   -1    0    0  501    0 -0.00000000000E+00 -0.00000000000E+00 -0.11939620762E+03  0.11939620762E+03  0.00000000000E+00 0.  1.
          2    1    1    2  501    0 -0.28586505648E+02 -0.68032517365E+02  0.21669278715E+03  0.22891346777E+03  0.00000000000E+00 0.  1.
          1    1    1    2  502    0  0.23010919208E+02  0.54111618114E+02 -0.49990372317E+02  0.77179057666E+02  0.00000000000E+00 0.  1.
         22    1    1    2    0    0  0.21916225162E+02 -0.18358652715E+02  0.66777550040E+02  0.72640224698E+02  0.00000000000E+00 0.  1.
         22    1    1    2    0    0 -0.16340638722E+02  0.32279551966E+02 -0.39772855786E+02  0.53766774186E+02  0.00000000000E+00 0.  1.
</event>
<event>
 6    1  0.2406404E-005  0.5849524E+02  0.7818608E-02  0.1432261E+00
          2   -1    0    0  502    0  0.00000000000E+00  0.00000000000E+00  0.15715858446E+03  0.15715858446E+03  0.00000000000E+00 0. -1.
          1   -1    0    0  501    0 -0.00000000000E+00 -0.00000000000E+00 -0.87757701759E+02  0.87757701759E+02  0.00000000000E+00 0. -1.
          2    1    1    2  501    0 -0.22507488472E+02 -0.12560570233E+02  0.83326552145E+02  0.87221953970E+02  0.00000000000E+00 0. -1.
          1    1    1    2  502    0  0.49042182940E+01  0.26281929294E+02 -0.21405204188E+02  0.34248706994E+02  0.00000000000E+00 0. -1.
         22    1    1    2    0    0 -0.98910051681E+01 -0.51700969714E+01  0.61353266950E+02  0.62360125492E+02  0.00000000000E+00 0. -1.
         22    1    1    2    0    0  0.27494275346E+02 -0.85512620896E+01 -0.53873732204E+02  0.61085499766E+02  0.00000000000E+00 0. -1.
</event>
<event>
 6    1  0.2406404E-005  0.6801299E+02  0.7818608E-02  0.1404739E+00
          2   -1    0    0  502    0  0.00000000000E+00  0.00000000000E+00  0.13489045544E+03  0.13489045544E+03  0.00000000000E+00 0. -1.
          1   -1    0    0  501    0 -0.00000000000E+00 -0.00000000000E+00 -0.15553828552E+03  0.15553828552E+03  0.00000000000E+00 0. -1.
          2    1    1    2  501    0  0.55419692772E+02 -0.19528075948E+02  0.65741787458E+02  0.88174093221E+02  0.00000000000E+00 0. -1.
          1    1    1    2  502    0 -0.44034182620E+02  0.86474610876E+01  0.84135680778E+01  0.45657156614E+02  0.00000000000E+00 0. -1.
         22    1    1    2    0    0 -0.36569997453E+02  0.51666086651E+01 -0.11690875480E+03  0.12260389678E+03  0.00000000000E+00 0. -1.
         22    1    1    2    0    0  0.25184487300E+02  0.57140061956E+01  0.22105569181E+02  0.33993594341E+02  0.00000000000E+00 0. -1.
</event>
<event>
 6    1  0.2406404E-005  0.2550912E+03  0.7818608E-02  0.1123952E+00
          2   -1    0    0  502    0  0.00000000000E+00  0.00000000000E+00  0.20606223130E+03  0.20606223130E+03  0.00000000000E+00 0. -1.
          1   -1    0    0  501    0 -0.00000000000E+00 -0.00000000000E+00 -0.12302984964E+04  0.12302984964E+04  0.00000000000E+00 0. -1.
          2    1    1    2  501    0  0.43759203104E+02  0.10638047854E+03 -0.36540348494E+02  0.12069329368E+03  0.00000000000E+00 0. -1.
          1    1    1    2  502    0  0.82311523640E+01 -0.74141846721E+02 -0.11200927851E+04  0.11225741011E+04  0.00000000000E+00 0. -1.
         22    1    1    2    0    0 -0.43523195353E+02 -0.85188980461E+01  0.15378456763E+03  0.16005165853E+03  0.00000000000E+00 0. -1.
         22    1    1    2    0    0 -0.84671601147E+01 -0.23719733777E+02 -0.21387699133E+02  0.33041674368E+02  0.00000000000E+00 0.  1.
</event>
<event>
 6    1  0.2406404E-005  0.1739256E+03  0.7818608E-02  0.1176018E+00
          2   -1    0    0  502    0  0.00000000000E+00  0.00000000000E+00  0.24844177991E+03  0.24844177991E+03  0.00000000000E+00 0.  1.
          1   -1    0    0  501    0 -0.00000000000E+00 -0.00000000000E+00 -0.26370998636E+03  0.26370998636E+03  0.00000000000E+00 0.  1.
          2    1    1    2  501    0 -0.11985638841E+03 -0.24095300068E+02  0.10722839248E+03  0.16261631370E+03  0.00000000000E+00 0.  1.
          1    1    1    2  502    0  0.11580991214E+03  0.70946130084E+01 -0.17749202034E+03  0.21205114140E+03  0.00000000000E+00 0.  1.
         22    1    1    2    0    0 -0.34042795651E+02 -0.11815589697E+02  0.76911351625E+02  0.84934540114E+02  0.00000000000E+00 0.  1.
         22    1    1    2    0    0  0.38089271927E+02  0.28816276756E+02 -0.21915930211E+02  0.52549771065E+02  0.00000000000E+00 0. -1.
</event>
<event>
 6    1  0.2406404E-005  0.1043878E+03  0.7818608E-02  0.1271473E+00
          2   -1    0    0  502    0  0.00000000000E+00  0.00000000000E+00  0.37970533274E+03  0.37970533274E+03  0.00000000000E+00 0. -1.
          1   -1    0    0  501    0 -0.00000000000E+00 -0.00000000000E+00 -0.18366721568E+03  0.18366721568E+03  0.00000000000E+00 0. -1.
          2    1    1    2  501    0  0.77370728936E+02 -0.35482482004E+02  0.27874328146E+03  0.29144991539E+03  0.00000000000E+00 0. -1.
          1    1    1    2  502    0 -0.64519251387E+02  0.50002353314E+02 -0.11454995400E+03  0.14065795782E+03  0.00000000000E+00 0. -1.
         22    1    1    2    0    0  0.86945836809E+01 -0.16365303208E+02  0.78065730590E+02  0.80235137109E+02  0.00000000000E+00 0. -1.
         22    1    1    2    0    0 -0.21546061231E+02  0.18454318982E+01 -0.46220940983E+02  0.51029538101E+02  0.00000000000E+00 0. -1.
</event>
<event>
 6    1  0.2406404E-005  0.1804979E+03  0.7818608E-02  0.1168656E+00
          2   -1    0    0  502    0  0.00000000000E+00  0.00000000000E+00  0.61717430855E+03  0.61717430855E+03  0.00000000000E+00 0.  1.
          1   -1    0    0  501    0 -0.00000000000E+00 -0.00000000000E+00 -0.54038449847E+02  0.54038449847E+02  0.00000000000E+00 0.  1.
          2    1    1    2  501    0  0.48147951212E+02  0.49766670792E+02  0.51823971578E+02  0.86490870950E+02  0.00000000000E+00 0.  1.
          1    1    1    2  502    0 -0.91360539809E+02 -0.54617024218E+02  0.76246242237E+02  0.13093226120E+03  0.00000000000E+00 0.  1.
         22    1    1    2    0    0  0.40119113336E+01 -0.53147801806E+02  0.12444578960E+03  0.13537924072E+03  0.00000000000E+00 0.  1.
         22    1    1    2    0    0  0.39200677264E+02  0.57998155232E+02  0.31061985530E+03  0.31841038553E+03  0.00000000000E+00 0.  1.
</event>
<event>
 6    1  0.2406404E-005  0.1433091E+03  0.7818608E-02  0.1229199E+00
          2   -1    0    0  502    0  0.00000000000E+00  0.00000000000E+00  0.25138023811E+03  0.25138023811E+03  0.00000000000E+00 0. -1.
          1   -1    0    0  501    0 -0.00000000000E+00 -0.00000000000E+00 -0.59207519776E+02  0.59207519776E+02  0.00000000000E+00 0. -1.
          2    1    1    2  501    0 -0.14162887576E+02  0.51038199895E+02  0.73392248988E+02  0.90509156689E+02  0.00000000000E+00 0. -1.
          1    1    1    2  502    0 -0.37922624655E+02 -0.24949666506E+02  0.17307063761E+02  0.48581331553E+02  0.00000000000E+00 0. -1.
         22    1    1    2    0    0  0.80948457346E+02 -0.53699451523E+02  0.61407332262E+02  0.11492234028E+03  0.00000000000E+00 0. -1.
         22    1    1    2    0    0 -0.28862945115E+02  0.27610918133E+02  0.40066073326E+02  0.56574929365E+02  0.00000000000E+00 0. -1.
</event>
<event>
 6    1  0.2406404E-005  0.1584677E+03  0.7818608E-02  0.1242136E+00
          2   -1    0    0  502    0  0.00000000000E+00  0.00000000000E+00  0.68049308839E+02  0.68049308839E+02  0.00000000000E+00 0.  1.
          1   -1    0    0  501    0 -0.00000000000E+00 -0.00000000000E+00 -0.52078098011E+03  0.52078098011E+03  0.00000000000E+00 0.  1.
          2    1    1    2  501    0  0.13590803399E+03 -0.38205125703E+02 -0.21548426497E+03  0.25761229354E+03  0.00000000000E+00 0.  1.
          1    1    1    2  502    0 -0.88729323313E+02  0.14747058630E+02 -0.71680590750E+02  0.11501511050E+03  0.00000000000E+00 0.  1.
         22    1    1    2    0    0  0.34780057327E+02  0.40164164795E+02 -0.45960577737E+02  0.70250887733E+02  0.00000000000E+00 0. -1.
         22    1    1    2    0    0 -0.81958768006E+02 -0.16706097721E+02 -0.11960623781E+03  0.14595199717E+03  0.00000000000E+00 0.  1.
</event>
<event>
 6    1  0.2406404E-005  0.3129405E+03  0.7818608E-02  0.1081239E+00
          2   -1    0    0  502    0  0.00000000000E+00  0.00000000000E+00  0.15377705112E+04  0.15377705112E+04  0.00000000000E+00 0.  1.
          1   -1    0    0  501    0 -0.00000000000E+00 -0.00000000000E+00 -0.98117204545E+02  0.98117204545E+02  0.00000000000E+00 0.  1.
          2    1    1    2  501    0  0.20811305904E+03 -0.34886820384E+02  0.83952968845E+03  0.86564324832E+03  0.00000000000E+00 0.  1.
          1    1    1    2  502    0 -0.25590514207E+03 -0.30837023417E+02  0.15691275773E+03  0.30176145760E+03  0.00000000000E+00 0.  1.
         22    1    1    2    0    0 -0.33590670156E+02  0.43627731728E+01  0.39169292721E+02  0.51784171361E+02  0.00000000000E+00 0.  1.
         22    1    1    2    0    0  0.81382753193E+02  0.61361070628E+02  0.40404156775E+03  0.41669883846E+03  0.00000000000E+00 0.  1.
</event>
<event>
 6    1  0.2406404E-005  0.2345024E+03  0.7818608E-02  0.1129931E+00
          2   -1    0    0  502    0  0.00000000000E+00  0.00000000000E+00  0.10489529495E+03  0.10489529495E+03  0.00000000000E+00 0. -1.
          1   -1    0    0  501    0 -0.00000000000E+00 -0.00000000000E+00 -0.53578150596E+03  0.53578150596E+03  0.00000000000E+00 0. -1.
          2    1    1    2  501    0  0.29626336307E+02 -0.33799719614E+02 -0.20951640141E+03  0.21428313818E+03  0.00000000000E+00 0. -1.
          1    1    1    2  502    0 -0.65636591080E+02  0.15712260876E+03 -0.53101526248E+02  0.17836885480E+03  0.00000000000E+00 0. -1.
         22    1    1    2    0    0  0.67154627123E+01  0.27421304210E+02 -0.20299847604E+02  0.34772247220E+02  0.00000000000E+00 0. -1.
         22    1    1    2    0    0  0.29294792061E+02 -0.15074419335E+03 -0.14796843576E+03  0.21325256072E+03  0.00000000000E+00 0. -1.
</event>
<event>
 6    1  0.2406404E-005  0.7104909E+02  0.7818608E-02  0.1370904E+00
          2   -1    0    0  502    0  0.00000000000E+00  0.00000000000E+00  0.18399530956E+03  0.18399530956E+03  0.00000000000E+00 0. -1.
          1   -1    0    0  501    0 -0.00000000000E+00 -0.00000000000E+00 -0.10858872413E+03  0.10858872413E+03  0.00000000000E+00 0. -1.
          2    1    1    2  501    0 -0.31309363126E+02  0.37559340518E+00  0.87482348644E+02  0.92917052332E+02  0.00000000000E+00 0. -1.
          1    1    1    2  502    0  0.25507367275E+02 -0.28452581323E+02 -0.55596645108E+02  0.67462301447E+02  0.00000000000E+00 0. -1.
         22    1    1    2    0    0  0.13278602270E+02 -0.10309307354E+02 -0.38130039746E+02  0.41671369396E+02  0.00000000000E+00 0.  1.
         22    1    1    2    0    0 -0.74766064186E+01  0.38386295272E+02  0.81650921641E+02  0.90533310517E+02  0.00000000000E+00 0. -1.
</event>
<event>
 6    1  0.2406404E-005  0.2416621E+03  0.7818608E-02  0.1226492E+00
          2   -1    0    0  502    0  0.00000000000E+00  0.00000000000E+00  0.53687386448E+03  0.53687386448E+03  0.00000000000E+00 0. -1.
          1   -1    0    0  501    0 -0.00000000000E+00 -0.00000000000E+00 -0.30210437960E+03  0.30210437960E+03  0.00000000000E+00 0. -1.
          2    1    1    2  501    0  0.37662215742E+02 -0.62719615583E+02 -0.12486253022E+03  0.14471642660E+03  0.00000000000E+00 0. -1.
          1    1    1    2  502    0 -0.43221125008E+02  0.28601632133E+03  0.32241172905E+03  0.43315438904E+03  0.00000000000E+00 0. -1.
         22    1    1    2    0    0  0.20199709945E+02  0.42685854890E+01  0.25445706338E+02  0.32767866500E+02  0.00000000000E+00 0. -1.
         22    1    1    2    0    0 -0.14640800680E+02 -0.22756529124E+03  0.11774579715E+02  0.22833956194E+03  0.00000000000E+00 0. -1.
</event>
<event>
 6    1  0.2406404E-005  0.1780422E+03  0.7818608E-02  0.1170362E+00
          2   -1    0    0  502    0  0.00000000000E+00  0.00000000000E+00  0.28312005119E+03  0.28312005119E+03  0.00000000000E+00 0. -1.
          1   -1    0    0  501    0 -0.00000000000E+00 -0.00000000000E+00 -0.12526149281E+03  0.12526149281E+03  0.00000000000E+00 0. -1.
          2    1    1    2  501    0  0.12805817236E+03  0.75944843986E+02  0.10235028019E+03  0.18067123371E+03  0.00000000000E+00 0. -1.
          1    1    1    2  502    0 -0.59613521575E+02 -0.54738337230E+02  0.21138811537E+02  0.83647515626E+02  0.00000000000E+00 0. -1.
         22    1    1    2    0    0  0.15083922011E+02  0.14858543841E+02  0.47625776319E+02  0.52120203360E+02  0.00000000000E+00 0. -1.
         22    1    1    2    0    0 -0.83528572800E+02 -0.36065050597E+02 -0.13256309673E+02  0.91942591299E+02  0.00000000000E+00 0. -1.
</event>
<event>
 6    1  0.2406404E-005  0.1003831E+03  0.7818608E-02  0.1279848E+00
          2   -1    0    0  502    0  0.00000000000E+00  0.00000000000E+00  0.42723484534E+03  0.42723484534E+03  0.00000000000E+00 0. -1.
          1   -1    0    0  501    0 -0.00000000000E+00 -0.00000000000E+00 -0.82082830243E+02  0.82082830243E+02  0.00000000000E+00 0. -1.
          2    1    1    2  501    0 -0.11234834647E+02 -0.25745553246E+02  0.77182018955E+02  0.82134761651E+02  0.00000000000E+00 0. -1.
          1    1    1    2  502    0  0.19777281390E+02  0.80864683972E+02 -0.39584230287E+02  0.92179982971E+02  0.00000000000E+00 0. -1.
         22    1    1    2    0    0  0.99115801047E+01  0.12580896090E+02 -0.32784265682E+01  0.16348285762E+02  0.00000000000E+00 0. -1.
         22    1    1    2    0    0 -0.18454026848E+02 -0.67700026816E+02  0.31083265300E+03  0.31865464520E+03  0.00000000000E+00 0. -1.
</event>
<event>
 6    1  0.2406404E-005  0.2872604E+03  0.7818608E-02  0.1121356E+00
          2   -1    0    0  502    0  0.00000000000E+00  0.00000000000E+00  0.38197294413E+02  0.38197294413E+02  0.00000000000E+00 0.  1.
          1   -1    0    0  501    0 -0.00000000000E+00 -0.00000000000E+00 -0.12257563481E+04  0.12257563481E+04  0.00000000000E+00 0.  1.
          2    1    1    2  501    0  0.92751829203E+02  0.55133771653E+02 -0.20230094649E+03  0.22927779559E+03  0.00000000000E+00 0.  1.
          1    1    1    2  502    0  0.86363653456E+02 -0.25806995748E+02 -0.19815980609E+03  0.21769701518E+03  0.00000000000E+00 0.  1.
         22    1    1    2    0    0  0.61546048451E+00  0.26601084357E+02 -0.55426503653E+02  0.61482467320E+02  0.00000000000E+00 0. -1.
         22    1    1    2    0    0 -0.17973094314E+03 -0.55927860262E+02 -0.73167179744E+03  0.75549636441E+03  0.00000000000E+00 0.  1.
</event>
<event>
 6    1  0.2406404E-005  0.9222752E+02  0.7818608E-02  0.1325063E+00
          2   -1    0    0  502    0  0.00000000000E+00  0.00000000000E+00  0.66709321091E+03  0.66709321091E+03  0.00000000000E+00 0. -1.
          1   -1    0    0  501    0 -0.00000000000E+00 -0.00000000000E+00 -0.50947403587E+02  0.50947403587E+02  0.00000000000E+00 0.  1.
          2    1    1    2  501    0  0.32259817926E+02  0.50510603656E+02  0.36553056373E+03  0.37041140635E+03  0.00000000000E+00 0. -1.
          1    1    1    2  502    0  0.13260374400E+02 -0.98666573670E+02  0.11423567883E+03  0.15152795322E+03  0.00000000000E+00 0.  1.
         22    1    1    2    0    0 -0.53316549466E+02  0.17211741181E+02 -0.12457222313E-01  0.56025874707E+02  0.00000000000E+00 0.  1.
         22    1    1    2    0    0  0.77963571403E+01  0.30944228833E+02  0.13639202199E+03  0.14007538022E+03  0.00000000000E+00 0. -1.
</event>
<event>
 6    1  0.2406404E-005  0.8433905E+02  0.7818608E-02  0.1419505E+00
          2   -1    0    0  502    0  0.00000000000E+00  0.00000000000E+00  0.22517102668E+03  0.22517102668E+03  0.00000000000E+00 0.  1.
          1   -1    0    0  501    0 -0.00000000000E+00 -0.00000000000E+00 -0.27258712563E+03  0.27258712563E+03  0.00000000000E+00 0. -1.
          2    1    1    2  501    0  0.13978844119E+03 -0.40368439161E+00  0.10021102347E+03  0.17199773393E+03  0.00000000000E+00 0.  1.
          1    1    1    2  502    0 -0.92735081764E+02 -0.22094992264E+02  0.32976709513E+02  0.10087342288E+03  0.00000000000E+00 0. -1.
         22    1    1    2    0    0 -0.52315430083E+02  0.32372787432E+02 -0.19624137286E+03  0.20565888751E+03  0.00000000000E+00 0. -1.
         22    1    1    2    0    0  0.52620706612E+01 -0.98741107765E+01  0.15637540916E+02  0.19228107998E+02  0.00000000000E+00 0. -1.
</event>
<event>
 6    1  0.2406404E-005  0.1186366E+03  0.7818608E-02  0.1292908E+00
          2   -1    0    0  502    0  0.00000000000E+00  0.00000000000E+00  0.83470934046E+03  0.83470934046E+03  0.00000000000E+00 0.  1.
          1   -1    0    0  501    0 -0.00000000000E+00 -0.00000000000E+00 -0.99933515228E+02  0.99933515228E+02  0.00000000000E+00 0. -1.
          2    1    1    2  501    0 -0.39246977880E+02  0.29960946293E+01  0.61313611054E+03  0.61439823559E+03  0.00000000000E+00 0.  1.
          1    1    1    2  502    0  0.13411249336E+01 -0.35685147922E+02 -0.75206699866E+02  0.83254285793E+02  0.00000000000E+00 0. -1.
         22    1    1    2    0    0  0.26991243282E+01 -0.10556638973E+02 -0.14654453251E+02  0.18261459379E+02  0.00000000000E+00 0.  1.
         22    1    1    2    0    0  0.35206728618E+02  0.43245692266E+02  0.21150086781E+03  0.21872887492E+03  0.00000000000E+00 0.  1.
</event>
<event>
 6    1  0.2406404E-005  0.1212896E+03  0.7818608E-02  0.1285025E+00
          2   -1    0    0  502    0  0.00000000000E+00  0.00000000000E+00  0.66794114209E+03  0.66794114209E+03  0.00000000000E+00 0.  1.
          1   -1    0    0  501    0 -0.00000000000E+00 -0.00000000000E+00 -0.82701013505E+02  0.82701013505E+02  0.00000000000E+00 0. -1.
          2    1    1    2  501    0  0.11246630263E+02 -0.27392485381E+02  0.40387901829E+03  0.40496308025E+03  0.00000000000E+00 0.  1.
          1    1    1    2  502    0  0.97847037379E+01 -0.37734284634E+02 -0.56537783408E+02  0.68674140816E+02  0.00000000000E+00 0. -1.
         22    1    1    2    0    0 -0.10601767314E+02  0.70877978570E+02  0.24997399186E+03  0.26004438452E+03  0.00000000000E+00 0.  1.
         22    1    1    2    0    0 -0.10429566687E+02 -0.57512085544E+01 -0.12075098156E+02  0.16960550009E+02  0.00000000000E+00 0. -1.
</event>
<event>
 6    1  0.2406404E-005  0.9674236E+02  0.7818608E-02  0.1291806E+00
          2   -1    0    0  502    0  0.00000000000E+00  0.00000000000E+00  0.40768105044E+02  0.40768105044E+02  0.00000000000E+00 0.  1.
          1   -1    0    0  501    0 -0.00000000000E+00 -0.00000000000E+00 -0.81005334302E+03  0.81005334302E+03  0.00000000000E+00 0. -1.
          2    1    1    2  501    0  0.12197598454E+02 -0.30743916053E+02 -0.22569643160E+02  0.40041960175E+02  0.00000000000E+00 0.  1.
          1    1    1    2  502    0  0.65783844060E+01  0.69326241256E+02 -0.64044856289E+03  0.64422338096E+03  0.00000000000E+00 0. -1.
         22    1    1    2    0    0 -0.32965200107E+02 -0.49470895783E+02 -0.66668008895E+00  0.59451815868E+02  0.00000000000E+00 0.  1.
         22    1    1    2    0    0  0.14189217247E+02  0.10888570580E+02 -0.10560035184E+03  0.10710429106E+03  0.00000000000E+00 0. -1.
</event>
<event>
 6    1  0.2406404E-005  0.3254281E+02  0.7818608E-02  0.1580055E+00
          2   -1    0    0  502    0  0.00000000000E+00  0.00000000000E+00  0.38348058260E+03  0.38348058260E+03  0.00000000000E+00 0. -1.
          1   -1    0    0  501    0 -0.00000000000E+00 -0.00000000000E+00 -0.43890845299E+02  0.43890845299E+02  0.00000000000E+00 0. -1.
          2    1    1    2  501    0 -0.53094303944E-01  0.28574564014E+02  0.20098512087E+03  0.20300622488E+03  0.00000000000E+00 0. -1.
          1    1    1    2  502    0  0.40542703264E+02 -0.21455221767E+02  0.29061821052E+02  0.54301259395E+02  0.00000000000E+00 0. -1.
         22    1    1    2    0    0 -0.19219291929E+02 -0.18104152515E+02 -0.23219319826E+02  0.35160749903E+02  0.00000000000E+00 0. -1.
         22    1    1    2    0    0 -0.21270317031E+02  0.10984810268E+02  0.13276211521E+03  0.13490319373E+03  0.00000000000E+00 0. -1.
</event>
<event>
 6    1  0.2406404E-005  0.5039997E+02  0.7818608E-02  0.1502952E+00
          2   -1    0    0  502    0  0.00000000000E+00  0.00000000000E+00  0.21555255305E+03  0.21555255305E+03  0.00000000000E+00 0.  1.
          1   -1    0    0  501    0 -0.00000000000E+00 -0.00000000000E+00 -0.66072700692E+02  0.66072700692E+02  0.00000000000E+00 0. -1.
          2    1    1    2  501    0 -0.19628870118E+02  0.21074539958E+02  0.10964408846E+03  0.11336337553E+03  0.00000000000E+00 0.  1.
          1    1    1    2  502    0  0.32794188938E+02 -0.55174838684E+01 -0.11964443874E+02  0.35341892614E+02  0.00000000000E+00 0. -1.
         22    1    1    2    0    0 -0.23529118779E+02  0.32611176621E+01  0.87822303022E+02  0.90978081025E+02  0.00000000000E+00 0.  1.
         22    1    1    2    0    0  0.10363799959E+02 -0.18818173752E+02 -0.36022095252E+02  0.41941904574E+02  0.00000000000E+00 0. -1.
</event>
<event>
 6    1  0.2406404E-005  0.1580470E+03  0.7818608E-02  0.1262349E+00
          2   -1    0    0  502    0  0.00000000000E+00  0.00000000000E+00  0.11577513868E+03  0.11577513868E+03  0.00000000000E+00 0.  1.
          1   -1    0    0  501    0 -0.00000000000E+00 -0.00000000000E+00 -0.60581905395E+03  0.60581905395E+03  0.00000000000E+00 0.  1.
          2    1    1    2  501    0 -0.23654210850E+02 -0.13545669477E+03  0.35603064885E+02  0.14204089580E+03  0.00000000000E+00 0.  1.
          1    1    1    2  502    0 -0.18903597037E+02  0.95065133157E+02 -0.29404120334E+03  0.30960451351E+03  0.00000000000E+00 0.  1.
         22    1    1    2    0    0  0.28756217458E+02 -0.21348902284E+02 -0.68564994867E+01  0.36465151260E+02  0.00000000000E+00 0.  1.
         22    1    1    2    0    0  0.13801590429E+02  0.61740463900E+02 -0.22474927732E+03  0.23348363206E+03  0.00000000000E+00 0.  1.
</event>
<event>
 6    1  0.2406404E-005  0.4395318E+02  0.7818608E-02  0.1552907E+00
          2   -1    0    0  502    0  0.00000000000E+00  0.00000000000E+00  0.45701530225E+03  0.45701530225E+03  0.00000000000E+00 0.  1.
          1   -1    0    0  501    0 -0.00000000000E+00 -0.00000000000E+00 -0.25916205342E+02  0.25916205342E+02  0.00000000000E+00 0.  1.
          2    1    1    2  501    0  0.19523371874E+02 -0.30670226149E+02  0.12388935021E+03  0.12911388739E+03  0.00000000000E+00 0.  1.
          1    1    1    2  502    0  0.31478916477E+02 -0.15801801420E+02  0.54418283782E+02  0.64822594213E+02  0.00000000000E+00 0.  1.
         22    1    1    2    0    0 -0.40167854236E+02  0.33733991983E+02  0.26380641538E+03  0.26897074845E+03  0.00000000000E+00 0.  1.
         22    1    1    2    0    0 -0.10834434116E+02  0.12738035587E+02 -0.11014952460E+02  0.20024277538E+02  0.00000000000E+00 0. -1.
</event>
<event>
 6    1  0.2406404E-005  0.8053546E+02  0.7818608E-02  0.1353072E+00
          2   -1    0    0  502    0  0.00000000000E+00  0.00000000000E+00  0.41426952714E+03  0.41426952714E+03  0.00000000000E+00 0.  1.
          1   -1    0    0  501    0 -0.00000000000E+00 -0.00000000000E+00 -0.51591030131E+02  0.51591030131E+02  0.00000000000E+00 0.  1.
          2    1    1    2  501    0  0.19781681093E+02 -0.16839718056E+02  0.27115522546E+03  0.27239685627E+03  0.00000000000E+00 0.  1.
          1    1    1    2  502    0  0.19732838411E+02  0.15435162428E+02 -0.13208816481E+02  0.28321405046E+02  0.00000000000E+00 0.  1.
         22    1    1    2    0    0 -0.34103315885E+02 -0.24479721946E+02  0.12497671694E+03  0.13183881340E+03  0.00000000000E+00 0.  1.
         22    1    1    2    0    0 -0.54112036197E+01  0.25884277574E+02 -0.20244628917E+02  0.33303482553E+02  0.00000000000E+00 0.  1.
</event>
<event>
 6    1  0.2406404E-005  0.9582607E+02  0.7818608E-02  0.1290524E+00
          2   -1    0    0  502    0  0.00000000000E+00  0.00000000000E+00  0.49588294473E+03  0.49588294473E+03  0.00000000000E+00 0. -1.
          1   -1    0    0  501    0 -0.00000000000E+00 -0.00000000000E+00 -0.20051251731E+02  0.20051251731E+02  0.00000000000E+00 0. -1.
          2    1    1    2  501    0 -0.34100570621E+02  0.22743521673E+02  0.17819785072E+03  0.18285128027E+03  0.00000000000E+00 0. -1.
          1    1    1    2  502    0  0.21850460338E+02 -0.44381800540E+01  0.21263689782E+02  0.30810461897E+02  0.00000000000E+00 0. -1.
         22    1    1    2    0    0  0.17337801556E+02 -0.68488800172E+02  0.13878221653E+03  0.15572995453E+03  0.00000000000E+00 0. -1.
         22    1    1    2    0    0 -0.50876912727E+01  0.50183458553E+02  0.13758793596E+03  0.14654249976E+03  0.00000000000E+00 0. -1.
</event>
<event>
 6    1  0.2406404E-005  0.8868481E+02  0.7818608E-02  0.1318616E+00
          2   -1    0    0  502    0  0.00000000000E+00  0.00000000000E+00  0.13653621849E+03  0.13653621849E+03  0.00000000000E+00 0. -1.
          1   -1    0    0  501    0 -0.00000000000E+00 -0.00000000000E+00 -0.30980832817E+03  0.30980832817E+03  0.00000000000E+00 0. -1.
          2    1    1    2  501    0 -0.19190198391E+02 -0.87559259002E+01  0.30422121892E+00  0.21095556481E+02  0.00000000000E+00 0. -1.
          1    1    1    2  502    0  0.48695199205E+02  0.27794321296E+02 -0.26193919728E+03  0.26787289858E+03  0.00000000000E+00 0. -1.
         22    1    1    2    0    0 -0.36117171717E+02 -0.29460898231E+02  0.11713539555E+03  0.12606782106E+03  0.00000000000E+00 0. -1.
         22    1    1    2    0    0  0.66121709034E+01  0.10422502835E+02 -0.28772529158E+02  0.31308270529E+02  0.00000000000E+00 0. -1.
</event>
<event>
 6    1  0.2406404E-005  0.8500308E+02  0.7818608E-02  0.1329239E+00
          2   -1    0    0  502    0  0.00000000000E+00  0.00000000000E+00  0.67546702315E+03  0.67546702315E+03  0.00000000000E+00 0. -1.
          1   -1    0    0  501    0 -0.00000000000E+00 -0.00000000000E+00 -0.20753274759E+02  0.20753274759E+02  0.00000000000E+00 0. -1.
          2    1    1    2  501    0 -0.29326190446E+02  0.23323471542E+01  0.28850526668E+03  0.29000130032E+03  0.00000000000E+00 0. -1.
          1    1    1    2  502    0 -0.25800034302E+02  0.20766657644E+02  0.38792961383E+02  0.51007741496E+02  0.00000000000E+00 0. -1.
         22    1    1    2    0    0  0.33591754042E+02 -0.41474270050E+02  0.32199497479E+03  0.32638824244E+03  0.00000000000E+00 0. -1.
         22    1    1    2    0    0  0.21534470706E+02  0.18375265251E+02  0.54205455423E+01  0.28823013646E+02  0.00000000000E+00 0. -1.
</event>
<event>
 6    1  0.2406404E-005  0.4197623E+02  0.7818608E-02  0.1555308E+00
          2   -1    0    0  502    0  0.00000000000E+00  0.00000000000E+00  0.11976899712E+03  0.11976899712E+03  0.00000000000E+00 0. -1.
          1   -1    0    0  501    0 -0.00000000000E+00 -0.00000000000E+00 -0.11887886734E+03  0.11887886734E+03  0.00000000000E+00 0.  1.
          2    1    1    2  501    0 -0.23056807561E+02  0.31830983241E+01  0.33633249037E+02  0.40901637262E+02  0.00000000000E+00 0. -1.
          1    1    1    2  502    0  0.25446792204E+02 -0.59647124806E+01 -0.60335855123E+02  0.65753573605E+02  0.00000000000E+00 0.  1.
         22    1    1    2    0    0  0.15594228429E+02  0.75991209228E+01 -0.49621043797E+02  0.52565907075E+02  0.00000000000E+00 0.  1.
         22    1    1    2    0    0 -0.17984213071E+02 -0.48175067663E+01  0.77213779663E+02  0.79426746509E+02  0.00000000000E+00 0. -1.
</event>
<event>
 6    1  0.2406404E-005  0.1371045E+03  0.7818608E-02  0.1223836E+00
          2   -1    0    0  502    0  0.00000000000E+00  0.00000000000E+00  0.41195848189E+03  0.41195848189E+03  0.00000000000E+00 0.  1.
          1   -1    0    0  501    0 -0.00000000000E+00 -0.00000000000E+00 -0.49722792938E+02  0.49722792938E+02  0.00000000000E+00 0.  1.
          2    1    1    2  501    0  0.52514042102E+02 -0.57108968594E+02  0.19521860332E+03  0.21007013590E+03  0.00000000000E+00 0.  1.
          1    1    1    2  502    0  0.25019034561E+02  0.23629967871E+02  0.43054296403E+02  0.55118054308E+02  0.00000000000E+00 0.  1.
         22    1    1    2    0    0 -0.65784295151E+02  0.72792663775E+02  0.45935030446E+02  0.10833453932E+03  0.00000000000E+00 0.  1.
         22    1    1    2    0    0 -0.11748781513E+02 -0.39313663052E+02  0.78027758778E+02  0.88158545301E+02  0.00000000000E+00 0.  1.
</event>
<event>
 6    1  0.2406404E-005  0.6424927E+02  0.7818608E-02  0.1385601E+00
          2   -1    0    0  502    0  0.00000000000E+00  0.00000000000E+00  0.11794101934E+03  0.11794101934E+03  0.00000000000E+00 0. -1.
          1   -1    0    0  501    0 -0.00000000000E+00 -0.00000000000E+00 -0.37442615274E+03  0.37442615274E+03  0.00000000000E+00 0. -1.
          2    1    1    2  501    0  0.24396508999E+02  0.25523365808E+02  0.62876172041E+02  0.72111336584E+02  0.00000000000E+00 0. -1.
          1    1    1    2  502    0 -0.12927723435E+02 -0.43279925046E+02 -0.28038278949E+03  0.28399786370E+03  0.00000000000E+00 0. -1.
         22    1    1    2    0    0 -0.23322707849E+01  0.28699635654E+02  0.43714230394E+02  0.52345415393E+02  0.00000000000E+00 0. -1.
         22    1    1    2    0    0 -0.91365147787E+01 -0.10943076416E+02 -0.82692746347E+02  0.83912556403E+02  0.00000000000E+00 0. -1.
</event>
<event>
 6    1  0.2406404E-005  0.7919518E+02  0.7818608E-02  0.1377921E+00
          2   -1    0    0  502    0  0.00000000000E+00  0.00000000000E+00  0.33271116732E+03  0.33271116732E+03  0.00000000000E+00 0. -1.
          1   -1    0    0  501    0 -0.00000000000E+00 -0.00000000000E+00 -0.78516392695E+02  0.78516392695E+02  0.00000000000E+00 0.  1.
          2    1    1    2  501    0 -0.18676839300E+02  0.49139689538E+02  0.16169876014E+03  0.17002947523E+03  0.00000000000E+00 0. -1.
          1    1    1    2  502    0 -0.35904006541E+00 -0.65227488735E+02 -0.22300239158E+02  0.68935149692E+02  0.00000000000E+00 0.  1.
         22    1    1    2    0    0 -0.16539220424E+02  0.21390669936E+02  0.13031437611E+03  0.13308998157E+03  0.00000000000E+00 0. -1.
         22    1    1    2    0    0  0.35575099790E+02 -0.53028707378E+01 -0.15518122472E+02  0.39172953529E+02  0.00000000000E+00 0. -1.
</event>
<event>
 6    1  0.2406404E-005  0.1262067E+03  0.7818608E-02  0.1240283E+00
          2   -1    0    0  502    0  0.00000000000E+00  0.00000000000E+00  0.26204741314E+02  0.26204741314E+02  0.00000000000E+00 0. -1.
          1   -1    0    0  501    0 -0.00000000000E+00 -0.00000000000E+00 -0.10346766300E+04  0.10346766300E+04  0.00000000000E+00 0. -1.
          2    1    1    2  501    0 -0.26285183028E+00  0.33780655939E+02 -0.73690276588E+03  0.73767668268E+03  0.00000000000E+00 0. -1.
          1    1    1    2  502    0  0.20398496797E+02 -0.41785027246E+02 -0.73096250589E+02  0.86632263180E+02  0.00000000000E+00 0. -1.
         22    1    1    2    0    0  0.26251707695E+02  0.43693106160E+02 -0.15638669098E+03  0.16448415364E+03  0.00000000000E+00 0. -1.
         22    1    1    2    0    0 -0.46387352662E+02 -0.35688734853E+02 -0.42086181238E+02  0.72088271817E+02  0.00000000000E+00 0. -1.
</event>
<event>
 6    1  0.2406404E-005  0.6296284E+02  0.7818608E-02  0.1387914E+00
          2   -1    0    0  502    0  0.00000000000E+00  0.00000000000E+00  0.22482220075E+03  0.22482220075E+03  0.00000000000E+00 0. -1.
          1   -1    0    0  501    0 -0.00000000000E+00 -0.00000000000E+00 -0.15118548452E+03  0.15118548452E+03  0.00000000000E+00 0.  1.
          2    1    1    2  501    0 -0.21652248274E+02 -0.36539280055E+02  0.11768153450E+03  0.12511147991E+03  0.00000000000E+00 0. -1.
          1    1    1    2  502    0  0.29608408999E+02  0.39140092868E+02 -0.10317699880E+03  0.11425453091E+03  0.00000000000E+00 0.  1.
         22    1    1    2    0    0 -0.13085027512E+02 -0.12147899289E+02  0.96292206082E+02  0.97933540497E+02  0.00000000000E+00 0. -1.
         22    1    1    2    0    0  0.51288667872E+01  0.95470864766E+01 -0.37160025557E+02  0.38708133952E+02  0.00000000000E+00 0.  1.
</event>
<event>
 6    1  0.2406404E-005  0.1089585E+03  0.7818608E-02  0.1313771E+00
          2   -1    0    0  502    0  0.00000000000E+00  0.00000000000E+00  0.20535650154E+03  0.20535650154E+03  0.00000000000E+00 0.  1.
          1   -1    0    0  501    0 -0.00000000000E+00 -0.00000000000E+00 -0.63916995996E+02  0.63916995996E+02  0.00000000000E+00 0.  1.
          2    1    1    2  501    0  0.15228177607E+02  0.24717705657E+02  0.93359103975E+02  0.97769037333E+02  0.00000000000E+00 0.  1.
          1    1    1    2  502    0 -0.13745399753E+02  0.23690449414E+02  0.28218347290E+02  0.39324909810E+02  0.00000000000E+00 0.  1.
         22    1    1    2    0    0 -0.79034412612E+01  0.85212153746E+01  0.60713616328E+02  0.61816006850E+02  0.00000000000E+00 0.  1.
         22    1    1    2    0    0  0.64206634074E+01 -0.56929370445E+02 -0.40851562049E+02  0.70363543542E+02  0.00000000000E+00 0.  1.
</event>
<event>
 6    1  0.2406404E-005  0.8340600E+02  0.7818608E-02  0.1328299E+00
          2   -1    0    0  502    0  0.00000000000E+00  0.00000000000E+00  0.79903934983E+02  0.79903934983E+02  0.00000000000E+00 0.  1.
          1   -1    0    0  501    0 -0.00000000000E+00 -0.00000000000E+00 -0.11417511649E+03  0.11417511649E+03  0.00000000000E+00 0. -1.
          2    1    1    2  501    0  0.22595488379E+02  0.29588315485E+02 -0.11037700733E+02  0.38831113116E+02  0.00000000000E+00 0.  1.
          1    1    1    2  502    0  0.66885410013E+01 -0.20583240692E+02 -0.13398217263E+01  0.21684130150E+02  0.00000000000E+00 0. -1.
         22    1    1    2    0    0 -0.24764509943E+02 -0.27162751011E+02 -0.71582617813E+02  0.80468423423E+02  0.00000000000E+00 0. -1.
         22    1    1    2    0    0 -0.45195194374E+01  0.18157676218E+02  0.49688958769E+02  0.53095384782E+02  0.00000000000E+00 0.  1.
</event>
<event>
 6    1  0.2406404E-005  0.6609839E+02  0.7818608E-02  0.1374802E+00
          2   -1    0    0  502    0  0.00000000000E+00  0.00000000000E+00  0.11776129002E+03  0.11776129002E+03  0.00000000000E+00 0.  1.
          1   -1    0    0  501    0 -0.00000000000E+00 -0.00000000000E+00 -0.32317395930E+03  0.32317395930E+03  0.00000000000E+00 0.  1.
          2    1    1    2  501    0 -0.17543990665E+01  0.49976699311E+02  0.72428640164E+02  0.88015091354E+02  0.00000000000E+00 0.  1.
          1    1    1    2  502    0 -0.43555401372E+01 -0.42990983426E+02 -0.20754382051E+03  0.21199441695E+03  0.00000000000E+00 0.  1.
         22    1    1    2    0    0 -0.34381040854E+01  0.13781677778E+02  0.32578924908E+02  0.35540702726E+02  0.00000000000E+00 0. -1.
         22    1    1    2    0    0  0.95480432891E+01 -0.20767393662E+02 -0.10287641384E+03  0.10538503829E+03  0.00000000000E+00 0. -1.
</event>
<event>
 6    1  0.2406404E-005  0.3048285E+03  0.7818608E-02  0.1182440E+00
          2   -1    0    0  502    0  0.00000000000E+00  0.00000000000E+00  0.24722585138E+03  0.24722585138E+03  0.00000000000E+00 0. -1.
          1   -1    0    0  501    0 -0.00000000000E+00 -0.00000000000E+00 -0.67401314068E+03  0.67401314068E+03  0.00000000000E+00 0. -1.
          2    1    1    2  501    0 -0.11902409644E+03 -0.27997213029E+03 -0.46082947287E+02  0.30769265072E+03  0.00000000000E+00 0. -1.
          1    1    1    2  502    0  0.11963847577E+03  0.24913932145E+03 -0.39784112661E+03  0.48441854671E+03  0.00000000000E+00 0. -1.
         22    1    1    2    0    0 -0.22374663906E+02  0.14376648072E+02  0.67112602285E+02  0.72190130767E+02  0.00000000000E+00 0. -1.
         22    1    1    2    0    0  0.21760284575E+02  0.16456160774E+02 -0.49975817690E+02  0.56937663861E+02  0.00000000000E+00 0.  1.
</event>
<event>
 6    1  0.2406404E-005  0.9348258E+02  0.7818608E-02  0.1295066E+00
          2   -1    0    0  502    0  0.00000000000E+00  0.00000000000E+00  0.33496903398E+03  0.33496903398E+03  0.00000000000E+00 0.  1.
          1   -1    0    0  501    0 -0.00000000000E+00 -0.00000000000E+00 -0.47949693503E+02  0.47949693503E+02  0.00000000000E+00 0. -1.
          2    1    1    2  501    0 -0.41250176677E+02  0.31258854141E+02  0.12006457945E+03  0.13074477533E+03  0.00000000000E+00 0.  1.
          1    1    1    2  502    0  0.36202476152E+02 -0.42977046320E+02  0.24136657962E+02  0.61157371162E+02  0.00000000000E+00 0. -1.
         22    1    1    2    0    0 -0.18314257708E+02  0.33229326033E+02  0.15302571226E+03  0.15765934402E+03  0.00000000000E+00 0.  1.
         22    1    1    2    0    0  0.23361958233E+02 -0.21511133854E+02 -0.10207609202E+02  0.33357236963E+02  0.00000000000E+00 0.  1.
</event>
<event>
 6    1  0.3455117E-005  0.1800521E+03  0.7818608E-02  0.1169510E+00
          2   -1    0    0  502    0  0.00000000000E+00  0.00000000000E+00  0.10329285863E+04  0.10329285863E+04  0.00000000000E+00 0. -1.
          1   -1    0    0  501    0 -0.00000000000E+00 -0.00000000000E+00 -0.27904027916E+03  0.27904027916E+03  0.00000000000E+00 0. -1.
          2    1    1    2  501    0  0.12906111136E+03 -0.28444542568E+02  0.75697789052E+03  0.76842786858E+03  0.00000000000E+00 0. -1.
          1    1    1    2  502    0 -0.16015868404E+03  0.11412666869E+02 -0.22970624486E+03  0.28026061437E+03  0.00000000000E+00 0. -1.
         22    1    1    2    0    0 -0.10404581822E+02 -0.63219166999E+01 -0.13678495268E+02  0.18311831870E+02  0.00000000000E+00 0.  1.
         22    1    1    2    0    0  0.41502154499E+02  0.23353792399E+02  0.24029515672E+03  0.24496855062E+03  0.00000000000E+00 0. -1.
</event>
<event>
 6    1  0.2406404E-005  0.1138304E+03  0.7818608E-02  0.1296609E+00
          2   -1    0    0  502    0  0.00000000000E+00  0.00000000000E+00  0.13845045835E+03  0.13845045835E+03  0.00000000000E+00 0. -1.
          1   -1    0    0  501    0 -0.00000000000E+00 -0.00000000000E+00 -0.11756208005E+03  0.11756208005E+03  0.00000000000E+00 0. -1.
          2    1    1    2  501    0 -0.20552388617E+02 -0.11313004657E+02 -0.17472835269E+02  0.29252089235E+02  0.00000000000E+00 0. -1.
          1    1    1    2  502    0  0.28306558228E+02  0.24303022857E+02 -0.56141277454E+02  0.67407278486E+02  0.00000000000E+00 0. -1.
         22    1    1    2    0    0 -0.18839082644E+02 -0.16168172945E+02  0.12463816123E+03  0.12708655352E+03  0.00000000000E+00 0. -1.
         22    1    1    2    0    0  0.11084913034E+02  0.31781547455E+01 -0.30135670206E+02  0.32266617165E+02  0.00000000000E+00 0.  1.
</event>
<event>
 6    1  0.2406404E-005  0.1694552E+03  0.7818608E-02  0.1317336E+00
          2   -1    0    0  502    0  0.00000000000E+00  0.00000000000E+00  0.31011257833E+03  0.31011257833E+03  0.00000000000E+00 0. -1.
          1   -1    0    0  501    0 -0.00000000000E+00 -0.00000000000E+00 -0.92206333978E+03  0.92206333978E+03  0.00000000000E+00 0. -1.
          2    1    1    2  501    0  0.32008651068E+02  0.19550025460E+03  0.17862067989E+03  0.26674004307E+03  0.00000000000E+00 0. -1.
          1    1    1    2  502    0 -0.10520292762E+03 -0.55994945802E+02 -0.75111455201E+03  0.76051046027E+03  0.00000000000E+00 0. -1.
         22    1    1    2    0    0 -0.67444103779E-01 -0.10366876889E+02 -0.54699048845E+02  0.55672817692E+02  0.00000000000E+00 0.  1.
         22    1    1    2    0    0  0.73261720654E+02 -0.12913843191E+03  0.15242159523E+02  0.14925259708E+03  0.00000000000E+00 0. -1.
</event>
<event>
 6    1  0.2406404E-005  0.2196834E+03  0.7818608E-02  0.1147764E+00
          2   -1    0    0  502    0  0.00000000000E+00  0.00000000000E+00  0.14087469784E+04  0.14087469784E+04  0.00000000000E+00 0. -1.
          1   -1    0    0  501    0 -0.00000000000E+00 -0.00000000000E+00 -0.49623240204E+02  0.49623240204E+02  0.00000000000E+00 0. -1.
          2    1    1    2  501    0  0.12894720768E+03 -0.15971955803E+01  0.10208921658E+03  0.16447535239E+03  0.00000000000E+00 0. -1.
          1    1    1    2  502    0 -0.61667751574E+02 -0.23759853946E+02  0.95885876847E+03  0.96113348714E+03  0.00000000000E+00 0. -1.
         22    1    1    2    0    0  0.23074627728E+02 -0.16745370323E+02  0.14305915699E+02  0.31898355695E+02  0.00000000000E+00 0.  1.
         22    1    1    2    0    0 -0.90354083833E+02  0.42102419849E+02  0.28386983749E+03  0.30086302342E+03  0.00000000000E+00 0.  1.
</event>
<event>
 6    1  0.2406404E-005  0.6803773E+02  0.7818608E-02  0.1438595E+00
          2   -1    0    0  502    0  0.00000000000E+00  0.00000000000E+00  0.13191502366E+03  0.13191502366E+03  0.00000000000E+00 0. -1.
          1   -1    0    0  501    0 -0.00000000000E+00 -0.00000000000E+00 -0.10693539429E+03  0.10693539429E+03  0.00000000000E+00 0. -1.
          2    1    1    2  501    0 -0.27119279291E+02  0.55013102919E+01  0.44725474748E+02  0.52593610026E+02  0.00000000000E+00 0. -1.
          1    1    1    2  502    0  0.43354108604E+02 -0.25029329142E+02 -0.23237668902E+02  0.55190898762E+02  0.00000000000E+00 0. -1.
         22    1    1    2    0    0 -0.37626541856E+02  0.24415506767E+02  0.57409512275E+02  0.72854140050E+02  0.00000000000E+00 0. -1.
         22    1    1    2    0    0  0.21391712543E+02 -0.48874879173E+01 -0.53917688748E+02  0.58211769116E+02  0.00000000000E+00 0.  1.
</event>
<event>
 6    1  0.2406404E-005  0.7793611E+02  0.7818608E-02  0.1384231E+00
          2   -1    0    0  502    0  0.00000000000E+00  0.00000000000E+00  0.31165713627E+02  0.31165713627E+02  0.00000000000E+00 0.  1.
          1   -1    0    0  501    0 -0.00000000000E+00 -0.00000000000E+00 -0.45356122399E+03  0.45356122399E+03  0.00000000000E+00 0.  1.
          2    1    1    2  501    0 -0.12468554896E+02 -0.19512586264E+02 -0.19256744863E+01  0.23236051862E+02  0.00000000000E+00 0.  1.
          1    1    1    2  502    0  0.16646575475E+02  0.55252859074E+02 -0.18466335710E+03  0.19346974535E+03  0.00000000000E+00 0.  1.
         22    1    1    2    0    0  0.32550544084E+02  0.10006635074E+02 -0.19149813879E+03  0.19450246226E+03  0.00000000000E+00 0.  1.
         22    1    1    2    0    0 -0.36728564663E+02 -0.45746907884E+02 -0.44308339982E+02  0.73518678138E+02  0.00000000000E+00 0.  1.
</event>
<event>
 6    1  0.2406404E-005  0.6926827E+02  0.7818608E-02  0.1446278E+00
          2   -1    0    0  502    0  0.00000000000E+00  0.00000000000E+00  0.11195288601E+03  0.11195288601E+03  0.00000000000E+00 0.  1.
          1   -1    0    0  501    0 -0.00000000000E+00 -0.00000000000E+00 -0.33156572637E+03  0.33156572637E+03  0.00000000000E+00 0. -1.
          2    1    1    2  501    0 -0.12935501421E+02  0.45046583089E+02  0.53011211196E+02  0.70758111602E+02  0.00000000000E+00 0.  1.
          1    1    1    2  502    0  0.60380508742E+01 -0.58261597715E+02 -0.23683463270E+03  0.24397031597E+03  0.00000000000E+00 0. -1.
         22    1    1    2    0    0  0.17909420339E+02 -0.48166777439E+01 -0.78755796386E+02  0.80909969632E+02  0.00000000000E+00 0. -1.
         22    1    1    2    0    0 -0.11011969792E+02  0.18031692370E+02  0.42966377523E+02  0.47880215182E+02  0.00000000000E+00 0.  1.
</event>
<event>
 6    1  0.2406404E-005  0.9377940E+02  0.7818608E-02  0.1296910E+00
          2   -1    0    0  502    0  0.00000000000E+00  0.00000000000E+00  0.29615166709E+03  0.29615166709E+03  0.00000000000E+00 0.  1.
          1   -1    0    0  501    0 -0.00000000000E+00 -0.00000000000E+00 -0.49662696329E+02  0.49662696329E+02  0.00000000000E+00 0.  1.
          2    1    1    2  501    0  0.43252257069E+02 -0.27293874710E+01  0.15837194169E+03  0.16419463819E+03  0.00000000000E+00 0.  1.
          1    1    1    2  502    0 -0.17853611290E+02 -0.18836465528E+02  0.13391685315E+02  0.29204470638E+02  0.00000000000E+00 0.  1.
         22    1    1    2    0    0  0.33478315092E+02  0.30707776621E+02  0.80623645356E+02  0.92541543735E+02  0.00000000000E+00 0. -1.
         22    1    1    2    0    0 -0.58876960871E+02 -0.91419236216E+01 -0.58983016022E+01  0.59873710848E+02  0.00000000000E+00 0.  1.
</event>
<event>
 6    1  0.2406404E-005  0.1045362E+03  0.7818608E-02  0.1273857E+00
          2   -1    0    0  502    0  0.00000000000E+00  0.00000000000E+00  0.13189719678E+02  0.13189719678E+02  0.00000000000E+00 0. -1.
          1   -1    0    0  501    0 -0.00000000000E+00 -0.00000000000E+00 -0.82347134839E+03  0.82347134839E+03  0.00000000000E+00 0. -1.
          2    1    1    2  501    0 -0.33799016511E+02  0.20710498192E+02 -0.15079716999E+03  0.15592012292E+03  0.00000000000E+00 0. -1.
          1    1    1    2  502    0  0.38211879454E+02 -0.91550789474E+01 -0.16047179865E+03  0.16521247339E+03  0.00000000000E+00 0. -1.
         22    1    1    2    0    0  0.35147893540E+02 -0.53934332128E+02 -0.34522904148E+03  0.35117997905E+03  0.00000000000E+00 0. -1.
         22    1    1    2    0    0 -0.39560756482E+02  0.42378912884E+02 -0.15378361858E+03  0.16434849270E+03  0.00000000000E+00 0. -1.
</event>
<event>
 6    1  0.2406404E-005  0.9428449E+02  0.7818608E-02  0.1303482E+00
          2   -1    0    0  502    0  0.00000000000E+00  0.00000000000E+00  0.12877226169E+04  0.12877226169E+04  0.00000000000E+00 0. -1.
          1   -1    0    0  501    0 -0.00000000000E+00 -0.00000000000E+00 -0.94818246458E+02  0.94818246458E+02  0.00000000000E+00 0. -1.
          2    1    1    2  501    0 -0.67004841651E+02  0.98057455588E+02  0.99303735646E+03  0.10001140459E+04  0.00000000000E+00 0. -1.
          1    1    1    2  502    0 -0.44323900464E+01 -0.82367513074E+02 -0.47822444618E+02  0.95346942797E+02  0.00000000000E+00 0. -1.
         22    1    1    2    0    0 -0.57007305001E+01 -0.95792374300E+01 -0.11839223558E+02  0.16261221739E+02  0.00000000000E+00 0. -1.
         22    1    1    2    0    0  0.77137962198E+02 -0.61107050838E+01  0.25952868213E+03  0.27081865293E+03  0.00000000000E+00 0. -1.
</event>
<event>
 6    1  0.2406404E-005  0.5373802E+02  0.7818608E-02  0.1473449E+00
          2   -1    0    0  502    0  0.00000000000E+00  0.00000000000E+00  0.49050694345E+02  0.49050694345E+02  0.00000000000E+00 0. -1.
          1   -1    0    0  501    0 -0.00000000000E+00 -0.00000000000E+00 -0.43335176214E+03  0.43335176214E+03  0.00000000000E+00 0. -1.
          2    1    1    2  501    0  0.74809437074E+02 -0.53485746563E+02 -0.13146153032E+03  0.16043475595E+03  0.00000000000E+00 0. -1.
          1    1    1    2  502    0 -0.50337978475E+02  0.52851657067E+02 -0.78419383671E+02  0.10712987196E+03  0.00000000000E+00 0. -1.
         22    1    1    2    0    0  0.90290545169E+01  0.15354888446E+02  0.14150669716E+02  0.22749458852E+02  0.00000000000E+00 0. -1.
         22    1    1    2    0    0 -0.33500513116E+02 -0.14720798950E+02 -0.18857082351E+03  0.19208836972E+03  0.00000000000E+00 0. -1.
</event>
<event>
 6    1  0.2406404E-005  0.1056535E+03  0.7818608E-02  0.1290025E+00
          2   -1    0    0  502    0  0.00000000000E+00  0.00000000000E+00  0.47096802699E+03  0.47096802699E+03  0.00000000000E+00 0. -1.
          1   -1    0    0  501    0 -0.00000000000E+00 -0.00000000000E+00 -0.50031919595E+02  0.50031919595E+02  0.00000000000E+00 0. -1.
          2    1    1    2  501    0 -0.36306759871E+02  0.53171432537E-01  0.84568634091E+02  0.92032806714E+02  0.00000000000E+00 0. -1.
          1    1    1    2  502    0  0.22677063349E+02  0.50004981740E+02 -0.99094299285E+01  0.55793764907E+02  0.00000000000E+00 0. -1.
         22    1    1    2    0    0  0.20391594137E+01 -0.60360766467E+02  0.35162154621E+03  0.35677064349E+03  0.00000000000E+00 0. -1.
         22    1    1    2    0    0  0.11590537108E+02  0.10302613294E+02 -0.53446429770E+01  0.16402731471E+02  0.00000000000E+00 0. -1.
</event>
<event>
 6    1  0.2406404E-005  0.1201105E+03  0.7818608E-02  0.1284316E+00
          2   -1    0    0  502    0  0.00000000000E+00  0.00000000000E+00  0.23461279121E+03  0.23461279121E+03  0.00000000000E+00 0. -1.
          1   -1    0    0  501    0 -0.00000000000E+00 -0.00000000000E+00 -0.42129955074E+03  0.42129955074E+03  0.00000000000E+00 0. -1.
          2    1    1    2  501    0  0.96808108340E+02  0.56130602500E+02  0.18083736561E+03  0.21266077960E+03  0.00000000000E+00 0. -1.
          1    1    1    2  502    0 -0.85042717919E+02 -0.13566833430E+02 -0.24433088291E+03  0.25906351188E+03  0.00000000000E+00 0. -1.
         22    1    1    2    0    0 -0.18560070032E+02 -0.50151216602E+02 -0.14800384392E+03  0.15736822596E+03  0.00000000000E+00 0. -1.
         22    1    1    2    0    0  0.67946796114E+01  0.75874475322E+01  0.24810601695E+02  0.26819824525E+02  0.00000000000E+00 0. -1.
</event>
<event>
 6    1  0.2406404E-005  0.3253719E+02  0.7818608E-02  0.1630107E+00
          2   -1    0    0  502    0  0.00000000000E+00  0.00000000000E+00  0.98161067306E+02  0.98161067306E+02  0.00000000000E+00 0. -1.
          1   -1    0    0  501    0 -0.00000000000E+00 -0.00000000000E+00 -0.52982739192E+03  0.52982739192E+03  0.00000000000E+00 0. -1.
          2    1    1    2  501    0 -0.44783727266E+02 -0.19174541730E+02 -0.35429595787E+01  0.48844629602E+02  0.00000000000E+00 0. -1.
          1    1    1    2  502    0  0.37959250560E+02 -0.10441593405E+02 -0.44661135924E+03  0.44834321426E+03  0.00000000000E+00 0. -1.
         22    1    1    2    0    0 -0.21612376893E+01  0.22736580686E+02  0.72294777074E+02  0.75816606636E+02  0.00000000000E+00 0. -1.
         22    1    1    2    0    0  0.89857143951E+01  0.68795544487E+01 -0.53806782869E+02  0.54984008724E+02  0.00000000000E+00 0. -1.
</event>
<event>
 6    1  0.2406404E-005  0.1621780E+03  0.7818608E-02  0.1193378E+00
          2   -1    0    0  502    0  0.00000000000E+00  0.00000000000E+00  0.14165843942E+04  0.14165843942E+04  0.00000000000E+00 0. -1.
          1   -1    0    0  501    0 -0.00000000000E+00 -0.00000000000E+00 -0.69520854397E+02  0.69520854397E+02  0.00000000000E+00 0. -1.
          2    1    1    2  501    0  0.11214993808E+03 -0.53483182232E+02  0.12472254234E+04  0.12533991049E+04  0.00000000000E+00 0. -1.
          1    1    1    2  502    0 -0.47531260269E+00  0.27749734962E+02 -0.13846238148E+02  0.31015996250E+02  0.00000000000E+00 0. -1.
         22    1    1    2    0    0 -0.12154166765E+03  0.32886404019E+02  0.47787255032E+02  0.13467558905E+03  0.00000000000E+00 0. -1.
         22    1    1    2    0    0  0.98670421723E+01 -0.71529567488E+01  0.65897099546E+02  0.67014558419E+02  0.00000000000E+00 0. -1.
</event>
<event>
 6    1  0.2406404E-005  0.1839034E+03  0.7818608E-02  0.1166908E+00
          2   -1    0    0  502    0  0.00000000000E+00  0.00000000000E+00  0.59879622069E+03  0.59879622069E+03  0.00000000000E+00 0. -1.
          1   -1    0    0  501    0 -0.00000000000E+00 -0.00000000000E+00 -0.62520445208E+02  0.62520445208E+02  0.00000000000E+00 0.  1.
          2    1    1    2  501    0 -0.11458997526E+03  0.79831961244E+02  0.29789410730E+03  0.32900593251E+03  0.00000000000E+00 0. -1.
          1    1    1    2  502    0  0.64547257591E+02 -0.69915351626E+02  0.12099774593E+03  0.15393167113E+03  0.00000000000E+00 0.  1.
         22    1    1    2    0    0  0.68301082720E+02 -0.35633951435E+02  0.25366644794E+02  0.81106615413E+02  0.00000000000E+00 0.  1.
         22    1    1    2    0    0 -0.18258365054E+02  0.25717341817E+02  0.92017277458E+02  0.97272446846E+02  0.00000000000E+00 0. -1.
</event>
<event>
 6    1  0.2406404E-005  0.1171291E+03  0.7818608E-02  0.1247939E+00
          2   -1    0    0  502    0  0.00000000000E+00  0.00000000000E+00  0.30739632636E+03  0.30739632636E+03  0.00000000000E+00 0. -1.
          1   -1    0    0  501    0 -0.00000000000E+00 -0.00000000000E+00 -0.32898429567E+03  0.32898429567E+03  0.00000000000E+00 0. -1.
          2    1    1    2  501    0  0.41365318095E+02 -0.86246458312E+02  0.22267308112E+03  0.24234859638E+03  0.00000000000E+00 0. -1.
          1    1    1    2  502    0 -0.40729632027E+02  0.80811150870E+02 -0.25586524698E+03  0.27139707007E+03  0.00000000000E+00 0. -1.
         22    1    1    2    0    0 -0.10332079381E+02 -0.18228555134E+02  0.62367885568E+02  0.65793504518E+02  0.00000000000E+00 0. -1.
         22    1    1    2    0    0  0.96963933136E+01  0.23663862576E+02 -0.50763689014E+02  0.56841451051E+02  0.00000000000E+00 0.  1.
</event>
<event>
 6    1  0.2406404E-005  0.1204681E+03  0.7818608E-02  0.1297699E+00
          2   -1    0    0  502    0  0.00000000000E+00  0.00000000000E+00  0.39702882985E+03  0.39702882985E+03  0.00000000000E+00 0. -1.
          1   -1    0    0  501    0 -0.00000000000E+00 -0.00000000000E+00 -0.42386434765E+03  0.42386434765E+03  0.00000000000E+00 0. -1.
          2    1    1    2  501    0  0.14345198830E+03  0.18221666587E+03  0.27574191798E+03  0.36029847570E+03  0.00000000000E+00 0. -1.
          1    1    1    2  502    0 -0.12631292296E+03 -0.63122206994E+02 -0.24050038497E+03  0.27889030584E+03  0.00000000000E+00 0. -1.
         22    1    1    2    0    0  0.78565323987E+01 -0.31332068103E+02 -0.82147973475E+02  0.88270681083E+02  0.00000000000E+00 0.  1.
         22    1    1    2    0    0 -0.24995597731E+02 -0.87762390769E+02  0.20070922669E+02  0.93433714880E+02  0.00000000000E+00 0. -1.
</event>
<event>
 6    1  0.2406404E-005  0.1495368E+03  0.7818608E-02  0.1228869E+00
          2   -1    0    0  502    0  0.00000000000E+00  0.00000000000E+00  0.20792211898E+02  0.20792211898E+02  0.00000000000E+00 0. -1.
          1   -1    0    0  501    0 -0.00000000000E+00 -0.00000000000E+00 -0.64999209766E+03  0.64999209766E+03  0.00000000000E+00 0. -1.
          2    1    1    2  501    0 -0.27429282473E+01  0.26394770436E+02 -0.90871145280E+02  0.94666639352E+02  0.00000000000E+00 0. -1.
          1    1    1    2  502    0 -0.51541790908E+02 -0.17666866186E+01 -0.69591347995E+02  0.86617741297E+02  0.00000000000E+00 0. -1.
         22    1    1    2    0    0  0.31792855538E+02 -0.75447259667E+02 -0.33096418374E+03  0.34094041353E+03  0.00000000000E+00 0. -1.
         22    1    1    2    0    0  0.22491863617E+02  0.50819175850E+02 -0.13777320874E+03  0.14855951538E+03  0.00000000000E+00 0. -1.
</event>
<event>
 6    1  0.2406404E-005  0.1069963E+03  0.7818608E-02  0.1289758E+00
          2   -1    0    0  502    0  0.00000000000E+00  0.00000000000E+00  0.96511878889E+02  0.96511878889E+02  0.00000000000E+00 0.  1.
          1   -1    0    0  501    0 -0.00000000000E+00 -0.00000000000E+00 -0.19147647070E+03  0.19147647070E+03  0.00000000000E+00 0.  1.
          2    1    1    2  501    0  0.57102913696E+01 -0.47752105596E+02  0.40279592564E+02  0.62732101778E+02  0.00000000000E+00 0.  1.
          1    1    1    2  502    0  0.38452272002E+02  0.20147981299E+02 -0.49486918136E+02  0.65829123032E+02  0.00000000000E+00 0.  1.
         22    1    1    2    0    0 -0.37006221784E+01 -0.19102596325E+02  0.25550592875E+02  0.32115986473E+02  0.00000000000E+00 0.  1.
         22    1    1    2    0    0 -0.40461941193E+02  0.46706720622E+02 -0.11130785912E+03  0.12731113831E+03  0.00000000000E+00 0.  1.
</event>
<event>
 6    1  0.2406404E-005  0.4871503E+02  0.7818608E-02  0.1454025E+00
          2   -1    0    0  502    0  0.00000000000E+00  0.00000000000E+00  0.49408340025E+03  0.49408340025E+03  0.00000000000E+00 0. -1.
          1   -1    0    0  501    0 -0.00000000000E+00 -0.00000000000E+00 -0.90304117210E+02  0.90304117210E+02  0.00000000000E+00 0.  1.
          2    1    1    2  501    0 -0.94833685712E+02 -0.40785739553E+02  0.35144431191E+03  0.36629224517E+03  0.00000000000E+00 0. -1.
          1    1    1    2  502    0  0.64860288829E+02  0.49020940109E+02  0.23301887875E+02  0.84574745727E+02  0.00000000000E+00 0.  1.
         22    1    1    2    0    0  0.10727442933E+02 -0.21657635986E+02  0.76685744478E+02  0.80404195379E+02  0.00000000000E+00 0. -1.
         22    1    1    2    0    0  0.19245953950E+02  0.13422435430E+02 -0.47652661227E+02  0.53116331183E+02  0.00000000000E+00 0. -1.
</event>
<event>
 6    1  0.2406404E-005  0.1187675E+03  0.7818608E-02  0.1245478E+00
          2   -1    0    0  502    0  0.00000000000E+00  0.00000000000E+00  0.23787170446E+03  0.23787170446E+03  0.00000000000E+00 0.  1.
          1   -1    0    0  501    0 -0.00000000000E+00 -0.00000000000E+00 -0.16356291334E+03  0.16356291334E+03  0.00000000000E+00 0. -1.
          2    1    1    2  501    0  0.21489708213E+02  0.28538934960E+02  0.96970167374E+02  0.10334162631E+03  0.00000000000E+00 0.  1.
          1    1    1    2  502    0 -0.66308907775E+02 -0.78321209381E+02 -0.94191370340E+02  0.13929500112E+03  0.00000000000E+00 0. -1.
         22    1    1    2    0    0  0.55210224079E+02  0.54854977489E+02  0.10078682567E+03  0.12733900277E+03  0.00000000000E+00 0.  1.
         22    1    1    2    0    0 -0.10391024517E+02 -0.50727030685E+01 -0.29256831577E+02  0.31458987601E+02  0.00000000000E+00 0. -1.
</event>
<event>
 6    1  0.2406404E-005  0.9945453E+02  0.7818608E-02  0.1292954E+00
          2   -1    0    0  502    0  0.00000000000E+00  0.00000000000E+00  0.23542572915E+03  0.23542572915E+03  0.00000000000E+00 0.  1.
          1   -1    0    0  501    0 -0.00000000000E+00 -0.00000000000E+00 -0.65875480554E+02  0.65875480554E+02  0.00000000000E+00 0.  1.
          2    1    1    2  501    0  0.52085449348E+02  0.26028175750E+02  0.11471301198E+03  0.12864460767E+03  0.00000000000E+00 0.  1.
          1    1    1    2  502    0 -0.18652891276E+02 -0.25941147544E+02  0.19561958643E+02  0.37463898820E+02  0.00000000000E+00 0.  1.
         22    1    1    2    0    0  0.19522021105E+02  0.24606481156E+01  0.69405494122E+02  0.72140742383E+02  0.00000000000E+00 0.  1.
         22    1    1    2    0    0 -0.52954579177E+02 -0.25476763219E+01 -0.34130216144E+02  0.63051960830E+02  0.00000000000E+00 0. -1.
</event>
<event>
 6    1  0.2406404E-005  0.1216378E+03  0.7818608E-02  0.1241309E+00
          2   -1    0    0  502    0  0.00000000000E+00  0.00000000000E+00  0.57287662993E+03  0.57287662993E+03  0.00000000000E+00 0. -1.
          1   -1    0    0  501    0 -0.00000000000E+00 -0.00000000000E+00 -0.15262442696E+03  0.15262442696E+03  0.00000000000E+00 0. -1.
          2    1    1    2  501    0 -0.41924554190E+02  0.25497675294E+02  0.23248584322E+03  0.23760780077E+03  0.00000000000E+00 0. -1.
          1    1    1    2  502    0  0.10342026143E+03 -0.33351441857E+02 -0.11235043648E+03  0.15630319806E+03  0.00000000000E+00 0. -1.
         22    1    1    2    0    0  0.10626276979E+02  0.13189052865E+01 -0.90717408162E+01  0.14034021342E+02  0.00000000000E+00 0.  1.
         22    1    1    2    0    0 -0.72121984216E+02  0.65348612766E+01  0.30918853704E+03  0.31755603671E+03  0.00000000000E+00 0.  1.
</event>
<event>
 6    1  0.2406404E-005  0.8232301E+02  0.7818608E-02  0.1327303E+00
          2   -1    0    0  502    0  0.00000000000E+00  0.00000000000E+00  0.19631806592E+03  0.19631806592E+03  0.00000000000E+00 0.  1.
          1   -1    0    0  501    0 -0.00000000000E+00 -0.00000000000E+00 -0.12720207152E+03  0.12720207152E+03  0.00000000000E+00 0. -1.
          2    1    1    2  501    0 -0.31118405586E+02  0.24405980941E+02  0.81802727938E+02  0.90860846188E+02  0.00000000000E+00 0.  1.
          1    1    1    2  502    0  0.50263279062E+02 -0.17040153684E+02 -0.75136449169E+02  0.91990488929E+02  0.00000000000E+00 0. -1.
         22    1    1    2    0    0 -0.41673842424E+02 -0.95432940641E+01  0.93170101165E+02  0.10251073776E+03  0.00000000000E+00 0.  1.
         22    1    1    2    0    0  0.22528968948E+02  0.21774668071E+01 -0.30720385542E+02  0.38158064566E+02  0.00000000000E+00 0. -1.
</event>
<event>
 6    1  0.2406404E-005  0.3129922E+03  0.7818608E-02  0.1213400E+00
          2   -1    0    0  502    0  0.00000000000E+00  0.00000000000E+00  0.24616337181E+03  0.24616337181E+03  0.00000000000E+00 0. -1.
          1   -1    0    0  501    0 -0.00000000000E+00 -0.00000000000E+00 -0.10670368210E+04  0.10670368210E+04  0.00000000000E+00 0. -1.
          2    1    1    2  501    0 -0.12780000587E+02 -0.32721213330E+02  0.12609109809E+03  0.13089297627E+03  0.00000000000E+00 0. -1.
          1    1    1    2  502    0 -0.18655627998E+03  0.26855016220E+03 -0.25393384044E+03  0.41401066476E+03  0.00000000000E+00 0. -1.
         22    1    1    2    0    0 -0.89197862622E+01 -0.87714491323E+01 -0.33885024096E+01  0.12960820014E+02  0.00000000000E+00 0. -1.
         22    1    1    2    0    0  0.20825606683E+03 -0.22705749973E+03 -0.68964220443E+03  0.75533573177E+03  0.00000000000E+00 0. -1.
</event>
<event>
 6    1  0.2406404E-005  0.1729120E+03  0.7818608E-02  0.1193681E+00
          2   -1    0    0  502    0  0.00000000000E+00  0.00000000000E+00  0.28136404962E+03  0.28136404962E+03  0.00000000000E+00 0.  1.
          1   -1    0    0  501    0 -0.00000000000E+00 -0.00000000000E+00 -0.83890368667E+02  0.83890368667E+02  0.00000000000E+00 0.  1.
          2    1    1    2  501    0 -0.10470680851E+02  0.50390777770E+02  0.44283495995E+02  0.67896197679E+02  0.00000000000E+00 0.  1.
          1    1    1    2  502    0  0.60211938693E+01 -0.10754054465E+03  0.27474398217E+02  0.11115784307E+03  0.00000000000E+00 0.  1.
         22    1    1    2    0    0  0.56629176315E+02  0.31795159940E+02  0.24257131867E+02  0.69326793177E+02  0.00000000000E+00 0.  1.
         22    1    1    2    0    0 -0.52179689333E+02  0.25354606940E+02  0.10145865488E+03  0.11687358436E+03  0.00000000000E+00 0.  1.
</event>
<event>
 6    1  0.2406404E-005  0.1419451E+03  0.7818608E-02  0.1214192E+00
          2   -1    0    0  502    0  0.00000000000E+00  0.00000000000E+00  0.41429309157E+02  0.41429309157E+02  0.00000000000E+00 0. -1.
          1   -1    0    0  501    0 -0.00000000000E+00 -0.00000000000E+00 -0.66279262794E+03  0.66279262794E+03  0.00000000000E+00 0. -1.
          2    1    1    2  501    0  0.49845478934E+02 -0.64320825486E+02 -0.52973637991E+02  0.97097614200E+02  0.00000000000E+00 0. -1.
          1    1    1    2  502    0 -0.68634658818E+02  0.39996962346E+02 -0.22986143215E+03  0.24320105135E+03  0.00000000000E+00 0. -1.
         22    1    1    2    0    0  0.58129235091E+02  0.22655987173E+01 -0.67242898684E+02  0.88914275194E+02  0.00000000000E+00 0. -1.
         22    1    1    2    0    0 -0.39340055208E+02  0.22058264422E+02 -0.27128534996E+03  0.27500899635E+03  0.00000000000E+00 0. -1.
</event>
<event>
 6    1  0.2406404E-005  0.1210357E+03  0.7818608E-02  0.1274685E+00
          2   -1    0    0  502    0  0.00000000000E+00  0.00000000000E+00  0.11777570863E+03  0.11777570863E+03  0.00000000000E+00 0. -1.
          1   -1    0    0  501    0 -0.00000000000E+00 -0.00000000000E+00 -0.24308314586E+03  0.24308314586E+03  0.00000000000E+00 0. -1.
          2    1    1    2  501    0  0.73597573729E+01 -0.21797465162E+02 -0.47961201026E+02  0.53193724441E+02  0.00000000000E+00 0. -1.
          1    1    1    2  502    0  0.50129668290E+02  0.41214744827E+02  0.76378262225E+02  0.10022613319E+03  0.00000000000E+00 0. -1.
         22    1    1    2    0    0 -0.31788699853E+02  0.17578647784E+02 -0.15806324890E+03  0.16218360259E+03  0.00000000000E+00 0. -1.
         22    1    1    2    0    0 -0.25700725810E+02 -0.36995927449E+02  0.43387504749E+01  0.45255394271E+02  0.00000000000E+00 0. -1.
</event>
<event>
 6    1  0.2406404E-005  0.8999177E+02  0.7818608E-02  0.1304383E+00
          2   -1    0    0  502    0  0.00000000000E+00  0.00000000000E+00  0.27667891297E+03  0.27667891297E+03  0.00000000000E+00 0.  1.
          1   -1    0    0  501    0 -0.00000000000E+00 -0.00000000000E+00 -0.23909032869E+03  0.23909032869E+03  0.00000000000E+00 0.  1.
          2    1    1    2  501    0 -0.95380752226E+00 -0.55347880817E+02  0.18890147432E+03  0.19684528102E+03  0.00000000000E+00 0.  1.
          1    1    1    2  502    0  0.15574534167E+02  0.71749925369E+02 -0.17092304693E+03  0.18602501412E+03  0.00000000000E+00 0.  1.
         22    1    1    2    0    0  0.13474608483E+01  0.12303441869E+02 -0.52351545630E+02  0.53794745676E+02  0.00000000000E+00 0. -1.
         22    1    1    2    0    0 -0.15968187493E+02 -0.28705486421E+02  0.71961702515E+02  0.79104200845E+02  0.00000000000E+00 0.  1.
</event>
<event>
 6    1  0.2406404E-005  0.1233227E+03  0.7818608E-02  0.1238001E+00
          2   -1    0    0  502    0  0.00000000000E+00  0.00000000000E+00  0.40052812998E+03  0.40052812998E+03  0.00000000000E+00 0.  1.
          1   -1    0    0  501    0 -0.00000000000E+00 -0.00000000000E+00 -0.96887578859E+02  0.96887578859E+02  0.00000000000E+00 0. -1.
          2    1    1    2  501    0  0.61597874333E+02 -0.47377156498E+02  0.25810920552E+03  0.26955380735E+03  0.00000000000E+00 0.  1.
          1    1    1    2  502    0 -0.67852158760E+02  0.48376095319E+02 -0.23673665279E+02  0.86629120245E+02  0.00000000000E+00 0. -1.
         22    1    1    2    0    0 -0.17798393807E+02  0.34462909866E+02 -0.18984634186E+02  0.43184387384E+02  0.00000000000E+00 0. -1.
         22    1    1    2    0    0  0.24052678233E+02 -0.35461848687E+02  0.88189645066E+02  0.98048393864E+02  0.00000000000E+00 0. -1.
</event>
<event>
 6    1  0.2406404E-005  0.2374549E+03  0.7818608E-02  0.1178396E+00
          2   -1    0    0  502    0  0.00000000000E+00  0.00000000000E+00  0.28465910669E+02  0.28465910669E+02  0.00000000000E+00 0. -1.
          1   -1    0    0  501    0 -0.00000000000E+00 -0.00000000000E+00 -0.85805897961E+03  0.85805897961E+03  0.00000000000E+00 0. -1.
          2    1    1    2  501    0  0.28262963780E+02  0.36276224621E+01 -0.19026970098E+03  0.19239156394E+03  0.00000000000E+00 0. -1.
          1    1    1    2  502    0 -0.27135395862E+02  0.99994613932E+02 -0.19659319276E+03  0.22222541701E+03  0.00000000000E+00 0. -1.
         22    1    1    2    0    0 -0.14039564193E+02 -0.13104408082E+03 -0.33492034038E+03  0.35991845587E+03  0.00000000000E+00 0. -1.
         22    1    1    2    0    0  0.12911996276E+02  0.27421844430E+02 -0.10780983483E+03  0.11198945345E+03  0.00000000000E+00 0.  1.
</event>
<event>
 6    1  0.2406404E-005  0.1094736E+03  0.7818608E-02  0.1263763E+00
          2   -1    0    0  502    0  0.00000000000E+00  0.00000000000E+00  0.25719278523E+03  0.25719278523E+03  0.00000000000E+00 0.  1.
          1   -1    0    0  501    0 -0.00000000000E+00 -0.00000000000E+00 -0.30022360922E+03  0.30022360922E+03  0.00000000000E+00 0. -1.
          2    1    1    2  501    0  0.16908498102E+02  0.91282995086E+02  0.21202207692E+03  0.23145592151E+03  0.00000000000E+00 0.  1.
          1    1    1    2  502    0 -0.12559685467E+00 -0.62489408101E+02 -0.12199866616E+03  0.13707157416E+03  0.00000000000E+00 0. -1.
         22    1    1    2    0    0 -0.13556508402E+02 -0.40258567308E+02 -0.15673070932E+03  0.16238548706E+03  0.00000000000E+00 0. -1.
         22    1    1    2    0    0 -0.32263928453E+01  0.11464980323E+02  0.23676474568E+02  0.26503411716E+02  0.00000000000E+00 0.  1.
</event>
<event>
 6    1  0.2406404E-005  0.5338554E+02  0.7818608E-02  0.1456489E+00
          2   -1    0    0  502    0  0.00000000000E+00  0.00000000000E+00  0.25694821536E+03  0.25694821536E+03  0.00000000000E+00 0. -1.
          1   -1    0    0  501    0 -0.00000000000E+00 -0.00000000000E+00 -0.83713067052E+02  0.83713067052E+02  0.00000000000E+00 0. -1.
          2    1    1    2  501    0 -0.21563020551E+02 -0.80393225047E+02  0.40939301696E+02  0.92758077341E+02  0.00000000000E+00 0. -1.
          1    1    1    2  502    0  0.47485986139E+02  0.66119204394E+02  0.71974947566E+02  0.10866030161E+03  0.00000000000E+00 0. -1.
         22    1    1    2    0    0  0.12508956584E+02  0.21249520044E+02 -0.31181143291E+02  0.39752733162E+02  0.00000000000E+00 0.  1.
         22    1    1    2    0    0 -0.38431922172E+02 -0.69754993910E+01  0.91502042335E+02  0.99490170293E+02  0.00000000000E+00 0.  1.
</event>
<event>
 6    1  0.2406404E-005  0.1374891E+03  0.7818608E-02  0.1231791E+00
          2   -1    0    0  502    0  0.00000000000E+00  0.00000000000E+00  0.28594386864E+03  0.28594386864E+03  0.00000000000E+00 0. -1.
          1   -1    0    0  501    0 -0.00000000000E+00 -0.00000000000E+00 -0.96317275314E+02  0.96317275314E+02  0.00000000000E+00 0. -1.
          2    1    1    2  501    0  0.57975729359E+02  0.50780307730E+00 -0.57272825576E+02  0.81496132474E+02  0.00000000000E+00 0. -1.
          1    1    1    2  502    0 -0.22799252397E+02 -0.27975912506E+02  0.80805405813E+02  0.88498424839E+02  0.00000000000E+00 0. -1.
         22    1    1    2    0    0  0.26672136061E+02  0.45321296959E+02  0.27256678628E+02  0.59231320515E+02  0.00000000000E+00 0. -1.
         22    1    1    2    0    0 -0.61848613023E+02 -0.17853187531E+02  0.13883733446E+03  0.15303526613E+03  0.00000000000E+00 0. -1.
</event>
<event>
 6    1  0.2406404E-005  0.2742568E+03  0.7818608E-02  0.1102011E+00
          2   -1    0    0  502    0  0.00000000000E+00  0.00000000000E+00  0.26043892464E+03  0.26043892464E+03  0.00000000000E+00 0.  1.
          1   -1    0    0  501    0 -0.00000000000E+00 -0.00000000000E+00 -0.39331559840E+03  0.39331559840E+03  0.00000000000E+00 0. -1.
          2    1    1    2  501    0  0.50120604246E+02  0.22025179235E+03  0.10207634739E+03  0.24787599258E+03  0.00000000000E+00 0.  1.
          1    1    1    2  502    0 -0.10216230811E+03 -0.73027776417E+02 -0.57316713108E+02  0.13804129429E+03  0.00000000000E+00 0. -1.
         22    1    1    2    0    0  0.40157216950E+02 -0.12374646051E+03 -0.19635514803E+03  0.23554433281E+03  0.00000000000E+00 0. -1.
         22    1    1    2    0    0  0.11884486914E+02 -0.23477555415E+02  0.18718839978E+02  0.32292903363E+02  0.00000000000E+00 0.  1.
</event>
<event>
 6    1  0.2406404E-005  0.1112011E+03  0.7818608E-02  0.1312053E+00
          2   -1    0    0  502    0  0.00000000000E+00  0.00000000000E+00  0.51121870957E+03  0.51121870957E+03  0.00000000000E+00 0. -1.
          1   -1    0    0  501    0 -0.00000000000E+00 -0.00000000000E+00 -0.43951403995E+02  0.43951403995E+02  0.00000000000E+00 0. -1.
          2    1    1    2  501    0 -0.29929050529E+02  0.32602994939E+02  0.29812037322E+02  0.53361605240E+02  0.00000000000E+00 0. -1.
          1    1    1    2  502    0  0.84180377601E+02 -0.25297180738E+02  0.27966929751E+03  0.29315729446E+03  0.00000000000E+00 0. -1.
         22    1    1    2    0    0 -0.89588476352E+02  0.12169941035E+02  0.13450635758E+03  0.16206838924E+03  0.00000000000E+00 0. -1.
         22    1    1    2    0    0  0.35337149280E+02 -0.19475755236E+02  0.23279613164E+02  0.46582824628E+02  0.00000000000E+00 0. -1.
</event>
<event>
 6    1  0.2406404E-005  0.2974628E+02  0.7818608E-02  0.1620515E+00
          2   -1    0    0  502    0  0.00000000000E+00  0.00000000000E+00  0.13242599428E+03  0.13242599428E+03  0.00000000000E+00 0.  1.
          1   -1    0    0  501    0 -0.00000000000E+00 -0.00000000000E+00 -0.18399480423E+03  0.18399480423E+03  0.00000000000E+00 0. -1.
          2    1    1    2  501    0 -0.17125405368E+02 -0.13378455646E+02  0.89585817976E+02  0.92183953956E+02  0.00000000000E+00 0.  1.
          1    1    1    2  502    0  0.14519380569E+02  0.24433405593E+02 -0.76466036192E+02  0.81577315547E+02  0.00000000000E+00 0. -1.
         22    1    1    2    0    0 -0.19173218599E+02  0.84350541047E-01  0.35057200941E+02  0.39957812306E+02  0.00000000000E+00 0. -1.
         22    1    1    2    0    0  0.21779243399E+02 -0.11139300488E+02 -0.99745792670E+02  0.10270171670E+03  0.00000000000E+00 0. -1.
</event>
<event>
 6    1  0.2406404E-005  0.3520136E+02  0.7818608E-02  0.1581941E+00
          2   -1    0    0  502    0  0.00000000000E+00  0.00000000000E+00  0.19146043663E+03  0.19146043663E+03  0.00000000000E+00 0.  1.
          1   -1    0    0  501    0 -0.00000000000E+00 -0.00000000000E+00 -0.81940027970E+02  0.81940027970E+02  0.00000000000E+00 0.  1.
          2    1    1    2  501    0  0.12819355146E+02 -0.60567654528E+02  0.80831825111E+02  0.10181630809E+03  0.00000000000E+00 0.  1.
          1    1    1    2  502    0 -0.17225691677E+02  0.33346008582E+02 -0.68076254207E+01  0.38144783470E+02  0.00000000000E+00 0.  1.
         22    1    1    2    0    0 -0.93524792535E+01  0.21338450322E+02 -0.45475717413E+02  0.51096371735E+02  0.00000000000E+00 0.  1.
         22    1    1    2    0    0  0.13758815784E+02  0.58831956245E+01  0.80971926382E+02  0.82343001309E+02  0.00000000000E+00 0. -1.
</event>
<event>
 6    1  0.2406404E-005  0.1973422E+03  0.7818608E-02  0.1171453E+00
          2   -1    0    0  502    0  0.00000000000E+00  0.00000000000E+00  0.16363455369E+03  0.16363455369E+03  0.00000000000E+00 0. -1.
          1   -1    0    0  501    0 -0.00000000000E+00 -0.00000000000E+00 -0.36526510635E+03  0.36526510635E+03  0.00000000000E+00 0.  1.
          2    1    1    2  501    0 -0.90580856137E+02  0.70267423243E+02  0.96239695821E+02  0.14968126576E+03  0.00000000000E+00 0. -1.
          1    1    1    2  502    0  0.38713232492E+02 -0.40451184646E+02 -0.43323279334E+01  0.56158541421E+02  0.00000000000E+00 0.  1.
         22    1    1    2    0    0  0.57711134596E+02 -0.20489431604E+02 -0.30264222454E+03  0.30877614535E+03  0.00000000000E+00 0.  1.
         22    1    1    2    0    0 -0.58435109506E+01 -0.93268069932E+01  0.91043039981E+01  0.14283707509E+02  0.00000000000E+00 0.  1.
</event>
<event>
 6    1  0.2406404E-005  0.1540682E+03  0.7818608E-02  0.1213013E+00
          2   -1    0    0  502    0  0.00000000000E+00  0.00000000000E+00  0.13117431456E+03  0.13117431456E+03  0.00000000000E+00 0. -1.
          1   -1    0    0  501    0 -0.00000000000E+00 -0.00000000000E+00 -0.18078091628E+03  0.18078091628E+03  0.00000000000E+00 0. -1.
          2    1    1    2  501    0 -0.44317905104E+02 -0.55115153596E+02 -0.67822060905E+02  0.97987697259E+02  0.00000000000E+00 0. -1.
          1    1    1    2  502    0  0.30963366686E+02 -0.24240261139E+01  0.61853590749E+02  0.69213240552E+02  0.00000000000E+00 0. -1.
         22    1    1    2    0    0  0.18285092119E+02  0.92180342517E+02 -0.72238815333E+01  0.94253618524E+02  0.00000000000E+00 0.  1.
         22    1    1    2    0    0 -0.49305537011E+01 -0.34641162807E+02 -0.36414250029E+02  0.50500674506E+02  0.00000000000E+00 0. -1.
</event>
<event>
 6    1  0.2406404E-005  0.7316157E+02  0.7818608E-02  0.1420400E+00
          2   -1    0    0  502    0  0.00000000000E+00  0.00000000000E+00  0.97998226362E+02  0.97998226362E+02  0.00000000000E+00 0.  1.
          1   -1    0    0  501    0 -0.00000000000E+00 -0.00000000000E+00 -0.24970024641E+03  0.24970024641E+03  0.00000000000E+00 0.  1.
          2    1    1    2  501    0 -0.15030555264E+02 -0.14197265240E+02  0.30129459009E+02  0.36541267521E+02  0.00000000000E+00 0.  1.
          1    1    1    2  502    0  0.60084108533E+02  0.17078637354E+02 -0.16619674127E+03  0.17754756197E+03  0.00000000000E+00 0.  1.
         22    1    1    2    0    0  0.30911834064E+00  0.23256889142E+02 -0.60401760268E+02  0.64725196718E+02  0.00000000000E+00 0.  1.
         22    1    1    2    0    0 -0.45362671609E+02 -0.26138261256E+02  0.44767022480E+02  0.68884446566E+02  0.00000000000E+00 0.  1.
</event>
<event>
 6    1  0.2406404E-005  0.9332783E+02  0.7818608E-02  0.1326018E+00
          2   -1    0    0  502    0  0.00000000000E+00  0.00000000000E+00  0.22911534902E+03  0.22911534902E+03  0.00000000000E+00 0. -1.
          1   -1    0    0  501    0 -0.00000000000E+00 -0.00000000000E+00 -0.39357739066E+03  0.39357739066E+03  0.00000000000E+00 0. -1.
          2    1    1    2  501    0  0.11927915325E+02  0.22284728997E+02  0.15333491828E+03  0.15540425179E+03  0.00000000000E+00 0. -1.
          1    1    1    2  502    0  0.31789338593E+02 -0.31830960303E+01 -0.33005385606E+03  0.33159650488E+03  0.00000000000E+00 0. -1.
         22    1    1    2    0    0 -0.49647071637E+02 -0.52414958316E+01  0.64359572033E+02  0.81452191578E+02  0.00000000000E+00 0. -1.
         22    1    1    2    0    0  0.59298177186E+01 -0.13860137135E+02 -0.52102675899E+02  0.54239791440E+02  0.00000000000E+00 0. -1.
</event>
<event>
 6    1  0.2406404E-005  0.1970550E+02  0.7818608E-02  0.1755851E+00
          2   -1    0    0  502    0  0.00000000000E+00  0.00000000000E+00  0.31161015041E+03  0.31161015041E+03  0.00000000000E+00 0. -1.
          1   -1    0    0  501    0 -0.00000000000E+00 -0.00000000000E+00 -0.13436629240E+03  0.13436629240E+03  0.00000000000E+00 0.  1.
          2    1    1    2  501    0 -0.93216627006E+01 -0.28692099635E+02  0.25531348923E+03  0.25708968817E+03  0.00000000000E+00 0. -1.
          1    1    1    2  502    0  0.89700538607E+01  0.21369773532E+02 -0.61786913633E+02  0.65990543136E+02  0.00000000000E+00 0.  1.
         22    1    1    2    0    0 -0.11028221940E+02  0.32991979139E+01  0.52150954473E+02  0.53406258420E+02  0.00000000000E+00 0.  1.
         22    1    1    2    0    0  0.11379830780E+02  0.40231281890E+01 -0.68433672056E+02  0.69489953087E+02  0.00000000000E+00 0.  1.
</event>
<event>
 6    1  0.2406404E-005  0.7685657E+02  0.7818608E-02  0.1426070E+00
          2   -1    0    0  502    0  0.00000000000E+00  0.00000000000E+00  0.42520729844E+03  0.42520729844E+03  0.00000000000E+00 0. -1.
          1   -1    0    0  501    0 -0.00000000000E+00 -0.00000000000E+00 -0.38572724922E+02  0.38572724922E+02  0.00000000000E+00 0. -1.
          2    1    1    2  501    0 -0.33773561069E+02  0.11419211178E+02  0.13199043052E+03  0.13672061132E+03  0.00000000000E+00 0. -1.
          1    1    1    2  502    0  0.57861242340E+02 -0.20173835652E+02  0.27332745768E+02  0.67096840471E+02  0.00000000000E+00 0. -1.
         22    1    1    2    0    0  0.11902251827E+02 -0.14025327396E+02 -0.85508919141E+01  0.20285244875E+02  0.00000000000E+00 0. -1.
         22    1    1    2    0    0 -0.35989933098E+02  0.22779951870E+02  0.23586228915E+03  0.23967732670E+03  0.00000000000E+00 0. -1.
</event>
<event>
 6    1  0.2406404E-005  0.1214647E+03  0.7818608E-02  0.1310217E+00
          2   -1    0    0  502    0  0.00000000000E+00  0.00000000000E+00  0.60293642637E+03  0.60293642637E+03  0.00000000000E+00 0.  1.
          1   -1    0    0  501    0 -0.00000000000E+00 -0.00000000000E+00 -0.98609320378E+02  0.98609320378E+02  0.00000000000E+00 0. -1.
          2    1    1    2  501    0  0.68944549779E+01 -0.70702525544E+02  0.52867434947E+01  0.71234333607E+02  0.00000000000E+00 0.  1.
          1    1    1    2  502    0  0.52418307499E+02  0.11401446759E+03  0.16668802636E+02  0.12658920476E+03  0.00000000000E+00 0. -1.
         22    1    1    2    0    0  0.12544947430E+02  0.29446887995E+02  0.49585624691E+02  0.59018887609E+02  0.00000000000E+00 0. -1.
         22    1    1    2    0    0 -0.71857709907E+02 -0.72758830041E+02  0.43278593517E+03  0.44470332077E+03  0.00000000000E+00 0.  1.
</event>
<event>
 6    1  0.2406404E-005  0.7276960E+02  0.7818608E-02  0.1359110E+00
          2   -1    0    0  502    0  0.00000000000E+00  0.00000000000E+00  0.19961685717E+03  0.19961685717E+03  0.00000000000E+00 0.  1.
          1   -1    0    0  501    0 -0.00000000000E+00 -0.00000000000E+00 -0.74481316867E+02  0.74481316867E+02  0.00000000000E+00 0.  1.
          2    1    1    2  501    0 -0.33769425869E+02 -0.18989140576E+02  0.74423557393E+02  0.83903679767E+02  0.00000000000E+00 0.  1.
          1    1    1    2  502    0  0.79267394844E+01  0.25837025464E+02 -0.26209616743E+02  0.37647431433E+02  0.00000000000E+00 0.  1.
         22    1    1    2    0    0 -0.18222898209E+02  0.51690477704E+00  0.10042421798E+03  0.10206549253E+03  0.00000000000E+00 0.  1.
         22    1    1    2    0    0  0.44065584594E+02 -0.73647896650E+01 -0.23502618323E+02  0.50481570305E+02  0.00000000000E+00 0.  1.
</event>
<event>
 6    1  0.2406404E-005  0.8309649E+02  0.7818608E-02  0.1322865E+00
          2   -1    0    0  502    0  0.00000000000E+00  0.00000000000E+00  0.22672048958E+03  0.22672048958E+03  0.00000000000E+00 0.  1.
          1   -1    0    0  501    0 -0.00000000000E+00 -0.00000000000E+00 -0.55268957492E+03  0.55268957492E+03  0.00000000000E+00 0.  1.
          2    1    1    2  501    0 -0.19909799436E+02 -0.46792501298E+02  0.18167322284E+03  0.18865603142E+03  0.00000000000E+00 0.  1.
          1    1    1    2  502    0  0.27495159429E+02  0.43952866762E+02 -0.44429838054E+03  0.44731296565E+03  0.00000000000E+00 0.  1.
         22    1    1    2    0    0  0.10008186097E+02  0.21361485714E+02 -0.97768046329E+02  0.10057369310E+03  0.00000000000E+00 0. -1.
         22    1    1    2    0    0 -0.17593546089E+02 -0.18521851179E+02  0.34424118680E+02  0.42867374331E+02  0.00000000000E+00 0. -1.
</event>
<event>
 6    1  0.2406404E-005  0.8026005E+02  0.7818608E-02  0.1367601E+00
          2   -1    0    0  502    0  0.00000000000E+00  0.00000000000E+00  0.93174790327E+02  0.93174790327E+02  0.00000000000E+00 0. -1.
          1   -1    0    0  501    0 -0.00000000000E+00 -0.00000000000E+00 -0.17004396514E+03  0.17004396514E+03  0.00000000000E+00 0. -1.
          2    1    1    2  501    0  0.24291210457E+02  0.13818472843E+02  0.52249588172E+02  0.59253966629E+02  0.00000000000E+00 0. -1.
          1    1    1    2  502    0  0.18341062289E+02  0.81047269569E+01 -0.30838065953E+02  0.36784065527E+02  0.00000000000E+00 0. -1.
         22    1    1    2    0    0 -0.49937862163E+02 -0.32676143829E+02 -0.12441720972E+03  0.13798971892E+03  0.00000000000E+00 0. -1.
         22    1    1    2    0    0  0.73055894160E+01  0.10752944029E+02  0.26136512688E+02  0.29191004393E+02  0.00000000000E+00 0. -1.
</event>
<event>
 6    1  0.2406404E-005  0.6726484E+02  0.7818608E-02  0.1492416E+00
          2   -1    0    0  502    0  0.00000000000E+00  0.00000000000E+00  0.15525424825E+03  0.15525424825E+03  0.00000000000E+00 0.  1.
          1   -1    0    0  501    0 -0.00000000000E+00 -0.00000000000E+00 -0.43143314647E+03  0.43143314647E+03  0.00000000000E+00 0. -1.
          2    1    1    2  501    0  0.21856007862E+02  0.49977236757E+02  0.89387474366E+02  0.10471642587E+03  0.00000000000E+00 0.  1.
          1    1    1    2  502    0 -0.24608036058E+02 -0.41196780111E+02 -0.34925377844E+03  0.35253500803E+03  0.00000000000E+00 0. -1.
         22    1    1    2    0    0  0.63412715280E+01  0.83058236762E+01  0.55017054296E+02  0.56000666916E+02  0.00000000000E+00 0. -1.
         22    1    1    2    0    0 -0.35892433314E+01 -0.17086280322E+02 -0.71329648443E+02  0.73435293898E+02  0.00000000000E+00 0. -1.
</event>
<event>
 6    1  0.2406404E-005  0.6084014E+02  0.7818608E-02  0.1420600E+00
          2   -1    0    0  502    0  0.00000000000E+00  0.00000000000E+00  0.70280083679E+02  0.70280083679E+02  0.00000000000E+00 0. -1.
          1   -1    0    0  501    0 -0.00000000000E+00 -0.00000000000E+00 -0.31321649395E+03  0.31321649395E+03  0.00000000000E+00 0.  1.
          2    1    1    2  501    0  0.66723225991E+01 -0.95709623399E+02 -0.12300675757E+03  0.15599844328E+03  0.00000000000E+00 0. -1.
          1    1    1    2  502    0  0.86331274164E+01  0.44419408421E+02 -0.12755787852E+01  0.45268552382E+02  0.00000000000E+00 0.  1.
         22    1    1    2    0    0  0.35279133083E+02  0.19523820519E+02 -0.11558814248E+03  0.12241901601E+03  0.00000000000E+00 0.  1.
         22    1    1    2    0    0 -0.50584583098E+02  0.31766394459E+02 -0.30659314393E+01  0.59810565954E+02  0.00000000000E+00 0.  1.
</event>
<event>
 6    1  0.2406404E-005  0.3613017E+02  0.7818608E-02  0.1557425E+00
          2   -1    0    0  502    0  0.00000000000E+00  0.00000000000E+00  0.11134661892E+03  0.11134661892E+03  0.00000000000E+00 0.  1.
          1   -1    0    0  501    0 -0.00000000000E+00 -0.00000000000E+00 -0.41331128863E+03  0.41331128863E+03  0.00000000000E+00 0.  1.
          2    1    1    2  501    0  0.15553903290E+02 -0.16377118379E+02  0.80963182132E+02  0.84054570220E+02  0.00000000000E+00 0.  1.
          1    1    1    2  502    0 -0.10248343771E+02  0.38358520061E+02 -0.26297466656E+03  0.26595503353E+03  0.00000000000E+00 0.  1.
         22    1    1    2    0    0  0.12350770353E+02  0.28890541692E+00  0.24493242154E+02  0.27432533712E+02  0.00000000000E+00 0.  1.
         22    1    1    2    0    0 -0.17656329872E+02 -0.22270307099E+02 -0.14444642743E+03  0.14721577008E+03  0.00000000000E+00 0.  1.
</event>
<event>
 6    1  0.2406404E-005  0.7442059E+02  0.7818608E-02  0.1356198E+00
          2   -1    0    0  502    0  0.00000000000E+00  0.00000000000E+00  0.12288224975E+03  0.12288224975E+03  0.00000000000E+00 0. -1.
          1   -1    0    0  501    0 -0.00000000000E+00 -0.00000000000E+00 -0.14294501623E+03  0.14294501623E+03  0.00000000000E+00 0.  1.
          2    1    1    2  501    0  0.22636485695E+02  0.24107810023E+01  0.26728412804E+02  0.35108836504E+02  0.00000000000E+00 0. -1.
          1    1    1    2  502    0 -0.25456102766E+02 -0.37484113645E+02 -0.81873227014E+02  0.93575088808E+02  0.00000000000E+00 0.  1.
         22    1    1    2    0    0  0.64950516993E+01  0.50950954552E+02  0.76778568324E+02  0.92374964251E+02  0.00000000000E+00 0. -1.
         22    1    1    2    0    0 -0.36754346289E+01 -0.15877621910E+02 -0.41696520598E+02  0.44768376419E+02  0.00000000000E+00 0.  1.
</event>
<event>
 6    1  0.2406404E-005  0.3103995E+02  0.7818608E-02  0.1633521E+00
          2   -1    0    0  502    0  0.00000000000E+00  0.00000000000E+00  0.71760489790E+03  0.71760489790E+03  0.00000000000E+00 0.  1.
          1   -1    0    0  501    0 -0.00000000000E+00 -0.00000000000E+00 -0.10019896245E+03  0.10019896245E+03  0.00000000000E+00 0.  1.
          2    1    1    2  501    0  0.27924503414E+02  0.35476946896E+02  0.62482742707E+03  0.62645646718E+03  0.00000000000E+00 0.  1.
          1    1    1    2  502    0  0.18837679484E+02 -0.28352989303E+02  0.33150477809E+02  0.47515306478E+02  0.00000000000E+00 0.  1.
         22    1    1    2    0    0 -0.29799442525E+02 -0.37567418217E+01 -0.88193505266E+02  0.93167667434E+02  0.00000000000E+00 0.  1.
         22    1    1    2    0    0 -0.16962740372E+02 -0.33672157712E+01  0.47621535839E+02  0.50664419257E+02  0.00000000000E+00 0.  1.
</event>
<event>
 6    1  0.2406404E-005  0.1216674E+03  0.7818608E-02  0.1250027E+00
          2   -1    0    0  502    0  0.00000000000E+00  0.00000000000E+00  0.12874844201E+03  0.12874844201E+03  0.00000000000E+00 0. -1.
          1   -1    0    0  501    0 -0.00000000000E+00 -0.00000000000E+00 -0.12420874891E+03  0.12420874891E+03  0.00000000000E+00 0. -1.
          2    1    1    2  501    0  0.51750839889E+02  0.12142278328E+02  0.45811436268E+02  0.70173157583E+02  0.00000000000E+00 0. -1.
          1    1    1    2  502    0 -0.48826518939E+02  0.80099853830E+01  0.37567443696E+01  0.49621587498E+02  0.00000000000E+00 0. -1.
         22    1    1    2    0    0 -0.43645704145E+02 -0.39110169283E+02 -0.61842961611E+02  0.85200379884E+02  0.00000000000E+00 0. -1.
         22    1    1    2    0    0  0.40721383195E+02  0.18957905572E+02  0.16814474069E+02  0.47962065960E+02  0.00000000000E+00 0. -1.
</event>
<event>
 6    1  0.2406404E-005  0.6894797E+02  0.7818608E-02  0.1386077E+00
          2   -1    0    0  502    0  0.00000000000E+00  0.00000000000E+00  0.48448834002E+02  0.48448834002E+02  0.00000000000E+00 0.  1.
          1   -1    0    0  501    0 -0.00000000000E+00 -0.00000000000E+00 -0.38785173689E+03  0.38785173689E+03  0.00000000000E+00 0. -1.
          2    1    1    2  501    0 -0.33206208098E+02  0.62204210177E+02 -0.76442615088E+02  0.10399754527E+03  0.00000000000E+00 0.  1.
          1    1    1    2  502    0  0.20036846205E+02  0.12114520191E+02 -0.13222294465E+03  0.13428009494E+03  0.00000000000E+00 0. -1.
         22    1    1    2    0    0  0.24129450286E+02 -0.24054932625E+01 -0.12242785212E+03  0.12480623280E+03  0.00000000000E+00 0. -1.
         22    1    1    2    0    0 -0.10960088393E+02 -0.71913237106E+02 -0.83094910258E+01  0.73216697889E+02  0.00000000000E+00 0.  1.
</event>
<event>
 6    1  0.2406404E-005  0.3878798E+02  0.7818608E-02  0.1601376E+00
          2   -1    0    0  502    0  0.00000000000E+00  0.00000000000E+00  0.10356762543E+04  0.10356762543E+04  0.00000000000E+00 0. -1.
          1   -1    0    0  501    0 -0.00000000000E+00 -0.00000000000E+00 -0.23195444559E+02  0.23195444559E+02  0.00000000000E+00 0.  1.
          2    1    1    2  501    0  0.31409941950E+01  0.36473607310E+02  0.70315745225E+03  0.70410978727E+03  0.00000000000E+00 0. -1.
          1    1    1    2  502    0  0.12663679668E+02  0.19486545265E+02  0.14470715996E+02  0.27376921860E+02  0.00000000000E+00 0.  1.
         22    1    1    2    0    0 -0.24663275110E+02 -0.45984043177E+02  0.30574248712E+03  0.31016330827E+03  0.00000000000E+00 0.  1.
         22    1    1    2    0    0  0.88586012477E+01 -0.99761093979E+01 -0.10889845622E+02  0.17221681464E+02  0.00000000000E+00 0.  1.
</event>
<event>
 6    1  0.2406404E-005  0.1304316E+03  0.7818608E-02  0.1310401E+00
          2   -1    0    0  502    0  0.00000000000E+00  0.00000000000E+00  0.92042860021E+02  0.92042860021E+02  0.00000000000E+00 0. -1.
          1   -1    0    0  501    0 -0.00000000000E+00 -0.00000000000E+00 -0.56289381213E+03  0.56289381213E+03  0.00000000000E+00 0. -1.
          2    1    1    2  501    0 -0.16736965816E+02 -0.11094796007E+03 -0.16613242096E+02  0.11342652107E+03  0.00000000000E+00 0. -1.
          1    1    1    2  502    0  0.10115483620E+02  0.10525204657E+03 -0.38253848364E+03  0.39688286406E+03  0.00000000000E+00 0. -1.
         22    1    1    2    0    0  0.15115687709E+02 -0.20863046689E+02  0.29785310677E+02  0.39381664061E+02  0.00000000000E+00 0. -1.
         22    1    1    2    0    0 -0.84942055135E+01  0.26558960183E+02 -0.10148453705E+03  0.10524562297E+03  0.00000000000E+00 0.  1.
</event>
<event>
 6    1  0.2406404E-005  0.1657817E+03  0.7818608E-02  0.1302488E+00
          2   -1    0    0  502    0  0.00000000000E+00  0.00000000000E+00  0.29423568511E+03  0.29423568511E+03  0.00000000000E+00 0. -1.
          1   -1    0    0  501    0 -0.00000000000E+00 -0.00000000000E+00 -0.42129664267E+03  0.42129664267E+03  0.00000000000E+00 0. -1.
          2    1    1    2  501    0  0.11711125561E+03  0.64118460512E+02  0.21267530524E+03  0.25111154619E+03  0.00000000000E+00 0. -1.
          1    1    1    2  502    0 -0.13540971534E+03 -0.63959280092E+02 -0.29300410088E+03  0.32905620136E+03  0.00000000000E+00 0. -1.
         22    1    1    2    0    0  0.32252854424E+02  0.37671682457E+01  0.37665766848E+02  0.49730756754E+02  0.00000000000E+00 0. -1.
         22    1    1    2    0    0 -0.13954394694E+02 -0.39263486657E+01 -0.84397928763E+02  0.85633823484E+02  0.00000000000E+00 0. -1.
</event>
<event>
 6    1  0.2406404E-005  0.1076223E+03  0.7818608E-02  0.1279086E+00
          2   -1    0    0  502    0  0.00000000000E+00  0.00000000000E+00  0.18872607676E+02  0.18872607676E+02  0.00000000000E+00 0.  1.
          1   -1    0    0  501    0 -0.00000000000E+00 -0.00000000000E+00 -0.52972431497E+03  0.52972431497E+03  0.00000000000E+00 0.  1.
          2    1    1    2  501    0 -0.11409963518E+02  0.26568267358E+02 -0.89352450881E+02  0.93914432205E+02  0.00000000000E+00 0.  1.
          1    1    1    2  502    0 -0.66634221156E+01 -0.42694343115E+02 -0.10971870441E+03  0.11792116954E+03  0.00000000000E+00 0.  1.
         22    1    1    2    0    0  0.59319929464E+02 -0.16074250875E+02 -0.90624269241E+02  0.10949882989E+03  0.00000000000E+00 0.  1.
         22    1    1    2    0    0 -0.41246543830E+02  0.32200326631E+02 -0.22115628276E+03  0.22726249100E+03  0.00000000000E+00 0.  1.
</event>
<event>
 6    1  0.2406404E-005  0.2175463E+03  0.7818608E-02  0.1248284E+00
          2   -1    0    0  502    0  0.00000000000E+00  0.00000000000E+00  0.53822273382E+03  0.53822273382E+03  0.00000000000E+00 0. -1.
          1   -1    0    0  501    0 -0.00000000000E+00 -0.00000000000E+00 -0.55340981874E+03  0.55340981874E+03  0.00000000000E+00 0. -1.
          2    1    1    2  501    0  0.10132020675E+02  0.19988780228E+03  0.44812401294E+03  0.49078806253E+03  0.00000000000E+00 0. -1.
          1    1    1    2  502    0  0.16434748614E+00 -0.16885635878E+03 -0.44221385909E+03  0.47335567398E+03  0.00000000000E+00 0. -1.
         22    1    1    2    0    0 -0.28141170894E+02 -0.34316622415E+02 -0.65729636268E+02  0.79309149265E+02  0.00000000000E+00 0. -1.
         22    1    1    2    0    0  0.17844802733E+02  0.32851789135E+01  0.44632397504E+02  0.48179666791E+02  0.00000000000E+00 0.  1.
</event>
<event>
 6    1  0.2406404E-005  0.8297616E+02  0.7818608E-02  0.1321001E+00
          2   -1    0    0  502    0  0.00000000000E+00  0.00000000000E+00  0.37030967288E+02  0.37030967288E+02  0.00000000000E+00 0. -1.
          1   -1    0    0  501    0 -0.00000000000E+00 -0.00000000000E+00 -0.40412000333E+03  0.40412000333E+03  0.00000000000E+00 0. -1.
          2    1    1    2  501    0  0.62800017024E+01  0.55848903410E+02 -0.23692196356E+02  0.60990643559E+02  0.00000000000E+00 0. -1.
          1    1    1    2  502    0  0.52177135377E+01 -0.22681561034E+02 -0.94370251866E+02  0.97197850710E+02  0.00000000000E+00 0. -1.
         22    1    1    2    0    0  0.33356456235E+01  0.24358696391E+02  0.23156146643E+01  0.24694831298E+02  0.00000000000E+00 0. -1.
         22    1    1    2    0    0 -0.14833360863E+02 -0.57526038767E+02 -0.25134220249E+03  0.25826764505E+03  0.00000000000E+00 0.  1.
</event>
<event>
 6    1  0.2406404E-005  0.6210615E+02  0.7818608E-02  0.1449672E+00
          2   -1    0    0  502    0  0.00000000000E+00  0.00000000000E+00  0.34639094210E+03  0.34639094210E+03  0.00000000000E+00 0.  1.
          1   -1    0    0  501    0 -0.00000000000E+00 -0.00000000000E+00 -0.55347578655E+02  0.55347578655E+02  0.00000000000E+00 0. -1.
          2    1    1    2  501    0  0.44163260344E+02  0.11406106261E+02  0.21804094304E+03  0.22276073637E+03  0.00000000000E+00 0.  1.
          1    1    1    2  502    0 -0.40673995048E+02 -0.29025914420E+01  0.16829729572E+02  0.44113928727E+02  0.00000000000E+00 0. -1.
         22    1    1    2    0    0 -0.24228329203E+02 -0.34451446532E+01 -0.34172230845E+02  0.42031206485E+02  0.00000000000E+00 0. -1.
         22    1    1    2    0    0  0.20739063908E+02 -0.50583701660E+01  0.90344921672E+02  0.92832649173E+02  0.00000000000E+00 0.  1.
</event>
<event>
 6    1  0.2406404E-005  0.1479328E+03  0.7818608E-02  0.1212460E+00
          2   -1    0    0  502    0  0.00000000000E+00  0.00000000000E+00  0.60602061638E+02  0.60602061638E+02  0.00000000000E+00 0. -1.
          1   -1    0    0  501    0 -0.00000000000E+00 -0.00000000000E+00 -0.67893061090E+03  0.67893061090E+03  0.00000000000E+00 0. -1.
          2    1    1    2  501    0 -0.78584618309E+02 -0.29911589050E+02 -0.45830761917E+03  0.46595720746E+03  0.00000000000E+00 0. -1.
          1    1    1    2  502    0  0.31455627190E+02  0.32297431459E+02  0.22069122563E+02  0.50195883611E+02  0.00000000000E+00 0. -1.
         22    1    1    2    0    0 -0.31545980720E+02 -0.12720389971E+02 -0.11351992180E+03  0.11850624399E+03  0.00000000000E+00 0. -1.
         22    1    1    2    0    0  0.78674971838E+02  0.10334547562E+02 -0.68570130860E+02  0.10487333747E+03  0.00000000000E+00 0. -1.
</event>
<event>
 6    1  0.2406404E-005  0.1451923E+03  0.7818608E-02  0.1209426E+00
          2   -1    0    0  502    0  0.00000000000E+00  0.00000000000E+00  0.13802036425E+03  0.13802036425E+03  0.00000000000E+00 0.  1.
          1   -1    0    0  501    0 -0.00000000000E+00 -0.00000000000E+00 -0.83414896340E+03  0.83414896340E+03  0.00000000000E+00 0.  1.
          2    1    1    2  501    0 -0.16316427428E+03  0.93383390590E+02  0.48292554833E+01  0.18805945802E+03  0.00000000000E+00 0.  1.
          1    1    1    2  502    0  0.12515490100E+03  0.27622485944E+02 -0.50492583078E+03  0.52093842781E+03  0.00000000000E+00 0.  1.
         22    1    1    2    0    0  0.26564787986E+02 -0.13378234457E+03 -0.10937233793E+03  0.17483052361E+03  0.00000000000E+00 0.  1.
         22    1    1    2    0    0  0.11444585294E+02  0.12776468039E+02 -0.86659685923E+02  0.88340918223E+02  0.00000000000E+00 0.  1.
</event>
<event>
 6    1  0.2406404E-005  0.1886348E+03  0.7818608E-02  0.1171004E+00
          2   -1    0    0  502    0  0.00000000000E+00  0.00000000000E+00  0.66517080158E+02  0.66517080158E+02  0.00000000000E+00 0.  1.
          1   -1    0    0  501    0 -0.00000000000E+00 -0.00000000000E+00 -0.42369661288E+03  0.42369661288E+03  0.00000000000E+00 0.  1.
          2    1    1    2  501    0  0.41113811932E+02  0.58960578756E+00 -0.14814127773E+03  0.15374176834E+03  0.00000000000E+00 0.  1.
          1    1    1    2  502    0 -0.10419437410E+03 -0.15509096546E+02 -0.14183106660E+03  0.17667215718E+03  0.00000000000E+00 0.  1.
         22    1    1    2    0    0 -0.37538267116E+02  0.11394165302E+02 -0.38828685437E+02  0.55196153071E+02  0.00000000000E+00 0.  1.
         22    1    1    2    0    0  0.10061882928E+03  0.35253254557E+01 -0.28378502960E+02  0.10460361445E+03  0.00000000000E+00 0.  1.
</event>
<event>
 6    1  0.2406404E-005  0.1226479E+03  0.7818608E-02  0.1317702E+00
          2   -1    0    0  502    0  0.00000000000E+00  0.00000000000E+00  0.41389208516E+03  0.41389208516E+03  0.00000000000E+00 0.  1.
          1   -1    0    0  501    0 -0.00000000000E+00 -0.00000000000E+00 -0.73507290243E+02  0.73507290243E+02  0.00000000000E+00 0.  1.
          2    1    1    2  501    0 -0.75603713258E+02 -0.87580814247E+02  0.19856238525E+03  0.22981153435E+03  0.00000000000E+00 0.  1.
          1    1    1    2  502    0  0.60721278359E+02  0.43643672396E+02  0.20686777983E+02  0.77587283553E+02  0.00000000000E+00 0.  1.
         22    1    1    2    0    0  0.37191274690E+02  0.28439405194E+02 -0.84702203394E+01  0.47578727531E+02  0.00000000000E+00 0.  1.
         22    1    1    2    0    0 -0.22308839791E+02  0.15497736657E+02  0.12960585203E+03  0.13242182998E+03  0.00000000000E+00 0.  1.
</event>
<event>
 6    1  0.2406404E-005  0.1129107E+03  0.7818608E-02  0.1344598E+00
          2   -1    0    0  502    0  0.00000000000E+00  0.00000000000E+00  0.35197633755E+03  0.35197633755E+03  0.00000000000E+00 0.  1.
          1   -1    0    0  501    0 -0.00000000000E+00 -0.00000000000E+00 -0.57168428161E+02  0.57168428161E+02  0.00000000000E+00 0. -1.
          2    1    1    2  501    0 -0.55573295164E+02  0.81156424787E+02  0.11229054275E+03  0.14927800378E+03  0.00000000000E+00 0.  1.
          1    1    1    2  502    0  0.73181302798E+01 -0.39333848477E+02  0.27478757356E+02  0.48536468481E+02  0.00000000000E+00 0. -1.
         22    1    1    2    0    0  0.55714598391E-01  0.21707346534E+02  0.12379427556E+03  0.12568307228E+03  0.00000000000E+00 0.  1.
         22    1    1    2    0    0  0.48199450286E+02 -0.63529922844E+02  0.31244333721E+02  0.85647221170E+02  0.00000000000E+00 0. -1.
</event>
<event>
 6    1  0.2406404E-005  0.2254864E+02  0.7818608E-02  0.1713520E+00
          2   -1    0    0  502    0  0.00000000000E+00  0.00000000000E+00  0.85819660373E+02  0.85819660373E+02  0.00000000000E+00 0.  1.
          1   -1    0    0  501    0 -0.00000000000E+00 -0.00000000000E+00 -0.12530255105E+03  0.12530255105E+03  0.00000000000E+00 0.  1.
          2    1    1    2  501    0 -0.81161331922E+01 -0.25897403526E+02  0.55221645031E+01  0.27695512781E+02  0.00000000000E+00 0.  1.
          1    1    1    2  502    0 -0.21385895032E+02  0.18344451068E+02 -0.49446467316E+02  0.56910706562E+02  0.00000000000E+00 0.  1.
         22    1    1    2    0    0  0.15551047249E+02 -0.40027795382E+01  0.63106578563E+02  0.65117567311E+02  0.00000000000E+00 0.  1.
         22    1    1    2    0    0  0.13950980975E+02  0.11555731997E+02 -0.58665166431E+02  0.61398424772E+02  0.00000000000E+00 0.  1.
</event>
<event>
 6    1  0.2406404E-005  0.1451518E+03  0.7818608E-02  0.1308546E+00
          2   -1    0    0  502    0  0.00000000000E+00  0.00000000000E+00  0.76717306841E+03  0.76717306841E+03  0.00000000000E+00 0. -1.
          1   -1    0    0  501    0 -0.00000000000E+00 -0.00000000000E+00 -0.37323301111E+02  0.37323301111E+02  0.00000000000E+00 0.  1.
          2    1    1    2  501    0 -0.24760375322E+02 -0.26186855042E+02  0.64558578275E+02  0.73936713424E+02  0.00000000000E+00 0. -1.
          1    1    1    2  502    0  0.11517959139E+03  0.69581419264E+02  0.38448958478E+03  0.40735752477E+03  0.00000000000E+00 0.  1.
         22    1    1    2    0    0 -0.10974107774E+03 -0.44078785055E+02  0.27988689150E+03  0.30384653276E+03  0.00000000000E+00 0. -1.
         22    1    1    2    0    0  0.19321861675E+02  0.68422083348E+00  0.91471274717E+00  0.19355598574E+02  0.00000000000E+00 0. -1.
</event>
<event>
 6    1  0.2406404E-005  0.9133231E+02  0.7818608E-02  0.1301121E+00
          2   -1    0    0  502    0  0.00000000000E+00  0.00000000000E+00  0.62297639628E+03  0.62297639628E+03  0.00000000000E+00 0. -1.
          1   -1    0    0  501    0 -0.00000000000E+00 -0.00000000000E+00 -0.25506271501E+02  0.25506271501E+02  0.00000000000E+00 0.  1.
          2    1    1    2  501    0  0.22803580030E+02 -0.25310505171E+02  0.20666359380E+03  0.20945277734E+03  0.00000000000E+00 0. -1.
          1    1    1    2  502    0 -0.49894317094E+02  0.27829602154E+02  0.55979654749E+02  0.79985319779E+02  0.00000000000E+00 0.  1.
         22    1    1    2    0    0 -0.29549680817E+02  0.54671357467E+01  0.13989118144E+02  0.33147679197E+02  0.00000000000E+00 0.  1.
         22    1    1    2    0    0  0.56640417882E+02 -0.79862327296E+01  0.32083775809E+03  0.32589689147E+03  0.00000000000E+00 0.  1.
</event>
<event>
 6    1  0.2406404E-005  0.2040599E+03  0.7818608E-02  0.1160460E+00
          2   -1    0    0  502    0  0.00000000000E+00  0.00000000000E+00  0.98616020507E+02  0.98616020507E+02  0.00000000000E+00 0.  1.
          1   -1    0    0  501    0 -0.00000000000E+00 -0.00000000000E+00 -0.43749928009E+03  0.43749928009E+03  0.00000000000E+00 0. -1.
          2    1    1    2  501    0 -0.75030266000E+02 -0.99958785980E+02 -0.14881538244E+02  0.12586802569E+03  0.00000000000E+00 0.  1.
          1    1    1    2  502    0  0.94564475489E+02  0.72475530769E+01 -0.11928004009E+03  0.15238994394E+03  0.00000000000E+00 0. -1.
         22    1    1    2    0    0 -0.49177358379E+01  0.10509368240E+03 -0.21254998881E+03  0.23716315892E+03  0.00000000000E+00 0. -1.
         22    1    1    2    0    0 -0.14616473651E+02 -0.12382449493E+02  0.78283075623E+01  0.20694172047E+02  0.00000000000E+00 0.  1.
</event>
<event>
 6    1  0.2406404E-005  0.1702527E+03  0.7818608E-02  0.1203032E+00
          2   -1    0    0  502    0  0.00000000000E+00  0.00000000000E+00  0.15227412471E+03  0.15227412471E+03  0.00000000000E+00 0.  1.
          1   -1    0    0  501    0 -0.00000000000E+00 -0.00000000000E+00 -0.43454150088E+03  0.43454150088E+03  0.00000000000E+00 0.  1.
          2    1    1    2  501    0  0.14246503818E+03 -0.10608622354E+03  0.20749114812E+02  0.17883260244E+03  0.00000000000E+00 0.  1.
          1    1    1    2  502    0 -0.12168015554E+03  0.31012475762E+02 -0.12850668723E+03  0.17967137382E+03  0.00000000000E+00 0.  1.
         22    1    1    2    0    0  0.10453381578E+02 -0.16817282707E+02  0.81933009051E+01  0.21429520848E+02  0.00000000000E+00 0. -1.
         22    1    1    2    0    0 -0.31238264220E+02  0.91891030489E+02 -0.18270310465E+03  0.20688212848E+03  0.00000000000E+00 0.  1.
</event>
<event>
 6    1  0.2406404E-005  0.9787565E+02  0.7818608E-02  0.1302380E+00
          2   -1    0    0  502    0  0.00000000000E+00  0.00000000000E+00  0.34970096654E+02  0.34970096654E+02  0.00000000000E+00 0.  1.
          1   -1    0    0  501    0 -0.00000000000E+00 -0.00000000000E+00 -0.86454454825E+03  0.86454454825E+03  0.00000000000E+00 0. -1.
          2    1    1    2  501    0  0.33525293244E+02 -0.32093808540E+02 -0.31104908387E+01  0.46514868451E+02  0.00000000000E+00 0.  1.
          1    1    1    2  502    0 -0.35025665015E+02 -0.94199725376E+01 -0.50923822474E+03  0.51052825840E+03  0.00000000000E+00 0. -1.
         22    1    1    2    0    0 -0.21466712717E+02  0.48871658045E+02 -0.31356795877E+03  0.31807880074E+03  0.00000000000E+00 0. -1.
         22    1    1    2    0    0  0.22967084488E+02 -0.73578769674E+01 -0.36577772517E+01  0.24392717310E+02  0.00000000000E+00 0. -1.
</event>
<event>
 6    1  0.2406404E-005  0.5586120E+02  0.7818608E-02  0.1416430E+00
          2   -1    0    0  502    0  0.00000000000E+00  0.00000000000E+00  0.22157745607E+03  0.22157745607E+03  0.00000000000E+00 0.  1.
          1   -1    0    0  501    0 -0.00000000000E+00 -0.00000000000E+00 -0.83229284380E+02  0.83229284380E+02  0.00000000000E+00 0. -1.
          2    1    1    2  501    0 -0.28107851490E+02  0.13202627714E+02  0.97664424557E+02  0.10248268399E+03  0.00000000000E+00 0.  1.
          1    1    1    2  502    0  0.36563170385E+02 -0.94574908338E+01 -0.39725246992E+02  0.54812451232E+02  0.00000000000E+00 0. -1.
         22    1    1    2    0    0  0.15196652617E+02 -0.68750876831E+01 -0.30123810677E+02  0.34433255018E+02  0.00000000000E+00 0. -1.
         22    1    1    2    0    0 -0.23651971512E+02  0.31299508025E+01  0.11053280480E+03  0.11307835021E+03  0.00000000000E+00 0.  1.
</event>
<event>
 6    1  0.2406404E-005  0.4124204E+02  0.7818608E-02  0.1553797E+00
          2   -1    0    0  502    0  0.00000000000E+00  0.00000000000E+00  0.89349812242E+02  0.89349812242E+02  0.00000000000E+00 0. -1.
          1   -1    0    0  501    0 -0.00000000000E+00 -0.00000000000E+00 -0.19353900638E+03  0.19353900638E+03  0.00000000000E+00 0. -1.
          2    1    1    2  501    0  0.28980407483E+01  0.22896796040E+02  0.14054842518E+02  0.27022222471E+02  0.00000000000E+00 0. -1.
          1    1    1    2  502    0  0.73399203473E+01 -0.25118994024E+02 -0.12934783525E+03  0.13196855979E+03  0.00000000000E+00 0. -1.
         22    1    1    2    0    0 -0.22764204944E+01 -0.16138775926E+02 -0.53676731408E+02  0.56096645829E+02  0.00000000000E+00 0. -1.
         22    1    1    2    0    0 -0.79615406012E+01  0.18360973910E+02  0.64780529993E+02  0.67801390531E+02  0.00000000000E+00 0. -1.
</event>
<event>
 6    1  0.2406404E-005  0.1131582E+03  0.7818608E-02  0.1258827E+00
          2   -1    0    0  502    0  0.00000000000E+00  0.00000000000E+00  0.29098763190E+02  0.29098763190E+02  0.00000000000E+00 0.  1.
          1   -1    0    0  501    0 -0.00000000000E+00 -0.00000000000E+00 -0.51372965217E+03  0.51372965217E+03  0.00000000000E+00 0.  1.
          2    1    1    2  501    0  0.36066475160E+02 -0.35083501335E+02 -0.68396146472E+02  0.84909808318E+02  0.00000000000E+00 0.  1.
          1    1    1    2  502    0 -0.50747940767E+02  0.21778526322E+02 -0.17532855742E+03  0.18381991391E+03  0.00000000000E+00 0.  1.
         22    1    1    2    0    0  0.31369952617E+02 -0.42097548956E+02 -0.42861342134E+02  0.67774421464E+02  0.00000000000E+00 0.  1.
         22    1    1    2    0    0 -0.16688487009E+02  0.55402523969E+02 -0.19804484295E+03  0.20632427167E+03  0.00000000000E+00 0. -1.
</event>
<event>
 6    1  0.2406404E-005  0.6315926E+02  0.7818608E-02  0.1387940E+00
          2   -1    0    0  502    0  0.00000000000E+00  0.00000000000E+00  0.11863528467E+03  0.11863528467E+03  0.00000000000E+00 0.  1.
          1   -1    0    0  501    0 -0.00000000000E+00 -0.00000000000E+00 -0.28571259052E+03  0.28571259052E+03  0.00000000000E+00 0. -1.
          2    1    1    2  501    0  0.18662937733E+02 -0.31522967801E+02  0.43896634084E+02  0.57174445584E+02  0.00000000000E+00 0.  1.
          1    1    1    2  502    0 -0.27033716237E+02  0.39059104586E+02 -0.21258907885E+03  0.21783147595E+03  0.00000000000E+00 0. -1.
         22    1    1    2    0    0 -0.25778654662E+01  0.12471031341E+02 -0.61201906992E+02  0.62512762157E+02  0.00000000000E+00 0. -1.
         22    1    1    2    0    0  0.10948643970E+02 -0.20007168125E+02  0.62817045911E+02  0.66829191512E+02  0.00000000000E+00 0.  1.
</event>
<event>
 6    1  0.2406404E-005  0.1926279E+03  0.7818608E-02  0.1172752E+00
          2   -1    0    0  502    0  0.00000000000E+00  0.00000000000E+00  0.19708185687E+03  0.19708185687E+03  0.00000000000E+00 0. -1.
          1   -1    0    0  501    0 -0.00000000000E+00 -0.00000000000E+00 -0.16397862901E+03  0.16397862901E+03  0.00000000000E+00 0. -1.
          2    1    1    2  501    0  0.58852041559E+02 -0.88816911212E+02  0.69541818357E+02  0.12723235050E+03  0.00000000000E+00 0. -1.
          1    1    1    2  502    0  0.81357530792E+01  0.38658072945E+02  0.45681874175E+02  0.60394293688E+02  0.00000000000E+00 0. -1.
         22    1    1    2    0    0 -0.60345350714E+02  0.73469083023E+02 -0.10390928735E+03  0.14084178184E+03  0.00000000000E+00 0. -1.
         22    1    1    2    0    0 -0.66424439245E+01 -0.23310244755E+02  0.21788822677E+02  0.32592059854E+02  0.00000000000E+00 0. -1.
</event>
<event>
 6    1  0.2406404E-005  0.6035094E+02  0.7818608E-02  0.1414557E+00
          2   -1    0    0  502    0  0.00000000000E+00  0.00000000000E+00  0.25079817088E+03  0.25079817088E+03  0.00000000000E+00 0. -1.
          1   -1    0    0  501    0 -0.00000000000E+00 -0.00000000000E+00 -0.82341342837E+02  0.82341342837E+02  0.00000000000E+00 0. -1.
          2    1    1    2  501    0  0.26849442079E+02  0.71714297407E+01  0.17607710120E+03  0.17825674605E+03  0.00000000000E+00 0. -1.
          1    1    1    2  502    0 -0.21232430467E+02  0.11649031560E+02 -0.17850363808E+02  0.30085736286E+02  0.00000000000E+00 0. -1.
         22    1    1    2    0    0  0.12541578943E+02  0.10300531529E+02  0.61219475786E+02  0.63334164301E+02  0.00000000000E+00 0.  1.
         22    1    1    2    0    0 -0.18158590555E+02 -0.29120992830E+02 -0.50989385131E+02  0.61462867086E+02  0.00000000000E+00 0. -1.
</event>
<event>
 6    1  0.2406404E-005  0.7224641E+02  0.7818608E-02  0.1356851E+00
          2   -1    0    0  502    0  0.00000000000E+00  0.00000000000E+00  0.18177162643E+03  0.18177162643E+03  0.00000000000E+00 0. -1.
          1   -1    0    0  501    0 -0.00000000000E+00 -0.00000000000E+00 -0.41384735838E+03  0.41384735838E+03  0.00000000000E+00 0.  1.
          2    1    1    2  501    0  0.29500245147E+02  0.55437688820E+01  0.34687233797E+02  0.45871581896E+02  0.00000000000E+00 0. -1.
          1    1    1    2  502    0 -0.31920293432E+02 -0.39054154889E+02 -0.37556427231E+03  0.37893621466E+03  0.00000000000E+00 0.  1.
         22    1    1    2    0    0  0.12368441680E+02  0.28092407854E+02  0.13701352227E+03  0.14040964003E+03  0.00000000000E+00 0. -1.
         22    1    1    2    0    0 -0.99483933957E+01  0.54179781534E+01 -0.28212215710E+02  0.30401548212E+02  0.00000000000E+00 0.  1.
</event>
<event>
 6    1  0.2406404E-005  0.1044631E+03  0.7818608E-02  0.1274107E+00
          2   -1    0    0  502    0  0.00000000000E+00  0.00000000000E+00  0.21724142761E+03  0.21724142761E+03  0.00000000000E+00 0.  1.
          1   -1    0    0  501    0 -0.00000000000E+00 -0.00000000000E+00 -0.26721135833E+03  0.26721135833E+03  0.00000000000E+00 0. -1.
          2    1    1    2  501    0  0.41832618813E+02 -0.30439226236E+02  0.14137528909E+03  0.15054396984E+03  0.00000000000E+00 0.  1.
          1    1    1    2  502    0 -0.65222857663E+02  0.19801153343E+02 -0.19763870369E+03  0.20906258401E+03  0.00000000000E+00 0. -1.
         22    1    1    2    0    0 -0.22059919344E+02  0.17345789524E+02 -0.46840950780E+02  0.54603947894E+02  0.00000000000E+00 0.  1.
         22    1    1    2    0    0  0.45450158194E+02 -0.67077166307E+01  0.53134434667E+02  0.70242284200E+02  0.00000000000E+00 0. -1.
</event>
<event>
 6    1  0.2406404E-005  0.1244742E+03  0.7818608E-02  0.1236071E+00
          2   -1    0    0  502    0  0.00000000000E+00  0.00000000000E+00  0.86719527169E+03  0.86719527169E+03  0.00000000000E+00 0.  1.
          1   -1    0    0  501    0 -0.00000000000E+00 -0.00000000000E+00 -0.36703144617E+02  0.36703144617E+02  0.00000000000E+00 0. -1.
          2    1    1    2  501    0  0.31098373240E+02 -0.60059372186E+02  0.49460237636E+03  0.49920511586E+03  0.00000000000E+00 0.  1.
          1    1    1    2  502    0 -0.32141126145E+02  0.67193088381E+02  0.38609502306E+02  0.83896703060E+02  0.00000000000E+00 0. -1.
         22    1    1    2    0    0 -0.61251160815E+01  0.46017983466E+02  0.51942083257E+02  0.69664566763E+02  0.00000000000E+00 0.  1.
         22    1    1    2    0    0  0.71678689864E+01 -0.53151699661E+02  0.24533816516E+03  0.25113203062E+03  0.00000000000E+00 0. -1.
</event>
<event>
 6    1  0.2406404E-005  0.8525369E+02  0.7818608E-02  0.1315375E+00
          2   -1    0    0  502    0  0.00000000000E+00  0.00000000000E+00  0.29355469945E+03  0.29355469945E+03  0.00000000000E+00 0.  1.
          1   -1    0    0  501    0 -0.00000000000E+00 -0.00000000000E+00 -0.88742248637E+02  0.88742248637E+02  0.00000000000E+00 0. -1.
          2    1    1    2  501    0  0.52466003885E+02 -0.39738727901E+02  0.17629865368E+03  0.18818358948E+03  0.00000000000E+00 0.  1.
          1    1    1    2  502    0 -0.27071569393E+02  0.32030837441E+02 -0.33128361567E+02  0.53444670049E+02  0.00000000000E+00 0. -1.
         22    1    1    2    0    0 -0.38500874164E+02  0.17392514022E+02 -0.27264449347E+02  0.50280881592E+02  0.00000000000E+00 0. -1.
         22    1    1    2    0    0  0.13106439672E+02 -0.96846235615E+01  0.88906608044E+02  0.90387806967E+02  0.00000000000E+00 0.  1.
</event>
<event>
 6    1  0.2406404E-005  0.9721044E+02  0.7818608E-02  0.1305788E+00
          2   -1    0    0  502    0  0.00000000000E+00  0.00000000000E+00  0.92965712827E+02  0.92965712827E+02  0.00000000000E+00 0.  1.
          1   -1    0    0  501    0 -0.00000000000E+00 -0.00000000000E+00 -0.21210003631E+03  0.21210003631E+03  0.00000000000E+00 0.  1.
          2    1    1    2  501    0  0.48247251989E+02  0.20486183238E+02  0.46597764229E+02  0.70134389990E+02  0.00000000000E+00 0.  1.
          1    1    1    2  502    0  0.68676745707E+00 -0.33143185908E+02 -0.48142301105E+02  0.58451891135E+02  0.00000000000E+00 0.  1.
         22    1    1    2    0    0 -0.57684255654E+02  0.24398999259E+02 -0.13789051683E+03  0.15144827218E+03  0.00000000000E+00 0.  1.
         22    1    1    2    0    0  0.87502362081E+01 -0.11741996589E+02  0.20300730217E+02  0.25031195835E+02  0.00000000000E+00 0.  1.
</event>
<event>
 6    1  0.2406404E-005  0.8609353E+02  0.7818608E-02  0.1318701E+00
          2   -1    0    0  502    0  0.00000000000E+00  0.00000000000E+00  0.75464851518E+03  0.75464851518E+03  0.00000000000E+00 0.  1.
          1   -1    0    0  501    0 -0.00000000000E+00 -0.00000000000E+00 -0.71415771273E+02  0.71415771273E+02  0.00000000000E+00 0.  1.
          2    1    1    2  501    0 -0.13176012905E+03  0.14219002998E+02  0.48694287753E+03  0.50465461221E+03  0.00000000000E+00 0.  1.
          1    1    1    2  502    0  0.11472670434E+03  0.38354419412E+02  0.95467502270E+02  0.15410166179E+03  0.00000000000E+00 0.  1.
         22    1    1    2    0    0 -0.33187336917E+02 -0.33811592236E+02  0.10329311857E+03  0.11364018412E+03  0.00000000000E+00 0. -1.
         22    1    1    2    0    0  0.50220761630E+02 -0.18761830174E+02 -0.24707544677E+01  0.53667828332E+02  0.00000000000E+00 0.  1.
</event>
<event>
 6    1  0.2406404E-005  0.1110831E+03  0.7818608E-02  0.1280247E+00
          2   -1    0    0  502    0  0.00000000000E+00  0.00000000000E+00  0.15575648486E+03  0.15575648486E+03  0.00000000000E+00 0. -1.
          1   -1    0    0  501    0 -0.00000000000E+00 -0.00000000000E+00 -0.82229899290E+02  0.82229899290E+02  0.00000000000E+00 0. -1.
          2    1    1    2  501    0 -0.25893497537E+02 -0.15022320596E+02 -0.30829759376E+01  0.30093987297E+02  0.00000000000E+00 0. -1.
          1    1    1    2  502    0  0.45553192920E+02 -0.13629708252E+02 -0.14810839934E+02  0.49801840445E+02  0.00000000000E+00 0. -1.
         22    1    1    2    0    0 -0.40763033774E+02  0.38538495188E+02  0.11310873652E+03  0.12625540309E+03  0.00000000000E+00 0. -1.
         22    1    1    2    0    0  0.21103338391E+02 -0.98864663404E+01 -0.21688335078E+02  0.31835153312E+02  0.00000000000E+00 0. -1.
</event>
<event>
 6    1  0.2406404E-005  0.2164780E+03  0.7818608E-02  0.1180255E+00
          2   -1    0    0  502    0  0.00000000000E+00  0.00000000000E+00  0.10301284260E+03  0.10301284260E+03  0.00000000000E+00 0. -1.
          1   -1    0    0  501    0 -0.00000000000E+00 -0.00000000000E+00 -0.14937470059E+04  0.14937470059E+04  0.00000000000E+00 0.  1.
          2    1    1    2  501    0  0.28380621497E+02  0.57107230241E+02  0.24730521981E+02  0.68398056550E+02  0.00000000000E+00 0. -1.
          1    1    1    2  502    0 -0.14703683014E+03  0.15229498122E+03 -0.10662849663E+04  0.10870957732E+04  0.00000000000E+00 0.  1.
         22    1    1    2    0    0  0.11275143995E+02  0.82199366457E+01  0.23084808632E+01  0.14143030597E+02  0.00000000000E+00 0. -1.
         22    1    1    2    0    0  0.10738106464E+03 -0.21762214811E+03 -0.35148819985E+03  0.42712298817E+03  0.00000000000E+00 0.  1.
</event>
<event>
 6    1  0.2406404E-005  0.1102362E+03  0.7818608E-02  0.1260599E+00
          2   -1    0    0  502    0  0.00000000000E+00  0.00000000000E+00  0.25200522947E+03  0.25200522947E+03  0.00000000000E+00 0.  1.
          1   -1    0    0  501    0 -0.00000000000E+00 -0.00000000000E+00 -0.16667950804E+03  0.16667950804E+03  0.00000000000E+00 0. -1.
          2    1    1    2  501    0  0.88492344039E+01  0.90352517915E+02  0.18699474918E+03  0.20786756040E+03  0.00000000000E+00 0.  1.
          1    1    1    2  502    0  0.96092910406E+01 -0.44420330894E+02 -0.48696914343E+02  0.66610012292E+02  0.00000000000E+00 0. -1.
         22    1    1    2    0    0 -0.12437050880E+02 -0.63223758795E+02 -0.85391236717E+02  0.10697470364E+03  0.00000000000E+00 0. -1.
         22    1    1    2    0    0 -0.60214745649E+01  0.17291571773E+02  0.32419123304E+02  0.37232461189E+02  0.00000000000E+00 0. -1.
</event>
<event>
 6    1  0.2406404E-005  0.2725833E+02  0.7818608E-02  0.1659788E+00
          2   -1    0    0  502    0  0.00000000000E+00  0.00000000000E+00  0.17591645249E+03  0.17591645249E+03  0.00000000000E+00 0.  1.
          1   -1    0    0  501    0 -0.00000000000E+00 -0.00000000000E+00 -0.82733701418E+02  0.82733701418E+02  0.00000000000E+00 0.  1.
          2    1    1    2  501    0  0.24042861929E+01  0.21514672400E+02  0.77987981243E+02  0.80936931861E+02  0.00000000000E+00 0.  1.
          1    1    1    2  502    0  0.27430190747E+02  0.19268986779E+01  0.34564766147E+02  0.44168443053E+02  0.00000000000E+00 0.  1.
         22    1    1    2    0    0 -0.26937188206E+02 -0.41077645202E+01 -0.72222877673E+02  0.77192162149E+02  0.00000000000E+00 0.  1.
         22    1    1    2    0    0 -0.28972887334E+01 -0.19333806557E+02  0.52852881356E+02  0.56352616848E+02  0.00000000000E+00 0.  1.
</event>
<event>
 6    1  0.2406404E-005  0.9076487E+02  0.7818608E-02  0.1305582E+00
          2   -1    0    0  502    0  0.00000000000E+00  0.00000000000E+00  0.11017407189E+03  0.11017407189E+03  0.00000000000E+00 0.  1.
          1   -1    0    0  501    0 -0.00000000000E+00 -0.00000000000E+00 -0.13778739475E+03  0.13778739475E+03  0.00000000000E+00 0.  1.
          2    1    1    2  501    0  0.37826618500E+02  0.37700299266E+02  0.35854806682E+02  0.64325211186E+02  0.00000000000E+00 0.  1.
          1    1    1    2  502    0 -0.48583098364E+01 -0.39633064522E+02 -0.25793119011E+02  0.47535964976E+02  0.00000000000E+00 0.  1.
         22    1    1    2    0    0  0.54679310072E+01  0.27260094681E+02  0.38264720233E+02  0.47299046988E+02  0.00000000000E+00 0.  1.
         22    1    1    2    0    0 -0.38436239671E+02 -0.25327329425E+02 -0.75939730764E+02  0.88801243484E+02  0.00000000000E+00 0.  1.
</event>
<event>
 6    1  0.2406404E-005  0.2947819E+03  0.7818608E-02  0.1094470E+00
          2   -1    0    0  502    0  0.00000000000E+00  0.00000000000E+00  0.67853102450E+02  0.67853102450E+02  0.00000000000E+00 0. -1.
          1   -1    0    0  501    0 -0.00000000000E+00 -0.00000000000E+00 -0.15444975613E+04  0.15444975613E+04  0.00000000000E+00 0. -1.
          2    1    1    2  501    0 -0.11693530111E+03  0.26618329011E+02 -0.24066211314E+03  0.26888780706E+03  0.00000000000E+00 0. -1.
          1    1    1    2  502    0  0.17254474911E+03 -0.15841001356E+03 -0.10638723152E+04  0.10893528932E+04  0.00000000000E+00 0. -1.
         22    1    1    2    0    0 -0.68214285549E+02  0.13640765456E+03 -0.10377940320E+03  0.18447330837E+03  0.00000000000E+00 0. -1.
         22    1    1    2    0    0  0.12604837547E+02 -0.46159700092E+01 -0.68330627333E+02  0.69636655150E+02  0.00000000000E+00 0.  1.
</event>
<event>
 6    1  0.2406404E-005  0.8278270E+02  0.7818608E-02  0.1359144E+00
          2   -1    0    0  502    0  0.00000000000E+00  0.00000000000E+00  0.13523760649E+03  0.13523760649E+03  0.00000000000E+00 0.  1.
          1   -1    0    0  501    0 -0.00000000000E+00 -0.00000000000E+00 -0.27186980498E+03  0.27186980498E+03  0.00000000000E+00 0. -1.
          2    1    1    2  501    0 -0.21441451556E+02 -0.18287412843E+02  0.51151215662E+02  0.58400446719E+02  0.00000000000E+00 0.  1.
          1    1    1    2  502    0  0.93841547682E+02  0.14963268311E+02 -0.17757027010E+03  0.20139845157E+03  0.00000000000E+00 0. -1.
         22    1    1    2    0    0 -0.68251346310E+02  0.14458466290E+02 -0.62513001116E+02  0.93675871115E+02  0.00000000000E+00 0.  1.
         22    1    1    2    0    0 -0.41487498159E+01 -0.11134321759E+02  0.52299857071E+02  0.53632642073E+02  0.00000000000E+00 0.  1.
</event>
<event>
 6    1  0.2406404E-005  0.1172187E+03  0.7818608E-02  0.1260003E+00
          2   -1    0    0  502    0  0.00000000000E+00  0.00000000000E+00  0.80645532678E+02  0.80645532678E+02  0.00000000000E+00 0. -1.
          1   -1    0    0  501    0 -0.00000000000E+00 -0.00000000000E+00 -0.14090359646E+03  0.14090359646E+03  0.00000000000E+00 0. -1.
          2    1    1    2  501    0  0.34087813249E+02  0.12418698876E+02 -0.15839581360E+02  0.39586556197E+02  0.00000000000E+00 0. -1.
          1    1    1    2  502    0 -0.28486660632E+02  0.30816741397E+02 -0.79143850512E+01  0.42705958308E+02  0.00000000000E+00 0. -1.
         22    1    1    2    0    0 -0.35746020130E+02  0.28912650931E+02 -0.40065201100E+02  0.60983109778E+02  0.00000000000E+00 0. -1.
         22    1    1    2    0    0  0.30144867513E+02 -0.72148091205E+02  0.35611037318E+01  0.78273504851E+02  0.00000000000E+00 0. -1.
</event>
<event>
 6    1  0.2406404E-005  0.2262028E+02  0.7818608E-02  0.1724950E+00
          2   -1    0    0  502    0  0.00000000000E+00  0.00000000000E+00  0.56308452591E+03  0.56308452591E+03  0.00000000000E+00 0.  1.
          1   -1    0    0  501    0 -0.00000000000E+00 -0.00000000000E+00 -0.93398693639E+02  0.93398693639E+02  0.00000000000E+00 0. -1.
          2    1    1    2  501    0  0.30808958762E+01  0.29084381754E+02  0.50063750043E+03  0.50149107671E+03  0.00000000000E+00 0.  1.
          1    1    1    2  502    0 -0.27016673995E+01 -0.22774103579E+02 -0.65370843043E+01  0.23847269692E+02  0.00000000000E+00 0. -1.
         22    1    1    2    0    0  0.96449993364E+01 -0.11608488466E+02 -0.76431100686E+02  0.77906971246E+02  0.00000000000E+00 0. -1.
         22    1    1    2    0    0 -0.10024227813E+02  0.52982102909E+01  0.52016516832E+02  0.53237901901E+02  0.00000000000E+00 0.  1.
</event>
<event>
 6    1  0.2406404E-005  0.4088731E+02  0.7818608E-02  0.1555334E+00
          2   -1    0    0  502    0  0.00000000000E+00  0.00000000000E+00  0.11920440947E+03  0.11920440947E+03  0.00000000000E+00 0. -1.
          1   -1    0    0  501    0 -0.00000000000E+00 -0.00000000000E+00 -0.11054856632E+03  0.11054856632E+03  0.00000000000E+00 0. -1.
          2    1    1    2  501    0  0.28006698009E+02  0.27434899682E+02  0.32356312238E+02  0.50832861375E+02  0.00000000000E+00 0. -1.
          1    1    1    2  502    0 -0.19447446981E+02  0.90145020851E+01  0.33587397206E+02  0.39844418592E+02  0.00000000000E+00 0. -1.
         22    1    1    2    0    0  0.19745054373E+02 -0.39636022971E+01 -0.85325384866E+02  0.87669827295E+02  0.00000000000E+00 0. -1.
         22    1    1    2    0    0 -0.28304305401E+02 -0.32485799470E+02  0.28037518567E+02  0.51405868525E+02  0.00000000000E+00 0. -1.
</event>
<event>
 6    1  0.2406404E-005  0.7436163E+02  0.7818608E-02  0.1348452E+00
          2   -1    0    0  502    0  0.00000000000E+00  0.00000000000E+00  0.33539340848E+03  0.33539340848E+03  0.00000000000E+00 0.  1.
          1   -1    0    0  501    0 -0.00000000000E+00 -0.00000000000E+00 -0.57045912417E+02  0.57045912417E+02  0.00000000000E+00 0.  1.
          2    1    1    2  501    0 -0.44095498586E+00  0.50738371279E+02  0.20104230846E+03  0.20734653735E+03  0.00000000000E+00 0.  1.
          1    1    1    2  502    0 -0.32908042433E+01 -0.35800041132E+02 -0.33026539217E+01  0.36102352562E+02  0.00000000000E+00 0.  1.
         22    1    1    2    0    0  0.20037507129E+02  0.12269567160E+02  0.10586645202E+03  0.10844237932E+03  0.00000000000E+00 0.  1.
         22    1    1    2    0    0 -0.16305747900E+02 -0.27207897307E+02 -0.25258610485E+02  0.40548051668E+02  0.00000000000E+00 0.  1.
</event>
<event>
 6    1  0.2406404E-005  0.1195465E+03  0.7818608E-02  0.1244201E+00
          2   -1    0    0  502    0  0.00000000000E+00  0.00000000000E+00  0.32570500572E+03  0.32570500572E+03  0.00000000000E+00 0. -1.
          1   -1    0    0  501    0 -0.00000000000E+00 -0.00000000000E+00 -0.29124073362E+03  0.29124073362E+03  0.00000000000E+00 0.  1.
          2    1    1    2  501    0 -0.50175032144E+02 -0.86522551050E+02  0.23437606269E+03  0.25482508600E+03  0.00000000000E+00 0. -1.
          1    1    1    2  502    0  0.38362954451E+02  0.83749715967E+02 -0.21790819903E+03  0.23657919267E+03  0.00000000000E+00 0.  1.
         22    1    1    2    0    0  0.20937991531E+02  0.16859176740E+02 -0.49316735163E+02  0.56167354369E+02  0.00000000000E+00 0.  1.
         22    1    1    2    0    0 -0.91259138377E+01 -0.14086341657E+02  0.67313143600E+02  0.69374106307E+02  0.00000000000E+00 0. -1.
</event>
<event>
 6    1  0.2406404E-005  0.7169380E+02  0.7818608E-02  0.1412542E+00
          2   -1    0    0  502    0  0.00000000000E+00  0.00000000000E+00  0.71912838482E+02  0.71912838482E+02  0.00000000000E+00 0.  1.
          1   -1    0    0  501    0 -0.00000000000E+00 -0.00000000000E+00 -0.44560355116E+03  0.44560355116E+03  0.00000000000E+00 0.  1.
          2    1    1    2  501    0 -0.19804188510E+02  0.50895105563E+02  0.36017854374E+02  0.65420207020E+02  0.00000000000E+00 0.  1.
          1    1    1    2  502    0 -0.12913373029E+02 -0.28904379869E+02 -0.20096217311E+03  0.20344044189E+03  0.00000000000E+00 0.  1.
         22    1    1    2    0    0  0.21917975394E+02  0.17278968945E+02  0.72637755125E+01  0.28839605543E+02  0.00000000000E+00 0.  1.
         22    1    1    2    0    0  0.10799586145E+02 -0.39269694640E+02 -0.21601016946E+03  0.21981613519E+03  0.00000000000E+00 0.  1.
</event>
<event>
 6    1  0.2406404E-005  0.1403274E+03  0.7818608E-02  0.1213816E+00
          2   -1    0    0  502    0  0.00000000000E+00  0.00000000000E+00  0.76048128388E+03  0.76048128388E+03  0.00000000000E+00 0. -1.
          1   -1    0    0  501    0 -0.00000000000E+00 -0.00000000000E+00 -0.36386851618E+02  0.36386851618E+02  0.00000000000E+00 0. -1.
          2    1    1    2  501    0  0.15964178885E+02 -0.55271033233E+02  0.24698464236E+03  0.25359644257E+03  0.00000000000E+00 0. -1.
          1    1    1    2  502    0  0.25131639716E+02  0.96135766307E+02  0.99465537406E+02  0.14059544093E+03  0.00000000000E+00 0. -1.
         22    1    1    2    0    0 -0.29590093925E+02 -0.77278825188E+02  0.33656361469E+03  0.34658715673E+03  0.00000000000E+00 0. -1.
         22    1    1    2    0    0 -0.11505724676E+02  0.36414092114E+02  0.41080637801E+02  0.56089095259E+02  0.00000000000E+00 0. -1.
</event>
<event>
 6    1  0.2406404E-005  0.1976398E+03  0.7818608E-02  0.1164646E+00
          2   -1    0    0  502    0  0.00000000000E+00  0.00000000000E+00  0.28400398186E+03  0.28400398186E+03  0.00000000000E+00 0.  1.
          1   -1    0    0  501    0 -0.00000000000E+00 -0.00000000000E+00 -0.16801012519E+03  0.16801012519E+03  0.00000000000E+00 0. -1.
          2    1    1    2  501    0 -0.48786764633E+02  0.34281368790E+01  0.94876755619E+01  0.49818836933E+02  0.00000000000E+00 0.  1.
          1    1    1    2  502    0  0.32496333039E+02 -0.11032995623E+03 -0.87889184578E+02  0.14475227000E+03  0.00000000000E+00 0. -1.
         22    1    1    2    0    0  0.30065880400E+02  0.12741497076E+03  0.19231694620E+03  0.23264638345E+03  0.00000000000E+00 0.  1.
         22    1    1    2    0    0 -0.13775448806E+02 -0.20513151406E+02  0.20784194764E+01  0.24796616663E+02  0.00000000000E+00 0.  1.
</event>
<event>
 6    1  0.2406404E-005  0.1196679E+03  0.7818608E-02  0.1245246E+00
          2   -1    0    0  502    0  0.00000000000E+00  0.00000000000E+00  0.48582567564E+03  0.48582567564E+03  0.00000000000E+00 0. -1.
          1   -1    0    0  501    0 -0.00000000000E+00 -0.00000000000E+00 -0.35871532126E+02  0.35871532126E+02  0.00000000000E+00 0.  1.
          2    1    1    2  501    0 -0.44362001800E+02  0.47481986929E+02  0.15935483350E+03  0.17209441956E+03  0.00000000000E+00 0. -1.
          1    1    1    2  502    0  0.43792960666E+02 -0.53731834026E+02  0.87861768750E+02  0.11191346568E+03  0.00000000000E+00 0.  1.
         22    1    1    2    0    0 -0.37760445359E+02  0.30837449831E+02  0.18058304623E+03  0.18704821873E+03  0.00000000000E+00 0. -1.
         22    1    1    2    0    0  0.38329486492E+02 -0.24587602734E+02  0.22154495038E+02  0.50641103793E+02  0.00000000000E+00 0. -1.
</event>
<event>
 6    1  0.2406404E-005  0.8559528E+02  0.7818608E-02  0.1319660E+00
          2   -1    0    0  502    0  0.00000000000E+00  0.00000000000E+00  0.42296385064E+03  0.42296385064E+03  0.00000000000E+00 0.  1.
          1   -1    0    0  501    0 -0.00000000000E+00 -0.00000000000E+00 -0.11357512860E+03  0.11357512860E+03  0.00000000000E+00 0.  1.
          2    1    1    2  501    0 -0.41139017299E+02 -0.38112311382E+02  0.13819566740E+03  0.14914090489E+03  0.00000000000E+00 0.  1.
          1    1    1    2  502    0 -0.24643825676E+02  0.10096132730E+03  0.20638689295E+03  0.23107586922E+03  0.00000000000E+00 0.  1.
         22    1    1    2    0    0 -0.86136046394E+01 -0.18666522273E+02  0.37859064760E+02  0.43080645575E+02  0.00000000000E+00 0. -1.
         22    1    1    2    0    0  0.74396447614E+02 -0.44182493646E+02 -0.73052903079E+02  0.11324155956E+03  0.00000000000E+00 0.  1.
</event>
<event>
 6    1  0.2406404E-005  0.4610467E+02  0.7818608E-02  0.1468036E+00
          2   -1    0    0  502    0  0.00000000000E+00  0.00000000000E+00  0.16230978143E+03  0.16230978143E+03  0.00000000000E+00 0. -1.
          1   -1    0    0  501    0 -0.00000000000E+00 -0.00000000000E+00 -0.17613191837E+03  0.17613191837E+03  0.00000000000E+00 0. -1.
          2    1    1    2  501    0  0.28879332073E+02  0.71069813950E+01  0.84101941642E+02  0.89205726237E+02  0.00000000000E+00 0. -1.
          1    1    1    2  502    0 -0.27237173599E+02 -0.11066859247E+02 -0.12159407965E+03  0.12509779856E+03  0.00000000000E+00 0. -1.
         22    1    1    2    0    0  0.14247377636E+02  0.49905399127E+01  0.71837763388E+02  0.73406794691E+02  0.00000000000E+00 0.  1.
         22    1    1    2    0    0 -0.15889536110E+02 -0.10306620605E+01 -0.48167762317E+02  0.50731380315E+02  0.00000000000E+00 0. -1.
</event>
<event>
 6    1  0.2406404E-005  0.7825781E+02  0.7818608E-02  0.1334295E+00
          2   -1    0    0  502    0  0.00000000000E+00  0.00000000000E+00  0.50678026595E+02  0.50678026595E+02  0.00000000000E+00 0.  1.
          1   -1    0    0  501    0 -0.00000000000E+00 -0.00000000000E+00 -0.22982980259E+03  0.22982980259E+03  0.00000000000E+00 0. -1.
          2    1    1    2  501    0 -0.19892998192E+02 -0.36978431653E+02  0.41607897138E+00  0.41991771888E+02  0.00000000000E+00 0.  1.
          1    1    1    2  502    0  0.13459124645E+02  0.27366238154E+02 -0.64450575913E+02  0.71301723419E+02  0.00000000000E+00 0. -1.
         22    1    1    2    0    0 -0.28014643281E+02 -0.22560888721E+02  0.67065277390E+01  0.36589499209E+02  0.00000000000E+00 0.  1.
         22    1    1    2    0    0  0.34448516828E+02  0.32173082220E+02 -0.12182380679E+03  0.13062483467E+03  0.00000000000E+00 0.  1.
</event>
<event>
 6    1  0.2406404E-005  0.3594247E+02  0.7818608E-02  0.1615824E+00
          2   -1    0    0  502    0  0.00000000000E+00  0.00000000000E+00  0.10535365607E+03  0.10535365607E+03  0.00000000000E+00 0. -1.
          1   -1    0    0  501    0 -0.00000000000E+00 -0.00000000000E+00 -0.19050175235E+03  0.19050175235E+03  0.00000000000E+00 0.  1.
          2    1    1    2  501    0  0.21206628210E+02 -0.10792806312E+02  0.51775317672E+02  0.56981481800E+02  0.00000000000E+00 0. -1.
          1    1    1    2  502    0 -0.31735611615E+02  0.26606982634E+02 -0.10206837355E+03  0.11015004969E+03  0.00000000000E+00 0.  1.
         22    1    1    2    0    0  0.10196803793E+02 -0.16990834617E+01  0.45744015398E+02  0.46897512055E+02  0.00000000000E+00 0. -1.
         22    1    1    2    0    0  0.33217961183E+00 -0.14115092860E+02 -0.80599055805E+02  0.81826364861E+02  0.00000000000E+00 0.  1.
</event>
<event>
 6    1  0.2406404E-005  0.1157698E+03  0.7818608E-02  0.1256989E+00
          2   -1    0    0  502    0  0.00000000000E+00  0.00000000000E+00  0.33492316304E+02  0.33492316304E+02  0.00000000000E+00 0.  1.
          1   -1    0    0  501    0 -0.00000000000E+00 -0.00000000000E+00 -0.98507697534E+03  0.98507697534E+03  0.00000000000E+00 0. -1.
          2    1    1    2  501    0 -0.51272003685E+01 -0.45020405578E+02 -0.94410572756E+02  0.10472096901E+03  0.00000000000E+00 0.  1.
          1    1    1    2  502    0 -0.31558413774E+02  0.47533758310E+02 -0.73391021285E+03  0.73612471238E+03  0.00000000000E+00 0. -1.
         22    1    1    2    0    0  0.16552438951E+02 -0.27358075381E+02  0.15349707205E+02  0.35469156108E+02  0.00000000000E+00 0.  1.
         22    1    1    2    0    0  0.20133175192E+02  0.24844722648E+02 -0.13861358064E+03  0.14225445415E+03  0.00000000000E+00 0. -1.
</event>
<event>
 6    1  0.2406404E-005  0.7198301E+02  0.7818608E-02  0.1461797E+00
          2   -1    0    0  502    0  0.00000000000E+00  0.00000000000E+00  0.13257419986E+03  0.13257419986E+03  0.00000000000E+00 0. -1.
          1   -1    0    0  501    0 -0.00000000000E+00 -0.00000000000E+00 -0.31512603514E+03  0.31512603514E+03  0.00000000000E+00 0. -1.
          2    1    1    2  501    0 -0.81411287155E+02  0.33417139540E+02 -0.19072889461E+03  0.21005240806E+03  0.00000000000E+00 0. -1.
          1    1    1    2  502    0  0.21683638420E+02 -0.12863576177E+01 -0.71246321265E+02  0.74484046512E+02  0.00000000000E+00 0. -1.
         22    1    1    2    0    0  0.41109867424E+01  0.12506534958E+02 -0.29881077433E+02  0.32652601997E+02  0.00000000000E+00 0. -1.
         22    1    1    2    0    0  0.55616661992E+02 -0.44637316880E+02  0.10930445804E+03  0.13051117843E+03  0.00000000000E+00 0. -1.
</event>
<event>
 6    1  0.2406404E-005  0.1196551E+03  0.7818608E-02  0.1244395E+00
          2   -1    0    0  502    0  0.00000000000E+00  0.00000000000E+00  0.13891398681E+03  0.13891398681E+03  0.00000000000E+00 0.  1.
          1   -1    0    0  501    0 -0.00000000000E+00 -0.00000000000E+00 -0.26880103570E+03  0.26880103570E+03  0.00000000000E+00 0. -1.
          2    1    1    2  501    0  0.20125226945E+02 -0.49455620664E+02  0.36076510440E+02  0.64439101332E+02  0.00000000000E+00 0.  1.
          1    1    1    2  502    0  0.24290325577E+02  0.89240043302E+02 -0.18102883213E+03  0.20328611194E+03  0.00000000000E+00 0. -1.
         22    1    1    2    0    0 -0.16077600531E+02  0.19578854211E+02 -0.44527340537E+02  0.51229921202E+02  0.00000000000E+00 0. -1.
         22    1    1    2    0    0 -0.28337951991E+02 -0.59363276849E+02  0.59592613338E+02  0.88759888045E+02  0.00000000000E+00 0.  1.
</event>
<event>
 6    1  0.2406404E-005  0.9427521E+02  0.7818608E-02  0.1293538E+00
          2   -1    0    0  502    0  0.00000000000E+00  0.00000000000E+00  0.39516651485E+03  0.39516651485E+03  0.00000000000E+00 0. -1.
          1   -1    0    0  501    0 -0.00000000000E+00 -0.00000000000E+00 -0.16671528005E+03  0.16671528005E+03  0.00000000000E+00 0. -1.
          2    1    1    2  501    0 -0.46629645881E+02  0.40007447092E+02  0.21485980263E+03  0.22347182034E+03  0.00000000000E+00 0. -1.
          1    1    1    2  502    0  0.60597596116E+02 -0.40176704841E+02 -0.12997954769E+03  0.14893259914E+03  0.00000000000E+00 0. -1.
         22    1    1    2    0    0 -0.29952218838E+02  0.93734575221E+01  0.16104197219E+03  0.16407167313E+03  0.00000000000E+00 0. -1.
         22    1    1    2    0    0  0.15984268604E+02 -0.92041997731E+01 -0.17470992320E+02  0.25405702291E+02  0.00000000000E+00 0.  1.
</event>
<event>
 6    1  0.2406404E-005  0.7790378E+02  0.7818608E-02  0.1335283E+00
          2   -1    0    0  502    0  0.00000000000E+00  0.00000000000E+00  0.37797090681E+03  0.37797090681E+03  0.00000000000E+00 0. -1.
          1   -1    0    0  501    0 -0.00000000000E+00 -0.00000000000E+00 -0.26765909806E+02  0.26765909806E+02  0.00000000000E+00 0. -1.
          2    1    1    2  501    0 -0.24770084675E+02 -0.35447450494E+02  0.14526685764E+03  0.15156694485E+03  0.00000000000E+00 0. -1.
          1    1    1    2  502    0 -0.35503870662E+01  0.20143690924E+02  0.20565168988E+02  0.29005166917E+02  0.00000000000E+00 0. -1.
         22    1    1    2    0    0  0.26970834486E+02  0.48902383082E+02  0.26578220803E+02  0.61848773674E+02  0.00000000000E+00 0. -1.
         22    1    1    2    0    0  0.13496372551E+01 -0.33598623511E+02  0.15879474957E+03  0.16231593118E+03  0.00000000000E+00 0. -1.
</event>
<event>
 6    1  0.2406404E-005  0.8633528E+02  0.7818608E-02  0.1320632E+00
          2   -1    0    0  502    0  0.00000000000E+00  0.00000000000E+00  0.16379647946E+03  0.16379647946E+03  0.00000000000E+00 0. -1.
          1   -1    0    0  501    0 -0.00000000000E+00 -0.00000000000E+00 -0.11207492178E+03  0.11207492178E+03  0.00000000000E+00 0.  1.
          2    1    1    2  501    0 -0.11176599041E+02 -0.56739447033E+02  0.91065463380E+02  0.10787585382E+03  0.00000000000E+00 0. -1.
          1    1    1    2  502    0  0.24113323902E+02  0.30258941077E+02 -0.16491389482E+02  0.42059741223E+02  0.00000000000E+00 0.  1.
         22    1    1    2    0    0 -0.50152868421E+01 -0.12397972044E+02  0.45213270112E+02  0.47149789046E+02  0.00000000000E+00 0.  1.
         22    1    1    2    0    0 -0.79214380187E+01  0.38878478001E+02 -0.68065786326E+02  0.78786017161E+02  0.00000000000E+00 0.  1.
</event>
<event>
 6    1  0.2406404E-005  0.2273652E+02  0.7818608E-02  0.1708991E+00
          2   -1    0    0  502    0  0.00000000000E+00  0.00000000000E+00  0.17857728575E+03  0.17857728575E+03  0.00000000000E+00 0.  1.
          1   -1    0    0  501    0 -0.00000000000E+00 -0.00000000000E+00 -0.61532940462E+02  0.61532940462E+02  0.00000000000E+00 0.  1.
          2    1    1    2  501    0 -0.22960058166E+02 -0.11136488465E+02  0.77392258627E+02  0.81490780716E+02  0.00000000000E+00 0.  1.
          1    1    1    2  502    0  0.24105556133E+02  0.66169405486E+01  0.21574965481E+01  0.25090167996E+02  0.00000000000E+00 0.  1.
         22    1    1    2    0    0 -0.10255178875E+02 -0.16909593119E+02 -0.44284552449E+02  0.48499738338E+02  0.00000000000E+00 0.  1.
         22    1    1    2    0    0  0.91096809078E+01  0.21429141036E+02  0.81779142558E+02  0.85029539157E+02  0.00000000000E+00 0.  1.
</event>
<event>
 6    1  0.2406404E-005  0.1427545E+03  0.7818608E-02  0.1238330E+00
          2   -1    0    0  502    0  0.00000000000E+00  0.00000000000E+00  0.20713381116E+03  0.20713381116E+03  0.00000000000E+00 0.  1.
          1   -1    0    0  501    0 -0.00000000000E+00 -0.00000000000E+00 -0.59651610663E+02  0.59651610663E+02  0.00000000000E+00 0.  1.
          2    1    1    2  501    0  0.18310407460E+02  0.33710032018E+02  0.46620511203E+02  0.60374740951E+02  0.00000000000E+00 0.  1.
          1    1    1    2  502    0  0.39730735405E+02 -0.13011598778E+02  0.32249772464E+02  0.52800386954E+02  0.00000000000E+00 0.  1.
         22    1    1    2    0    0 -0.91391308888E+02 -0.35837896376E+02  0.35968593436E+02  0.10454886834E+03  0.00000000000E+00 0.  1.
         22    1    1    2    0    0  0.33350166024E+02  0.15139463136E+02  0.32643323395E+02  0.49061425582E+02  0.00000000000E+00 0.  1.
</event>
<event>
 6    1  0.2406404E-005  0.6858661E+02  0.7818608E-02  0.1455051E+00
          2   -1    0    0  502    0  0.00000000000E+00  0.00000000000E+00  0.29304180575E+03  0.29304180575E+03  0.00000000000E+00 0.  1.
          1   -1    0    0  501    0 -0.00000000000E+00 -0.00000000000E+00 -0.15423041508E+03  0.15423041508E+03  0.00000000000E+00 0.  1.
          2    1    1    2  501    0  0.65778710445E+02  0.25297402087E+02  0.18507305421E+03  0.19803745276E+03  0.00000000000E+00 0.  1.
          1    1    1    2  502    0 -0.54709099268E+02  0.51335314685E+00 -0.10014480529E+03  0.11411542885E+03  0.00000000000E+00 0.  1.
         22    1    1    2    0    0 -0.27380128928E+01 -0.16565202155E+02  0.92776343661E+02  0.94283363220E+02  0.00000000000E+00 0. -1.
         22    1    1    2    0    0 -0.83315982837E+01 -0.92455530790E+01 -0.38893201911E+02  0.40835976009E+02  0.00000000000E+00 0.  1.
</event>
<event>
 6    1  0.2406404E-005  0.4673607E+02  0.7818608E-02  0.1466408E+00
          2   -1    0    0  502    0  0.00000000000E+00  0.00000000000E+00  0.14226798137E+03  0.14226798137E+03  0.00000000000E+00 0.  1.
          1   -1    0    0  501    0 -0.00000000000E+00 -0.00000000000E+00 -0.14644826241E+03  0.14644826241E+03  0.00000000000E+00 0.  1.
          2    1    1    2  501    0 -0.13449245183E+02 -0.24143403769E+02  0.59931602802E+02  0.65996842015E+02  0.00000000000E+00 0.  1.
          1    1    1    2  502    0  0.13796897258E+02  0.30713210462E+02 -0.92426366092E+02  0.98368129085E+02  0.00000000000E+00 0.  1.
         22    1    1    2    0    0 -0.58342922186E+01 -0.15487652122E+02  0.74847181563E+02  0.76655116737E+02  0.00000000000E+00 0.  1.
         22    1    1    2    0    0  0.54866401444E+01  0.89178454293E+01 -0.46532699308E+02  0.47696155946E+02  0.00000000000E+00 0.  1.
</event>
<event>
 6    1  0.2406404E-005  0.1085082E+03  0.7818608E-02  0.1271279E+00
          2   -1    0    0  502    0  0.00000000000E+00  0.00000000000E+00  0.25975840354E+03  0.25975840354E+03  0.00000000000E+00 0. -1.
          1   -1    0    0  501    0 -0.00000000000E+00 -0.00000000000E+00 -0.39102404264E+02  0.39102404264E+02  0.00000000000E+00 0. -1.
          2    1    1    2  501    0 -0.30733659760E+02  0.22918105502E+02  0.17574673178E+02  0.42174240235E+02  0.00000000000E+00 0. -1.
          1    1    1    2  502    0 -0.12176847497E+02 -0.18074601280E+02  0.10939212647E+02  0.24385102004E+02  0.00000000000E+00 0. -1.
         22    1    1    2    0    0  0.76351089156E+02 -0.34681815056E+02  0.10563601604E+03  0.13487507181E+03  0.00000000000E+00 0. -1.
         22    1    1    2    0    0 -0.33440581899E+02  0.29838310834E+02  0.86506097404E+02  0.97426393751E+02  0.00000000000E+00 0. -1.
</event>
<event>
 6    1  0.2406404E-005  0.6255857E+02  0.7818608E-02  0.1441230E+00
          2   -1    0    0  502    0  0.00000000000E+00  0.00000000000E+00  0.81369087365E+02  0.81369087365E+02  0.00000000000E+00 0.  1.
          1   -1    0    0  501    0 -0.00000000000E+00 -0.00000000000E+00 -0.70178890929E+03  0.70178890929E+03  0.00000000000E+00 0. -1.
          2    1    1    2  501    0 -0.41290311795E+02  0.46625905823E+02 -0.72837001823E+02  0.95833677674E+02  0.00000000000E+00 0.  1.
          1    1    1    2  502    0  0.62676259112E+02  0.21935811128E+02 -0.53631198702E+03  0.54040729148E+03  0.00000000000E+00 0. -1.
         22    1    1    2    0    0 -0.26817158362E+02 -0.41620010264E+01 -0.60082337086E+02  0.65927001031E+02  0.00000000000E+00 0.  1.
         22    1    1    2    0    0  0.54312110452E+01 -0.64399715924E+02  0.48811504003E+02  0.80990026470E+02  0.00000000000E+00 0.  1.
</event>
<event>
 6    1  0.2406404E-005  0.1046527E+03  0.7818608E-02  0.1399271E+00
          2   -1    0    0  502    0  0.00000000000E+00  0.00000000000E+00  0.16014745196E+03  0.16014745196E+03  0.00000000000E+00 0.  1.
          1   -1    0    0  501    0 -0.00000000000E+00 -0.00000000000E+00 -0.13540805959E+03  0.13540805959E+03  0.00000000000E+00 0.  1.
          2    1    1    2  501    0 -0.34583812536E+00 -0.94563382465E+02  0.58346233047E+02  0.11111541665E+03  0.00000000000E+00 0.  1.
          1    1    1    2  502    0  0.23011824841E+02  0.28957765671E+02 -0.15345973544E+02  0.40044914523E+02  0.00000000000E+00 0.  1.
         22    1    1    2    0    0 -0.11898965047E+02  0.63112640484E+02 -0.67945993906E+02  0.93495715656E+02  0.00000000000E+00 0.  1.
         22    1    1    2    0    0 -0.10767021669E+02  0.24929763103E+01  0.49685126774E+02  0.50899464723E+02  0.00000000000E+00 0.  1.
</event>
<event>
 6    1  0.2406404E-005  0.3697499E+02  0.7818608E-02  0.1537918E+00
          2   -1    0    0  502    0  0.00000000000E+00  0.00000000000E+00  0.10227025509E+03  0.10227025509E+03  0.00000000000E+00 0. -1.
          1   -1    0    0  501    0 -0.00000000000E+00 -0.00000000000E+00 -0.19236088123E+03  0.19236088123E+03  0.00000000000E+00 0.  1.
          2    1    1    2  501    0  0.89317772027E+01 -0.60220445876E+02  0.27116727893E+02  0.66645297487E+02  0.00000000000E+00 0. -1.
          1    1    1    2  502    0 -0.15437740261E+02  0.65831868123E+02 -0.57645964665E+02  0.88855027585E+02  0.00000000000E+00 0.  1.
         22    1    1    2    0    0 -0.52089546710E+01 -0.19101772274E+02  0.36445080330E+02  0.41475954396E+02  0.00000000000E+00 0. -1.
         22    1    1    2    0    0  0.11714917729E+02  0.13490350027E+02 -0.96006469698E+02  0.97654856844E+02  0.00000000000E+00 0.  1.
</event>
<event>
 6    1  0.2406404E-005  0.6981629E+02  0.7818608E-02  0.1367438E+00
          2   -1    0    0  502    0  0.00000000000E+00  0.00000000000E+00  0.12306052846E+03  0.12306052846E+03  0.00000000000E+00 0. -1.
          1   -1    0    0  501    0 -0.00000000000E+00 -0.00000000000E+00 -0.33769159700E+03  0.33769159700E+03  0.00000000000E+00 0. -1.
          2    1    1    2  501    0  0.14339132954E+02  0.40948715772E+02  0.92399161933E+02  0.10207846581E+03  0.00000000000E+00 0. -1.
          1    1    1    2  502    0 -0.21494310710E+02 -0.17421798302E+02 -0.16511920807E+03  0.16742125708E+03  0.00000000000E+00 0. -1.
         22    1    1    2    0    0 -0.11395419270E+02  0.12792756839E+02  0.18807171739E+02  0.25440517226E+02  0.00000000000E+00 0. -1.
         22    1    1    2    0    0  0.18550597026E+02 -0.36319674308E+02 -0.16071819415E+03  0.16581188534E+03  0.00000000000E+00 0. -1.
</event>
<event>
 6    1  0.2406404E-005  0.1578607E+03  0.7818608E-02  0.1236277E+00
          2   -1    0    0  502    0  0.00000000000E+00  0.00000000000E+00  0.39384223281E+03  0.39384223281E+03  0.00000000000E+00 0. -1.
          1   -1    0    0  501    0 -0.00000000000E+00 -0.00000000000E+00 -0.88983955250E+02  0.88983955250E+02  0.00000000000E+00 0. -1.
          2    1    1    2  501    0  0.61830644974E+02 -0.19796895324E+02  0.22641975261E+02  0.68757579699E+02  0.00000000000E+00 0. -1.
          1    1    1    2  502    0 -0.91446767982E+02  0.11192967322E+03  0.13926806919E+03  0.20071461884E+03  0.00000000000E+00 0. -1.
         22    1    1    2    0    0 -0.45648927070E+02 -0.39774725719E+02  0.29097172095E+02  0.67175135077E+02  0.00000000000E+00 0. -1.
         22    1    1    2    0    0  0.75265050078E+02 -0.52358052177E+02  0.11385106101E+03  0.14617885444E+03  0.00000000000E+00 0. -1.
</event>
<event>
 6    1  0.2406404E-005  0.1163656E+03  0.7818608E-02  0.1301270E+00
          2   -1    0    0  502    0  0.00000000000E+00  0.00000000000E+00  0.25876045576E+03  0.25876045576E+03  0.00000000000E+00 0. -1.
          1   -1    0    0  501    0 -0.00000000000E+00 -0.00000000000E+00 -0.13239288388E+03  0.13239288388E+03  0.00000000000E+00 0.  1.
          2    1    1    2  501    0  0.71226052279E+02  0.57948276661E+02  0.10042816003E+03  0.13607706867E+03  0.00000000000E+00 0. -1.
          1    1    1    2  502    0 -0.93081134629E+02 -0.28144876132E+02 -0.46985486612E+02  0.10799938717E+03  0.00000000000E+00 0.  1.
         22    1    1    2    0    0 -0.17735763955E+02 -0.13368248212E+02 -0.28986567961E+02  0.36516961887E+02  0.00000000000E+00 0.  1.
         22    1    1    2    0    0  0.39590846306E+02 -0.16435152317E+02  0.10191146643E+03  0.11055992191E+03  0.00000000000E+00 0.  1.
</event>
<event>
 6    1  0.2406404E-005  0.1560387E+03  0.7818608E-02  0.1254165E+00
          2   -1    0    0  502    0  0.00000000000E+00  0.00000000000E+00  0.33674767957E+03  0.33674767957E+03  0.00000000000E+00 0. -1.
          1   -1    0    0  501    0 -0.00000000000E+00 -0.00000000000E+00 -0.13097393152E+03  0.13097393152E+03  0.00000000000E+00 0. -1.
          2    1    1    2  501    0 -0.10147053084E+03 -0.66351417200E+02  0.10278889148E+03  0.15894758698E+03  0.00000000000E+00 0. -1.
          1    1    1    2  502    0  0.12747010744E+03  0.62613909058E+02 -0.61786876936E+01  0.14215240441E+03  0.00000000000E+00 0. -1.
         22    1    1    2    0    0  0.15517069425E+02  0.17473978391E+02 -0.19684556790E+02  0.30554887340E+02  0.00000000000E+00 0. -1.
         22    1    1    2    0    0 -0.41516646023E+02 -0.13736470250E+02  0.12884810105E+03  0.13606673237E+03  0.00000000000E+00 0.  1.
</event>
<event>
 6    1  0.2538418E-005  0.1126931E+03  0.7818608E-02  0.1350293E+00
          2   -1    0    0  502    0  0.00000000000E+00  0.00000000000E+00  0.78298241077E+03  0.78298241077E+03  0.00000000000E+00 0. -1.
          1   -1    0    0  501    0 -0.00000000000E+00 -0.00000000000E+00 -0.13984262979E+03  0.13984262979E+03  0.00000000000E+00 0. -1.
          2    1    1    2  501    0  0.85589149054E+02 -0.28972468492E+02  0.16329759406E+03  0.18663067966E+03  0.00000000000E+00 0. -1.
          1    1    1    2  502    0 -0.16084761191E+03 -0.13310456872E+02 -0.62271318020E+02  0.17299375586E+03  0.00000000000E+00 0. -1.
         22    1    1    2    0    0  0.45494021962E+01 -0.15337888140E+02  0.28166115834E+01  0.16244419773E+02  0.00000000000E+00 0. -1.
         22    1    1    2    0    0  0.70709060661E+02  0.57620813504E+02  0.53929689336E+03  0.54695618526E+03  0.00000000000E+00 0. -1.
</event>
<event>
 6    1  0.2406404E-005  0.1056252E+03  0.7818608E-02  0.1269328E+00
          2   -1    0    0  502    0  0.00000000000E+00  0.00000000000E+00  0.77109126869E+03  0.77109126869E+03  0.00000000000E+00 0. -1.
          1   -1    0    0  501    0 -0.00000000000E+00 -0.00000000000E+00 -0.23493489981E+02  0.23493489981E+02  0.00000000000E+00 0.  1.
          2    1    1    2  501    0  0.34592294381E+01 -0.35828387343E+02  0.22309492834E+03  0.22598005810E+03  0.00000000000E+00 0. -1.
          1    1    1    2  502    0  0.11047434292E+02  0.77181658741E+02  0.11054744818E+03  0.13527672583E+03  0.00000000000E+00 0.  1.
         22    1    1    2    0    0 -0.20410581519E+02 -0.65586743239E+02  0.39762695835E+03  0.40351630789E+03  0.00000000000E+00 0. -1.
         22    1    1    2    0    0  0.59039177883E+01  0.24233471841E+02  0.16328443840E+02  0.29811666859E+02  0.00000000000E+00 0. -1.
</event>
<event>
 6    1  0.2406404E-005  0.1328136E+03  0.7818608E-02  0.1234382E+00
          2   -1    0    0  502    0  0.00000000000E+00  0.00000000000E+00  0.19773006925E+03  0.19773006925E+03  0.00000000000E+00 0.  1.
          1   -1    0    0  501    0 -0.00000000000E+00 -0.00000000000E+00 -0.73558955682E+02  0.73558955682E+02  0.00000000000E+00 0. -1.
          2    1    1    2  501    0  0.33348870703E+02 -0.30841068046E+02 -0.21190670327E+02  0.50123479172E+02  0.00000000000E+00 0.  1.
          1    1    1    2  502    0 -0.32174290634E+02 -0.59691267844E+01  0.40789383406E+02  0.52293300250E+02  0.00000000000E+00 0. -1.
         22    1    1    2    0    0 -0.59840244818E+02  0.35081075648E+02  0.34510902620E+02  0.77476055450E+02  0.00000000000E+00 0. -1.
         22    1    1    2    0    0  0.58665664749E+02  0.17291191829E+01  0.70061497866E+02  0.91396190057E+02  0.00000000000E+00 0.  1.
</event>
<event>
 6    1  0.2406404E-005  0.5617529E+02  0.7818608E-02  0.1414626E+00
          2   -1    0    0  502    0  0.00000000000E+00  0.00000000000E+00  0.16302088045E+03  0.16302088045E+03  0.00000000000E+00 0. -1.
          1   -1    0    0  501    0 -0.00000000000E+00 -0.00000000000E+00 -0.29926160519E+03  0.29926160519E+03  0.00000000000E+00 0. -1.
          2    1    1    2  501    0 -0.63045527126E+01 -0.40466685360E+02  0.12422654592E+03  0.13080342014E+03  0.00000000000E+00 0. -1.
          1    1    1    2  502    0  0.77735126572E+01  0.34247540624E+02 -0.18689221267E+03  0.19016314231E+03  0.00000000000E+00 0. -1.
         22    1    1    2    0    0  0.38772373783E+01 -0.14114849352E+02  0.31194219098E+02  0.34457818374E+02  0.00000000000E+00 0.  1.
         22    1    1    2    0    0 -0.53461973228E+01  0.20333994088E+02 -0.10476927710E+03  0.10685810482E+03  0.00000000000E+00 0.  1.
</event>
<event>
 6    1  0.2406404E-005  0.1518691E+03  0.7818608E-02  0.1205116E+00
          2   -1    0    0  502    0  0.00000000000E+00  0.00000000000E+00  0.93088789008E+02  0.93088789008E+02  0.00000000000E+00 0. -1.
          1   -1    0    0  501    0 -0.00000000000E+00 -0.00000000000E+00 -0.37287745949E+03  0.37287745949E+03  0.00000000000E+00 0. -1.
          2    1    1    2  501    0 -0.61956194972E+01 -0.93792289717E+02 -0.37705032731E+02  0.10127708924E+03  0.00000000000E+00 0. -1.
          1    1    1    2  502    0 -0.41229012676E+01  0.77943409608E+02 -0.22762765330E+03  0.24063774011E+03  0.00000000000E+00 0. -1.
         22    1    1    2    0    0  0.26117766528E+02  0.36760081432E+02 -0.57854848029E+02  0.73352741978E+02  0.00000000000E+00 0. -1.
         22    1    1    2    0    0 -0.15799245763E+02 -0.20911201323E+02  0.43398863578E+02  0.50698677175E+02  0.00000000000E+00 0. -1.
</event>
<event>
 6    1  0.2406404E-005  0.7448839E+02  0.7818608E-02  0.1351617E+00
          2   -1    0    0  502    0  0.00000000000E+00  0.00000000000E+00  0.86666321018E+02  0.86666321018E+02  0.00000000000E+00 0.  1.
          1   -1    0    0  501    0 -0.00000000000E+00 -0.00000000000E+00 -0.96014328993E+02  0.96014328993E+02  0.00000000000E+00 0.  1.
          2    1    1    2  501    0  0.24020396091E+02 -0.14067262050E+02  0.18333386560E+01  0.27896745699E+02  0.00000000000E+00 0.  1.
          1    1    1    2  502    0 -0.15441992864E+02  0.21405600593E+02 -0.17189245083E+02  0.31498016237E+02  0.00000000000E+00 0.  1.
         22    1    1    2    0    0  0.25144292898E+02 -0.28135323926E+02  0.50931880000E+02  0.63386815018E+02  0.00000000000E+00 0.  1.
         22    1    1    2    0    0 -0.33722696125E+02  0.20796985383E+02 -0.44923981548E+02  0.59899073058E+02  0.00000000000E+00 0.  1.
</event>
<event>
 6    1  0.2406404E-005  0.1020877E+03  0.7818608E-02  0.1277758E+00
          2   -1    0    0  502    0  0.00000000000E+00  0.00000000000E+00  0.23914194799E+02  0.23914194799E+02  0.00000000000E+00 0.  1.
          1   -1    0    0  501    0 -0.00000000000E+00 -0.00000000000E+00 -0.60585647452E+03  0.60585647452E+03  0.00000000000E+00 0. -1.
          2    1    1    2  501    0 -0.28897609713E+02 -0.36678187507E+02 -0.10932263819E+03  0.11887724974E+03  0.00000000000E+00 0.  1.
          1    1    1    2  502    0 -0.25371291615E+01  0.35938163562E+02 -0.25960763312E+03  0.26209561576E+03  0.00000000000E+00 0. -1.
         22    1    1    2    0    0 -0.13054496486E+02 -0.35140760162E+02 -0.11312927084E+02  0.39157058399E+02  0.00000000000E+00 0.  1.
         22    1    1    2    0    0  0.44489235361E+02  0.35880784108E+02 -0.20169908133E+03  0.20964074542E+03  0.00000000000E+00 0.  1.
</event>
<event>
 6    1  0.2406404E-005  0.1356389E+03  0.7818608E-02  0.1221396E+00
          2   -1    0    0  502    0  0.00000000000E+00  0.00000000000E+00  0.17523856391E+03  0.17523856391E+03  0.00000000000E+00 0. -1.
          1   -1    0    0  501    0 -0.00000000000E+00 -0.00000000000E+00 -0.22046000833E+03  0.22046000833E+03  0.00000000000E+00 0.  1.
          2    1    1    2  501    0  0.24945139361E+02  0.10565740464E+03  0.87701516979E+02  0.13956110925E+03  0.00000000000E+00 0. -1.
          1    1    1    2  502    0  0.13854397571E+02 -0.68773583159E+02 -0.89846516229E+02  0.11399187055E+03  0.00000000000E+00 0.  1.
         22    1    1    2    0    0 -0.15969545057E+01  0.16959710836E+02  0.35804291637E+02  0.39650086443E+02  0.00000000000E+00 0. -1.
         22    1    1    2    0    0 -0.37202582427E+02 -0.53843532318E+02 -0.78880736802E+02  0.10249550600E+03  0.00000000000E+00 0. -1.
</event>
<event>
 6    1  0.2406404E-005  0.7271134E+02  0.7818608E-02  0.1357013E+00
          2   -1    0    0  502    0  0.00000000000E+00  0.00000000000E+00  0.35899656775E+03  0.35899656775E+03  0.00000000000E+00 0.  1.
          1   -1    0    0  501    0 -0.00000000000E+00 -0.00000000000E+00 -0.82064590596E+02  0.82064590596E+02  0.00000000000E+00 0. -1.
          2    1    1    2  501    0 -0.20114496667E+02  0.25006680230E+02  0.11272082145E+03  0.11720030128E+03  0.00000000000E+00 0.  1.
          1    1    1    2  502    0  0.48425886723E+01 -0.45119230434E+02 -0.53039666827E+02  0.69802592195E+02  0.00000000000E+00 0. -1.
         22    1    1    2    0    0  0.79084700873E+01 -0.17430067638E+02 -0.11367164867E+02  0.22261257694E+02  0.00000000000E+00 0. -1.
         22    1    1    2    0    0  0.73634379078E+01  0.37542617843E+02  0.22861798740E+03  0.23179700718E+03  0.00000000000E+00 0.  1.
</event>
<event>
 6    1  0.2406404E-005  0.1617099E+03  0.7818608E-02  0.1187885E+00
          2   -1    0    0  502    0  0.00000000000E+00  0.00000000000E+00  0.73739174675E+02  0.73739174675E+02  0.00000000000E+00 0. -1.
          1   -1    0    0  501    0 -0.00000000000E+00 -0.00000000000E+00 -0.43846398187E+03  0.43846398187E+03  0.00000000000E+00 0. -1.
          2    1    1    2  501    0  0.70802841010E+02 -0.31927866703E+02 -0.19645212816E+03  0.21124836005E+03  0.00000000000E+00 0. -1.
          1    1    1    2  502    0 -0.10359781369E+03  0.41324438469E+02 -0.46027294714E+02  0.12065955443E+03  0.00000000000E+00 0. -1.
         22    1    1    2    0    0 -0.45296504005E+02 -0.92226772926E+01 -0.17022999836E+02  0.49260669656E+02  0.00000000000E+00 0. -1.
         22    1    1    2    0    0  0.78091476682E+02 -0.17389447361E+00 -0.10522238449E+03  0.13103457241E+03  0.00000000000E+00 0. -1.
</event>
<event>
 6    1  0.2406404E-005  0.7508349E+02  0.7818608E-02  0.1343623E+00
          2   -1    0    0  502    0  0.00000000000E+00  0.00000000000E+00  0.11872906974E+03  0.11872906974E+03  0.00000000000E+00 0.  1.
          1   -1    0    0  501    0 -0.00000000000E+00 -0.00000000000E+00 -0.27362096108E+03  0.27362096108E+03  0.00000000000E+00 0. -1.
          2    1    1    2  501    0  0.41021779225E+02 -0.33758028454E+02  0.58814836716E+02  0.79256393268E+02  0.00000000000E+00 0.  1.
          1    1    1    2  502    0 -0.46454451364E+02  0.28787828006E+02 -0.17540617161E+03  0.18372283508E+03  0.00000000000E+00 0. -1.
         22    1    1    2    0    0  0.15315818500E+02 -0.12534856432E+02  0.42086833852E+02  0.46508047753E+02  0.00000000000E+00 0.  1.
         22    1    1    2    0    0 -0.98831463608E+01  0.17505056879E+02 -0.80387390311E+02  0.82862754717E+02  0.00000000000E+00 0. -1.
</event>
<event>
 6    1  0.2406404E-005  0.1429163E+03  0.7818608E-02  0.1215992E+00
          2   -1    0    0  502    0  0.00000000000E+00  0.00000000000E+00  0.68465065054E+03  0.68465065054E+03  0.00000000000E+00 0. -1.
          1   -1    0    0  501    0 -0.00000000000E+00 -0.00000000000E+00 -0.30563721809E+02  0.30563721809E+02  0.00000000000E+00 0. -1.
          2    1    1    2  501    0  0.47959818124E+02  0.84591426554E+02  0.26369966812E+03  0.28105758942E+03  0.00000000000E+00 0. -1.
          1    1    1    2  502    0 -0.41719244333E+02 -0.30755211811E+02  0.13740247953E+03  0.14685305507E+03  0.00000000000E+00 0. -1.
         22    1    1    2    0    0 -0.40871805440E+02 -0.37144048589E+02  0.33751359363E+02  0.64725103974E+02  0.00000000000E+00 0. -1.
         22    1    1    2    0    0  0.34631231649E+02 -0.16692166155E+02  0.21923342172E+03  0.22257862389E+03  0.00000000000E+00 0.  1.
</event>
<event>
 6    1  0.2406404E-005  0.3367491E+02  0.7818608E-02  0.1562389E+00
          2   -1    0    0  502    0  0.00000000000E+00  0.00000000000E+00  0.17491482497E+03  0.17491482497E+03  0.00000000000E+00 0. -1.
          1   -1    0    0  501    0 -0.00000000000E+00 -0.00000000000E+00 -0.25844696649E+03  0.25844696649E+03  0.00000000000E+00 0.  1.
          2    1    1    2  501    0  0.21218833404E+02 -0.23699143756E+01  0.10385829707E+03  0.10603019031E+03  0.00000000000E+00 0. -1.
          1    1    1    2  502    0 -0.20479329062E+02  0.57301918906E+01 -0.20309552718E+03  0.20420585491E+03  0.00000000000E+00 0.  1.
         22    1    1    2    0    0 -0.10464009533E+02  0.26995530655E+01 -0.52685285511E+02  0.53782175408E+02  0.00000000000E+00 0.  1.
         22    1    1    2    0    0  0.97245051899E+01 -0.60598305806E+01  0.68390374096E+02  0.69343570840E+02  0.00000000000E+00 0.  1.
</event>
<event>
 6    1  0.2406404E-005  0.1045667E+03  0.7818608E-02  0.1319183E+00
          2   -1    0    0  502    0  0.00000000000E+00  0.00000000000E+00  0.13496425026E+03  0.13496425026E+03  0.00000000000E+00 0. -1.
          1   -1    0    0  501    0 -0.00000000000E+00 -0.00000000000E+00 -0.54900492967E+03  0.54900492967E+03  0.00000000000E+00 0. -1.
          2    1    1    2  501    0 -0.16484187992E+02 -0.22763844923E+02  0.72278665413E+02  0.77550799888E+02  0.00000000000E+00 0. -1.
          1    1    1    2  502    0 -0.17192778741E+02  0.11562469765E+02 -0.47347998580E+03  0.47393309581E+03  0.00000000000E+00 0. -1.
         22    1    1    2    0    0  0.53801688829E+01 -0.12741916744E+02  0.54169482829E+02  0.55907383497E+02  0.00000000000E+00 0. -1.
         22    1    1    2    0    0  0.28296797850E+02  0.23943291902E+02 -0.67008841849E+02  0.76577900739E+02  0.00000000000E+00 0.  1.
</event>
<event>
 6    1  0.2406404E-005  0.4753500E+03  0.7818608E-02  0.1021429E+00
          2   -1    0    0  502    0  0.00000000000E+00  0.00000000000E+00  0.18976138812E+04  0.18976138812E+04  0.00000000000E+00 0. -1.
          1   -1    0    0  501    0 -0.00000000000E+00 -0.00000000000E+00 -0.12362384355E+03  0.12362384355E+03  0.00000000000E+00 0.  1.
          2    1    1    2  501    0  0.40304902534E+03 -0.61175334351E+02  0.57030796370E+03  0.70102932308E+03  0.00000000000E+00 0. -1.
          1    1    1    2  502    0 -0.35117160884E+03  0.54005520153E+02  0.10695658198E+04  0.11270355531E+04  0.00000000000E+00 0.  1.
         22    1    1    2    0    0  0.29053361293E+02  0.41787399038E+02  0.45482735816E+02  0.68256602450E+02  0.00000000000E+00 0.  1.
         22    1    1    2    0    0 -0.80930777800E+02 -0.34617584840E+02  0.88633518347E+02  0.12491624614E+03  0.00000000000E+00 0. -1.
</event>
<event>
 6    1  0.3118642E-005  0.1510068E+03  0.7818608E-02  0.1250672E+00
          2   -1    0    0  502    0  0.00000000000E+00  0.00000000000E+00  0.73932574054E+03  0.73932574054E+03  0.00000000000E+00 0.  1.
          1   -1    0    0  501    0 -0.00000000000E+00 -0.00000000000E+00 -0.10741905514E+03  0.10741905514E+03  0.00000000000E+00 0. -1.
          2    1    1    2  501    0  0.15461027294E+02 -0.14936603717E+03  0.53306750008E+03  0.55381424329E+03  0.00000000000E+00 0.  1.
          1    1    1    2  502    0 -0.35346839839E+02  0.11585314218E+03  0.10357164233E+03  0.15936886375E+03  0.00000000000E+00 0. -1.
         22    1    1    2    0    0 -0.40282682802E+01 -0.12348966441E+02  0.53861211394E+02  0.55405360845E+02  0.00000000000E+00 0. -1.
         22    1    1    2    0    0  0.23914080825E+02  0.45861861436E+02 -0.58593668404E+02  0.78156327786E+02  0.00000000000E+00 0. -1.
</event>
<event>
 6    1  0.2406404E-005  0.2842000E+03  0.7818608E-02  0.1113525E+00
          2   -1    0    0  502    0  0.00000000000E+00  0.00000000000E+00  0.17817078987E+03  0.17817078987E+03  0.00000000000E+00 0. -1.
          1   -1    0    0  501    0 -0.00000000000E+00 -0.00000000000E+00 -0.99963180671E+03  0.99963180671E+03  0.00000000000E+00 0.  1.
          2    1    1    2  501    0  0.41636904788E+02  0.17496201334E+03  0.60347173972E+01  0.17994931443E+03  0.00000000000E+00 0. -1.
          1    1    1    2  502    0 -0.17656435390E+03 -0.24264181655E+03 -0.71232190872E+03  0.77295053130E+03  0.00000000000E+00 0.  1.
         22    1    1    2    0    0  0.15488522352E+03  0.68176220595E+02 -0.86742452209E+02  0.19016225318E+03  0.00000000000E+00 0.  1.
         22    1    1    2    0    0 -0.19957774405E+02 -0.49641738055E+00 -0.28431373311E+02  0.34740497662E+02  0.00000000000E+00 0.  1.
</event>
<event>
 6    1  0.2406404E-005  0.4268079E+02  0.7818608E-02  0.1580105E+00
          2   -1    0    0  502    0  0.00000000000E+00  0.00000000000E+00  0.23757137867E+03  0.23757137867E+03  0.00000000000E+00 0. -1.
          1   -1    0    0  501    0 -0.00000000000E+00 -0.00000000000E+00 -0.78275294700E+02  0.78275294700E+02  0.00000000000E+00 0.  1.
          2    1    1    2  501    0 -0.12906518725E+02  0.25569105958E+02  0.14678871017E+03  0.14955695516E+03  0.00000000000E+00 0. -1.
          1    1    1    2  502    0  0.15507853497E+02 -0.25411383782E+02 -0.22295923037E+02  0.37193280709E+02  0.00000000000E+00 0.  1.
         22    1    1    2    0    0  0.91898970942E+01 -0.91592765423E+01 -0.45562021939E+02  0.47373456688E+02  0.00000000000E+00 0.  1.
         22    1    1    2    0    0 -0.11791231866E+02  0.90015543667E+01  0.80365318781E+02  0.81722980812E+02  0.00000000000E+00 0.  1.
</event>
<event>
 6    1  0.2406404E-005  0.8450573E+02  0.7818608E-02  0.1395853E+00
          2   -1    0    0  502    0  0.00000000000E+00  0.00000000000E+00  0.67966383400E+03  0.67966383400E+03  0.00000000000E+00 0. -1.
          1   -1    0    0  501    0 -0.00000000000E+00 -0.00000000000E+00 -0.75571394034E+02  0.75571394034E+02  0.00000000000E+00 0. -1.
          2    1    1    2  501    0  0.45740329053E+02 -0.33974506477E+02  0.59020174027E+03  0.59294564592E+03  0.00000000000E+00 0. -1.
          1    1    1    2  502    0 -0.29873257402E+02  0.68404227110E+01 -0.77919080887E+01  0.31621459839E+02  0.00000000000E+00 0. -1.
         22    1    1    2    0    0 -0.32791074943E+02  0.41443275795E+02 -0.39251244206E+02  0.65829020016E+02  0.00000000000E+00 0. -1.
         22    1    1    2    0    0  0.16924003292E+02 -0.14309192029E+02  0.60933851989E+02  0.64839102263E+02  0.00000000000E+00 0. -1.
</event>
<event>
 6    1  0.2406404E-005  0.8092919E+02  0.7818608E-02  0.1380946E+00
          2   -1    0    0  502    0  0.00000000000E+00  0.00000000000E+00  0.80540112145E+02  0.80540112145E+02  0.00000000000E+00 0. -1.
          1   -1    0    0  501    0 -0.00000000000E+00 -0.00000000000E+00 -0.22296174425E+03  0.22296174425E+03  0.00000000000E+00 0. -1.
          2    1    1    2  501    0  0.33884005141E+02  0.37625131272E+02  0.18354794944E+02  0.53857913115E+02  0.00000000000E+00 0. -1.
          1    1    1    2  502    0 -0.17035782154E+02 -0.57672005123E+02 -0.56756752611E+02  0.82689824135E+02  0.00000000000E+00 0. -1.
         22    1    1    2    0    0 -0.27161706689E+02 -0.17072007849E+02 -0.12076029186E+03  0.12494902901E+03  0.00000000000E+00 0. -1.
         22    1    1    2    0    0  0.10313483701E+02  0.37118881700E+02  0.16740617424E+02  0.42005090126E+02  0.00000000000E+00 0.  1.
</event>
<event>
 6    1  0.2406404E-005  0.1342540E+03  0.7818608E-02  0.1221890E+00
          2   -1    0    0  502    0  0.00000000000E+00  0.00000000000E+00  0.12500374274E+03  0.12500374274E+03  0.00000000000E+00 0. -1.
          1   -1    0    0  501    0 -0.00000000000E+00 -0.00000000000E+00 -0.30700624233E+03  0.30700624233E+03  0.00000000000E+00 0.  1.
          2    1    1    2  501    0  0.28096180913E+01 -0.11355659909E+03  0.58935545850E+02  0.12797028450E+03  0.00000000000E+00 0. -1.
          1    1    1    2  502    0  0.90407753898E+01  0.36135628223E+02 -0.56339897025E+02  0.67540382317E+02  0.00000000000E+00 0.  1.
         22    1    1    2    0    0  0.94626684413E+01 -0.16383166453E+02  0.85198466747E+01  0.20749410218E+02  0.00000000000E+00 0.  1.
         22    1    1    2    0    0 -0.21313061922E+02  0.93804137324E+02 -0.19311799509E+03  0.21574990803E+03  0.00000000000E+00 0.  1.
</event>
<event>
 6    1  0.2406404E-005  0.3707955E+02  0.7818608E-02  0.1532816E+00
          2   -1    0    0  502    0  0.00000000000E+00  0.00000000000E+00  0.22363342627E+03  0.22363342627E+03  0.00000000000E+00 0.  1.
          1   -1    0    0  501    0 -0.00000000000E+00 -0.00000000000E+00 -0.15737524651E+03  0.15737524651E+03  0.00000000000E+00 0.  1.
          2    1    1    2  501    0  0.22790159757E+02 -0.13397755519E+02  0.15778615120E+03  0.15998550167E+03  0.00000000000E+00 0.  1.
          1    1    1    2  502    0 -0.19109424282E+02  0.12262044148E+02 -0.91937363783E+02  0.94699560097E+02  0.00000000000E+00 0.  1.
         22    1    1    2    0    0 -0.74931900181E+01  0.11070723065E+02 -0.61790474018E+02  0.63220024401E+02  0.00000000000E+00 0. -1.
         22    1    1    2    0    0  0.38124545429E+01 -0.99350116941E+01  0.62199866363E+02  0.63103586606E+02  0.00000000000E+00 0.  1.
</event>
<event>
 6    1  0.2406404E-005  0.1076509E+03  0.7818608E-02  0.1376572E+00
          2   -1    0    0  502    0  0.00000000000E+00  0.00000000000E+00  0.42086448675E+03  0.42086448675E+03  0.00000000000E+00 0. -1.
          1   -1    0    0  501    0 -0.00000000000E+00 -0.00000000000E+00 -0.62247712856E+02  0.62247712856E+02  0.00000000000E+00 0. -1.
          2    1    1    2  501    0  0.48054484892E+02 -0.29885218479E+02  0.14298557536E+03  0.15377657351E+03  0.00000000000E+00 0. -1.
          1    1    1    2  502    0 -0.79513425013E+02  0.52510370983E+02  0.23255483798E+02  0.98084358308E+02  0.00000000000E+00 0. -1.
         22    1    1    2    0    0 -0.14501781806E+02 -0.20107894760E+01 -0.13127824549E+02  0.19664300833E+02  0.00000000000E+00 0.  1.
         22    1    1    2    0    0  0.45960721927E+02 -0.20614363028E+02  0.20550353929E+03  0.21158696695E+03  0.00000000000E+00 0. -1.
</event>
<event>
 6    1  0.2406404E-005  0.8057019E+02  0.7818608E-02  0.1345556E+00
          2   -1    0    0  502    0  0.00000000000E+00  0.00000000000E+00  0.22757997617E+02  0.22757997617E+02  0.00000000000E+00 0.  1.
          1   -1    0    0  501    0 -0.00000000000E+00 -0.00000000000E+00 -0.35754904849E+03  0.35754904849E+03  0.00000000000E+00 0.  1.
          2    1    1    2  501    0 -0.12208207976E+02  0.22043626785E+02 -0.40932755162E+02  0.48067164145E+02  0.00000000000E+00 0.  1.
          1    1    1    2  502    0  0.19188070905E+02  0.15599039624E+02 -0.62616827085E+02  0.67322946582E+02  0.00000000000E+00 0.  1.
         22    1    1    2    0    0 -0.16526829104E+01 -0.53207960865E+02 -0.24030716316E+03  0.24613279165E+03  0.00000000000E+00 0.  1.
         22    1    1    2    0    0 -0.53271800186E+01  0.15565294455E+02  0.90656945309E+01  0.18784143732E+02  0.00000000000E+00 0.  1.
</event>
<event>
 6    1  0.2406404E-005  0.4340407E+02  0.7818608E-02  0.1488420E+00
          2   -1    0    0  502    0  0.00000000000E+00  0.00000000000E+00  0.34261943592E+03  0.34261943592E+03  0.00000000000E+00 0.  1.
          1   -1    0    0  501    0 -0.00000000000E+00 -0.00000000000E+00 -0.63415877324E+02  0.63415877324E+02  0.00000000000E+00 0. -1.
          2    1    1    2  501    0  0.15182733683E+02  0.52469647133E+02  0.13211645421E+03  0.14296271103E+03  0.00000000000E+00 0.  1.
          1    1    1    2  502    0 -0.13802801050E+02 -0.44173086533E+02 -0.21810874784E+02  0.51161442020E+02  0.00000000000E+00 0. -1.
         22    1    1    2    0    0 -0.30992505841E+02  0.24059674407E+02  0.19348628553E+01  0.39282910345E+02  0.00000000000E+00 0. -1.
         22    1    1    2    0    0  0.29612573208E+02 -0.32356235007E+02  0.16696311632E+03  0.17262824985E+03  0.00000000000E+00 0.  1.
</event>
<event>
 6    1  0.2406404E-005  0.1447431E+03  0.7818608E-02  0.1225699E+00
          2   -1    0    0  502    0  0.00000000000E+00  0.00000000000E+00  0.23499071529E+03  0.23499071529E+03  0.00000000000E+00 0. -1.
          1   -1    0    0  501    0 -0.00000000000E+00 -0.00000000000E+00 -0.62558714158E+02  0.62558714158E+02  0.00000000000E+00 0. -1.
          2    1    1    2  501    0  0.21248924665E+01 -0.65969055858E+02  0.11183764765E+02  0.66944066900E+02  0.00000000000E+00 0. -1.
          1    1    1    2  502    0  0.11977164594E+02  0.36340735671E+02  0.51161029785E+02  0.63887029275E+02  0.00000000000E+00 0. -1.
         22    1    1    2    0    0 -0.60063621204E+02  0.54244766742E+01  0.95177699081E+02  0.11267589778E+03  0.00000000000E+00 0. -1.
         22    1    1    2    0    0  0.45961564143E+02  0.24203843513E+02  0.14909507497E+02  0.54042435484E+02  0.00000000000E+00 0. -1.
</event>
<event>
 6    1  0.2406404E-005  0.1319988E+03  0.7818608E-02  0.1231450E+00
          2   -1    0    0  502    0  0.00000000000E+00  0.00000000000E+00  0.10091132142E+03  0.10091132142E+03  0.00000000000E+00 0.  1.
          1   -1    0    0  501    0 -0.00000000000E+00 -0.00000000000E+00 -0.15290196617E+03  0.15290196617E+03  0.00000000000E+00 0.  1.
          2    1    1    2  501    0 -0.33136012555E+01  0.48564682224E+02 -0.28028035476E+02  0.56170090666E+02  0.00000000000E+00 0.  1.
          1    1    1    2  502    0 -0.65134139912E+01 -0.58151797248E+02  0.21604484144E+02  0.62376356258E+02  0.00000000000E+00 0.  1.
         22    1    1    2    0    0  0.41189226229E+02 -0.46127500666E+02 -0.33047928642E+02  0.70117503253E+02  0.00000000000E+00 0.  1.
         22    1    1    2    0    0 -0.31362210982E+02  0.55714615689E+02 -0.12519164771E+02  0.65149337415E+02  0.00000000000E+00 0.  1.
</event>
<event>
 6    1  0.2406404E-005  0.1996119E+03  0.7818608E-02  0.1197917E+00
          2   -1    0    0  502    0  0.00000000000E+00  0.00000000000E+00  0.16700650298E+03  0.16700650298E+03  0.00000000000E+00 0. -1.
          1   -1    0    0  501    0 -0.00000000000E+00 -0.00000000000E+00 -0.41138590728E+03  0.41138590728E+03  0.00000000000E+00 0. -1.
          2    1    1    2  501    0 -0.18047392235E+03 -0.58854769053E+02  0.10526067945E+02  0.19011974804E+03  0.00000000000E+00 0. -1.
          1    1    1    2  502    0  0.13362089612E+03  0.77132549753E+02 -0.17800399417E+03  0.23556187308E+03  0.00000000000E+00 0. -1.
         22    1    1    2    0    0  0.21032805274E+02  0.43860702928E+02 -0.69758206567E+02  0.85043209855E+02  0.00000000000E+00 0. -1.
         22    1    1    2    0    0  0.25820220959E+02 -0.62138483628E+02 -0.71432715093E+01  0.67667579282E+02  0.00000000000E+00 0. -1.
</event>
<event>
 6    1  0.2406404E-005  0.2080120E+03  0.7818608E-02  0.1150440E+00
          2   -1    0    0  502    0  0.00000000000E+00  0.00000000000E+00  0.86976371648E+02  0.86976371648E+02  0.00000000000E+00 0. -1.
          1   -1    0    0  501    0 -0.00000000000E+00 -0.00000000000E+00 -0.43170791956E+03  0.43170791956E+03  0.00000000000E+00 0. -1.
          2    1    1    2  501    0 -0.77997842137E+02 -0.92523321617E+02 -0.19753927184E+03  0.23165921596E+03  0.00000000000E+00 0. -1.
          1    1    1    2  502    0  0.19038185873E+02  0.83513215666E+02 -0.42772732315E+01  0.85762490510E+02  0.00000000000E+00 0. -1.
         22    1    1    2    0    0  0.86794150454E+02  0.25605153439E+02 -0.14255878160E+03  0.16885453695E+03  0.00000000000E+00 0. -1.
         22    1    1    2    0    0 -0.27834494190E+02 -0.16595047488E+02 -0.35622123869E+00  0.32408047789E+02  0.00000000000E+00 0. -1.
</event>
<event>
 6    1  0.2406404E-005  0.4318203E+02  0.7818608E-02  0.1497542E+00
          2   -1    0    0  502    0  0.00000000000E+00  0.00000000000E+00  0.46172593691E+03  0.46172593691E+03  0.00000000000E+00 0. -1.
          1   -1    0    0  501    0 -0.00000000000E+00 -0.00000000000E+00 -0.11918290296E+03  0.11918290296E+03  0.00000000000E+00 0.  1.
          2    1    1    2  501    0  0.74893415104E+01  0.47652586056E+02  0.35770184205E+03  0.36093969995E+03  0.00000000000E+00 0. -1.
          1    1    1    2  502    0 -0.16682503295E+02 -0.13900806247E+02 -0.75445764546E+02  0.78508609199E+02  0.00000000000E+00 0.  1.
         22    1    1    2    0    0 -0.14462804043E+02 -0.16850107781E+01 -0.35145735929E+02  0.38042538245E+02  0.00000000000E+00 0.  1.
         22    1    1    2    0    0  0.23655965828E+02 -0.32066769032E+02  0.95432692371E+02  0.10341799248E+03  0.00000000000E+00 0.  1.
</event>
<event>
 6    1  0.2406404E-005  0.1750196E+03  0.7818608E-02  0.1199098E+00
          2   -1    0    0  502    0  0.00000000000E+00  0.00000000000E+00  0.42403105526E+03  0.42403105526E+03  0.00000000000E+00 0. -1.
          1   -1    0    0  501    0 -0.00000000000E+00 -0.00000000000E+00 -0.14368149008E+03  0.14368149008E+03  0.00000000000E+00 0. -1.
          2    1    1    2  501    0 -0.19568119871E+02  0.14902168308E+02 -0.64915070122E+02  0.69418673745E+02  0.00000000000E+00 0. -1.
          1    1    1    2  502    0 -0.23035354203E+02 -0.11447695578E+03  0.30427099917E+03  0.32590864040E+03  0.00000000000E+00 0. -1.
         22    1    1    2    0    0  0.53839641101E+00  0.53945577863E+02  0.81888830301E+02  0.98062203573E+02  0.00000000000E+00 0.  1.
         22    1    1    2    0    0  0.42065077663E+02  0.45629209609E+02 -0.40895194168E+02  0.74323027618E+02  0.00000000000E+00 0. -1.
</event>
<event>
 6    1  0.2406404E-005  0.8346923E+02  0.7818608E-02  0.1327527E+00
          2   -1    0    0  502    0  0.00000000000E+00  0.00000000000E+00  0.28988786724E+03  0.28988786724E+03  0.00000000000E+00 0. -1.
          1   -1    0    0  501    0 -0.00000000000E+00 -0.00000000000E+00 -0.23668622314E+03  0.23668622314E+03  0.00000000000E+00 0.  1.
          2    1    1    2  501    0  0.17795512991E+02  0.57795849441E+02  0.25458453770E+03  0.26166835371E+03  0.00000000000E+00 0. -1.
          1    1    1    2  502    0 -0.23069504551E+02  0.86092233384E+00 -0.83463316920E+02  0.86597162187E+02  0.00000000000E+00 0.  1.
         22    1    1    2    0    0  0.10294165628E+02  0.22853730741E+00  0.23162658209E+02  0.25348191466E+02  0.00000000000E+00 0.  1.
         22    1    1    2    0    0 -0.50201740674E+01 -0.58885309082E+02 -0.14108223488E+03  0.15296038302E+03  0.00000000000E+00 0.  1.
</event>
<event>
 6    1  0.2406404E-005  0.4073351E+02  0.7818608E-02  0.1570459E+00
          2   -1    0    0  502    0  0.00000000000E+00  0.00000000000E+00  0.33431387080E+03  0.33431387080E+03  0.00000000000E+00 0.  1.
          1   -1    0    0  501    0 -0.00000000000E+00 -0.00000000000E+00 -0.52386663154E+02  0.52386663154E+02  0.00000000000E+00 0. -1.
          2    1    1    2  501    0 -0.10068854165E+02 -0.25684493173E+02  0.22514736705E+03  0.22683124102E+03  0.00000000000E+00 0.  1.
          1    1    1    2  502    0  0.78419977053E+01  0.24696344380E+02  0.19948931196E+02  0.32701165264E+02  0.00000000000E+00 0. -1.
         22    1    1    2    0    0 -0.23849413981E+01 -0.15194142474E+02  0.79670995713E+02  0.81141958745E+02  0.00000000000E+00 0.  1.
         22    1    1    2    0    0  0.46117978581E+01  0.16182291267E+02 -0.42840086315E+02  0.46026168922E+02  0.00000000000E+00 0. -1.
</event>
<event>
 6    1  0.2406404E-005  0.4760162E+02  0.7818608E-02  0.1530838E+00
          2   -1    0    0  502    0  0.00000000000E+00  0.00000000000E+00  0.91268726293E+02  0.91268726293E+02  0.00000000000E+00 0. -1.
          1   -1    0    0  501    0 -0.00000000000E+00 -0.00000000000E+00 -0.19532595159E+03  0.19532595159E+03  0.00000000000E+00 0. -1.
          2    1    1    2  501    0  0.66919891411E+02 -0.37523284148E+01  0.18732353252E+02  0.69593483125E+02  0.00000000000E+00 0. -1.
          1    1    1    2  502    0 -0.47606600496E+02 -0.12486357403E+02 -0.18279775412E+02  0.52501883025E+02  0.00000000000E+00 0. -1.
         22    1    1    2    0    0  0.68382337854E+01 -0.12240567560E+02  0.25369858361E+02  0.28986594294E+02  0.00000000000E+00 0.  1.
         22    1    1    2    0    0 -0.26151524700E+02  0.28479253378E+02 -0.12987966150E+03  0.13551271744E+03  0.00000000000E+00 0. -1.
</event>
<event>
 6    1  0.2406404E-005  0.1918244E+03  0.7818608E-02  0.1171082E+00
          2   -1    0    0  502    0  0.00000000000E+00  0.00000000000E+00  0.44974377940E+03  0.44974377940E+03  0.00000000000E+00 0.  1.
          1   -1    0    0  501    0 -0.00000000000E+00 -0.00000000000E+00 -0.20865287988E+03  0.20865287988E+03  0.00000000000E+00 0.  1.
          2    1    1    2  501    0  0.11249562450E+03 -0.17704310311E+02  0.37280364431E+03  0.38980926790E+03  0.00000000000E+00 0.  1.
          1    1    1    2  502    0 -0.32212047265E+02  0.71267302914E+02 -0.55138991836E+02  0.95691968704E+02  0.00000000000E+00 0.  1.
         22    1    1    2    0    0 -0.93234827181E+02 -0.64479888047E+02 -0.94973392083E+02  0.14788622034E+03  0.00000000000E+00 0.  1.
         22    1    1    2    0    0  0.12951249945E+02  0.10916895443E+02  0.18399639129E+02  0.25009202333E+02  0.00000000000E+00 0. -1.
</event>
<event>
 6    1  0.2406404E-005  0.1809597E+03  0.7818608E-02  0.1177635E+00
          2   -1    0    0  502    0  0.00000000000E+00  0.00000000000E+00  0.46647558754E+03  0.46647558754E+03  0.00000000000E+00 0. -1.
          1   -1    0    0  501    0 -0.00000000000E+00 -0.00000000000E+00 -0.92267277461E+02  0.92267277461E+02  0.00000000000E+00 0. -1.
          2    1    1    2  501    0  0.16931506387E+02 -0.15089487320E+02  0.31431389349E+03  0.31513107142E+03  0.00000000000E+00 0. -1.
          1    1    1    2  502    0  0.48887277368E+02 -0.56953302684E+02  0.39371483037E+02  0.84757054288E+02  0.00000000000E+00 0. -1.
         22    1    1    2    0    0 -0.74139229181E+02  0.33481708941E+02  0.61496283658E+02  0.10197765952E+03  0.00000000000E+00 0. -1.
         22    1    1    2    0    0  0.83204454255E+01  0.38561081064E+02 -0.40973350102E+02  0.56877079773E+02  0.00000000000E+00 0.  1.
</event>
<event>
 6    1  0.2406404E-005  0.1326198E+03  0.7818608E-02  0.1226595E+00
          2   -1    0    0  502    0  0.00000000000E+00  0.00000000000E+00  0.19637876298E+03  0.19637876298E+03  0.00000000000E+00 0.  1.
          1   -1    0    0  501    0 -0.00000000000E+00 -0.00000000000E+00 -0.49999804517E+03  0.49999804517E+03  0.00000000000E+00 0.  1.
          2    1    1    2  501    0  0.59511610675E+01 -0.92630738367E+02  0.83953102778E+02  0.12515587671E+03  0.00000000000E+00 0.  1.
          1    1    1    2  502    0 -0.89443762617E+01  0.10466315643E+03 -0.42318500700E+03  0.43602743989E+03  0.00000000000E+00 0.  1.
         22    1    1    2    0    0 -0.23112040228E+01  0.17886236045E+02 -0.45303000516E+02  0.48760854788E+02  0.00000000000E+00 0.  1.
         22    1    1    2    0    0  0.53044192170E+01 -0.29918654108E+02  0.80915622545E+02  0.86432636769E+02  0.00000000000E+00 0.  1.
</event>
<event>
 6    1  0.2406404E-005  0.1349380E+03  0.7818608E-02  0.1252844E+00
          2   -1    0    0  502    0  0.00000000000E+00  0.00000000000E+00  0.12926806314E+03  0.12926806314E+03  0.00000000000E+00 0. -1.
          1   -1    0    0  501    0 -0.00000000000E+00 -0.00000000000E+00 -0.11231660870E+03  0.11231660870E+03  0.00000000000E+00 0. -1.
          2    1    1    2  501    0  0.36832152749E+02 -0.32049514752E+02  0.32098479537E+02  0.58430225573E+02  0.00000000000E+00 0. -1.
          1    1    1    2  502    0  0.24590143096E+02  0.27788971693E+02  0.19831481950E+02  0.42073623110E+02  0.00000000000E+00 0. -1.
         22    1    1    2    0    0 -0.73463183103E+02 -0.37914295420E+01 -0.71012297846E+02  0.10224461186E+03  0.00000000000E+00 0. -1.
         22    1    1    2    0    0  0.12040887258E+02  0.80519726005E+01  0.36033790796E+02  0.38836211296E+02  0.00000000000E+00 0. -1.
</event>
<event>
 6    1  0.2406404E-005  0.2237924E+03  0.7818608E-02  0.1133027E+00
          2   -1    0    0  502    0  0.00000000000E+00  0.00000000000E+00  0.18299489135E+04  0.18299489135E+04  0.00000000000E+00 0. -1.
          1   -1    0    0  501    0 -0.00000000000E+00 -0.00000000000E+00 -0.26123379889E+02  0.26123379889E+02  0.00000000000E+00 0. -1.
          2    1    1    2  501    0  0.15412700563E+03  0.90403179224E+02  0.67858570661E+03  0.70171677327E+03  0.00000000000E+00 0. -1.
          1    1    1    2  502    0 -0.73923496156E+02 -0.83205118281E+02  0.43913402115E+03  0.45301927500E+03  0.00000000000E+00 0. -1.
         22    1    1    2    0    0  0.30120156302E+02  0.12527894736E+02  0.18460851406E+03  0.18746859850E+03  0.00000000000E+00 0. -1.
         22    1    1    2    0    0 -0.11032366578E+03 -0.19725955679E+02  0.50149729182E+03  0.51386764663E+03  0.00000000000E+00 0.  1.
</event>
<event>
 6    1  0.2406404E-005  0.1204529E+03  0.7818608E-02  0.1280551E+00
          2   -1    0    0  502    0  0.00000000000E+00  0.00000000000E+00  0.97222056193E+02  0.97222056193E+02  0.00000000000E+00 0. -1.
          1   -1    0    0  501    0 -0.00000000000E+00 -0.00000000000E+00 -0.10996931901E+04  0.10996931901E+04  0.00000000000E+00 0.  1.
          2    1    1    2  501    0 -0.43349897440E+02 -0.52688914872E+01  0.52623106979E+02  0.68382499323E+02  0.00000000000E+00 0. -1.
          1    1    1    2  502    0 -0.19715525116E+02  0.11875723627E+03 -0.83907875420E+03  0.84767041876E+03  0.00000000000E+00 0.  1.
         22    1    1    2    0    0 -0.11579870835E+02 -0.61124161500E+01  0.12159559609E+02  0.17869245357E+02  0.00000000000E+00 0.  1.
         22    1    1    2    0    0  0.74645293391E+02 -0.10737592863E+03 -0.22817504629E+03  0.26299308285E+03  0.00000000000E+00 0. -1.
</event>
<event>
 6    1  0.2406404E-005  0.1204805E+03  0.7818608E-02  0.1251591E+00
          2   -1    0    0  502    0  0.00000000000E+00  0.00000000000E+00  0.29505423508E+03  0.29505423508E+03  0.00000000000E+00 0.  1.
          1   -1    0    0  501    0 -0.00000000000E+00 -0.00000000000E+00 -0.59346991401E+02  0.59346991401E+02  0.00000000000E+00 0. -1.
          2    1    1    2  501    0 -0.64360452816E+02  0.40847574726E+02  0.13702671765E+03  0.15680278568E+03  0.00000000000E+00 0.  1.
          1    1    1    2  502    0  0.74615371803E+01 -0.24989345601E+02  0.38441153568E+02  0.46452817119E+02  0.00000000000E+00 0. -1.
         22    1    1    2    0    0  0.68985557552E+02 -0.32896955100E+02 -0.10719183657E+02  0.77175888099E+02  0.00000000000E+00 0. -1.
         22    1    1    2    0    0 -0.12086641916E+02  0.17038725974E+02  0.70958556118E+02  0.73969735582E+02  0.00000000000E+00 0. -1.
</event>
<event>
 6    1  0.2406404E-005  0.8737353E+02  0.7818608E-02  0.1421899E+00
          2   -1    0    0  502    0  0.00000000000E+00  0.00000000000E+00  0.59478708628E+03  0.59478708628E+03  0.00000000000E+00 0.  1.
          1   -1    0    0  501    0 -0.00000000000E+00 -0.00000000000E+00 -0.11687109703E+03  0.11687109703E+03  0.00000000000E+00 0.  1.
          2    1    1    2  501    0  0.19925290726E+02 -0.54623215738E+02  0.44542427230E+03  0.44920317816E+03  0.00000000000E+00 0.  1.
          1    1    1    2  502    0 -0.31229016831E+02  0.65100111943E+02 -0.69745398495E+02  0.10038773171E+03  0.00000000000E+00 0.  1.
         22    1    1    2    0    0 -0.13239424132E+02  0.16724792050E+01 -0.26916091644E+02  0.30042561931E+02  0.00000000000E+00 0. -1.
         22    1    1    2    0    0  0.24543150236E+02 -0.12149375410E+02  0.12915320709E+03  0.13202471151E+03  0.00000000000E+00 0.  1.
</event>
<event>
 6    1  0.2406404E-005  0.4132150E+02  0.7818608E-02  0.1554628E+00
          2   -1    0    0  502    0  0.00000000000E+00  0.00000000000E+00  0.29622372694E+03  0.29622372694E+03  0.00000000000E+00 0. -1.
          1   -1    0    0  501    0 -0.00000000000E+00 -0.00000000000E+00 -0.20644771317E+03  0.20644771317E+03  0.00000000000E+00 0.  1.
          2    1    1    2  501    0  0.20215994926E+02 -0.42220223702E-01  0.21034624557E+03  0.21131547804E+03  0.00000000000E+00 0. -1.
          1    1    1    2  502    0 -0.24962720259E+02  0.10740417903E+02 -0.15651231972E+03  0.15885402167E+03  0.00000000000E+00 0.  1.
         22    1    1    2    0    0  0.17798022139E+02 -0.84159816633E+01  0.82127182412E+02  0.84453966339E+02  0.00000000000E+00 0. -1.
         22    1    1    2    0    0 -0.13051296806E+02 -0.22822160158E+01 -0.46185094491E+02  0.48047974061E+02  0.00000000000E+00 0.  1.
</event>
<event>
 6    1  0.2406404E-005  0.6382191E+02  0.7818608E-02  0.1388024E+00
          2   -1    0    0  502    0  0.00000000000E+00  0.00000000000E+00  0.16639274823E+03  0.16639274823E+03  0.00000000000E+00 0. -1.
          1   -1    0    0  501    0 -0.00000000000E+00 -0.00000000000E+00 -0.25645113203E+03  0.25645113203E+03  0.00000000000E+00 0.  1.
          2    1    1    2  501    0 -0.44369905879E+02  0.62864018650E+01  0.11907305359E+03  0.12722656753E+03  0.00000000000E+00 0. -1.
          1    1    1    2  502    0  0.16003357544E+02 -0.17989794273E+02 -0.15255963470E+03  0.15444799219E+03  0.00000000000E+00 0.  1.
         22    1    1    2    0    0  0.16498636070E+02  0.26025473024E+02 -0.94244942123E+02  0.99154623463E+02  0.00000000000E+00 0.  1.
         22    1    1    2    0    0  0.11867912265E+02 -0.14322080616E+02  0.37673139439E+02  0.42014697070E+02  0.00000000000E+00 0.  1.
</event>
<event>
 6    1  0.2406404E-005  0.4580487E+02  0.7818608E-02  0.1529217E+00
          2   -1    0    0  502    0  0.00000000000E+00  0.00000000000E+00  0.67675891195E+02  0.67675891195E+02  0.00000000000E+00 0. -1.
          1   -1    0    0  501    0 -0.00000000000E+00 -0.00000000000E+00 -0.17068150240E+03  0.17068150240E+03  0.00000000000E+00 0. -1.
          2    1    1    2  501    0 -0.13942354267E+02  0.14659894609E+02  0.24729810035E+01  0.20381790586E+02  0.00000000000E+00 0. -1.
          1    1    1    2  502    0  0.37297681252E+01 -0.47898555800E+02  0.19778616762E+01  0.48084246431E+02  0.00000000000E+00 0. -1.
         22    1    1    2    0    0 -0.19815982200E+02 -0.33926948675E+01  0.23326812584E+02  0.30794865064E+02  0.00000000000E+00 0.  1.
         22    1    1    2    0    0  0.30028568342E+02  0.36631356059E+02 -0.13078326646E+03  0.13909649151E+03  0.00000000000E+00 0. -1.
</event>
<event>
 6    1  0.2406404E-005  0.6312840E+02  0.7818608E-02  0.1413057E+00
          2   -1    0    0  502    0  0.00000000000E+00  0.00000000000E+00  0.15305981304E+03  0.15305981304E+03  0.00000000000E+00 0. -1.
          1   -1    0    0  501    0 -0.00000000000E+00 -0.00000000000E+00 -0.15919554720E+03  0.15919554720E+03  0.00000000000E+00 0. -1.
          2    1    1    2  501    0  0.41951807842E+02  0.41805511788E+01  0.71482451903E+02  0.82988987941E+02  0.00000000000E+00 0. -1.
          1    1    1    2  502    0 -0.36035656717E+02  0.18855882963E+02 -0.89198275801E+02  0.98032878583E+02  0.00000000000E+00 0. -1.
         22    1    1    2    0    0 -0.25684138765E+02 -0.31386212141E+02 -0.50951888409E+02  0.65121918193E+02  0.00000000000E+00 0. -1.
         22    1    1    2    0    0  0.19767987641E+02  0.83497779992E+01  0.62531978141E+02  0.66111575524E+02  0.00000000000E+00 0. -1.
</event>
<event>
 6    1  0.2406404E-005  0.8826509E+02  0.7818608E-02  0.1312675E+00
          2   -1    0    0  502    0  0.00000000000E+00  0.00000000000E+00  0.72106000737E+03  0.72106000737E+03  0.00000000000E+00 0. -1.
          1   -1    0    0  501    0 -0.00000000000E+00 -0.00000000000E+00 -0.31831470478E+02  0.31831470478E+02  0.00000000000E+00 0. -1.
          2    1    1    2  501    0  0.23534808600E+02 -0.21236550860E+02  0.52020536021E+03  0.52117031295E+03  0.00000000000E+00 0. -1.
          1    1    1    2  502    0 -0.15131261454E+02  0.27174248938E+02  0.42008265876E+02  0.52269391430E+02  0.00000000000E+00 0. -1.
         22    1    1    2    0    0 -0.32332448695E+02 -0.19341366420E+02  0.14288182371E+03  0.14776566327E+03  0.00000000000E+00 0. -1.
         22    1    1    2    0    0  0.23928901548E+02  0.13403668342E+02 -0.15866912908E+02  0.31686110199E+02  0.00000000000E+00 0. -1.
</event>
<event>
 6    1  0.2406404E-005  0.2839537E+03  0.7818608E-02  0.1147100E+00
          2   -1    0    0  502    0  0.00000000000E+00  0.00000000000E+00  0.16347640524E+03  0.16347640524E+03  0.00000000000E+00 0. -1.
          1   -1    0    0  501    0 -0.00000000000E+00 -0.00000000000E+00 -0.78617449012E+03  0.78617449012E+03  0.00000000000E+00 0. -1.
          2    1    1    2  501    0  0.24936027857E+03  0.92782139357E+02 -0.65099489754E+02  0.27391060125E+03  0.00000000000E+00 0. -1.
          1    1    1    2  502    0 -0.23550089564E+03 -0.47873735499E+02 -0.29885040532E+03  0.38348941466E+03  0.00000000000E+00 0. -1.
         22    1    1    2    0    0  0.39890229646E+02  0.65424308930E+01 -0.26401412647E+02  0.48281139309E+02  0.00000000000E+00 0.  1.
         22    1    1    2    0    0 -0.53749612576E+02 -0.51450834751E+02 -0.23234677716E+03  0.24396974014E+03  0.00000000000E+00 0. -1.
</event>
<event>
 6    1  0.2406404E-005  0.5419101E+02  0.7818608E-02  0.1520984E+00
          2   -1    0    0  502    0  0.00000000000E+00  0.00000000000E+00  0.59387338463E+02  0.59387338463E+02  0.00000000000E+00 0.  1.
          1   -1    0    0  501    0 -0.00000000000E+00 -0.00000000000E+00 -0.40706219284E+03  0.40706219284E+03  0.00000000000E+00 0. -1.
          2    1    1    2  501    0 -0.32921472907E+02  0.41070281757E+02 -0.21736776442E+02  0.56948036595E+02  0.00000000000E+00 0.  1.
          1    1    1    2  502    0  0.30511155004E+02 -0.18543278221E+02 -0.27277221132E+03  0.27509900584E+03  0.00000000000E+00 0. -1.
         22    1    1    2    0    0 -0.96760027893E+01 -0.94764884367E+01  0.38611175232E+02  0.40917621093E+02  0.00000000000E+00 0.  1.
         22    1    1    2    0    0  0.12086320692E+02 -0.13050515099E+02 -0.91777041843E+02  0.93484867769E+02  0.00000000000E+00 0.  1.
</event>
<event>
 6    1  0.2406404E-005  0.6219740E+02  0.7818608E-02  0.1440417E+00
          2   -1    0    0  502    0  0.00000000000E+00  0.00000000000E+00  0.50592575494E+03  0.50592575494E+03  0.00000000000E+00 0. -1.
          1   -1    0    0  501    0 -0.00000000000E+00 -0.00000000000E+00 -0.12952781249E+03  0.12952781249E+03  0.00000000000E+00 0. -1.
          2    1    1    2  501    0  0.57460007950E+01  0.41342427705E+02  0.37243818896E+03  0.37476981929E+03  0.00000000000E+00 0. -1.
          1    1    1    2  502    0  0.72750584505E+01 -0.47461148007E+02 -0.88924191701E+02  0.10105938311E+03  0.00000000000E+00 0. -1.
         22    1    1    2    0    0 -0.21244212383E+02  0.18164357882E+02  0.12301421148E+03  0.12614973913E+03  0.00000000000E+00 0. -1.
         22    1    1    2    0    0  0.82231531377E+01 -0.12045637579E+02 -0.30130266291E+02  0.33474625898E+02  0.00000000000E+00 0.  1.
</event>
<event>
 6    1  0.2406404E-005  0.1804861E+03  0.7818608E-02  0.1210501E+00
          2   -1    0    0  502    0  0.00000000000E+00  0.00000000000E+00  0.12699931781E+03  0.12699931781E+03  0.00000000000E+00 0. -1.
          1   -1    0    0  501    0 -0.00000000000E+00 -0.00000000000E+00 -0.12293484894E+03  0.12293484894E+03  0.00000000000E+00 0. -1.
          2    1    1    2  501    0 -0.12654576055E+02 -0.67923973115E+02 -0.28023380891E+02  0.74559468181E+02  0.00000000000E+00 0. -1.
          1    1    1    2  502    0 -0.26919071958E+02  0.95055575142E+01  0.77978536537E+00  0.28558713626E+02  0.00000000000E+00 0. -1.
         22    1    1    2    0    0  0.80307773759E+02  0.61101907521E+02  0.32385780787E+02  0.10597933962E+03  0.00000000000E+00 0. -1.
         22    1    1    2    0    0 -0.40734125746E+02 -0.26834919203E+01 -0.10777163910E+01  0.40836645330E+02  0.00000000000E+00 0.  1.
</event>
<event>
 6    1  0.2406404E-005  0.1054629E+03  0.7818608E-02  0.1366477E+00
          2   -1    0    0  502    0  0.00000000000E+00  0.00000000000E+00  0.58032615559E+03  0.58032615559E+03  0.00000000000E+00 0.  1.
          1   -1    0    0  501    0 -0.00000000000E+00 -0.00000000000E+00 -0.17853100645E+03  0.17853100645E+03  0.00000000000E+00 0.  1.
          2    1    1    2  501    0  0.26434917051E+02  0.68952076592E+02  0.37184112569E+03  0.37910291012E+03  0.00000000000E+00 0.  1.
          1    1    1    2  502    0 -0.34200098703E+02 -0.94811163114E+02 -0.13533506453E+03  0.16874354238E+03  0.00000000000E+00 0.  1.
         22    1    1    2    0    0  0.24928063001E+02  0.19236648686E+02  0.18287207228E+03  0.18556306690E+03  0.00000000000E+00 0. -1.
         22    1    1    2    0    0 -0.17162881349E+02  0.66224378360E+01 -0.17582984292E+02  0.25447642635E+02  0.00000000000E+00 0. -1.
</event>
<event>
 6    1  0.2406404E-005  0.2729864E+03  0.7818608E-02  0.1099747E+00
          2   -1    0    0  502    0  0.00000000000E+00  0.00000000000E+00  0.62937516467E+03  0.62937516467E+03  0.00000000000E+00 0. -1.
          1   -1    0    0  501    0 -0.00000000000E+00 -0.00000000000E+00 -0.19325261637E+03  0.19325261637E+03  0.00000000000E+00 0. -1.
          2    1    1    2  501    0 -0.19351811754E+03 -0.12105637178E+03  0.42390855480E+03  0.48145858576E+03  0.00000000000E+00 0. -1.
          1    1    1    2  502    0  0.18459536358E+03  0.67546468543E+02 -0.36133814949E+02  0.19985901594E+03  0.00000000000E+00 0. -1.
         22    1    1    2    0    0 -0.42428098821E+02 -0.73681666954E+00  0.51273988326E+02  0.66556054174E+02  0.00000000000E+00 0.  1.
         22    1    1    2    0    0  0.51350852777E+02  0.54246719906E+02 -0.29261798780E+01  0.74754125172E+02  0.00000000000E+00 0. -1.
</event>
<event>
 6    1  0.2406404E-005  0.6817847E+02  0.7818608E-02  0.1401226E+00
          2   -1    0    0  502    0  0.00000000000E+00  0.00000000000E+00  0.17880072366E+03  0.17880072366E+03  0.00000000000E+00 0.  1.
          1   -1    0    0  501    0 -0.00000000000E+00 -0.00000000000E+00 -0.70941567453E+03  0.70941567453E+03  0.00000000000E+00 0. -1.
          2    1    1    2  501    0  0.42672157106E+02 -0.18109583392E+02  0.14668142311E+03  0.15383208342E+03  0.00000000000E+00 0.  1.
          1    1    1    2  502    0 -0.34993828057E+02  0.61240290166E+02 -0.54021784108E+03  0.54480295242E+03  0.00000000000E+00 0. -1.
         22    1    1    2    0    0  0.13518435734E+02 -0.10688674674E+02  0.20802564771E+02  0.27013747834E+02  0.00000000000E+00 0. -1.
         22    1    1    2    0    0 -0.21196764783E+02 -0.32442032100E+02 -0.15788109768E+03  0.16256761451E+03  0.00000000000E+00 0.  1.
</event>
<event>
 6    1  0.2406404E-005  0.2336347E+02  0.7818608E-02  0.1688065E+00
          2   -1    0    0  502    0  0.00000000000E+00  0.00000000000E+00  0.19945417937E+03  0.19945417937E+03  0.00000000000E+00 0.  1.
          1   -1    0    0  501    0 -0.00000000000E+00 -0.00000000000E+00 -0.10363859169E+03  0.10363859169E+03  0.00000000000E+00 0.  1.
          2    1    1    2  501    0  0.23562696345E+02  0.84160733917E+01  0.13359661299E+03  0.13591940977E+03  0.00000000000E+00 0.  1.
          1    1    1    2  502    0  0.77115557640E+01 -0.27375345627E+02 -0.21702585161E+02  0.35775408358E+02  0.00000000000E+00 0.  1.
         22    1    1    2    0    0 -0.20232373874E+02  0.23140669708E+01 -0.70523285525E+02  0.73404616066E+02  0.00000000000E+00 0.  1.
         22    1    1    2    0    0 -0.11041878235E+02  0.16645205265E+02  0.54444845374E+02  0.57993336867E+02  0.00000000000E+00 0. -1.
</event>
<event>
 6    1  0.2406404E-005  0.1640828E+03  0.7818608E-02  0.1236892E+00
          2   -1    0    0  502    0  0.00000000000E+00  0.00000000000E+00  0.61920027878E+02  0.61920027878E+02  0.00000000000E+00 0.  1.
          1   -1    0    0  501    0 -0.00000000000E+00 -0.00000000000E+00 -0.10068226973E+04  0.10068226973E+04  0.00000000000E+00 0. -1.
          2    1    1    2  501    0  0.31125343598E+02 -0.24262313721E+02  0.12425886215E+02  0.41374503373E+02  0.00000000000E+00 0.  1.
          1    1    1    2  502    0  0.14883945581E+03  0.45958837317E+01 -0.48569974578E+03  0.50801431949E+03  0.00000000000E+00 0. -1.
         22    1    1    2    0    0 -0.18923708225E+03  0.28072343712E+02 -0.46906663062E+03  0.50657895114E+03  0.00000000000E+00 0. -1.
         22    1    1    2    0    0  0.92722828372E+01 -0.84059137228E+01 -0.25621792098E+01  0.12774951148E+02  0.00000000000E+00 0.  1.
</event>
<event>
 6    1  0.2406404E-005  0.4723828E+02  0.7818608E-02  0.1462818E+00
          2   -1    0    0  502    0  0.00000000000E+00  0.00000000000E+00  0.12588583313E+03  0.12588583313E+03  0.00000000000E+00 0.  1.
          1   -1    0    0  501    0 -0.00000000000E+00 -0.00000000000E+00 -0.37819946906E+03  0.37819946906E+03  0.00000000000E+00 0.  1.
          2    1    1    2  501    0  0.27003235510E+02  0.47805980379E+02  0.72288045676E+02  0.90775261144E+02  0.00000000000E+00 0.  1.
          1    1    1    2  502    0 -0.28223685860E+02 -0.24366323036E+01 -0.27198487121E+03  0.27345618257E+03  0.00000000000E+00 0.  1.
         22    1    1    2    0    0  0.16920256400E+02 -0.44389184987E+02  0.29714984858E+02  0.56032804191E+02  0.00000000000E+00 0.  1.
         22    1    1    2    0    0 -0.15699806050E+02 -0.98016308849E+00 -0.82331795260E+02  0.83821054278E+02  0.00000000000E+00 0.  1.
</event>
<event>
 6    1  0.2406404E-005  0.6224316E+02  0.7818608E-02  0.1394137E+00
          2   -1    0    0  502    0  0.00000000000E+00  0.00000000000E+00  0.57907351508E+02  0.57907351508E+02  0.00000000000E+00 0.  1.
          1   -1    0    0  501    0 -0.00000000000E+00 -0.00000000000E+00 -0.50106843735E+03  0.50106843735E+03  0.00000000000E+00 0. -1.
          2    1    1    2  501    0  0.43792698352E+02 -0.39756129203E+02 -0.16278076791E+03  0.17319332735E+03  0.00000000000E+00 0.  1.
          1    1    1    2  502    0 -0.39509723561E+02 -0.13890679512E+02 -0.24412430123E+03  0.24769062090E+03  0.00000000000E+00 0. -1.
         22    1    1    2    0    0  0.49799111378E+01  0.65087472497E+02  0.28830910384E+02  0.71361053695E+02  0.00000000000E+00 0.  1.
         22    1    1    2    0    0 -0.92628859284E+01 -0.11440663781E+02 -0.65086927092E+02  0.66730786911E+02  0.00000000000E+00 0. -1.
</event>
<event>
 6    1  0.2413310E-005  0.1177914E+03  0.7818608E-02  0.1249062E+00
          2   -1    0    0  502    0  0.00000000000E+00  0.00000000000E+00  0.31683724758E+03  0.31683724758E+03  0.00000000000E+00 0.  1.
          1   -1    0    0  501    0 -0.00000000000E+00 -0.00000000000E+00 -0.36196421177E+03  0.36196421177E+03  0.00000000000E+00 0. -1.
          2    1    1    2  501    0  0.51972911089E+02 -0.88022598773E+02  0.27050605232E+03  0.28917587334E+03  0.00000000000E+00 0.  1.
          1    1    1    2  502    0 -0.41982953832E+02  0.77369978877E+02 -0.21084627641E+03  0.22848377255E+03  0.00000000000E+00 0. -1.
         22    1    1    2    0    0  0.65717712517E+00 -0.10288005708E+02  0.26152975138E+02  0.28111439874E+02  0.00000000000E+00 0. -1.
         22    1    1    2    0    0 -0.10647134383E+02  0.20940625604E+02 -0.13093971524E+03  0.13303037360E+03  0.00000000000E+00 0. -1.
</event>
<event>
 6    1  0.2406404E-005  0.8541326E+02  0.7818608E-02  0.1324436E+00
          2   -1    0    0  502    0  0.00000000000E+00  0.00000000000E+00  0.72824901748E+02  0.72824901748E+02  0.00000000000E+00 0.  1.
          1   -1    0    0  501    0 -0.00000000000E+00 -0.00000000000E+00 -0.16481347760E+03  0.16481347760E+03  0.00000000000E+00 0.  1.
          2    1    1    2  501    0  0.27776499971E+02 -0.19832752175E+02  0.15768394663E+02  0.37596732301E+02  0.00000000000E+00 0.  1.
          1    1    1    2  502    0 -0.34047258225E+02 -0.39650293550E+01 -0.37795106777E+02  0.51023595980E+02  0.00000000000E+00 0.  1.
         22    1    1    2    0    0  0.34733860757E+02  0.37630311348E+02  0.18979695757E+02  0.54614194732E+02  0.00000000000E+00 0.  1.
         22    1    1    2    0    0 -0.28463102503E+02 -0.13832529818E+02 -0.88941559495E+02  0.94403856333E+02  0.00000000000E+00 0.  1.
</event>
<event>
 6    1  0.2406404E-005  0.7832967E+02  0.7818608E-02  0.1452057E+00
          2   -1    0    0  502    0  0.00000000000E+00  0.00000000000E+00  0.51966706629E+02  0.51966706629E+02  0.00000000000E+00 0.  1.
          1   -1    0    0  501    0 -0.00000000000E+00 -0.00000000000E+00 -0.39229669548E+03  0.39229669548E+03  0.00000000000E+00 0. -1.
          2    1    1    2  501    0  0.59401395925E+02 -0.17445667399E+01 -0.18994519755E+02  0.62388790112E+02  0.00000000000E+00 0.  1.
          1    1    1    2  502    0 -0.33328479969E+02  0.16054562521E+02 -0.21649242879E+03  0.21963039015E+03  0.00000000000E+00 0. -1.
         22    1    1    2    0    0  0.11699043848E+02 -0.13558602467E+01  0.24335004128E+02  0.27035132880E+02  0.00000000000E+00 0.  1.
         22    1    1    2    0    0 -0.37771959804E+02 -0.12954135535E+02 -0.12917804443E+03  0.13520908896E+03  0.00000000000E+00 0.  1.
</event>
<event>
 6    1  0.2406404E-005  0.4550446E+02  0.7818608E-02  0.1476747E+00
          2   -1    0    0  502    0  0.00000000000E+00  0.00000000000E+00  0.26404661344E+03  0.26404661344E+03  0.00000000000E+00 0. -1.
          1   -1    0    0  501    0 -0.00000000000E+00 -0.00000000000E+00 -0.16017788381E+03  0.16017788381E+03  0.00000000000E+00 0.  1.
          2    1    1    2  501    0  0.33455722270E+02 -0.33315987874E+02  0.52051926628E+02  0.70275482683E+02  0.00000000000E+00 0. -1.
          1    1    1    2  502    0 -0.32703214521E+02 -0.51205095415E+01 -0.12890448547E+03  0.13308676205E+03  0.00000000000E+00 0.  1.
         22    1    1    2    0    0 -0.10061876264E+02 -0.25773596726E+01 -0.16340647733E+02  0.19362357945E+02  0.00000000000E+00 0. -1.
         22    1    1    2    0    0  0.93093685146E+01  0.41013857088E+02  0.19706193620E+03  0.20149989458E+03  0.00000000000E+00 0. -1.
</event>
<event>
 6    1  0.2406404E-005  0.8028019E+02  0.7818608E-02  0.1329236E+00
          2   -1    0    0  502    0  0.00000000000E+00  0.00000000000E+00  0.45124343780E+03  0.45124343780E+03  0.00000000000E+00 0. -1.
          1   -1    0    0  501    0 -0.00000000000E+00 -0.00000000000E+00 -0.74315460897E+02  0.74315460897E+02  0.00000000000E+00 0.  1.
          2    1    1    2  501    0  0.23781152954E+02 -0.49787385851E+02  0.34013772054E+03  0.34458380107E+03  0.00000000000E+00 0. -1.
          1    1    1    2  502    0 -0.19601025666E+02  0.38975729320E+02 -0.12433734151E+02  0.45364142537E+02  0.00000000000E+00 0.  1.
         22    1    1    2    0    0  0.17391526017E+02 -0.13532610442E+02  0.84677127515E+02  0.87497500803E+02  0.00000000000E+00 0. -1.
         22    1    1    2    0    0 -0.21571653305E+02  0.24344266974E+02 -0.35453136998E+02  0.48113454291E+02  0.00000000000E+00 0.  1.
</event>
<event>
 6    1  0.2406404E-005  0.2003106E+02  0.7818608E-02  0.1776728E+00
          2   -1    0    0  502    0  0.00000000000E+00  0.00000000000E+00  0.56954113729E+02  0.56954113729E+02  0.00000000000E+00 0.  1.
          1   -1    0    0  501    0 -0.00000000000E+00 -0.00000000000E+00 -0.22172394344E+03  0.22172394344E+03  0.00000000000E+00 0.  1.
          2    1    1    2  501    0  0.16416684842E+02 -0.15491296139E+02 -0.31434676076E+02  0.38699181610E+02  0.00000000000E+00 0.  1.
          1    1    1    2  502    0 -0.22370893383E+02 -0.42681366054E+01 -0.10777036656E+03  0.11015046876E+03  0.00000000000E+00 0.  1.
         22    1    1    2    0    0  0.14500020784E+02  0.17090451290E+01 -0.75054282740E+02  0.76461211053E+02  0.00000000000E+00 0.  1.
         22    1    1    2    0    0 -0.85458122431E+01  0.18050387616E+02  0.49489495665E+02  0.53367195740E+02  0.00000000000E+00 0.  1.
</event>
<event>
 6    1  0.2406404E-005  0.4441858E+02  0.7818608E-02  0.1567020E+00
          2   -1    0    0  502    0  0.00000000000E+00  0.00000000000E+00  0.29835165549E+03  0.29835165549E+03  0.00000000000E+00 0.  1.
          1   -1    0    0  501    0 -0.00000000000E+00 -0.00000000000E+00 -0.43750543937E+02  0.43750543937E+02  0.00000000000E+00 0.  1.
          2    1    1    2  501    0 -0.55087062255E+02 -0.57045474498E+01  0.11797169834E+03  0.13032439487E+03  0.00000000000E+00 0.  1.
          1    1    1    2  502    0  0.91602028164E+01 -0.24186329746E+02  0.14796776544E+02  0.29796517554E+02  0.00000000000E+00 0.  1.
         22    1    1    2    0    0  0.12571001230E+02  0.50512501861E+01 -0.25508586421E+02  0.28883095083E+02  0.00000000000E+00 0.  1.
         22    1    1    2    0    0  0.33355858208E+02  0.24839627010E+02  0.14734122309E+03  0.15309819192E+03  0.00000000000E+00 0. -1.
</event>
<event>
 6    1  0.2406404E-005  0.3871983E+02  0.7818608E-02  0.1572840E+00
          2   -1    0    0  502    0  0.00000000000E+00  0.00000000000E+00  0.65880640883E+02  0.65880640883E+02  0.00000000000E+00 0. -1.
          1   -1    0    0  501    0 -0.00000000000E+00 -0.00000000000E+00 -0.27206665687E+03  0.27206665687E+03  0.00000000000E+00 0.  1.
          2    1    1    2  501    0  0.60972930818E+02  0.34027223940E+01 -0.46204494964E+02  0.76577621844E+02  0.00000000000E+00 0. -1.
          1    1    1    2  502    0 -0.56375320761E+02  0.10019866695E+02 -0.10656422897E+03  0.12097317643E+03  0.00000000000E+00 0.  1.
         22    1    1    2    0    0 -0.13794345452E+02 -0.21151982291E+02 -0.94384445039E+02  0.97704215808E+02  0.00000000000E+00 0. -1.
         22    1    1    2    0    0  0.91967353939E+01  0.77293932023E+01  0.40967152988E+02  0.42692283672E+02  0.00000000000E+00 0. -1.
</event>
<event>
 6    1  0.2406404E-005  0.1288777E+03  0.7818608E-02  0.1229311E+00
          2   -1    0    0  502    0  0.00000000000E+00  0.00000000000E+00  0.51183736281E+03  0.51183736281E+03  0.00000000000E+00 0. -1.
          1   -1    0    0  501    0 -0.00000000000E+00 -0.00000000000E+00 -0.29167789087E+03  0.29167789087E+03  0.00000000000E+00 0. -1.
          2    1    1    2  501    0  0.10188085219E+03  0.20185683563E+02  0.40676630130E+03  0.41981661918E+03  0.00000000000E+00 0. -1.
          1    1    1    2  502    0 -0.10002867246E+03 -0.18475430637E+02 -0.22936673439E+03  0.25091069267E+03  0.00000000000E+00 0. -1.
         22    1    1    2    0    0 -0.22817296142E+02  0.11465406333E+02 -0.39414619195E+02  0.46963781278E+02  0.00000000000E+00 0. -1.
         22    1    1    2    0    0  0.20965116404E+02 -0.13175659259E+02  0.82174524228E+02  0.85824160555E+02  0.00000000000E+00 0.  1.
</event>
<event>
 6    1  0.2406404E-005  0.5257126E+02  0.7818608E-02  0.1435649E+00
          2   -1    0    0  502    0  0.00000000000E+00  0.00000000000E+00  0.22886735673E+03  0.22886735673E+03  0.00000000000E+00 0. -1.
          1   -1    0    0  501    0 -0.00000000000E+00 -0.00000000000E+00 -0.41230828697E+02  0.41230828697E+02  0.00000000000E+00 0. -1.
          2    1    1    2  501    0  0.25540118849E+02 -0.44177567318E+01  0.85564644578E+02  0.89404265263E+02  0.00000000000E+00 0. -1.
          1    1    1    2  502    0 -0.20414495421E+02  0.52814304571E+01  0.25865856918E+01  0.21244659482E+02  0.00000000000E+00 0. -1.
         22    1    1    2    0    0  0.19703161814E+02 -0.10520828263E+02  0.12233153940E+03  0.12435396232E+03  0.00000000000E+00 0. -1.
         22    1    1    2    0    0 -0.24828785242E+02  0.96571545372E+01 -0.22846241635E+02  0.35095298363E+02  0.00000000000E+00 0. -1.
</event>
<event>
 6    1  0.2406404E-005  0.9904396E+02  0.7818608E-02  0.1301071E+00
          2   -1    0    0  502    0  0.00000000000E+00  0.00000000000E+00  0.19422862059E+03  0.19422862059E+03  0.00000000000E+00 0.  1.
          1   -1    0    0  501    0 -0.00000000000E+00 -0.00000000000E+00 -0.12420870203E+03  0.12420870203E+03  0.00000000000E+00 0. -1.
          2    1    1    2  501    0 -0.23383772704E+02 -0.68590992899E+02  0.70643014427E+02  0.10120257220E+03  0.00000000000E+00 0.  1.
          1    1    1    2  502    0 -0.26837735091E+02  0.71226090087E+02  0.21617578856E+02  0.79124835857E+02  0.00000000000E+00 0. -1.
         22    1    1    2    0    0  0.51247594995E+02  0.47351238969E+02 -0.45156261910E+02  0.83111634651E+02  0.00000000000E+00 0. -1.
         22    1    1    2    0    0 -0.10260871999E+01 -0.49986336157E+02  0.22915587178E+02  0.54998279910E+02  0.00000000000E+00 0.  1.
</event>
<event>
 6    1  0.2406404E-005  0.3590388E+03  0.7818608E-02  0.1059986E+00
          2   -1    0    0  502    0  0.00000000000E+00  0.00000000000E+00  0.43755939426E+03  0.43755939426E+03  0.00000000000E+00 0.  1.
          1   -1    0    0  501    0 -0.00000000000E+00 -0.00000000000E+00 -0.50091154856E+03  0.50091154856E+03  0.00000000000E+00 0.  1.
          2    1    1    2  501    0 -0.77056454633E+02 -0.94729788637E+01  0.22085142374E+02  0.80716714767E+02  0.00000000000E+00 0.  1.
          1    1    1    2  502    0  0.29439122898E+03  0.15641000897E+03 -0.33674387970E+03  0.47384251299E+03  0.00000000000E+00 0.  1.
         22    1    1    2    0    0  0.12145974017E+02 -0.63236607719E+00 -0.17505243203E+01  0.12287754355E+02  0.00000000000E+00 0.  1.
         22    1    1    2    0    0 -0.22948074837E+03 -0.14630466403E+03  0.25305710735E+03  0.37162396070E+03  0.00000000000E+00 0.  1.
</event>
<event>
 6    1  0.2406404E-005  0.6374036E+02  0.7818608E-02  0.1404693E+00
          2   -1    0    0  502    0  0.00000000000E+00  0.00000000000E+00  0.24956720984E+03  0.24956720984E+03  0.00000000000E+00 0.  1.
          1   -1    0    0  501    0 -0.00000000000E+00 -0.00000000000E+00 -0.57930407463E+02  0.57930407463E+02  0.00000000000E+00 0.  1.
          2    1    1    2  501    0  0.33695837445E+02 -0.41429692491E+02  0.82639642368E+02  0.98392781096E+02  0.00000000000E+00 0.  1.
          1    1    1    2  502    0 -0.21272712189E+01 -0.22417474102E+02 -0.80341578774E+01  0.23908494740E+02  0.00000000000E+00 0.  1.
         22    1    1    2    0    0 -0.12491125384E+02 -0.17694620217E+02 -0.16740003650E+02  0.27374358808E+02  0.00000000000E+00 0.  1.
         22    1    1    2    0    0 -0.19077440842E+02  0.81541786809E+02  0.13377132153E+03  0.15782198266E+03  0.00000000000E+00 0.  1.
</event>
<event>
 6    1  0.2406404E-005  0.1622419E+03  0.7818608E-02  0.1268020E+00
          2   -1    0    0  502    0  0.00000000000E+00  0.00000000000E+00  0.18769299160E+03  0.18769299160E+03  0.00000000000E+00 0.  1.
          1   -1    0    0  501    0 -0.00000000000E+00 -0.00000000000E+00 -0.41083938272E+03  0.41083938272E+03  0.00000000000E+00 0. -1.
          2    1    1    2  501    0  0.12358996733E+02 -0.18241883399E+03  0.82397109717E+02  0.20054590368E+03  0.00000000000E+00 0.  1.
          1    1    1    2  502    0 -0.46963306209E+02  0.44564149143E+02 -0.59169891025E+02  0.87707419999E+02  0.00000000000E+00 0. -1.
         22    1    1    2    0    0 -0.19725446275E+02  0.22128040353E+02 -0.14251166017E+03  0.14556207158E+03  0.00000000000E+00 0. -1.
         22    1    1    2    0    0  0.54329755750E+02  0.11572664449E+03 -0.10386194965E+03  0.16471697906E+03  0.00000000000E+00 0. -1.
</event>
<event>
 6    1  0.2406404E-005  0.1867942E+03  0.7818608E-02  0.1257056E+00
          2   -1    0    0  502    0  0.00000000000E+00  0.00000000000E+00  0.42791726731E+03  0.42791726731E+03  0.00000000000E+00 0. -1.
          1   -1    0    0  501    0 -0.00000000000E+00 -0.00000000000E+00 -0.51183320387E+03  0.51183320387E+03  0.00000000000E+00 0. -1.
          2    1    1    2  501    0 -0.48383175952E+02  0.64608837802E+02  0.14245894325E+03  0.16373693581E+03  0.00000000000E+00 0. -1.
          1    1    1    2  502    0  0.15581138385E+03 -0.91121092239E+02 -0.45599191903E+03  0.49041703785E+03  0.00000000000E+00 0. -1.
         22    1    1    2    0    0 -0.94120143810E+02  0.46572371955E+02  0.23797422006E+03  0.26011404559E+03  0.00000000000E+00 0. -1.
         22    1    1    2    0    0 -0.13308064090E+02 -0.20060117518E+02 -0.83571808369E+01  0.25482451927E+02  0.00000000000E+00 0.  1.
</event>
<event>
 6    1  0.2406404E-005  0.8664985E+02  0.7818608E-02  0.1312160E+00
          2   -1    0    0  502    0  0.00000000000E+00  0.00000000000E+00  0.20608952216E+03  0.20608952216E+03  0.00000000000E+00 0. -1.
          1   -1    0    0  501    0 -0.00000000000E+00 -0.00000000000E+00 -0.69027984404E+02  0.69027984404E+02  0.00000000000E+00 0. -1.
          2    1    1    2  501    0 -0.13572010529E+02 -0.64256023463E+02  0.99744207973E+02  0.11942337730E+03  0.00000000000E+00 0. -1.
          1    1    1    2  502    0  0.12896193204E+02  0.17137325751E+02  0.96373344483E+01  0.23513356806E+02  0.00000000000E+00 0. -1.
         22    1    1    2    0    0  0.14083011051E+02 -0.57710284990E+01  0.64555803637E+02  0.66325619133E+02  0.00000000000E+00 0. -1.
         22    1    1    2    0    0 -0.13407193726E+02  0.52889726211E+02 -0.36875808300E+02  0.65855153329E+02  0.00000000000E+00 0. -1.
</event>
<event>
 6    1  0.2406404E-005  0.6696507E+02  0.7818608E-02  0.1484481E+00
          2   -1    0    0  502    0  0.00000000000E+00  0.00000000000E+00  0.19184523696E+03  0.19184523696E+03  0.00000000000E+00 0. -1.
          1   -1    0    0  501    0 -0.00000000000E+00 -0.00000000000E+00 -0.35513445499E+03  0.35513445499E+03  0.00000000000E+00 0. -1.
          2    1    1    2  501    0 -0.95148739330E+01  0.35381953406E+02  0.13087008214E+03  0.13590214808E+03  0.00000000000E+00 0. -1.
          1    1    1    2  502    0  0.26837507703E+02 -0.58936341836E+02 -0.27766630884E+03  0.28511808654E+03  0.00000000000E+00 0. -1.
         22    1    1    2    0    0 -0.59299321656E+01  0.26746976518E+02  0.50755852456E+02  0.57677737532E+02  0.00000000000E+00 0. -1.
         22    1    1    2    0    0 -0.11392701605E+02 -0.31925880874E+01 -0.67248843779E+02  0.68281719795E+02  0.00000000000E+00 0. -1.
</event>
<event>
 6    1  0.2406404E-005  0.6058776E+02  0.7818608E-02  0.1434166E+00
          2   -1    0    0  502    0  0.00000000000E+00  0.00000000000E+00  0.12503786741E+03  0.12503786741E+03  0.00000000000E+00 0. -1.
          1   -1    0    0  501    0 -0.00000000000E+00 -0.00000000000E+00 -0.15964066053E+03  0.15964066053E+03  0.00000000000E+00 0. -1.
          2    1    1    2  501    0 -0.50787825886E+02 -0.19591450372E+01  0.47943981705E+02  0.69870357730E+02  0.00000000000E+00 0. -1.
          1    1    1    2  502    0  0.35223298521E+02 -0.28722734641E+02  0.17755497143E+02  0.48794814507E+02  0.00000000000E+00 0. -1.
         22    1    1    2    0    0 -0.12831982927E+02  0.13458905669E+02  0.27927714542E+02  0.33552334750E+02  0.00000000000E+00 0.  1.
         22    1    1    2    0    0  0.28396510293E+02  0.17222974010E+02 -0.12822998651E+03  0.13246102095E+03  0.00000000000E+00 0. -1.
</event>
<event>
 6    1  0.2406404E-005  0.1040574E+03  0.7818608E-02  0.1370168E+00
          2   -1    0    0  502    0  0.00000000000E+00  0.00000000000E+00  0.17577723322E+03  0.17577723322E+03  0.00000000000E+00 0. -1.
          1   -1    0    0  501    0 -0.00000000000E+00 -0.00000000000E+00 -0.50371400518E+03  0.50371400518E+03  0.00000000000E+00 0.  1.
          2    1    1    2  501    0 -0.64687922806E+02  0.20741687300E+02  0.94885022376E+02  0.11669581149E+03  0.00000000000E+00 0. -1.
          1    1    1    2  502    0  0.90532176133E+02  0.59726219518E+00 -0.42175639514E+03  0.43136398607E+03  0.00000000000E+00 0.  1.
         22    1    1    2    0    0 -0.35821685117E+02 -0.63407904124E+01  0.58673290966E+02  0.69035887917E+02  0.00000000000E+00 0. -1.
         22    1    1    2    0    0  0.99774317891E+01 -0.14998159083E+02 -0.59738690167E+02  0.62395552917E+02  0.00000000000E+00 0.  1.
</event>
<event>
 6    1  0.2406404E-005  0.1321581E+03  0.7818608E-02  0.1237920E+00
          2   -1    0    0  502    0  0.00000000000E+00  0.00000000000E+00  0.62845155225E+03  0.62845155225E+03  0.00000000000E+00 0. -1.
          1   -1    0    0  501    0 -0.00000000000E+00 -0.00000000000E+00 -0.21496308934E+02  0.21496308934E+02  0.00000000000E+00 0. -1.
          2    1    1    2  501    0  0.34225544943E+02  0.50228908682E+01  0.34717745561E+02  0.49009582902E+02  0.00000000000E+00 0. -1.
          1    1    1    2  502    0 -0.95276940011E+01 -0.46843211970E+02  0.11930049661E+03  0.12852109536E+03  0.00000000000E+00 0. -1.
         22    1    1    2    0    0  0.65478781007E+01  0.82544870341E+02  0.28948818901E+03  0.30109789422E+03  0.00000000000E+00 0. -1.
         22    1    1    2    0    0 -0.31245729043E+02 -0.40724549239E+02  0.16344881213E+03  0.17131928870E+03  0.00000000000E+00 0. -1.
</event>
<event>
 6    1  0.2406404E-005  0.5184219E+02  0.7818608E-02  0.1526182E+00
          2   -1    0    0  502    0  0.00000000000E+00  0.00000000000E+00  0.15485722676E+03  0.15485722676E+03  0.00000000000E+00 0.  1.
          1   -1    0    0  501    0 -0.00000000000E+00 -0.00000000000E+00 -0.17657117017E+03  0.17657117017E+03  0.00000000000E+00 0.  1.
          2    1    1    2  501    0  0.27578804703E+02  0.31279141126E+02  0.89090499037E+02  0.98367129454E+02  0.00000000000E+00 0.  1.
          1    1    1    2  502    0 -0.21904379715E+02 -0.20113186409E+02 -0.10692472523E+03  0.11098305719E+03  0.00000000000E+00 0.  1.
         22    1    1    2    0    0  0.14323074478E+02 -0.17947066273E+01  0.56223007886E+02  0.58046516261E+02  0.00000000000E+00 0.  1.
         22    1    1    2    0    0 -0.19997499466E+02 -0.93712480902E+01 -0.60102725095E+02  0.64031694024E+02  0.00000000000E+00 0.  1.
</event>
<event>
 6    1  0.2406404E-005  0.1807149E+03  0.7818608E-02  0.1168993E+00
          2   -1    0    0  502    0  0.00000000000E+00  0.00000000000E+00  0.23496938586E+03  0.23496938586E+03  0.00000000000E+00 0. -1.
          1   -1    0    0  501    0 -0.00000000000E+00 -0.00000000000E+00 -0.13931413554E+03  0.13931413554E+03  0.00000000000E+00 0. -1.
          2    1    1    2  501    0 -0.27242567087E+02 -0.96103513037E+01 -0.57668913150E+01  0.29457992958E+02  0.00000000000E+00 0. -1.
          1    1    1    2  502    0  0.10951668353E+03 -0.94337441609E+02  0.26314922867E+02  0.14692151655E+03  0.00000000000E+00 0. -1.
         22    1    1    2    0    0 -0.10070446708E+03  0.10242512057E+03  0.93843976614E+02  0.17157793261E+03  0.00000000000E+00 0. -1.
         22    1    1    2    0    0  0.18430350640E+02  0.15226723462E+01 -0.18736757846E+02  0.26326079282E+02  0.00000000000E+00 0.  1.
</event>
<event>
 6    1  0.2406404E-005  0.1015017E+03  0.7818608E-02  0.1277877E+00
          2   -1    0    0  502    0  0.00000000000E+00  0.00000000000E+00  0.13811768537E+03  0.13811768537E+03  0.00000000000E+00 0.  1.
          1   -1    0    0  501    0 -0.00000000000E+00 -0.00000000000E+00 -0.10124791969E+03  0.10124791969E+03  0.00000000000E+00 0. -1.
          2    1    1    2  501    0 -0.33940959169E+02  0.85192810883E+01  0.29296064234E+02  0.45637991183E+02  0.00000000000E+00 0.  1.
          1    1    1    2  502    0  0.38872529345E+02 -0.40682783309E+02 -0.25440182569E+02  0.61752451649E+02  0.00000000000E+00 0. -1.
         22    1    1    2    0    0  0.40808543711E+02 -0.16085825133E+02 -0.18761810707E+02  0.47708453664E+02  0.00000000000E+00 0.  1.
         22    1    1    2    0    0 -0.45740113888E+02  0.48249327354E+02  0.51775694721E+02  0.84266708565E+02  0.00000000000E+00 0.  1.
</event>
<event>
 6    1  0.2406404E-005  0.8126618E+02  0.7818608E-02  0.1328945E+00
          2   -1    0    0  502    0  0.00000000000E+00  0.00000000000E+00  0.33806491570E+02  0.33806491570E+02  0.00000000000E+00 0. -1.
          1   -1    0    0  501    0 -0.00000000000E+00 -0.00000000000E+00 -0.29590368343E+03  0.29590368343E+03  0.00000000000E+00 0. -1.
          2    1    1    2  501    0  0.20254862841E+02  0.24973809437E+02 -0.10406864768E+02  0.33797240432E+02  0.00000000000E+00 0. -1.
          1    1    1    2  502    0 -0.16918032465E+02 -0.28908640819E+02 -0.73569077612E+02  0.80835255410E+02  0.00000000000E+00 0. -1.
         22    1    1    2    0    0 -0.43300250061E+02 -0.15137582740E+02 -0.16132249690E+03  0.16771704169E+03  0.00000000000E+00 0. -1.
         22    1    1    2    0    0  0.39963419685E+02  0.19072414123E+02 -0.16798752579E+02  0.47360637470E+02  0.00000000000E+00 0. -1.
</event>
<event>
 6    1  0.2406404E-005  0.7865024E+02  0.7818608E-02  0.1406986E+00
          2   -1    0    0  502    0  0.00000000000E+00  0.00000000000E+00  0.55990164570E+03  0.55990164570E+03  0.00000000000E+00 0. -1.
          1   -1    0    0  501    0 -0.00000000000E+00 -0.00000000000E+00 -0.34427998270E+02  0.34427998270E+02  0.00000000000E+00 0.  1.
          2    1    1    2  501    0 -0.27527546280E+02  0.90980818161E+01  0.22519359098E+03  0.22705218412E+03  0.00000000000E+00 0. -1.
          1    1    1    2  502    0  0.60931152441E+02 -0.34275901999E+02  0.54816335152E+02  0.88838467992E+02  0.00000000000E+00 0.  1.
         22    1    1    2    0    0 -0.49064137732E+02  0.82577933050E+01  0.25003314482E+03  0.25493539235E+03  0.00000000000E+00 0. -1.
         22    1    1    2    0    0  0.15660531571E+02  0.16920026878E+02 -0.45694235209E+01  0.23503599510E+02  0.00000000000E+00 0.  1.
</event>
<event>
 6    1  0.2406404E-005  0.7715771E+02  0.7818608E-02  0.1342413E+00
          2   -1    0    0  502    0  0.00000000000E+00  0.00000000000E+00  0.42294734207E+03  0.42294734207E+03  0.00000000000E+00 0. -1.
          1   -1    0    0  501    0 -0.00000000000E+00 -0.00000000000E+00 -0.58539967219E+02  0.58539967219E+02  0.00000000000E+00 0. -1.
          2    1    1    2  501    0  0.13538347999E+02 -0.48872711095E+02  0.26422504906E+03  0.26904777514E+03  0.00000000000E+00 0. -1.
          1    1    1    2  502    0 -0.15087601159E+02  0.35433908497E+02 -0.17037009746E+02  0.42112436182E+02  0.00000000000E+00 0. -1.
         22    1    1    2    0    0 -0.23488225636E+02  0.21907132132E+02 -0.15030651572E+02  0.35461805770E+02  0.00000000000E+00 0. -1.
         22    1    1    2    0    0  0.25037478795E+02 -0.84683295338E+01  0.13224998712E+03  0.13486529221E+03  0.00000000000E+00 0. -1.
</event>
<event>
 6    1  0.2406404E-005  0.7654250E+02  0.7818608E-02  0.1340814E+00
          2   -1    0    0  502    0  0.00000000000E+00  0.00000000000E+00  0.28870595734E+03  0.28870595734E+03  0.00000000000E+00 0. -1.
          1   -1    0    0  501    0 -0.00000000000E+00 -0.00000000000E+00 -0.10300275813E+03  0.10300275813E+03  0.00000000000E+00 0. -1.
          2    1    1    2  501    0  0.17666883271E+02 -0.54343087695E+02  0.18518136062E+03  0.19379738457E+03  0.00000000000E+00 0. -1.
          1    1    1    2  502    0 -0.19583195234E+02  0.47464133622E+02 -0.43066712805E+02  0.67015574816E+02  0.00000000000E+00 0. -1.
         22    1    1    2    0    0  0.77934624137E-01  0.22611748758E+02 -0.39930258885E+02  0.45888155664E+02  0.00000000000E+00 0. -1.
         22    1    1    2    0    0  0.18383773387E+01 -0.15732794685E+02  0.83518810278E+02  0.85007600426E+02  0.00000000000E+00 0. -1.
</event>
<event>
 6    1  0.2406404E-005  0.1711986E+03  0.7818608E-02  0.1181226E+00
          2   -1    0    0  502    0  0.00000000000E+00  0.00000000000E+00  0.71956764509E+03  0.71956764509E+03  0.00000000000E+00 0.  1.
          1   -1    0    0  501    0 -0.00000000000E+00 -0.00000000000E+00 -0.40895626840E+02  0.40895626840E+02  0.00000000000E+00 0.  1.
          2    1    1    2  501    0 -0.10735880605E+03 -0.70867321987E+02  0.34103848242E+03  0.36449326064E+03  0.00000000000E+00 0.  1.
          1    1    1    2  502    0  0.31329916750E+02  0.33077537190E+02  0.14560286567E+03  0.15256435246E+03  0.00000000000E+00 0.  1.
         22    1    1    2    0    0 -0.12242342539E+02 -0.19784645565E+02  0.10254469757E+03  0.10515094936E+03  0.00000000000E+00 0. -1.
         22    1    1    2    0    0  0.88271231836E+02  0.57574430362E+02  0.89485972596E+02  0.13825470948E+03  0.00000000000E+00 0.  1.
</event>
<event>
 6    1  0.2406404E-005  0.8112240E+02  0.7818608E-02  0.1327268E+00
          2   -1    0    0  502    0  0.00000000000E+00  0.00000000000E+00  0.73533642449E+02  0.73533642449E+02  0.00000000000E+00 0. -1.
          1   -1    0    0  501    0 -0.00000000000E+00 -0.00000000000E+00 -0.14218378699E+03  0.14218378699E+03  0.00000000000E+00 0. -1.
          2    1    1    2  501    0 -0.27540842497E+01  0.41402124381E+02  0.11198009540E+02  0.42978090942E+02  0.00000000000E+00 0. -1.
          1    1    1    2  502    0  0.14464248332E+02 -0.21086792304E+02 -0.20736891870E+02  0.32922423573E+02  0.00000000000E+00 0. -1.
         22    1    1    2    0    0  0.13948575293E+02 -0.49664214123E+02 -0.80303736149E+02  0.95445203948E+02  0.00000000000E+00 0. -1.
         22    1    1    2    0    0 -0.25658739376E+02  0.29348882046E+02  0.21192473936E+02  0.44371710979E+02  0.00000000000E+00 0. -1.
</event>
<event>
 6    1  0.2406404E-005  0.8725873E+02  0.7818608E-02  0.1309826E+00
          2   -1    0    0  502    0  0.00000000000E+00  0.00000000000E+00  0.13330538816E+03  0.13330538816E+03  0.00000000000E+00 0.  1.
          1   -1    0    0  501    0 -0.00000000000E+00 -0.00000000000E+00 -0.31310164045E+03  0.31310164045E+03  0.00000000000E+00 0. -1.
          2    1    1    2  501    0 -0.15275094374E+02 -0.51822006603E+02  0.72299500049E+02  0.90255562619E+02  0.00000000000E+00 0.  1.
          1    1    1    2  502    0 -0.96919346723E-02  0.64398181236E+02 -0.21905914786E+03  0.22832878948E+03  0.00000000000E+00 0. -1.
         22    1    1    2    0    0  0.10051295266E+02  0.20161471655E+02 -0.72710243519E+02  0.76120253471E+02  0.00000000000E+00 0.  1.
         22    1    1    2    0    0  0.52334910425E+01 -0.32737646289E+02  0.39673639054E+02  0.51702423045E+02  0.00000000000E+00 0.  1.
</event>
<event>
 6    1  0.2406404E-005  0.1053330E+03  0.7818608E-02  0.1273704E+00
          2   -1    0    0  502    0  0.00000000000E+00  0.00000000000E+00  0.14320037258E+03  0.14320037258E+03  0.00000000000E+00 0. -1.
          1   -1    0    0  501    0 -0.00000000000E+00 -0.00000000000E+00 -0.19598798585E+03  0.19598798585E+03  0.00000000000E+00 0. -1.
          2    1    1    2  501    0  0.39559955185E+02  0.67177619533E+02  0.80463575181E+02  0.11203664379E+03  0.00000000000E+00 0. -1.
          1    1    1    2  502    0 -0.43406940940E+02 -0.21488981079E+02 -0.61405254049E+02  0.78208337499E+02  0.00000000000E+00 0. -1.
         22    1    1    2    0    0 -0.12240819826E+02 -0.54427772692E+02 -0.10049665620E+03  0.11494258575E+03  0.00000000000E+00 0. -1.
         22    1    1    2    0    0  0.16087805581E+02  0.87391342389E+01  0.28650721801E+02  0.34000791393E+02  0.00000000000E+00 0.  1.
</event>
