<event>
 6    1  0.8017648E-006  0.1121104E+03  0.7818608E-02  0.1376633E+00
          2   -1    0    0  502    0  0.00000000000E+00  0.00000000000E+00  0.63368050022E+03  0.63368050022E+03  0.00000000000E+00 0.  1.
          1   -1    0    0  501    0 -0.00000000000E+00 -0.00000000000E+00 -0.35937435556E+02  0.35937435556E+02  0.00000000000E+00 0.  1.
          2    1    1    2  501    0 -0.24233637331E+02  0.27115542940E+02  0.16687566530E+03  0.17079229935E+03  0.00000000000E+00 0.  1.
          1    1    1    2  502    0  0.72174453383E+02 -0.79466105462E+02  0.23180634991E+03  0.25545684077E+03  0.00000000000E+00 0.  1.
         22    1    1    2    0    0 -0.76159999882E+01 -0.10472325982E+02 -0.13122844726E+02  0.18435892194E+02  0.00000000000E+00 0.  1.
         22    1    1    2    0    0 -0.40324816064E+02  0.62822888504E+02  0.21218389418E+03  0.22493290346E+03  0.00000000000E+00 0. -1.
</event>
<event>
 6    1  0.8017648E-006  0.2234232E+03  0.7818608E-02  0.1180884E+00
          2   -1    0    0  502    0  0.00000000000E+00  0.00000000000E+00  0.23951908572E+03  0.23951908572E+03  0.00000000000E+00 0.  1.
          1   -1    0    0  501    0 -0.00000000000E+00 -0.00000000000E+00 -0.31982905676E+03  0.31982905676E+03  0.00000000000E+00 0.  1.
          2    1    1    2  501    0 -0.55120703225E+02  0.17578068021E+03  0.26653771281E+02  0.18613855856E+03  0.00000000000E+00 0.  1.
          1    1    1    2  502    0  0.86152261682E+00 -0.20371794420E+03 -0.10676876906E+03  0.23000285446E+03  0.00000000000E+00 0.  1.
         22    1    1    2    0    0  0.13701077076E+02 -0.29044884364E+02 -0.48525999531E+02  0.58190183461E+02  0.00000000000E+00 0.  1.
         22    1    1    2    0    0  0.40558103532E+02  0.56982148354E+02  0.48331026280E+02  0.85016546004E+02  0.00000000000E+00 0.  1.
</event>
<event>
 6    1  0.8017648E-006  0.1404896E+03  0.7818608E-02  0.1277827E+00
          2   -1    0    0  502    0  0.00000000000E+00  0.00000000000E+00  0.19152054735E+03  0.19152054735E+03  0.00000000000E+00 0. -1.
          1   -1    0    0  501    0 -0.00000000000E+00 -0.00000000000E+00 -0.74910861942E+03  0.74910861942E+03  0.00000000000E+00 0. -1.
          2    1    1    2  501    0 -0.88575207052E+02 -0.28338933833E+02 -0.47708932963E+03  0.48606881295E+03  0.00000000000E+00 0. -1.
          1    1    1    2  502    0  0.10786213752E+03  0.16007903724E+03  0.84697848439E+02  0.21079199322E+03  0.00000000000E+00 0. -1.
         22    1    1    2    0    0 -0.37451986369E+02  0.51247246465E+01 -0.17713127856E+02  0.41745286969E+02  0.00000000000E+00 0. -1.
         22    1    1    2    0    0  0.18165055897E+02 -0.13686482805E+03 -0.14748346301E+03  0.20202307362E+03  0.00000000000E+00 0. -1.
</event>
<event>
 6    1  0.8017648E-006  0.1743255E+03  0.7818608E-02  0.1216219E+00
          2   -1    0    0  502    0  0.00000000000E+00  0.00000000000E+00  0.10841025231E+03  0.10841025231E+03  0.00000000000E+00 0.  1.
          1   -1    0    0  501    0 -0.00000000000E+00 -0.00000000000E+00 -0.21231031978E+04  0.21231031978E+04  0.00000000000E+00 0. -1.
          2    1    1    2  501    0 -0.50654795894E+01  0.12941479829E+03  0.34346281504E+02  0.13399073160E+03  0.00000000000E+00 0.  1.
          1    1    1    2  502    0 -0.54472082427E+02 -0.15574662343E+03 -0.18412408598E+04  0.18486189770E+04  0.00000000000E+00 0. -1.
         22    1    1    2    0    0 -0.73525189285E+01  0.39678999462E+02 -0.12824499502E+02  0.42343244094E+02  0.00000000000E+00 0.  1.
         22    1    1    2    0    0  0.66890080945E+02 -0.13347174322E+02 -0.19497386767E+03  0.20656049735E+03  0.00000000000E+00 0.  1.
</event>
<event>
 6    1  0.8017648E-006  0.1535236E+03  0.7818608E-02  0.1269923E+00
          2   -1    0    0  502    0  0.00000000000E+00  0.00000000000E+00  0.13719484535E+03  0.13719484535E+03  0.00000000000E+00 0. -1.
          1   -1    0    0  501    0 -0.00000000000E+00 -0.00000000000E+00 -0.31154200570E+03  0.31154200570E+03  0.00000000000E+00 0. -1.
          2    1    1    2  501    0 -0.18007826311E+02  0.77595716841E+02 -0.16028990900E+02  0.81254572978E+02  0.00000000000E+00 0. -1.
          1    1    1    2  502    0  0.48781964546E+02 -0.76698489166E+02 -0.21089687609E+03  0.22965154180E+03  0.00000000000E+00 0. -1.
         22    1    1    2    0    0 -0.29446631109E+02 -0.16429541605E+02 -0.35161054389E+02  0.48716872505E+02  0.00000000000E+00 0. -1.
         22    1    1    2    0    0 -0.13275071270E+01  0.15532313930E+02  0.87739761029E+02  0.89113863773E+02  0.00000000000E+00 0. -1.
</event>
<event>
 6    1  0.8017648E-006  0.4957681E+02  0.7818608E-02  0.1449273E+00
          2   -1    0    0  502    0  0.00000000000E+00  0.00000000000E+00  0.20254535618E+03  0.20254535618E+03  0.00000000000E+00 0. -1.
          1   -1    0    0  501    0 -0.00000000000E+00 -0.00000000000E+00 -0.14702260087E+03  0.14702260087E+03  0.00000000000E+00 0. -1.
          2    1    1    2  501    0  0.35993151602E+02  0.85329289917E+01  0.12904247397E+03  0.13423962875E+03  0.00000000000E+00 0. -1.
          1    1    1    2  502    0 -0.19909753705E+02 -0.70531689624E+01 -0.83885937455E+02  0.86504311961E+02  0.00000000000E+00 0. -1.
         22    1    1    2    0    0  0.70668439863E+01  0.91112577110E+01  0.66339049629E+02  0.67333682557E+02  0.00000000000E+00 0. -1.
         22    1    1    2    0    0 -0.23150241883E+02 -0.10591017740E+02 -0.55972830834E+02  0.61490333774E+02  0.00000000000E+00 0.  1.
</event>
<event>
 6    1  0.8017648E-006  0.6305242E+02  0.7818608E-02  0.1423973E+00
          2   -1    0    0  502    0  0.00000000000E+00  0.00000000000E+00  0.53209496905E+03  0.53209496905E+03  0.00000000000E+00 0. -1.
          1   -1    0    0  501    0 -0.00000000000E+00 -0.00000000000E+00 -0.31436076838E+02  0.31436076838E+02  0.00000000000E+00 0. -1.
          2    1    1    2  501    0  0.52670655087E+01 -0.39855566719E+02  0.99312840593E+02  0.10714125482E+03  0.00000000000E+00 0. -1.
          1    1    1    2  502    0 -0.46771996797E+01  0.46614140511E+02  0.27702967505E+03  0.28096297825E+03  0.00000000000E+00 0. -1.
         22    1    1    2    0    0 -0.32579652403E+02  0.11038095612E+02 -0.10311292113E+02  0.35910946110E+02  0.00000000000E+00 0. -1.
         22    1    1    2    0    0  0.31989786574E+02 -0.17796669404E+02  0.13462766868E+03  0.13951586670E+03  0.00000000000E+00 0.  1.
</event>
<event>
 6    1  0.8017648E-006  0.4167612E+02  0.7818608E-02  0.1538882E+00
          2   -1    0    0  502    0  0.00000000000E+00  0.00000000000E+00  0.51962012217E+02  0.51962012217E+02  0.00000000000E+00 0. -1.
          1   -1    0    0  501    0 -0.00000000000E+00 -0.00000000000E+00 -0.44135809956E+03  0.44135809956E+03  0.00000000000E+00 0.  1.
          2    1    1    2  501    0 -0.41476025616E+02 -0.16645590958E+02 -0.28252170535E+02  0.52872691809E+02  0.00000000000E+00 0. -1.
          1    1    1    2  502    0  0.44980884185E+02 -0.38910020934E+00 -0.29240089069E+03  0.29584068722E+03  0.00000000000E+00 0.  1.
         22    1    1    2    0    0 -0.35307855830E+01  0.38478618711E+02  0.26581238600E+02  0.46900242965E+02  0.00000000000E+00 0. -1.
         22    1    1    2    0    0  0.25927014238E-01 -0.21443927543E+02 -0.95324264720E+02  0.97706489780E+02  0.00000000000E+00 0.  1.
</event>
<event>
 6    1  0.8017648E-006  0.9465424E+02  0.7818608E-02  0.1333232E+00
          2   -1    0    0  502    0  0.00000000000E+00  0.00000000000E+00  0.59643067138E+02  0.59643067138E+02  0.00000000000E+00 0. -1.
          1   -1    0    0  501    0 -0.00000000000E+00 -0.00000000000E+00 -0.21351194383E+03  0.21351194383E+03  0.00000000000E+00 0. -1.
          2    1    1    2  501    0 -0.22468621118E+02  0.80245630746E+01 -0.30393207777E+02  0.38639094535E+02  0.00000000000E+00 0. -1.
          1    1    1    2  502    0  0.63338935087E+02  0.99033230631E+01 -0.39101923710E+02  0.75092322800E+02  0.00000000000E+00 0. -1.
         22    1    1    2    0    0 -0.34257899810E+02 -0.62318097779E+02 -0.89738539376E+01  0.71677605043E+02  0.00000000000E+00 0. -1.
         22    1    1    2    0    0 -0.66124141584E+01  0.44390211641E+02 -0.75399891267E+02  0.87745988590E+02  0.00000000000E+00 0. -1.
</event>
<event>
 6    1  0.8017648E-006  0.6505445E+02  0.7818608E-02  0.1409015E+00
          2   -1    0    0  502    0  0.00000000000E+00  0.00000000000E+00  0.27745808771E+03  0.27745808771E+03  0.00000000000E+00 0. -1.
          1   -1    0    0  501    0 -0.00000000000E+00 -0.00000000000E+00 -0.80431891403E+02  0.80431891403E+02  0.00000000000E+00 0. -1.
          2    1    1    2  501    0 -0.15006186957E+02 -0.53541002740E+02  0.52397840530E+02  0.76402606720E+02  0.00000000000E+00 0. -1.
          1    1    1    2  502    0 -0.78673616297E+01  0.49896757339E+02  0.14075338104E+03  0.14954295719E+03  0.00000000000E+00 0. -1.
         22    1    1    2    0    0  0.89593159130E+01 -0.33290054788E+02  0.56485600671E+02  0.66174921025E+02  0.00000000000E+00 0.  1.
         22    1    1    2    0    0  0.13914232673E+02  0.36934300189E+02 -0.52610625941E+02  0.65769494169E+02  0.00000000000E+00 0. -1.
</event>
<event>
 6    1  0.8017648E-006  0.4345494E+02  0.7818608E-02  0.1546760E+00
          2   -1    0    0  502    0  0.00000000000E+00  0.00000000000E+00  0.18297012822E+03  0.18297012822E+03  0.00000000000E+00 0.  1.
          1   -1    0    0  501    0 -0.00000000000E+00 -0.00000000000E+00 -0.25108292732E+03  0.25108292732E+03  0.00000000000E+00 0.  1.
          2    1    1    2  501    0  0.23931521222E+02  0.13896336409E+02 -0.18661219642E+02  0.33377642099E+02  0.00000000000E+00 0.  1.
          1    1    1    2  502    0  0.11346055212E+02 -0.19319482717E+02  0.15703634788E+03  0.15862657386E+03  0.00000000000E+00 0.  1.
         22    1    1    2    0    0  0.22392103962E+02  0.37920736326E+02 -0.29288010085E+02  0.52888336125E+02  0.00000000000E+00 0. -1.
         22    1    1    2    0    0 -0.57669680396E+02 -0.32497590017E+02 -0.17719991724E+03  0.18916050345E+03  0.00000000000E+00 0.  1.
</event>
<event>
 6    1  0.8017648E-006  0.5379644E+02  0.7818608E-02  0.1530863E+00
          2   -1    0    0  502    0  0.00000000000E+00  0.00000000000E+00  0.17990261589E+03  0.17990261589E+03  0.00000000000E+00 0.  1.
          1   -1    0    0  501    0 -0.00000000000E+00 -0.00000000000E+00 -0.77739771972E+03  0.77739771972E+03  0.00000000000E+00 0. -1.
          2    1    1    2  501    0  0.59724887789E+01 -0.37865111075E+02  0.11107529853E+03  0.11750386888E+03  0.00000000000E+00 0.  1.
          1    1    1    2  502    0 -0.15343922817E+01  0.59500834716E+02 -0.71034884249E+03  0.71283811747E+03  0.00000000000E+00 0. -1.
         22    1    1    2    0    0 -0.99025034431E+01 -0.10791403310E+02  0.62930435852E+02  0.64612334089E+02  0.00000000000E+00 0.  1.
         22    1    1    2    0    0  0.54644069459E+01 -0.10844320331E+02 -0.61151995723E+02  0.62346015170E+02  0.00000000000E+00 0. -1.
</event>
<event>
 6    1  0.8017648E-006  0.1193897E+03  0.7818608E-02  0.1357849E+00
          2   -1    0    0  502    0  0.00000000000E+00  0.00000000000E+00  0.96222220660E+02  0.96222220660E+02  0.00000000000E+00 0. -1.
          1   -1    0    0  501    0 -0.00000000000E+00 -0.00000000000E+00 -0.43425580658E+03  0.43425580658E+03  0.00000000000E+00 0. -1.
          2    1    1    2  501    0  0.26322158769E+02 -0.20021152457E+02  0.15323625787E+02  0.36448814730E+02  0.00000000000E+00 0. -1.
          1    1    1    2  502    0  0.38232882646E+02  0.11408930345E+03 -0.29098477742E+03  0.31488134776E+03  0.00000000000E+00 0. -1.
         22    1    1    2    0    0  0.14650426730E+02  0.21025852914E+00  0.24434943325E+02  0.28491150685E+02  0.00000000000E+00 0.  1.
         22    1    1    2    0    0 -0.79205468145E+02 -0.94278409520E+02 -0.86807377617E+02  0.15065671407E+03  0.00000000000E+00 0. -1.
</event>
<event>
 6    1  0.8017648E-006  0.9388871E+02  0.7818608E-02  0.1346467E+00
          2   -1    0    0  502    0  0.00000000000E+00  0.00000000000E+00  0.29108858058E+03  0.29108858058E+03  0.00000000000E+00 0.  1.
          1   -1    0    0  501    0 -0.00000000000E+00 -0.00000000000E+00 -0.13025422184E+03  0.13025422184E+03  0.00000000000E+00 0.  1.
          2    1    1    2  501    0 -0.80348453222E+02 -0.30294692089E+02  0.19019320454E+03  0.20867941287E+03  0.00000000000E+00 0.  1.
          1    1    1    2  502    0  0.73690143045E+02  0.84697341075E+01  0.14250360404E+02  0.75531757225E+02  0.00000000000E+00 0.  1.
         22    1    1    2    0    0  0.16791244950E+02  0.32477695223E+02 -0.85363914158E+02  0.92864118121E+02  0.00000000000E+00 0.  1.
         22    1    1    2    0    0 -0.10132934773E+02 -0.10652737242E+02  0.41754707954E+02  0.44267514209E+02  0.00000000000E+00 0.  1.
</event>
<event>
 6    1  0.8017648E-006  0.5802051E+02  0.7818608E-02  0.1498260E+00
          2   -1    0    0  502    0  0.00000000000E+00  0.00000000000E+00  0.10030500941E+03  0.10030500941E+03  0.00000000000E+00 0.  1.
          1   -1    0    0  501    0 -0.00000000000E+00 -0.00000000000E+00 -0.93328522904E+03  0.93328522904E+03  0.00000000000E+00 0.  1.
          2    1    1    2  501    0 -0.40017869976E+02 -0.62322372115E+01  0.42863551995E+02  0.58970796058E+02  0.00000000000E+00 0.  1.
          1    1    1    2  502    0 -0.28974606853E+02 -0.49013934026E+02 -0.79861777858E+03  0.80064489622E+03  0.00000000000E+00 0.  1.
         22    1    1    2    0    0  0.12556633699E+02  0.82394254533E+01  0.36003019395E+02  0.39009929341E+02  0.00000000000E+00 0. -1.
         22    1    1    2    0    0  0.56435843130E+02  0.47006745784E+02 -0.11322901245E+03  0.13496461684E+03  0.00000000000E+00 0. -1.
</event>
<event>
 6    1  0.8017648E-006  0.1677851E+03  0.7818608E-02  0.1301019E+00
          2   -1    0    0  502    0  0.00000000000E+00  0.00000000000E+00  0.18948732907E+03  0.18948732907E+03  0.00000000000E+00 0.  1.
          1   -1    0    0  501    0 -0.00000000000E+00 -0.00000000000E+00 -0.15608801414E+03  0.15608801414E+03  0.00000000000E+00 0.  1.
          2    1    1    2  501    0 -0.23225058113E+02 -0.20802719654E+02  0.30272387636E+02  0.43457725694E+02  0.00000000000E+00 0.  1.
          1    1    1    2  502    0 -0.10693349118E+03 -0.17676100686E+02 -0.30133947899E+02  0.11249564831E+03  0.00000000000E+00 0.  1.
         22    1    1    2    0    0  0.61425528265E+01 -0.12986690424E+02 -0.35840949685E+02  0.38612935109E+02  0.00000000000E+00 0. -1.
         22    1    1    2    0    0  0.12401599647E+03  0.51465510764E+02  0.69101824878E+02  0.15100903410E+03  0.00000000000E+00 0.  1.
</event>
<event>
 6    1  0.8017648E-006  0.9936940E+02  0.7818608E-02  0.1327807E+00
          2   -1    0    0  502    0  0.00000000000E+00  0.00000000000E+00  0.35260827613E+02  0.35260827613E+02  0.00000000000E+00 0.  1.
          1   -1    0    0  501    0 -0.00000000000E+00 -0.00000000000E+00 -0.31048452916E+04  0.31048452916E+04  0.00000000000E+00 0.  1.
          2    1    1    2  501    0 -0.61966977571E+01  0.45174408402E+02 -0.33156243827E+02  0.56377856844E+02  0.00000000000E+00 0.  1.
          1    1    1    2  502    0  0.62176222162E+02 -0.10855862724E+03 -0.27984270007E+04  0.28012219720E+04  0.00000000000E+00 0.  1.
         22    1    1    2    0    0 -0.39819705233E+02  0.15335921963E+02 -0.22655328441E+03  0.23053674350E+03  0.00000000000E+00 0.  1.
         22    1    1    2    0    0 -0.16159819173E+02  0.48048296875E+02 -0.11447935088E+02  0.51969546910E+02  0.00000000000E+00 0.  1.
</event>
<event>
 6    1  0.8017648E-006  0.4854477E+02  0.7818608E-02  0.1522504E+00
          2   -1    0    0  502    0  0.00000000000E+00  0.00000000000E+00  0.13291584514E+03  0.13291584514E+03  0.00000000000E+00 0.  1.
          1   -1    0    0  501    0 -0.00000000000E+00 -0.00000000000E+00 -0.23992010142E+03  0.23992010142E+03  0.00000000000E+00 0.  1.
          2    1    1    2  501    0  0.26183706913E+02 -0.90407673769E+01  0.60530947745E+02  0.66568142662E+02  0.00000000000E+00 0.  1.
          1    1    1    2  502    0 -0.37464207891E+02  0.23727329441E+02 -0.17070491592E+03  0.17637097650E+03  0.00000000000E+00 0.  1.
         22    1    1    2    0    0  0.20295435163E+02  0.14247338869E+01  0.63565607895E+02  0.66742198512E+02  0.00000000000E+00 0.  1.
         22    1    1    2    0    0 -0.90149341844E+01 -0.16111295951E+02 -0.60395896002E+02  0.63154628884E+02  0.00000000000E+00 0.  1.
</event>
<event>
 6    1  0.8017648E-006  0.1360200E+03  0.7818608E-02  0.1293609E+00
          2   -1    0    0  502    0  0.00000000000E+00  0.00000000000E+00  0.46028880616E+03  0.46028880616E+03  0.00000000000E+00 0.  1.
          1   -1    0    0  501    0 -0.00000000000E+00 -0.00000000000E+00 -0.43661414292E+02  0.43661414292E+02  0.00000000000E+00 0.  1.
          2    1    1    2  501    0 -0.28993242000E+02  0.11794919961E+02  0.23358155139E+02  0.39055494236E+02  0.00000000000E+00 0.  1.
          1    1    1    2  502    0  0.77943747724E+02  0.32090682019E+02  0.60696772144E+02  0.10387077467E+03  0.00000000000E+00 0.  1.
         22    1    1    2    0    0 -0.58695244591E+02 -0.73239872963E+02  0.30657284721E+03  0.32061834223E+03  0.00000000000E+00 0.  1.
         22    1    1    2    0    0  0.97447388670E+01  0.29354270982E+02  0.25999617380E+02  0.40405609318E+02  0.00000000000E+00 0.  1.
</event>
<event>
 6    1  0.8017648E-006  0.1111806E+03  0.7818608E-02  0.1380573E+00
          2   -1    0    0  502    0  0.00000000000E+00  0.00000000000E+00  0.26833794965E+03  0.26833794965E+03  0.00000000000E+00 0. -1.
          1   -1    0    0  501    0 -0.00000000000E+00 -0.00000000000E+00 -0.11368605118E+03  0.11368605118E+03  0.00000000000E+00 0. -1.
          2    1    1    2  501    0 -0.75570367508E+02  0.81768667235E+02  0.95745540188E+02  0.14684755310E+03  0.00000000000E+00 0. -1.
          1    1    1    2  502    0 -0.10638993553E+02 -0.29106890701E+02 -0.36710710660E+02  0.48042434860E+02  0.00000000000E+00 0. -1.
         22    1    1    2    0    0  0.97731341144E+02 -0.57374704385E+02  0.11668621545E+03  0.16266205649E+03  0.00000000000E+00 0. -1.
         22    1    1    2    0    0 -0.11521980083E+02  0.47129278500E+01 -0.21069146515E+02  0.24471956375E+02  0.00000000000E+00 0.  1.
</event>
<event>
 6    1  0.8017648E-006  0.2606393E+03  0.7818608E-02  0.1151192E+00
          2   -1    0    0  502    0  0.00000000000E+00  0.00000000000E+00  0.12482769020E+03  0.12482769020E+03  0.00000000000E+00 0. -1.
          1   -1    0    0  501    0 -0.00000000000E+00 -0.00000000000E+00 -0.49789670565E+03  0.49789670565E+03  0.00000000000E+00 0. -1.
          2    1    1    2  501    0 -0.41425415148E+02  0.60786067487E+02 -0.23905159446E+01  0.73598407505E+02  0.00000000000E+00 0. -1.
          1    1    1    2  502    0  0.77411339881E+02  0.11817256429E+03 -0.31716337114E+02  0.14478672775E+03  0.00000000000E+00 0. -1.
         22    1    1    2    0    0 -0.71174310505E+02 -0.50567440318E+02 -0.13589967481E+03  0.16152885225E+03  0.00000000000E+00 0. -1.
         22    1    1    2    0    0  0.35188385771E+02 -0.12839119146E+03 -0.20306248759E+03  0.24281040835E+03  0.00000000000E+00 0. -1.
</event>
<event>
 6    1  0.8017648E-006  0.1142172E+03  0.7818608E-02  0.1345809E+00
          2   -1    0    0  502    0  0.00000000000E+00  0.00000000000E+00  0.43579063357E+03  0.43579063357E+03  0.00000000000E+00 0. -1.
          1   -1    0    0  501    0 -0.00000000000E+00 -0.00000000000E+00 -0.63729200759E+02  0.63729200759E+02  0.00000000000E+00 0.  1.
          2    1    1    2  501    0 -0.45622910002E+02  0.21170714312E+01  0.23294553596E+03  0.23738061132E+03  0.00000000000E+00 0. -1.
          1    1    1    2  502    0  0.87659967025E+02 -0.45660483749E+01  0.58578750603E+02  0.10553003667E+03  0.00000000000E+00 0.  1.
         22    1    1    2    0    0  0.16360279867E+02 -0.12416970778E+02 -0.26648978994E+02  0.33645326600E+02  0.00000000000E+00 0.  1.
         22    1    1    2    0    0 -0.58397336889E+02  0.14865947722E+02  0.10718612524E+03  0.12296385974E+03  0.00000000000E+00 0. -1.
</event>
<event>
 6    1  0.8222202E-006  0.5902329E+02  0.7818608E-02  0.1471928E+00
          2   -1    0    0  502    0  0.00000000000E+00  0.00000000000E+00  0.39194513190E+03  0.39194513190E+03  0.00000000000E+00 0.  1.
          1   -1    0    0  501    0 -0.00000000000E+00 -0.00000000000E+00 -0.24016689602E+03  0.24016689602E+03  0.00000000000E+00 0. -1.
          2    1    1    2  501    0  0.97872679446E+02  0.93756249756E+01  0.25778064164E+03  0.27589458663E+03  0.00000000000E+00 0.  1.
          1    1    1    2  502    0 -0.10145193341E+03 -0.41306665760E+02 -0.18006333725E+03  0.21076418304E+03  0.00000000000E+00 0. -1.
         22    1    1    2    0    0  0.13089623474E+02  0.27286619830E+02  0.10682132162E+03  0.11102563946E+03  0.00000000000E+00 0.  1.
         22    1    1    2    0    0 -0.95103695141E+01  0.46444209541E+01 -0.32760390130E+02  0.34427618793E+02  0.00000000000E+00 0.  1.
</event>
<event>
 6    1  0.8017648E-006  0.8803115E+02  0.7818608E-02  0.1368791E+00
          2   -1    0    0  502    0  0.00000000000E+00  0.00000000000E+00  0.44349538896E+03  0.44349538896E+03  0.00000000000E+00 0.  1.
          1   -1    0    0  501    0 -0.00000000000E+00 -0.00000000000E+00 -0.51818714930E+02  0.51818714930E+02  0.00000000000E+00 0.  1.
          2    1    1    2  501    0 -0.24126460911E+02 -0.24538111267E+02  0.94042254600E+02  0.10014065444E+03  0.00000000000E+00 0.  1.
          1    1    1    2  502    0  0.98666746661E+02  0.30367888783E+02  0.16999119555E+03  0.19888273462E+03  0.00000000000E+00 0.  1.
         22    1    1    2    0    0 -0.44567747792E+02 -0.11132782551E+02  0.15105810177E+03  0.15788848312E+03  0.00000000000E+00 0. -1.
         22    1    1    2    0    0 -0.29972537958E+02  0.53030050358E+01 -0.23414877891E+02  0.38402231715E+02  0.00000000000E+00 0.  1.
</event>
<event>
 6    1  0.8017648E-006  0.7281280E+02  0.7818608E-02  0.1362890E+00
          2   -1    0    0  502    0  0.00000000000E+00  0.00000000000E+00  0.41323450948E+03  0.41323450948E+03  0.00000000000E+00 0. -1.
          1   -1    0    0  501    0 -0.00000000000E+00 -0.00000000000E+00 -0.33737865275E+03  0.33737865275E+03  0.00000000000E+00 0. -1.
          2    1    1    2  501    0  0.11765595855E+03  0.25761856619E+03  0.14522980618E+03  0.31827966764E+03  0.00000000000E+00 0. -1.
          1    1    1    2  502    0 -0.11048660285E+03 -0.24751316162E+03 -0.12033929111E+03  0.29656634935E+03  0.00000000000E+00 0. -1.
         22    1    1    2    0    0  0.60728259541E+01 -0.17988744189E+02 -0.39591376070E+02  0.43908441007E+02  0.00000000000E+00 0. -1.
         22    1    1    2    0    0 -0.13242181659E+02  0.78833396215E+01  0.90556717728E+02  0.91858704238E+02  0.00000000000E+00 0. -1.
</event>
<event>
 6    1  0.8017648E-006  0.7316803E+02  0.7818608E-02  0.1369470E+00
          2   -1    0    0  502    0  0.00000000000E+00  0.00000000000E+00  0.58496735227E+03  0.58496735227E+03  0.00000000000E+00 0. -1.
          1   -1    0    0  501    0 -0.00000000000E+00 -0.00000000000E+00 -0.10611811062E+03  0.10611811062E+03  0.00000000000E+00 0. -1.
          2    1    1    2  501    0 -0.35653501734E+02 -0.74677294117E+02  0.35641287467E+03  0.36589343759E+03  0.00000000000E+00 0. -1.
          1    1    1    2  502    0 -0.21562561902E+02  0.54886058496E+02 -0.66980641768E+02  0.89240292831E+02  0.00000000000E+00 0. -1.
         22    1    1    2    0    0  0.51898278026E+01  0.13396098149E+02 -0.17417870234E+02  0.22578130164E+02  0.00000000000E+00 0. -1.
         22    1    1    2    0    0  0.52026235833E+02  0.63951374728E+01  0.20683487898E+03  0.21337360230E+03  0.00000000000E+00 0. -1.
</event>
<event>
 6    1  0.8017648E-006  0.9312315E+02  0.7818608E-02  0.1400299E+00
          2   -1    0    0  502    0  0.00000000000E+00  0.00000000000E+00  0.17095009463E+03  0.17095009463E+03  0.00000000000E+00 0.  1.
          1   -1    0    0  501    0 -0.00000000000E+00 -0.00000000000E+00 -0.12616579544E+03  0.12616579544E+03  0.00000000000E+00 0.  1.
          2    1    1    2  501    0 -0.27786360557E+02  0.26294898059E+02  0.38090229557E+02  0.53984896820E+02  0.00000000000E+00 0.  1.
          1    1    1    2  502    0  0.60594302369E+02 -0.63900738883E+02 -0.40525249032E+02  0.96939515774E+02  0.00000000000E+00 0.  1.
         22    1    1    2    0    0  0.12856909691E+02  0.85362923308E+01 -0.40372909623E+02  0.43221987981E+02  0.00000000000E+00 0.  1.
         22    1    1    2    0    0 -0.45664851503E+02  0.29069548494E+02  0.87592228286E+02  0.10296948950E+03  0.00000000000E+00 0.  1.
</event>
<event>
 6    1  0.8017648E-006  0.5085743E+02  0.7818608E-02  0.1445376E+00
          2   -1    0    0  502    0  0.00000000000E+00  0.00000000000E+00  0.57022704861E+02  0.57022704861E+02  0.00000000000E+00 0. -1.
          1   -1    0    0  501    0 -0.00000000000E+00 -0.00000000000E+00 -0.26134972526E+03  0.26134972526E+03  0.00000000000E+00 0.  1.
          2    1    1    2  501    0 -0.26481050083E+02  0.40910934995E+01  0.10868418607E+02  0.28915490356E+02  0.00000000000E+00 0. -1.
          1    1    1    2  502    0  0.26731405975E+02 -0.11827654558E+01 -0.13651776784E+03  0.13911530446E+03  0.00000000000E+00 0.  1.
         22    1    1    2    0    0 -0.18360220865E+02  0.71573852332E+01  0.32087416776E+02  0.37655387251E+02  0.00000000000E+00 0. -1.
         22    1    1    2    0    0  0.18109864973E+02 -0.10065713277E+02 -0.11076508795E+03  0.11268624805E+03  0.00000000000E+00 0. -1.
</event>
<event>
 6    1  0.8017648E-006  0.5757247E+02  0.7818608E-02  0.1485354E+00
          2   -1    0    0  502    0  0.00000000000E+00  0.00000000000E+00  0.26744453475E+03  0.26744453475E+03  0.00000000000E+00 0.  1.
          1   -1    0    0  501    0 -0.00000000000E+00 -0.00000000000E+00 -0.61200181184E+02  0.61200181184E+02  0.00000000000E+00 0.  1.
          2    1    1    2  501    0 -0.17007293932E+02  0.14230510424E+02  0.10564491309E+03  0.10794722384E+03  0.00000000000E+00 0.  1.
          1    1    1    2  502    0  0.47802897688E+02 -0.30483183900E+02 -0.46184516265E+01  0.56882964265E+02  0.00000000000E+00 0.  1.
         22    1    1    2    0    0  0.40935413113E+01  0.17930669558E+02 -0.23841905719E+02  0.30111500454E+02  0.00000000000E+00 0. -1.
         22    1    1    2    0    0 -0.34889145068E+02 -0.16779960815E+01  0.12905979783E+03  0.13370302738E+03  0.00000000000E+00 0.  1.
</event>
<event>
 6    1  0.8017648E-006  0.4121684E+02  0.7818608E-02  0.1558033E+00
          2   -1    0    0  502    0  0.00000000000E+00  0.00000000000E+00  0.30407606504E+03  0.30407606504E+03  0.00000000000E+00 0. -1.
          1   -1    0    0  501    0 -0.00000000000E+00 -0.00000000000E+00 -0.78232628534E+02  0.78232628534E+02  0.00000000000E+00 0.  1.
          2    1    1    2  501    0 -0.75557431652E+01  0.23671381277E+02  0.22749035529E+03  0.22884336411E+03  0.00000000000E+00 0. -1.
          1    1    1    2  502    0  0.13965277742E+02 -0.17630099247E+02 -0.12505637864E+02  0.25734031170E+02  0.00000000000E+00 0.  1.
         22    1    1    2    0    0 -0.79433743740E+01  0.12892373462E+02  0.66882173052E+02  0.68575035998E+02  0.00000000000E+00 0.  1.
         22    1    1    2    0    0  0.15338397969E+01 -0.18933655492E+02 -0.56023453969E+02  0.59156262301E+02  0.00000000000E+00 0.  1.
</event>
<event>
 6    1  0.8017648E-006  0.3603588E+02  0.7818608E-02  0.1548076E+00
          2   -1    0    0  502    0  0.00000000000E+00  0.00000000000E+00  0.30490826309E+03  0.30490826309E+03  0.00000000000E+00 0.  1.
          1   -1    0    0  501    0 -0.00000000000E+00 -0.00000000000E+00 -0.10818986048E+03  0.10818986048E+03  0.00000000000E+00 0. -1.
          2    1    1    2  501    0  0.36835125687E+02 -0.73689890870E+01  0.16712632701E+03  0.17129605268E+03  0.00000000000E+00 0.  1.
          1    1    1    2  502    0 -0.24525001897E+02  0.55943162238E+02 -0.55724773880E+02  0.82682304898E+02  0.00000000000E+00 0. -1.
         22    1    1    2    0    0 -0.11886219097E+02 -0.24026599190E+02 -0.30571539868E+02  0.40659300571E+02  0.00000000000E+00 0. -1.
         22    1    1    2    0    0 -0.42390469239E+00 -0.24547573962E+02  0.11588838935E+03  0.11846046542E+03  0.00000000000E+00 0.  1.
</event>
<event>
 6    1  0.8017648E-006  0.4575523E+02  0.7818608E-02  0.1472835E+00
          2   -1    0    0  502    0  0.00000000000E+00  0.00000000000E+00  0.63920037006E+02  0.63920037006E+02  0.00000000000E+00 0.  1.
          1   -1    0    0  501    0 -0.00000000000E+00 -0.00000000000E+00 -0.15598909067E+03  0.15598909067E+03  0.00000000000E+00 0.  1.
          2    1    1    2  501    0 -0.16284456266E+02 -0.15623863905E+02  0.83459080368E+01  0.24061230645E+02  0.00000000000E+00 0.  1.
          1    1    1    2  502    0 -0.27346180626E+01  0.41511187564E+02 -0.24564402330E+02  0.48312179528E+02  0.00000000000E+00 0.  1.
         22    1    1    2    0    0 -0.25349279597E+02 -0.11001641873E+02  0.24422581919E+02  0.36879324934E+02  0.00000000000E+00 0.  1.
         22    1    1    2    0    0  0.44368353925E+02 -0.14885681786E+02 -0.10027314129E+03  0.11065639257E+03  0.00000000000E+00 0.  1.
</event>
<event>
 6    1  0.8017648E-006  0.2319495E+02  0.7818608E-02  0.1701887E+00
          2   -1    0    0  502    0  0.00000000000E+00  0.00000000000E+00  0.10910657801E+03  0.10910657801E+03  0.00000000000E+00 0. -1.
          1   -1    0    0  501    0 -0.00000000000E+00 -0.00000000000E+00 -0.10204724802E+03  0.10204724802E+03  0.00000000000E+00 0. -1.
          2    1    1    2  501    0 -0.23619825864E+02  0.20990966394E+02  0.28939103567E+02  0.42848437069E+02  0.00000000000E+00 0. -1.
          1    1    1    2  502    0  0.13590561334E+02 -0.19685824823E+02 -0.31743612760E+02  0.39747855381E+02  0.00000000000E+00 0. -1.
         22    1    1    2    0    0 -0.65333277390E+00 -0.14331383437E+02 -0.57426031993E+02  0.59190916071E+02  0.00000000000E+00 0. -1.
         22    1    1    2    0    0  0.10682597304E+02  0.13026241865E+02  0.67289871171E+02  0.69366617508E+02  0.00000000000E+00 0. -1.
</event>
<event>
 6    1  0.8017648E-006  0.1386221E+03  0.7818608E-02  0.1294392E+00
          2   -1    0    0  502    0  0.00000000000E+00  0.00000000000E+00  0.42673894251E+03  0.42673894251E+03  0.00000000000E+00 0. -1.
          1   -1    0    0  501    0 -0.00000000000E+00 -0.00000000000E+00 -0.14735310446E+03  0.14735310446E+03  0.00000000000E+00 0. -1.
          2    1    1    2  501    0 -0.11220033615E+03  0.72684547142E+02  0.27196420487E+03  0.30304535561E+03  0.00000000000E+00 0. -1.
          1    1    1    2  502    0  0.95332782009E+02 -0.68843938787E+02  0.57516955927E+02  0.13090465023E+03  0.00000000000E+00 0. -1.
         22    1    1    2    0    0 -0.94447513136E+01  0.78623161827E+01  0.41941691214E+02  0.43704974603E+02  0.00000000000E+00 0. -1.
         22    1    1    2    0    0  0.26312305451E+02 -0.11702924538E+02 -0.92037013960E+02  0.96437066523E+02  0.00000000000E+00 0. -1.
</event>
<event>
 6    1  0.8017648E-006  0.9523933E+02  0.7818608E-02  0.1392815E+00
          2   -1    0    0  502    0  0.00000000000E+00  0.00000000000E+00  0.45411962023E+03  0.45411962023E+03  0.00000000000E+00 0. -1.
          1   -1    0    0  501    0 -0.00000000000E+00 -0.00000000000E+00 -0.19887397833E+03  0.19887397833E+03  0.00000000000E+00 0.  1.
          2    1    1    2  501    0 -0.83926323906E+02  0.27950415192E+01  0.38297015324E+03  0.39206833381E+03  0.00000000000E+00 0. -1.
          1    1    1    2  502    0  0.80215062679E+02 -0.52571689837E+01 -0.11077227426E+03  0.13686705539E+03  0.00000000000E+00 0.  1.
         22    1    1    2    0    0  0.14567994829E+02  0.72030515573E+01 -0.68892844116E+02  0.70783715610E+02  0.00000000000E+00 0. -1.
         22    1    1    2    0    0 -0.10856733601E+02 -0.47409240929E+01  0.51940607025E+02  0.53274493746E+02  0.00000000000E+00 0.  1.
</event>
<event>
 6    1  0.8017648E-006  0.1026118E+03  0.7818608E-02  0.1338438E+00
          2   -1    0    0  502    0  0.00000000000E+00  0.00000000000E+00  0.30930961089E+03  0.30930961089E+03  0.00000000000E+00 0. -1.
          1   -1    0    0  501    0 -0.00000000000E+00 -0.00000000000E+00 -0.10654901976E+03  0.10654901976E+03  0.00000000000E+00 0. -1.
          2    1    1    2  501    0  0.25718655633E+02  0.24419970622E+02  0.86873409744E+02  0.93833754765E+02  0.00000000000E+00 0. -1.
          1    1    1    2  502    0 -0.24254772124E+02  0.72554568294E+02 -0.49148453412E+02  0.90928707369E+02  0.00000000000E+00 0. -1.
         22    1    1    2    0    0 -0.56992118484E+01 -0.65083679395E+02  0.18295581464E+03  0.19427093568E+03  0.00000000000E+00 0. -1.
         22    1    1    2    0    0  0.42353283401E+01 -0.31890859521E+02 -0.17920179846E+02  0.36825232828E+02  0.00000000000E+00 0. -1.
</event>
<event>
 6    1  0.8017648E-006  0.1713216E+03  0.7818608E-02  0.1261995E+00
          2   -1    0    0  502    0  0.00000000000E+00  0.00000000000E+00  0.43410190995E+03  0.43410190995E+03  0.00000000000E+00 0. -1.
          1   -1    0    0  501    0 -0.00000000000E+00 -0.00000000000E+00 -0.11878931109E+03  0.11878931109E+03  0.00000000000E+00 0.  1.
          2    1    1    2  501    0 -0.77690687762E+02  0.11624760354E+03  0.18893205079E+03  0.23504184332E+03  0.00000000000E+00 0. -1.
          1    1    1    2  502    0  0.85885226220E+02 -0.10853365165E+03  0.13876450245E+03  0.19598829752E+03  0.00000000000E+00 0.  1.
         22    1    1    2    0    0 -0.35983232632E+02 -0.13139608744E+02  0.44259800466E+02  0.58535222609E+02  0.00000000000E+00 0. -1.
         22    1    1    2    0    0  0.27788694175E+02  0.54256568535E+01 -0.56643754850E+02  0.63325857591E+02  0.00000000000E+00 0.  1.
</event>
<event>
 6    1  0.8017648E-006  0.4141586E+02  0.7818608E-02  0.1543796E+00
          2   -1    0    0  502    0  0.00000000000E+00  0.00000000000E+00  0.36098915505E+03  0.36098915505E+03  0.00000000000E+00 0.  1.
          1   -1    0    0  501    0 -0.00000000000E+00 -0.00000000000E+00 -0.56996030103E+02  0.56996030103E+02  0.00000000000E+00 0. -1.
          2    1    1    2  501    0  0.58621714785E+01  0.42366701661E+02  0.20926231017E+03  0.21358842881E+03  0.00000000000E+00 0.  1.
          1    1    1    2  502    0  0.89899159345E+01  0.29187939243E+02  0.16824155525E+01  0.30587332474E+02  0.00000000000E+00 0. -1.
         22    1    1    2    0    0 -0.20799364568E+02 -0.49880141109E+02 -0.20692612129E+02  0.57869043885E+02  0.00000000000E+00 0. -1.
         22    1    1    2    0    0  0.59472771545E+01 -0.21674499796E+02  0.11374101135E+03  0.11594037998E+03  0.00000000000E+00 0.  1.
</event>
<event>
 6    1  0.8017648E-006  0.1027018E+03  0.7818608E-02  0.1389151E+00
          2   -1    0    0  502    0  0.00000000000E+00  0.00000000000E+00  0.56274497157E+03  0.56274497157E+03  0.00000000000E+00 0. -1.
          1   -1    0    0  501    0 -0.00000000000E+00 -0.00000000000E+00 -0.13551081204E+03  0.13551081204E+03  0.00000000000E+00 0.  1.
          2    1    1    2  501    0  0.67043078014E+02  0.46477408966E+02  0.44773671236E+03  0.45510777564E+03  0.00000000000E+00 0. -1.
          1    1    1    2  502    0 -0.67077932496E+02 -0.54720387560E+02 -0.63742280744E+02  0.10750278228E+03  0.00000000000E+00 0.  1.
         22    1    1    2    0    0 -0.74709195310E+01 -0.11537533188E+02 -0.43885689472E+02  0.45987857649E+02  0.00000000000E+00 0.  1.
         22    1    1    2    0    0  0.75057740131E+01  0.19780511783E+02  0.87125417385E+02  0.89657368043E+02  0.00000000000E+00 0. -1.
</event>
<event>
 6    1  0.8017648E-006  0.2704524E+03  0.7818608E-02  0.1231229E+00
          2   -1    0    0  502    0  0.00000000000E+00  0.00000000000E+00  0.10813458227E+04  0.10813458227E+04  0.00000000000E+00 0. -1.
          1   -1    0    0  501    0 -0.00000000000E+00 -0.00000000000E+00 -0.74245494738E+02  0.74245494738E+02  0.00000000000E+00 0.  1.
          2    1    1    2  501    0  0.47610618446E+02  0.49250889783E+02  0.38207364295E+03  0.38816580191E+03  0.00000000000E+00 0. -1.
          1    1    1    2  502    0  0.13302630461E+03  0.31944466132E+02  0.49151017346E+02  0.14536942299E+03  0.00000000000E+00 0.  1.
         22    1    1    2    0    0 -0.65483159215E+00 -0.13338449300E+02 -0.15422502573E+01  0.13443272295E+02  0.00000000000E+00 0.  1.
         22    1    1    2    0    0 -0.17998209147E+03 -0.67856906615E+02  0.57741791792E+03  0.60861282024E+03  0.00000000000E+00 0. -1.
</event>
<event>
 6    1  0.8017648E-006  0.1049445E+03  0.7818608E-02  0.1275768E+00
          2   -1    0    0  502    0  0.00000000000E+00  0.00000000000E+00  0.21743210368E+03  0.21743210368E+03  0.00000000000E+00 0. -1.
          1   -1    0    0  501    0 -0.00000000000E+00 -0.00000000000E+00 -0.11772735752E+03  0.11772735752E+03  0.00000000000E+00 0.  1.
          2    1    1    2  501    0  0.53250281599E+02  0.80547790469E+02  0.15590570140E+02  0.97809022677E+02  0.00000000000E+00 0. -1.
          1    1    1    2  502    0 -0.70855468390E+02  0.20097795622E+01  0.42055162761E+02  0.82420709348E+02  0.00000000000E+00 0.  1.
         22    1    1    2    0    0 -0.13995648598E+02  0.23525318251E+02  0.34418504875E+02  0.43976724029E+02  0.00000000000E+00 0.  1.
         22    1    1    2    0    0  0.31600835389E+02 -0.10608288828E+03  0.76405083819E+01  0.11095300515E+03  0.00000000000E+00 0.  1.
</event>
<event>
 6    1  0.8017648E-006  0.1610013E+03  0.7818608E-02  0.1240790E+00
          2   -1    0    0  502    0  0.00000000000E+00  0.00000000000E+00  0.54050719270E+02  0.54050719270E+02  0.00000000000E+00 0.  1.
          1   -1    0    0  501    0 -0.00000000000E+00 -0.00000000000E+00 -0.66073218829E+03  0.66073218829E+03  0.00000000000E+00 0.  1.
          2    1    1    2  501    0  0.47598110864E+02  0.50397118869E+02 -0.19716796673E+03  0.20899917907E+03  0.00000000000E+00 0.  1.
          1    1    1    2  502    0 -0.13649016134E+03 -0.34571010257E+02 -0.15753184264E+03  0.21128416963E+03  0.00000000000E+00 0.  1.
         22    1    1    2    0    0  0.68193793776E+02  0.31944538243E+02 -0.62092888447E+02  0.97603144563E+02  0.00000000000E+00 0.  1.
         22    1    1    2    0    0  0.20698256699E+02 -0.47770646855E+02 -0.18988877121E+03  0.19689641429E+03  0.00000000000E+00 0.  1.
</event>
<event>
 6    1  0.8017648E-006  0.3272102E+03  0.7818608E-02  0.1177543E+00
          2   -1    0    0  502    0  0.00000000000E+00  0.00000000000E+00  0.71316107238E+03  0.71316107238E+03  0.00000000000E+00 0. -1.
          1   -1    0    0  501    0 -0.00000000000E+00 -0.00000000000E+00 -0.16787282535E+03  0.16787282535E+03  0.00000000000E+00 0. -1.
          2    1    1    2  501    0  0.12675296351E+03  0.13574553185E+03  0.85611227020E+02  0.20450536758E+03  0.00000000000E+00 0. -1.
          1    1    1    2  502    0 -0.12100165039E+03 -0.27237116122E+03  0.36269231404E+03  0.46943920109E+03  0.00000000000E+00 0. -1.
         22    1    1    2    0    0  0.10621717770E+02  0.15418001041E+03  0.98111916242E+02  0.18305803618E+03  0.00000000000E+00 0.  1.
         22    1    1    2    0    0 -0.16373030893E+02 -0.17554381051E+02 -0.11272102665E+01  0.24031292884E+02  0.00000000000E+00 0. -1.
</event>
<event>
 6    1  0.8017648E-006  0.9664863E+02  0.7818608E-02  0.1415664E+00
          2   -1    0    0  502    0  0.00000000000E+00  0.00000000000E+00  0.77683173839E+03  0.77683173839E+03  0.00000000000E+00 0. -1.
          1   -1    0    0  501    0 -0.00000000000E+00 -0.00000000000E+00 -0.61044839255E+02  0.61044839255E+02  0.00000000000E+00 0. -1.
          2    1    1    2  501    0 -0.29326857147E+02  0.32600336002E+02  0.18388213614E+02  0.47549688300E+02  0.00000000000E+00 0. -1.
          1    1    1    2  502    0  0.69174135933E+02 -0.18287117259E+02  0.64823015540E+03  0.65216701397E+03  0.00000000000E+00 0. -1.
         22    1    1    2    0    0 -0.49988232789E+02 -0.10444575087E+02  0.85858628809E+02  0.99898031548E+02  0.00000000000E+00 0. -1.
         22    1    1    2    0    0  0.10140954003E+02 -0.38686436559E+01 -0.36690098685E+02  0.38261843831E+02  0.00000000000E+00 0. -1.
</event>
<event>
 6    1  0.8017648E-006  0.1758806E+03  0.7818608E-02  0.1291324E+00
          2   -1    0    0  502    0  0.00000000000E+00  0.00000000000E+00  0.75133148917E+03  0.75133148917E+03  0.00000000000E+00 0.  1.
          1   -1    0    0  501    0 -0.00000000000E+00 -0.00000000000E+00 -0.36252952138E+03  0.36252952138E+03  0.00000000000E+00 0.  1.
          2    1    1    2  501    0  0.23032447908E+03 -0.25318966480E+03  0.37132530101E+02  0.34428650397E+03  0.00000000000E+00 0.  1.
          1    1    1    2  502    0 -0.11940663957E+03  0.16944192950E+03  0.49467418183E+03  0.53634975456E+03  0.00000000000E+00 0.  1.
         22    1    1    2    0    0 -0.72362063815E+01 -0.93531960403E+01  0.17214935605E+02  0.20885376866E+02  0.00000000000E+00 0. -1.
         22    1    1    2    0    0 -0.10368163312E+03  0.93100931342E+02 -0.16021967975E+03  0.21233937516E+03  0.00000000000E+00 0.  1.
</event>
<event>
 6    1  0.8915791E-006  0.6107770E+02  0.7818608E-02  0.1397269E+00
          2   -1    0    0  502    0  0.00000000000E+00  0.00000000000E+00  0.10777865508E+04  0.10777865508E+04  0.00000000000E+00 0.  1.
          1   -1    0    0  501    0 -0.00000000000E+00 -0.00000000000E+00 -0.76830817835E+02  0.76830817835E+02  0.00000000000E+00 0. -1.
          2    1    1    2  501    0  0.12828399424E+03  0.90747687175E+02  0.77527508331E+03  0.79103943057E+03  0.00000000000E+00 0.  1.
          1    1    1    2  502    0 -0.12872473935E+03 -0.92657422981E+02  0.11760851393E+03  0.19745181464E+03  0.00000000000E+00 0. -1.
         22    1    1    2    0    0 -0.35335331364E+01  0.22849018761E+02  0.13204213350E+03  0.13405106689E+03  0.00000000000E+00 0.  1.
         22    1    1    2    0    0  0.39742782459E+01 -0.20939282956E+02 -0.23969997781E+02  0.32075056537E+02  0.00000000000E+00 0. -1.
</event>
<event>
 6    1  0.8017648E-006  0.4846328E+02  0.7818608E-02  0.1541201E+00
          2   -1    0    0  502    0  0.00000000000E+00  0.00000000000E+00  0.17868898974E+03  0.17868898974E+03  0.00000000000E+00 0. -1.
          1   -1    0    0  501    0 -0.00000000000E+00 -0.00000000000E+00 -0.17697947627E+03  0.17697947627E+03  0.00000000000E+00 0. -1.
          2    1    1    2  501    0  0.15950040938E+02  0.30814586725E+02  0.12177392245E+03  0.12662081483E+03  0.00000000000E+00 0. -1.
          1    1    1    2  502    0 -0.24795488212E+02 -0.52989067217E+02 -0.82245629520E+02  0.10093067450E+03  0.00000000000E+00 0. -1.
         22    1    1    2    0    0 -0.20009232696E+01  0.14368900498E+02 -0.81322883205E+02  0.82606781370E+02  0.00000000000E+00 0. -1.
         22    1    1    2    0    0  0.10846370544E+02  0.78055799940E+01  0.43504103748E+02  0.45510195296E+02  0.00000000000E+00 0. -1.
</event>
<event>
 6    1  0.8017648E-006  0.5108031E+03  0.7818608E-02  0.1138563E+00
          2   -1    0    0  502    0  0.00000000000E+00  0.00000000000E+00  0.51019439323E+03  0.51019439323E+03  0.00000000000E+00 0. -1.
          1   -1    0    0  501    0 -0.00000000000E+00 -0.00000000000E+00 -0.19227211351E+03  0.19227211351E+03  0.00000000000E+00 0. -1.
          2    1    1    2  501    0  0.33885152945E+02 -0.24382483872E+03  0.18896651787E+02  0.24689236322E+03  0.00000000000E+00 0. -1.
          1    1    1    2  502    0  0.73468877866E+02  0.57656392598E+02  0.73241504812E+02  0.11868552418E+03  0.00000000000E+00 0. -1.
         22    1    1    2    0    0  0.14475628908E+02 -0.60478432184E+01 -0.85475692439E+00  0.15711487812E+02  0.00000000000E+00 0. -1.
         22    1    1    2    0    0 -0.12182965972E+03  0.19221628934E+03  0.22663888004E+03  0.32117713153E+03  0.00000000000E+00 0. -1.
</event>
<event>
 6    1  0.8017648E-006  0.1048535E+03  0.7818608E-02  0.1403495E+00
          2   -1    0    0  502    0  0.00000000000E+00  0.00000000000E+00  0.16339222411E+03  0.16339222411E+03  0.00000000000E+00 0.  1.
          1   -1    0    0  501    0 -0.00000000000E+00 -0.00000000000E+00 -0.17435407262E+03  0.17435407262E+03  0.00000000000E+00 0.  1.
          2    1    1    2  501    0  0.70665464132E+02 -0.72571168502E+02 -0.73481899960E+02  0.12513901047E+03  0.00000000000E+00 0.  1.
          1    1    1    2  502    0  0.31079665981E+02  0.20523052635E+02  0.96074255784E+01  0.38463540570E+02  0.00000000000E+00 0.  1.
         22    1    1    2    0    0 -0.29970945781E+01  0.98323072883E+01 -0.34294635295E+02  0.35801939228E+02  0.00000000000E+00 0.  1.
         22    1    1    2    0    0 -0.98748035535E+02  0.42215808579E+02  0.87207261169E+02  0.13834180647E+03  0.00000000000E+00 0.  1.
</event>
<event>
 6    1  0.8017648E-006  0.2471093E+02  0.7818608E-02  0.1692649E+00
          2   -1    0    0  502    0  0.00000000000E+00  0.00000000000E+00  0.28872628758E+03  0.28872628758E+03  0.00000000000E+00 0.  1.
          1   -1    0    0  501    0 -0.00000000000E+00 -0.00000000000E+00 -0.73304131816E+02  0.73304131816E+02  0.00000000000E+00 0.  1.
          2    1    1    2  501    0 -0.26625300237E+02  0.18135994850E+02  0.19190321331E+03  0.19458844827E+03  0.00000000000E+00 0.  1.
          1    1    1    2  502    0  0.30852582042E+02  0.14461412141E+02 -0.12479219253E+02  0.36286983519E+02  0.00000000000E+00 0.  1.
         22    1    1    2    0    0 -0.51617755838E+01 -0.18196117705E+02  0.81372053398E+02  0.83541329298E+02  0.00000000000E+00 0.  1.
         22    1    1    2    0    0  0.93449377882E+00 -0.14401289286E+02 -0.45373891683E+02  0.47613658315E+02  0.00000000000E+00 0.  1.
</event>
<event>
 6    1  0.8017648E-006  0.1735541E+03  0.7818608E-02  0.1288215E+00
          2   -1    0    0  502    0  0.00000000000E+00  0.00000000000E+00  0.57372679124E+03  0.57372679124E+03  0.00000000000E+00 0. -1.
          1   -1    0    0  501    0 -0.00000000000E+00 -0.00000000000E+00 -0.41819900194E+03  0.41819900194E+03  0.00000000000E+00 0.  1.
          2    1    1    2  501    0 -0.55787941573E+02  0.96550519936E+02  0.44283346571E+03  0.45665717521E+03  0.00000000000E+00 0. -1.
          1    1    1    2  502    0  0.84616614704E+02 -0.13188480182E+03 -0.35300395400E+03  0.38621932108E+03  0.00000000000E+00 0.  1.
         22    1    1    2    0    0 -0.19992100492E+02  0.49232734928E+02  0.98740213935E+02  0.11213017488E+03  0.00000000000E+00 0.  1.
         22    1    1    2    0    0 -0.88365726396E+01 -0.13898453044E+02 -0.33041936332E+02  0.36919122005E+02  0.00000000000E+00 0.  1.
</event>
<event>
 6    1  0.8017648E-006  0.3627115E+02  0.7818608E-02  0.1608475E+00
          2   -1    0    0  502    0  0.00000000000E+00  0.00000000000E+00  0.38904789850E+03  0.38904789850E+03  0.00000000000E+00 0.  1.
          1   -1    0    0  501    0 -0.00000000000E+00 -0.00000000000E+00 -0.88361289129E+02  0.88361289129E+02  0.00000000000E+00 0.  1.
          2    1    1    2  501    0 -0.36633927245E+02  0.32360233108E+02  0.30410955004E+03  0.30801273957E+03  0.00000000000E+00 0.  1.
          1    1    1    2  502    0  0.29651113717E+00 -0.29746757244E+02 -0.21027468881E+02  0.36429547526E+02  0.00000000000E+00 0.  1.
         22    1    1    2    0    0  0.26838837697E+02 -0.96393472325E+01 -0.53639994285E+02  0.60749396795E+02  0.00000000000E+00 0.  1.
         22    1    1    2    0    0  0.94985784113E+01  0.70258713688E+01  0.71244522492E+02  0.72217503733E+02  0.00000000000E+00 0. -1.
</event>
<event>
 6    1  0.8017648E-006  0.7195981E+02  0.7818608E-02  0.1355277E+00
          2   -1    0    0  502    0  0.00000000000E+00  0.00000000000E+00  0.24934551208E+03  0.24934551208E+03  0.00000000000E+00 0.  1.
          1   -1    0    0  501    0 -0.00000000000E+00 -0.00000000000E+00 -0.10775894735E+03  0.10775894735E+03  0.00000000000E+00 0. -1.
          2    1    1    2  501    0  0.21718090335E+02 -0.40226570196E+02  0.16822605928E+03  0.17432687520E+03  0.00000000000E+00 0.  1.
          1    1    1    2  502    0 -0.15538071724E+02  0.13166454781E+02 -0.51818906704E+02  0.55677520566E+02  0.00000000000E+00 0. -1.
         22    1    1    2    0    0  0.21602059554E+02 -0.92265157243E+01  0.63344107179E+02  0.67559259052E+02  0.00000000000E+00 0.  1.
         22    1    1    2    0    0 -0.27782078165E+02  0.36286631139E+02 -0.38164695029E+02  0.59540804607E+02  0.00000000000E+00 0. -1.
</event>
<event>
 6    1  0.8017648E-006  0.1271998E+03  0.7818608E-02  0.1312174E+00
          2   -1    0    0  502    0  0.00000000000E+00  0.00000000000E+00  0.35492845345E+03  0.35492845345E+03  0.00000000000E+00 0.  1.
          1   -1    0    0  501    0 -0.00000000000E+00 -0.00000000000E+00 -0.31870228564E+03  0.31870228564E+03  0.00000000000E+00 0.  1.
          2    1    1    2  501    0 -0.53396271821E+02  0.63817296501E+02  0.19618977266E+03  0.21310616151E+03  0.00000000000E+00 0.  1.
          1    1    1    2  502    0  0.10168882539E+03 -0.46953416951E+02 -0.26829107186E+03  0.29073241961E+03  0.00000000000E+00 0.  1.
         22    1    1    2    0    0 -0.54921698728E+01 -0.26333120386E+02 -0.20429314339E+02  0.33778011243E+02  0.00000000000E+00 0. -1.
         22    1    1    2    0    0 -0.42800383697E+02  0.94692408361E+01  0.12875678135E+03  0.13601414673E+03  0.00000000000E+00 0.  1.
</event>
<event>
 6    1  0.8017648E-006  0.4917317E+02  0.7818608E-02  0.1525754E+00
          2   -1    0    0  502    0  0.00000000000E+00  0.00000000000E+00  0.45763922805E+03  0.45763922805E+03  0.00000000000E+00 0.  1.
          1   -1    0    0  501    0 -0.00000000000E+00 -0.00000000000E+00 -0.32393662945E+02  0.32393662945E+02  0.00000000000E+00 0.  1.
          2    1    1    2  501    0 -0.28400515162E+02 -0.49833993163E+02  0.59684804288E+02  0.82778572100E+02  0.00000000000E+00 0.  1.
          1    1    1    2  502    0  0.46691882852E+02  0.80702420017E+01  0.11669456725E+03  0.12594793668E+03  0.00000000000E+00 0.  1.
         22    1    1    2    0    0  0.17006125278E+02 -0.44396058111E+00 -0.78673577778E+01  0.18743017803E+02  0.00000000000E+00 0. -1.
         22    1    1    2    0    0 -0.35297492967E+02  0.42207711743E+02  0.25673355135E+03  0.26256336440E+03  0.00000000000E+00 0.  1.
</event>
<event>
 6    1  0.8017648E-006  0.5063495E+02  0.7818608E-02  0.1535027E+00
          2   -1    0    0  502    0  0.00000000000E+00  0.00000000000E+00  0.20965893241E+03  0.20965893241E+03  0.00000000000E+00 0. -1.
          1   -1    0    0  501    0 -0.00000000000E+00 -0.00000000000E+00 -0.99789956554E+02  0.99789956554E+02  0.00000000000E+00 0. -1.
          2    1    1    2  501    0  0.10183128574E+02 -0.19081033930E+02  0.13717562886E+03  0.13887020961E+03  0.00000000000E+00 0. -1.
          1    1    1    2  502    0 -0.15034082749E+02  0.29519743629E+02 -0.36777649019E+02  0.49497821926E+02  0.00000000000E+00 0. -1.
         22    1    1    2    0    0  0.65706675494E+01 -0.24118294788E+02  0.61959381627E+02  0.66811906028E+02  0.00000000000E+00 0. -1.
         22    1    1    2    0    0 -0.17197133751E+01  0.13679585090E+02 -0.52488385611E+02  0.54268951403E+02  0.00000000000E+00 0. -1.
</event>
<event>
 6    1  0.8017648E-006  0.6634191E+02  0.7818608E-02  0.1373162E+00
          2   -1    0    0  502    0  0.00000000000E+00  0.00000000000E+00  0.28339014366E+03  0.28339014366E+03  0.00000000000E+00 0. -1.
          1   -1    0    0  501    0 -0.00000000000E+00 -0.00000000000E+00 -0.18842412017E+03  0.18842412017E+03  0.00000000000E+00 0.  1.
          2    1    1    2  501    0  0.58209923058E-01  0.40669021893E+02  0.20349536484E+03  0.20751948401E+03  0.00000000000E+00 0. -1.
          1    1    1    2  502    0  0.54718947594E+00 -0.52067997650E+02 -0.12432464717E+03  0.13478870015E+03  0.00000000000E+00 0.  1.
         22    1    1    2    0    0  0.10366535185E+01  0.23689333291E+02  0.69996952417E+02  0.73904211720E+02  0.00000000000E+00 0. -1.
         22    1    1    2    0    0 -0.16420529175E+01 -0.12290357534E+02 -0.54201646601E+02  0.55601867958E+02  0.00000000000E+00 0.  1.
</event>
<event>
 6    1  0.8017648E-006  0.4934389E+02  0.7818608E-02  0.1490128E+00
          2   -1    0    0  502    0  0.00000000000E+00  0.00000000000E+00  0.19889085690E+03  0.19889085690E+03  0.00000000000E+00 0.  1.
          1   -1    0    0  501    0 -0.00000000000E+00 -0.00000000000E+00 -0.84419132452E+02  0.84419132452E+02  0.00000000000E+00 0.  1.
          2    1    1    2  501    0  0.32979624781E+02 -0.37627856292E+02  0.57853120396E+02  0.76488526979E+02  0.00000000000E+00 0.  1.
          1    1    1    2  502    0  0.30232034275E+02  0.34063962786E+02  0.53468858141E+02  0.70237085988E+02  0.00000000000E+00 0.  1.
         22    1    1    2    0    0 -0.18701979922E+02 -0.19924842484E+02 -0.53946989451E+02  0.60473474117E+02  0.00000000000E+00 0.  1.
         22    1    1    2    0    0 -0.44509679135E+02  0.23488735990E+02  0.57096735357E+02  0.76110902265E+02  0.00000000000E+00 0.  1.
</event>
<event>
 6    1  0.8017648E-006  0.4158907E+02  0.7818608E-02  0.1503647E+00
          2   -1    0    0  502    0  0.00000000000E+00  0.00000000000E+00  0.19826703286E+03  0.19826703286E+03  0.00000000000E+00 0.  1.
          1   -1    0    0  501    0 -0.00000000000E+00 -0.00000000000E+00 -0.83329582992E+02  0.83329582992E+02  0.00000000000E+00 0.  1.
          2    1    1    2  501    0  0.29119601728E+02  0.54135609450E+02  0.81115216209E+02  0.10177570297E+03  0.00000000000E+00 0.  1.
          1    1    1    2  502    0 -0.30671149347E+02 -0.36882537466E+02  0.20032259446E+02  0.51983962822E+02  0.00000000000E+00 0.  1.
         22    1    1    2    0    0  0.29838462187E+02 -0.63719400587E+01  0.63024642084E+02  0.70021717742E+02  0.00000000000E+00 0.  1.
         22    1    1    2    0    0 -0.28286914567E+02 -0.10881131925E+02 -0.49234667868E+02  0.57815232316E+02  0.00000000000E+00 0.  1.
</event>
<event>
 6    1  0.8017648E-006  0.8781480E+02  0.7818608E-02  0.1391508E+00
          2   -1    0    0  502    0  0.00000000000E+00  0.00000000000E+00  0.10715042884E+04  0.10715042884E+04  0.00000000000E+00 0.  1.
          1   -1    0    0  501    0 -0.00000000000E+00 -0.00000000000E+00 -0.49809654880E+02  0.49809654880E+02  0.00000000000E+00 0. -1.
          2    1    1    2  501    0  0.38000981451E+02  0.22043392148E+02  0.77029527977E+03  0.77154701980E+03  0.00000000000E+00 0.  1.
          1    1    1    2  502    0 -0.13628982266E+02 -0.40542912603E+02  0.21016172027E+03  0.21447010418E+03  0.00000000000E+00 0. -1.
         22    1    1    2    0    0 -0.22411385508E+02 -0.25802413358E+01  0.84324351864E+02  0.87289885800E+02  0.00000000000E+00 0. -1.
         22    1    1    2    0    0 -0.19606136774E+01  0.21079761790E+02 -0.43086718383E+02  0.48006933500E+02  0.00000000000E+00 0. -1.
</event>
<event>
 6    1  0.8017648E-006  0.2644916E+02  0.7818608E-02  0.1702133E+00
          2   -1    0    0  502    0  0.00000000000E+00  0.00000000000E+00  0.42805734821E+03  0.42805734821E+03  0.00000000000E+00 0.  1.
          1   -1    0    0  501    0 -0.00000000000E+00 -0.00000000000E+00 -0.74840219810E+02  0.74840219810E+02  0.00000000000E+00 0. -1.
          2    1    1    2  501    0  0.83837278017E+00 -0.30091064762E+02  0.31406473450E+03  0.31550409269E+03  0.00000000000E+00 0.  1.
          1    1    1    2  502    0 -0.26936546998E+02  0.48356096680E+01 -0.29245827531E+02  0.40053453197E+02  0.00000000000E+00 0. -1.
         22    1    1    2    0    0  0.14256048487E+02  0.18762945129E+02  0.10537317805E+03  0.10797587545E+03  0.00000000000E+00 0. -1.
         22    1    1    2    0    0  0.11842125731E+02  0.64925099654E+01 -0.36974956613E+02  0.39364146682E+02  0.00000000000E+00 0. -1.
</event>
<event>
 6    1  0.8017648E-006  0.1052658E+03  0.7818608E-02  0.1402340E+00
          2   -1    0    0  502    0  0.00000000000E+00  0.00000000000E+00  0.12381144362E+03  0.12381144362E+03  0.00000000000E+00 0. -1.
          1   -1    0    0  501    0 -0.00000000000E+00 -0.00000000000E+00 -0.58284223389E+03  0.58284223389E+03  0.00000000000E+00 0. -1.
          2    1    1    2  501    0 -0.11702290928E+03  0.62793859134E+02 -0.17381303861E+03  0.21874277687E+03  0.00000000000E+00 0. -1.
          1    1    1    2  502    0  0.27388031543E+02 -0.21891509751E+02 -0.32358208852E+03  0.32547612890E+03  0.00000000000E+00 0. -1.
         22    1    1    2    0    0  0.96316683689E+02 -0.33004363565E+02  0.73652270729E+02  0.12566164313E+03  0.00000000000E+00 0. -1.
         22    1    1    2    0    0 -0.66818059526E+01 -0.78979858185E+01 -0.35287933867E+02  0.36773128605E+02  0.00000000000E+00 0.  1.
</event>
<event>
 6    1  0.8017648E-006  0.6282645E+02  0.7818608E-02  0.1432643E+00
          2   -1    0    0  502    0  0.00000000000E+00  0.00000000000E+00  0.67371287359E+02  0.67371287359E+02  0.00000000000E+00 0.  1.
          1   -1    0    0  501    0 -0.00000000000E+00 -0.00000000000E+00 -0.37188755313E+03  0.37188755313E+03  0.00000000000E+00 0. -1.
          2    1    1    2  501    0 -0.51776451081E+02 -0.64776799663E+02 -0.48166531827E+02  0.95900205679E+02  0.00000000000E+00 0.  1.
          1    1    1    2  502    0  0.35789730572E+02  0.84270278544E+02 -0.16729039681E+03  0.19070516911E+03  0.00000000000E+00 0. -1.
         22    1    1    2    0    0 -0.18946862526E+02  0.10558760446E+02 -0.10240625304E+03  0.10467813374E+03  0.00000000000E+00 0.  1.
         22    1    1    2    0    0  0.34933583035E+02 -0.30052239327E+02  0.13346915907E+02  0.47975331958E+02  0.00000000000E+00 0. -1.
</event>
<event>
 6    1  0.8017648E-006  0.2650902E+02  0.7818608E-02  0.1715045E+00
          2   -1    0    0  502    0  0.00000000000E+00  0.00000000000E+00  0.11241238845E+03  0.11241238845E+03  0.00000000000E+00 0. -1.
          1   -1    0    0  501    0 -0.00000000000E+00 -0.00000000000E+00 -0.81089811064E+02  0.81089811064E+02  0.00000000000E+00 0.  1.
          2    1    1    2  501    0 -0.73955303727E+01 -0.23262775436E+02  0.22033989769E+02  0.32883845512E+02  0.00000000000E+00 0. -1.
          1    1    1    2  502    0  0.22436889686E+02  0.23325842355E+02 -0.16408454422E+02  0.36286999282E+02  0.00000000000E+00 0.  1.
         22    1    1    2    0    0  0.81304706352E+01 -0.64472762150E+01 -0.46809024579E+02  0.47945351239E+02  0.00000000000E+00 0.  1.
         22    1    1    2    0    0 -0.23171829949E+02  0.63842092966E+01  0.72506066613E+02  0.76386003477E+02  0.00000000000E+00 0. -1.
</event>
<event>
 6    1  0.8017648E-006  0.2635073E+03  0.7818608E-02  0.1230407E+00
          2   -1    0    0  502    0  0.00000000000E+00  0.00000000000E+00  0.31320959608E+03  0.31320959608E+03  0.00000000000E+00 0. -1.
          1   -1    0    0  501    0 -0.00000000000E+00 -0.00000000000E+00 -0.25151280443E+03  0.25151280443E+03  0.00000000000E+00 0. -1.
          2    1    1    2  501    0  0.44856171819E+02  0.14933024940E+03  0.16606220308E+02  0.15680359081E+03  0.00000000000E+00 0. -1.
          1    1    1    2  502    0 -0.47706934398E+02 -0.24470381253E+03  0.11092638535E+02  0.24955751659E+03  0.00000000000E+00 0. -1.
         22    1    1    2    0    0  0.14507110139E+02  0.10430610629E+03  0.65211348028E+02  0.12386581435E+03  0.00000000000E+00 0. -1.
         22    1    1    2    0    0 -0.11656347560E+02 -0.89325431627E+01 -0.31213415220E+02  0.34495478768E+02  0.00000000000E+00 0. -1.
</event>
<event>
 6    1  0.8017648E-006  0.4186665E+02  0.7818608E-02  0.1547964E+00
          2   -1    0    0  502    0  0.00000000000E+00  0.00000000000E+00  0.26253692641E+03  0.26253692641E+03  0.00000000000E+00 0.  1.
          1   -1    0    0  501    0 -0.00000000000E+00 -0.00000000000E+00 -0.52630113881E+02  0.52630113881E+02  0.00000000000E+00 0.  1.
          2    1    1    2  501    0 -0.26305484499E+01 -0.20998294784E+02  0.12262058649E+03  0.12443334119E+03  0.00000000000E+00 0.  1.
          1    1    1    2  502    0  0.28461922839E+02  0.16906875363E+02 -0.81772514895E+01  0.34099720353E+02  0.00000000000E+00 0.  1.
         22    1    1    2    0    0 -0.95908625298E+01  0.18250590670E+02 -0.26051985148E+02  0.33223103920E+02  0.00000000000E+00 0.  1.
         22    1    1    2    0    0 -0.16240511860E+02 -0.14159171249E+02  0.12151546267E+03  0.12341087482E+03  0.00000000000E+00 0. -1.
</event>
<event>
 6    1  0.8017648E-006  0.1653281E+03  0.7818608E-02  0.1303193E+00
          2   -1    0    0  502    0  0.00000000000E+00  0.00000000000E+00  0.47454845620E+03  0.47454845620E+03  0.00000000000E+00 0. -1.
          1   -1    0    0  501    0 -0.00000000000E+00 -0.00000000000E+00 -0.12541950456E+03  0.12541950456E+03  0.00000000000E+00 0. -1.
          2    1    1    2  501    0  0.10775483731E+03  0.92521922589E+02  0.25344587476E+03  0.29052749020E+03  0.00000000000E+00 0. -1.
          1    1    1    2  502    0 -0.10637455961E+03 -0.10747470168E+03  0.96469014177E+02  0.17936730229E+03  0.00000000000E+00 0. -1.
         22    1    1    2    0    0  0.69212028359E+01  0.26753408551E+02  0.60818229756E+02  0.66801983417E+02  0.00000000000E+00 0. -1.
         22    1    1    2    0    0 -0.83014805381E+01 -0.11800629455E+02 -0.61604167057E+02  0.63271184859E+02  0.00000000000E+00 0. -1.
</event>
<event>
 6    1  0.8017648E-006  0.1970386E+03  0.7818608E-02  0.1152952E+00
          2   -1    0    0  502    0  0.00000000000E+00  0.00000000000E+00  0.74587137465E+03  0.74587137465E+03  0.00000000000E+00 0. -1.
          1   -1    0    0  501    0 -0.00000000000E+00 -0.00000000000E+00 -0.69225761790E+02  0.69225761790E+02  0.00000000000E+00 0. -1.
          2    1    1    2  501    0  0.13199171184E+03 -0.16279397525E+02  0.30873815364E+03  0.33616376708E+03  0.00000000000E+00 0. -1.
          1    1    1    2  502    0 -0.16318425043E+03  0.90571897646E+00  0.12954156685E+03  0.20835291564E+03  0.00000000000E+00 0. -1.
         22    1    1    2    0    0  0.55260663384E+02  0.17400566638E+02  0.23949292183E+03  0.24640085277E+03  0.00000000000E+00 0. -1.
         22    1    1    2    0    0 -0.24068124802E+02 -0.20268880899E+01 -0.11270294714E+01  0.24179600953E+02  0.00000000000E+00 0.  1.
</event>
<event>
 6    1  0.8017648E-006  0.3694598E+02  0.7818608E-02  0.1590849E+00
          2   -1    0    0  502    0  0.00000000000E+00  0.00000000000E+00  0.14111672060E+03  0.14111672060E+03  0.00000000000E+00 0.  1.
          1   -1    0    0  501    0 -0.00000000000E+00 -0.00000000000E+00 -0.18663423541E+03  0.18663423541E+03  0.00000000000E+00 0.  1.
          2    1    1    2  501    0 -0.17169849164E+02  0.40642436763E+02  0.73105736396E+02  0.85387704503E+02  0.00000000000E+00 0.  1.
          1    1    1    2  502    0  0.39296095431E+02 -0.56189935909E+02 -0.78012218988E+02  0.10386240092E+03  0.00000000000E+00 0.  1.
         22    1    1    2    0    0 -0.25147168461E+02  0.38675862566E+01 -0.86960970316E+02  0.90606559715E+02  0.00000000000E+00 0.  1.
         22    1    1    2    0    0  0.30209221943E+01  0.11679912890E+02  0.46349938101E+02  0.47894290870E+02  0.00000000000E+00 0. -1.
</event>
<event>
 6    1  0.8017648E-006  0.3891123E+02  0.7818608E-02  0.1530789E+00
          2   -1    0    0  502    0  0.00000000000E+00  0.00000000000E+00  0.23331913740E+03  0.23331913740E+03  0.00000000000E+00 0.  1.
          1   -1    0    0  501    0 -0.00000000000E+00 -0.00000000000E+00 -0.83000278169E+02  0.83000278169E+02  0.00000000000E+00 0. -1.
          2    1    1    2  501    0  0.28679610819E+02 -0.19800261139E+02  0.59137407097E+02  0.68642576700E+02  0.00000000000E+00 0.  1.
          1    1    1    2  502    0 -0.62019200307E+02  0.92853381791E+01 -0.30823257964E+02  0.69876118548E+02  0.00000000000E+00 0. -1.
         22    1    1    2    0    0  0.14554292339E+02  0.25657154263E+02 -0.18776541445E+02  0.34966777074E+02  0.00000000000E+00 0. -1.
         22    1    1    2    0    0  0.18785297149E+02 -0.15142231303E+02  0.14078125154E+03  0.14283394325E+03  0.00000000000E+00 0.  1.
</event>
<event>
 6    1  0.8017648E-006  0.6548082E+02  0.7818608E-02  0.1462562E+00
          2   -1    0    0  502    0  0.00000000000E+00  0.00000000000E+00  0.57779150546E+03  0.57779150546E+03  0.00000000000E+00 0. -1.
          1   -1    0    0  501    0 -0.00000000000E+00 -0.00000000000E+00 -0.18705492730E+03  0.18705492730E+03  0.00000000000E+00 0. -1.
          2    1    1    2  501    0  0.50191136366E+02  0.51686536558E+02  0.49089338193E+03  0.49615215474E+03  0.00000000000E+00 0. -1.
          1    1    1    2  502    0  0.16681561207E+01 -0.63443940461E+02 -0.11360460083E+03  0.13013040251E+03  0.00000000000E+00 0. -1.
         22    1    1    2    0    0  0.44954481893E+00  0.17290552607E+02 -0.51882520079E+02  0.54689680834E+02  0.00000000000E+00 0. -1.
         22    1    1    2    0    0 -0.52308837306E+02 -0.55331487036E+01  0.65330317139E+02  0.83874194675E+02  0.00000000000E+00 0. -1.
</event>
<event>
 6    1  0.9215470E-006  0.8169746E+02  0.7818608E-02  0.1397908E+00
          2   -1    0    0  502    0  0.00000000000E+00  0.00000000000E+00  0.65434860038E+03  0.65434860038E+03  0.00000000000E+00 0.  1.
          1   -1    0    0  501    0 -0.00000000000E+00 -0.00000000000E+00 -0.16256493052E+04  0.16256493052E+04  0.00000000000E+00 0. -1.
          2    1    1    2  501    0  0.63716896692E+02 -0.10054791833E+03  0.58132769160E+03  0.59338993236E+03  0.00000000000E+00 0.  1.
          1    1    1    2  502    0 -0.10634735804E+03  0.87746471973E+02 -0.15491708671E+04  0.15552940492E+04  0.00000000000E+00 0. -1.
         22    1    1    2    0    0  0.45141050239E+02 -0.68665673411E-01  0.55143488985E+02  0.71263760139E+02  0.00000000000E+00 0.  1.
         22    1    1    2    0    0 -0.25105888960E+01  0.12870112030E+02 -0.58601018267E+02  0.60050163882E+02  0.00000000000E+00 0. -1.
</event>
<event>
 6    1  0.8017648E-006  0.1162742E+03  0.7818608E-02  0.1338658E+00
          2   -1    0    0  502    0  0.00000000000E+00  0.00000000000E+00  0.14539837645E+03  0.14539837645E+03  0.00000000000E+00 0. -1.
          1   -1    0    0  501    0 -0.00000000000E+00 -0.00000000000E+00 -0.13928985443E+03  0.13928985443E+03  0.00000000000E+00 0.  1.
          2    1    1    2  501    0 -0.20057514359E+02  0.44595145648E+02  0.10010392527E+02  0.49912311669E+02  0.00000000000E+00 0. -1.
          1    1    1    2  502    0  0.48810607271E+02 -0.86021131042E+02 -0.25907646801E+02  0.10224146190E+03  0.00000000000E+00 0.  1.
         22    1    1    2    0    0  0.21536536751E+02 -0.46197615705E+01 -0.36538458367E+02  0.42664078005E+02  0.00000000000E+00 0.  1.
         22    1    1    2    0    0 -0.50289629663E+02  0.46045746965E+02  0.58544234662E+02  0.89870379310E+02  0.00000000000E+00 0. -1.
</event>
<event>
 6    1  0.8017648E-006  0.7615891E+02  0.7818608E-02  0.1468901E+00
          2   -1    0    0  502    0  0.00000000000E+00  0.00000000000E+00  0.46689444038E+02  0.46689444038E+02  0.00000000000E+00 0.  1.
          1   -1    0    0  501    0 -0.00000000000E+00 -0.00000000000E+00 -0.93442797294E+03  0.93442797294E+03  0.00000000000E+00 0.  1.
          2    1    1    2  501    0 -0.26820274513E+02  0.25982500876E+02  0.15980031920E+02  0.40617470341E+02  0.00000000000E+00 0.  1.
          1    1    1    2  502    0  0.95608365568E+02  0.60448381672E+01 -0.52583239979E+03  0.53448780370E+03  0.00000000000E+00 0.  1.
         22    1    1    2    0    0 -0.59174512611E+02 -0.29154279699E+02 -0.38692466892E+03  0.39250769978E+03  0.00000000000E+00 0.  1.
         22    1    1    2    0    0 -0.96135784441E+01 -0.28730593438E+01  0.90385078805E+01  0.13504443165E+02  0.00000000000E+00 0.  1.
</event>
<event>
 6    1  0.8017648E-006  0.7875598E+02  0.7818608E-02  0.1453627E+00
          2   -1    0    0  502    0  0.00000000000E+00  0.00000000000E+00  0.20839682191E+03  0.20839682191E+03  0.00000000000E+00 0.  1.
          1   -1    0    0  501    0 -0.00000000000E+00 -0.00000000000E+00 -0.11658833679E+03  0.11658833679E+03  0.00000000000E+00 0. -1.
          2    1    1    2  501    0  0.27347878064E+02  0.35789813354E+01  0.76676042196E+02  0.81485771696E+02  0.00000000000E+00 0.  1.
          1    1    1    2  502    0 -0.62987061686E+02 -0.23509133343E+02 -0.60012686431E+02  0.90119763776E+02  0.00000000000E+00 0. -1.
         22    1    1    2    0    0  0.46815540745E+02  0.21747944197E+02  0.10741821012E+03  0.11917776553E+03  0.00000000000E+00 0.  1.
         22    1    1    2    0    0 -0.11176357123E+02 -0.18177921898E+01 -0.32273080768E+02  0.34201857687E+02  0.00000000000E+00 0.  1.
</event>
<event>
 6    1  0.8017648E-006  0.5910071E+02  0.7818608E-02  0.1455433E+00
          2   -1    0    0  502    0  0.00000000000E+00  0.00000000000E+00  0.10897476348E+04  0.10897476348E+04  0.00000000000E+00 0.  1.
          1   -1    0    0  501    0 -0.00000000000E+00 -0.00000000000E+00 -0.12542388869E+03  0.12542388869E+03  0.00000000000E+00 0.  1.
          2    1    1    2  501    0  0.71187187267E+02 -0.49408137803E+02  0.93847741282E+03  0.94246943403E+03  0.00000000000E+00 0.  1.
          1    1    1    2  502    0 -0.84899891033E+02  0.33637901530E+02 -0.68585652543E+02  0.11420810677E+03  0.00000000000E+00 0.  1.
         22    1    1    2    0    0  0.23031770142E+02  0.28927227665E+02  0.12149229748E+03  0.12699458761E+03  0.00000000000E+00 0.  1.
         22    1    1    2    0    0 -0.93190663758E+01 -0.13156991392E+02 -0.27060311673E+02  0.31499395049E+02  0.00000000000E+00 0.  1.
</event>
<event>
 6    1  0.1042812E-005  0.6610486E+02  0.7818608E-02  0.1391594E+00
          2   -1    0    0  502    0  0.00000000000E+00  0.00000000000E+00  0.68430259021E+03  0.68430259021E+03  0.00000000000E+00 0.  1.
          1   -1    0    0  501    0 -0.00000000000E+00 -0.00000000000E+00 -0.41122694926E+03  0.41122694926E+03  0.00000000000E+00 0. -1.
          2    1    1    2  501    0 -0.75018688372E+01 -0.13800022471E+03  0.62512315924E+03  0.64021816928E+03  0.00000000000E+00 0.  1.
          1    1    1    2  502    0 -0.12858855141E+02  0.14917118980E+03 -0.26349432734E+03  0.30306212987E+03  0.00000000000E+00 0. -1.
         22    1    1    2    0    0  0.26386255832E+02  0.87596656818E+01 -0.11515728519E+03  0.11846588780E+03  0.00000000000E+00 0.  1.
         22    1    1    2    0    0 -0.60255318534E+01 -0.19930630765E+02  0.26604094247E+02  0.33783352520E+02  0.00000000000E+00 0. -1.
</event>
<event>
 6    1  0.8017648E-006  0.1850852E+03  0.7818608E-02  0.1288130E+00
          2   -1    0    0  502    0  0.00000000000E+00  0.00000000000E+00  0.13213150469E+03  0.13213150469E+03  0.00000000000E+00 0. -1.
          1   -1    0    0  501    0 -0.00000000000E+00 -0.00000000000E+00 -0.31959733361E+03  0.31959733361E+03  0.00000000000E+00 0. -1.
          2    1    1    2  501    0 -0.42448546450E+02  0.19308315982E+02 -0.27789665760E+02  0.54285870029E+02  0.00000000000E+00 0. -1.
          1    1    1    2  502    0  0.15855284297E+03  0.25041094873E+02 -0.15095260921E+03  0.22034688714E+03  0.00000000000E+00 0. -1.
         22    1    1    2    0    0 -0.42653547280E+01  0.12914801204E+02 -0.44437317968E+02  0.46472148318E+02  0.00000000000E+00 0.  1.
         22    1    1    2    0    0 -0.11183894179E+03 -0.57264212059E+02  0.35713764010E+02  0.13062393281E+03  0.00000000000E+00 0. -1.
</event>
<event>
 6    1  0.8017648E-006  0.5295824E+02  0.7818608E-02  0.1439913E+00
          2   -1    0    0  502    0  0.00000000000E+00  0.00000000000E+00  0.15626802681E+03  0.15626802681E+03  0.00000000000E+00 0. -1.
          1   -1    0    0  501    0 -0.00000000000E+00 -0.00000000000E+00 -0.80993798750E+02  0.80993798750E+02  0.00000000000E+00 0.  1.
          2    1    1    2  501    0  0.25272040319E+02  0.31831329084E+02  0.65776321061E+02  0.77320333325E+02  0.00000000000E+00 0. -1.
          1    1    1    2  502    0  0.87774682228E+01 -0.18805950646E+02 -0.21017973864E+02  0.29537483871E+02  0.00000000000E+00 0.  1.
         22    1    1    2    0    0 -0.37590433303E+02 -0.25853763137E+02 -0.38757935505E+02  0.59863472241E+02  0.00000000000E+00 0. -1.
         22    1    1    2    0    0  0.35409247603E+01  0.12828384698E+02  0.69273816364E+02  0.70540536117E+02  0.00000000000E+00 0. -1.
</event>
<event>
 6    1  0.8017648E-006  0.9808825E+02  0.7818608E-02  0.1342460E+00
          2   -1    0    0  502    0  0.00000000000E+00  0.00000000000E+00  0.15643771403E+03  0.15643771403E+03  0.00000000000E+00 0. -1.
          1   -1    0    0  501    0 -0.00000000000E+00 -0.00000000000E+00 -0.19393746664E+03  0.19393746664E+03  0.00000000000E+00 0.  1.
          2    1    1    2  501    0  0.14788489849E+02 -0.29326175608E+02  0.72932189999E+01  0.33643945238E+02  0.00000000000E+00 0. -1.
          1    1    1    2  502    0  0.34257863979E+01  0.21578163262E+02 -0.14939585624E+03  0.15098501582E+03  0.00000000000E+00 0.  1.
         22    1    1    2    0    0 -0.85281708842E+01 -0.33276911173E+02 -0.16068228773E+02  0.37924536803E+02  0.00000000000E+00 0. -1.
         22    1    1    2    0    0 -0.96861053627E+01  0.41024923518E+02  0.12067111339E+03  0.12782168280E+03  0.00000000000E+00 0. -1.
</event>
<event>
 6    1  0.8017648E-006  0.7508952E+02  0.7818608E-02  0.1415418E+00
          2   -1    0    0  502    0  0.00000000000E+00  0.00000000000E+00  0.13553687590E+03  0.13553687590E+03  0.00000000000E+00 0.  1.
          1   -1    0    0  501    0 -0.00000000000E+00 -0.00000000000E+00 -0.16273555332E+03  0.16273555332E+03  0.00000000000E+00 0.  1.
          2    1    1    2  501    0  0.27832384162E+02 -0.48156300665E+02  0.65850336883E+02  0.86197086780E+02  0.00000000000E+00 0.  1.
          1    1    1    2  502    0 -0.23549130743E+02  0.49414423094E+02 -0.55546020937E+02  0.77985301246E+02  0.00000000000E+00 0.  1.
         22    1    1    2    0    0  0.13525435561E+02 -0.16176809261E+02  0.44294506743E+02  0.49057414247E+02  0.00000000000E+00 0.  1.
         22    1    1    2    0    0 -0.17808688979E+02  0.14918686831E+02 -0.81797500112E+02  0.85032626941E+02  0.00000000000E+00 0.  1.
</event>
<event>
 6    1  0.8017648E-006  0.1754496E+03  0.7818608E-02  0.1294258E+00
          2   -1    0    0  502    0  0.00000000000E+00  0.00000000000E+00  0.43905248021E+03  0.43905248021E+03  0.00000000000E+00 0. -1.
          1   -1    0    0  501    0 -0.00000000000E+00 -0.00000000000E+00 -0.13249963235E+03  0.13249963235E+03  0.00000000000E+00 0. -1.
          2    1    1    2  501    0  0.12881883230E+03  0.37807372756E+02  0.22228196963E+03  0.25967857634E+03  0.00000000000E+00 0. -1.
          1    1    1    2  502    0 -0.15797165890E+03 -0.39696801227E+02  0.64633468506E+01  0.16301121402E+03  0.00000000000E+00 0. -1.
         22    1    1    2    0    0 -0.10607090420E+02 -0.94993519884E+01 -0.30101218537E+02  0.33299120300E+02  0.00000000000E+00 0.  1.
         22    1    1    2    0    0  0.39759917028E+02  0.11388780459E+02  0.10790874992E+03  0.11556320189E+03  0.00000000000E+00 0.  1.
</event>
<event>
 6    1  0.8017648E-006  0.4337503E+02  0.7818608E-02  0.1516101E+00
          2   -1    0    0  502    0  0.00000000000E+00  0.00000000000E+00  0.49455577168E+03  0.49455577168E+03  0.00000000000E+00 0.  1.
          1   -1    0    0  501    0 -0.00000000000E+00 -0.00000000000E+00 -0.13647151885E+03  0.13647151885E+03  0.00000000000E+00 0.  1.
          2    1    1    2  501    0 -0.41497518873E+01  0.82216016072E+02  0.38703886382E+03  0.39569657043E+03  0.00000000000E+00 0.  1.
          1    1    1    2  502    0 -0.25266534350E+02 -0.87564673945E+02 -0.47782769198E+02  0.10290365841E+03  0.00000000000E+00 0.  1.
         22    1    1    2    0    0  0.12165880082E+02 -0.51781152274E+01 -0.54646824324E+02  0.56223633147E+02  0.00000000000E+00 0. -1.
         22    1    1    2    0    0  0.17250406155E+02  0.10526773101E+02  0.73474982531E+02  0.76203428547E+02  0.00000000000E+00 0.  1.
</event>
<event>
 6    1  0.8017648E-006  0.3445837E+02  0.7818608E-02  0.1598777E+00
          2   -1    0    0  502    0  0.00000000000E+00  0.00000000000E+00  0.25070094107E+03  0.25070094107E+03  0.00000000000E+00 0.  1.
          1   -1    0    0  501    0 -0.00000000000E+00 -0.00000000000E+00 -0.60438732849E+03  0.60438732849E+03  0.00000000000E+00 0. -1.
          2    1    1    2  501    0 -0.38828270448E+02  0.12942765156E+02  0.21995737972E+03  0.22373287342E+03  0.00000000000E+00 0.  1.
          1    1    1    2  502    0  0.59350077783E+02 -0.39589813410E+02 -0.44862785530E+03  0.45426505216E+03  0.00000000000E+00 0. -1.
         22    1    1    2    0    0  0.23883390985E+01  0.14574037286E+02  0.22722105525E+02  0.27099830368E+02  0.00000000000E+00 0. -1.
         22    1    1    2    0    0 -0.22910146434E+02  0.12073010968E+02 -0.14773801736E+03  0.14999051362E+03  0.00000000000E+00 0. -1.
</event>
<event>
 6    1  0.8017648E-006  0.1961538E+03  0.7818608E-02  0.1253119E+00
          2   -1    0    0  502    0  0.00000000000E+00  0.00000000000E+00  0.45459776238E+03  0.45459776238E+03  0.00000000000E+00 0.  1.
          1   -1    0    0  501    0 -0.00000000000E+00 -0.00000000000E+00 -0.25376654884E+03  0.25376654884E+03  0.00000000000E+00 0.  1.
          2    1    1    2  501    0 -0.16562530769E+03  0.10964200875E+02  0.31994245716E+03  0.36043741779E+03  0.00000000000E+00 0.  1.
          1    1    1    2  502    0  0.17694266078E+03 -0.46087868146E+02 -0.12998397656E+02  0.18330781526E+03  0.00000000000E+00 0.  1.
         22    1    1    2    0    0 -0.21806826404E+02  0.15246190358E+02  0.22015147390E+02  0.34534775414E+02  0.00000000000E+00 0.  1.
         22    1    1    2    0    0  0.10489473308E+02  0.19877476913E+02 -0.12812799336E+03  0.13008430274E+03  0.00000000000E+00 0.  1.
</event>
<event>
 6    1  0.8017648E-006  0.8251053E+02  0.7818608E-02  0.1401571E+00
          2   -1    0    0  502    0  0.00000000000E+00  0.00000000000E+00  0.51926179508E+03  0.51926179508E+03  0.00000000000E+00 0.  1.
          1   -1    0    0  501    0 -0.00000000000E+00 -0.00000000000E+00 -0.32787454980E+03  0.32787454980E+03  0.00000000000E+00 0. -1.
          2    1    1    2  501    0 -0.36813610661E+02  0.44413889680E+02  0.40098098255E+03  0.40510934807E+03  0.00000000000E+00 0.  1.
          1    1    1    2  502    0  0.72334364572E+02 -0.62077141638E+02 -0.27802609198E+03  0.29391212910E+03  0.00000000000E+00 0. -1.
         22    1    1    2    0    0 -0.13795747591E+02  0.18581338396E+02  0.10393613802E+03  0.10648149874E+03  0.00000000000E+00 0.  1.
         22    1    1    2    0    0 -0.21725006320E+02 -0.91808643782E+00 -0.35503783309E+02  0.41633368968E+02  0.00000000000E+00 0. -1.
</event>
<event>
 6    1  0.8017648E-006  0.7077998E+02  0.7818608E-02  0.1374971E+00
          2   -1    0    0  502    0  0.00000000000E+00  0.00000000000E+00  0.14982417875E+03  0.14982417875E+03  0.00000000000E+00 0. -1.
          1   -1    0    0  501    0 -0.00000000000E+00 -0.00000000000E+00 -0.22904714664E+03  0.22904714664E+03  0.00000000000E+00 0. -1.
          2    1    1    2  501    0  0.43671951077E+02 -0.14093330508E+02  0.96040693477E+02  0.10644095114E+03  0.00000000000E+00 0. -1.
          1    1    1    2  502    0 -0.58983891375E+02 -0.18102848482E+02 -0.11815595651E+03  0.13329532108E+03  0.00000000000E+00 0. -1.
         22    1    1    2    0    0  0.18642422280E+01  0.52846997068E+02 -0.86126269266E+02  0.10106440895E+03  0.00000000000E+00 0.  1.
         22    1    1    2    0    0  0.13447698069E+02 -0.20650818078E+02  0.29018564405E+02  0.38070644213E+02  0.00000000000E+00 0. -1.
</event>
<event>
 6    1  0.8017648E-006  0.1369069E+03  0.7818608E-02  0.1344307E+00
          2   -1    0    0  502    0  0.00000000000E+00  0.00000000000E+00  0.21310276996E+03  0.21310276996E+03  0.00000000000E+00 0. -1.
          1   -1    0    0  501    0 -0.00000000000E+00 -0.00000000000E+00 -0.11489625031E+03  0.11489625031E+03  0.00000000000E+00 0. -1.
          2    1    1    2  501    0 -0.18082466714E+02 -0.31061829167E+02  0.54701436683E+02  0.65452731103E+02  0.00000000000E+00 0. -1.
          1    1    1    2  502    0 -0.35310712270E+02 -0.48917553565E+02 -0.51994190247E+02  0.79644015891E+02  0.00000000000E+00 0. -1.
         22    1    1    2    0    0  0.71423339751E+01 -0.99375717717E+01 -0.23651284811E+02  0.26629899371E+02  0.00000000000E+00 0. -1.
         22    1    1    2    0    0  0.46250845009E+02  0.89916954503E+02  0.11915055802E+03  0.15627237391E+03  0.00000000000E+00 0. -1.
</event>
<event>
 6    1  0.8017648E-006  0.6867006E+02  0.7818608E-02  0.1405046E+00
          2   -1    0    0  502    0  0.00000000000E+00  0.00000000000E+00  0.19163417405E+03  0.19163417405E+03  0.00000000000E+00 0.  1.
          1   -1    0    0  501    0 -0.00000000000E+00 -0.00000000000E+00 -0.14114602556E+03  0.14114602556E+03  0.00000000000E+00 0.  1.
          2    1    1    2  501    0  0.12654162824E+00  0.25091775422E+02  0.14482961148E+03  0.14698717484E+03  0.00000000000E+00 0.  1.
          1    1    1    2  502    0  0.13470519573E+02 -0.33427164106E+02 -0.22391947313E+02  0.42429111495E+02  0.00000000000E+00 0.  1.
         22    1    1    2    0    0  0.20356229419E+02  0.19399012056E+02  0.26499522027E+02  0.38638354165E+02  0.00000000000E+00 0.  1.
         22    1    1    2    0    0 -0.33953290620E+02 -0.11063623372E+02 -0.98449037701E+02  0.10472555911E+03  0.00000000000E+00 0.  1.
</event>
<event>
 6    1  0.8017648E-006  0.5813863E+02  0.7818608E-02  0.1477629E+00
          2   -1    0    0  502    0  0.00000000000E+00  0.00000000000E+00  0.22800067439E+03  0.22800067439E+03  0.00000000000E+00 0.  1.
          1   -1    0    0  501    0 -0.00000000000E+00 -0.00000000000E+00 -0.13269820860E+03  0.13269820860E+03  0.00000000000E+00 0.  1.
          2    1    1    2  501    0  0.30370655725E+02  0.49640289447E+01  0.89744335314E+02  0.94873937589E+02  0.00000000000E+00 0.  1.
          1    1    1    2  502    0 -0.43336491078E+02 -0.78678806976E+01 -0.96369222723E+02  0.10595745417E+03  0.00000000000E+00 0.  1.
         22    1    1    2    0    0  0.21120788976E+02 -0.15264550691E+02  0.12597628529E+03  0.12864337795E+03  0.00000000000E+00 0.  1.
         22    1    1    2    0    0 -0.81549536236E+01  0.18168402444E+02 -0.24048932088E+02  0.31224113287E+02  0.00000000000E+00 0. -1.
</event>
<event>
 6    1  0.8017648E-006  0.3043585E+03  0.7818608E-02  0.1174461E+00
          2   -1    0    0  502    0  0.00000000000E+00  0.00000000000E+00  0.61100858285E+03  0.61100858285E+03  0.00000000000E+00 0.  1.
          1   -1    0    0  501    0 -0.00000000000E+00 -0.00000000000E+00 -0.80038618135E+03  0.80038618135E+03  0.00000000000E+00 0.  1.
          2    1    1    2  501    0  0.11500682453E+03 -0.30367555224E+03  0.46882296205E+03  0.57029850119E+03  0.00000000000E+00 0.  1.
          1    1    1    2  502    0  0.83810161839E+02  0.11453733920E+03 -0.46115648791E+03  0.48250207423E+03  0.00000000000E+00 0.  1.
         22    1    1    2    0    0 -0.28881127007E+02  0.13740655125E+02 -0.83217899338E+02  0.89152363237E+02  0.00000000000E+00 0.  1.
         22    1    1    2    0    0 -0.16993585937E+03  0.17539755792E+03 -0.11382617330E+03  0.26944182554E+03  0.00000000000E+00 0. -1.
</event>
<event>
 6    1  0.8017648E-006  0.6020193E+02  0.7818608E-02  0.1471331E+00
          2   -1    0    0  502    0  0.00000000000E+00  0.00000000000E+00  0.38013420889E+03  0.38013420889E+03  0.00000000000E+00 0.  1.
          1   -1    0    0  501    0 -0.00000000000E+00 -0.00000000000E+00 -0.98574400657E+02  0.98574400657E+02  0.00000000000E+00 0.  1.
          2    1    1    2  501    0  0.26386006768E+02  0.37218004247E+02  0.20342056706E+03  0.20847380722E+03  0.00000000000E+00 0.  1.
          1    1    1    2  502    0 -0.20409475344E+02 -0.54196546590E+02  0.12127958279E+03  0.13439698489E+03  0.00000000000E+00 0.  1.
         22    1    1    2    0    0 -0.18021441500E+02  0.77542871957E+01 -0.87126892205E+02  0.89308435598E+02  0.00000000000E+00 0.  1.
         22    1    1    2    0    0  0.12044910076E+02  0.92242551482E+01  0.43986550593E+02  0.46529381845E+02  0.00000000000E+00 0.  1.
</event>
<event>
 6    1  0.8017648E-006  0.1057642E+03  0.7818608E-02  0.1269676E+00
          2   -1    0    0  502    0  0.00000000000E+00  0.00000000000E+00  0.23423681539E+03  0.23423681539E+03  0.00000000000E+00 0. -1.
          1   -1    0    0  501    0 -0.00000000000E+00 -0.00000000000E+00 -0.57989936051E+03  0.57989936051E+03  0.00000000000E+00 0.  1.
          2    1    1    2  501    0  0.22891137274E+02 -0.79850249357E+02  0.14479505224E+03  0.16693014599E+03  0.00000000000E+00 0. -1.
          1    1    1    2  502    0 -0.23755315277E+02  0.89408716282E+02 -0.51197015126E+03  0.52026115493E+03  0.00000000000E+00 0.  1.
         22    1    1    2    0    0 -0.96444654537E+01  0.52299416076E+01 -0.51015696676E+02  0.52182078441E+02  0.00000000000E+00 0.  1.
         22    1    1    2    0    0  0.10508643456E+02 -0.14788408533E+02  0.72528250579E+02  0.74762796538E+02  0.00000000000E+00 0. -1.
</event>
<event>
 6    1  0.8017648E-006  0.8513267E+02  0.7818608E-02  0.1386650E+00
          2   -1    0    0  502    0  0.00000000000E+00  0.00000000000E+00  0.19292981739E+03  0.19292981739E+03  0.00000000000E+00 0. -1.
          1   -1    0    0  501    0 -0.00000000000E+00 -0.00000000000E+00 -0.38411126268E+03  0.38411126268E+03  0.00000000000E+00 0.  1.
          2    1    1    2  501    0 -0.35290075793E+02  0.47813111358E+02  0.12131948674E+03  0.13509219419E+03  0.00000000000E+00 0. -1.
          1    1    1    2  502    0  0.80941363325E+02 -0.41492717055E+02 -0.28972528193E+03  0.30366739841E+03  0.00000000000E+00 0.  1.
         22    1    1    2    0    0 -0.21181690359E+02 -0.13512236924E+02 -0.75576619621E+02  0.79643392610E+02  0.00000000000E+00 0.  1.
         22    1    1    2    0    0 -0.24469597173E+02  0.71918426212E+01  0.52800969518E+02  0.58638094854E+02  0.00000000000E+00 0.  1.
</event>
<event>
 6    1  0.8017648E-006  0.3193326E+02  0.7818608E-02  0.1605359E+00
          2   -1    0    0  502    0  0.00000000000E+00  0.00000000000E+00  0.27955489867E+03  0.27955489867E+03  0.00000000000E+00 0. -1.
          1   -1    0    0  501    0 -0.00000000000E+00 -0.00000000000E+00 -0.71877759187E+02  0.71877759187E+02  0.00000000000E+00 0.  1.
          2    1    1    2  501    0 -0.38977076530E+02 -0.36478625122E+01  0.16885885981E+03  0.17333734143E+03  0.00000000000E+00 0. -1.
          1    1    1    2  502    0  0.46390268468E+02  0.98934751156E+01  0.18127006241E+02  0.50779190754E+02  0.00000000000E+00 0.  1.
         22    1    1    2    0    0 -0.76047865204E+01 -0.24116162151E+02 -0.49123722491E+02  0.55249996980E+02  0.00000000000E+00 0.  1.
         22    1    1    2    0    0  0.19159458209E+00  0.17870549548E+02  0.69814995918E+02  0.72066128692E+02  0.00000000000E+00 0.  1.
</event>
<event>
 6    1  0.8017648E-006  0.3227120E+02  0.7818608E-02  0.1589394E+00
          2   -1    0    0  502    0  0.00000000000E+00  0.00000000000E+00  0.17699617525E+03  0.17699617525E+03  0.00000000000E+00 0.  1.
          1   -1    0    0  501    0 -0.00000000000E+00 -0.00000000000E+00 -0.10433767653E+03  0.10433767653E+03  0.00000000000E+00 0. -1.
          2    1    1    2  501    0 -0.33489753638E+01  0.41275322005E+02  0.74648626035E+02  0.85365597353E+02  0.00000000000E+00 0.  1.
          1    1    1    2  502    0  0.23919109822E+01 -0.51611117851E+02 -0.33880627626E+02  0.61784509808E+02  0.00000000000E+00 0. -1.
         22    1    1    2    0    0  0.16021375985E+02 -0.26173069773E+01 -0.48619781684E+02  0.51258345226E+02  0.00000000000E+00 0.  1.
         22    1    1    2    0    0 -0.15064311604E+02  0.12953102823E+02  0.80510281996E+02  0.82925399390E+02  0.00000000000E+00 0.  1.
</event>
<event>
 6    1  0.8017648E-006  0.8075090E+02  0.7818608E-02  0.1444938E+00
          2   -1    0    0  502    0  0.00000000000E+00  0.00000000000E+00  0.28587037609E+03  0.28587037609E+03  0.00000000000E+00 0.  1.
          1   -1    0    0  501    0 -0.00000000000E+00 -0.00000000000E+00 -0.14076765269E+03  0.14076765269E+03  0.00000000000E+00 0.  1.
          2    1    1    2  501    0  0.52923064043E+02  0.74551494397E+01  0.19376144277E+03  0.20099732999E+03  0.00000000000E+00 0.  1.
          1    1    1    2  502    0 -0.78253987863E+02  0.90599962516E+01 -0.62091392568E+02  0.10030509050E+03  0.00000000000E+00 0.  1.
         22    1    1    2    0    0 -0.57486573019E+00 -0.11927001576E+02 -0.52766199643E+02  0.54100422012E+02  0.00000000000E+00 0. -1.
         22    1    1    2    0    0  0.25905789550E+02 -0.45881441152E+01  0.66198872841E+02  0.71235186278E+02  0.00000000000E+00 0.  1.
</event>
<event>
 6    1  0.8017648E-006  0.2929144E+03  0.7818608E-02  0.1089181E+00
          2   -1    0    0  502    0  0.00000000000E+00  0.00000000000E+00  0.17025628935E+04  0.17025628935E+04  0.00000000000E+00 0. -1.
          1   -1    0    0  501    0 -0.00000000000E+00 -0.00000000000E+00 -0.18397626577E+03  0.18397626577E+03  0.00000000000E+00 0. -1.
          2    1    1    2  501    0  0.54410191198E+02 -0.21005695874E+03  0.13015171739E+04  0.13194814697E+04  0.00000000000E+00 0. -1.
          1    1    1    2  502    0 -0.67505709771E+02  0.26786944811E+03 -0.37440783082E+02  0.27877028952E+03  0.00000000000E+00 0. -1.
         22    1    1    2    0    0 -0.75208812112E+01  0.93983840713E+01 -0.93375700864E+01  0.15234286740E+02  0.00000000000E+00 0. -1.
         22    1    1    2    0    0  0.20616399784E+02 -0.67210873448E+02  0.26384780706E+03  0.27305311340E+03  0.00000000000E+00 0. -1.
</event>
<event>
 6    1  0.8017648E-006  0.7789448E+02  0.7818608E-02  0.1352555E+00
          2   -1    0    0  502    0  0.00000000000E+00  0.00000000000E+00  0.33249322022E+03  0.33249322022E+03  0.00000000000E+00 0. -1.
          1   -1    0    0  501    0 -0.00000000000E+00 -0.00000000000E+00 -0.99881745592E+02  0.99881745592E+02  0.00000000000E+00 0. -1.
          2    1    1    2  501    0 -0.29191741252E+02 -0.54525475745E+02 -0.38480545109E+01  0.61967675332E+02  0.00000000000E+00 0. -1.
          1    1    1    2  502    0 -0.16926762223E+02  0.45690623231E+02  0.23108169909E+03  0.23616286750E+03  0.00000000000E+00 0. -1.
         22    1    1    2    0    0  0.89199315654E+02  0.15304673325E+02  0.56601358448E+01  0.90679590187E+02  0.00000000000E+00 0. -1.
         22    1    1    2    0    0 -0.43080812179E+02 -0.64698208106E+01 -0.28230580168E+00  0.43564832789E+02  0.00000000000E+00 0. -1.
</event>
<event>
 6    1  0.8017648E-006  0.5028029E+02  0.7818608E-02  0.1487674E+00
          2   -1    0    0  502    0  0.00000000000E+00  0.00000000000E+00  0.60016938584E+03  0.60016938584E+03  0.00000000000E+00 0.  1.
          1   -1    0    0  501    0 -0.00000000000E+00 -0.00000000000E+00 -0.53142700753E+02  0.53142700753E+02  0.00000000000E+00 0.  1.
          2    1    1    2  501    0  0.63275670562E+02 -0.16312561965E+02  0.35469763436E+03  0.36066649690E+03  0.00000000000E+00 0.  1.
          1    1    1    2  502    0 -0.53124585699E+02  0.32873977986E+02  0.21010712042E+01  0.62508675674E+02  0.00000000000E+00 0.  1.
         22    1    1    2    0    0 -0.19909737154E+02 -0.34826514593E+02  0.20225108547E+03  0.20619113784E+03  0.00000000000E+00 0.  1.
         22    1    1    2    0    0  0.97586522906E+01  0.18265098572E+02 -0.12023105944E+02  0.23945776181E+02  0.00000000000E+00 0.  1.
</event>
<event>
 6    1  0.8017648E-006  0.8623703E+02  0.7818608E-02  0.1346388E+00
          2   -1    0    0  502    0  0.00000000000E+00  0.00000000000E+00  0.15771385484E+03  0.15771385484E+03  0.00000000000E+00 0.  1.
          1   -1    0    0  501    0 -0.00000000000E+00 -0.00000000000E+00 -0.39330339932E+03  0.39330339932E+03  0.00000000000E+00 0. -1.
          2    1    1    2  501    0 -0.38200450236E+02 -0.48802921274E+02  0.99761901975E+02  0.11744546227E+03  0.00000000000E+00 0.  1.
          1    1    1    2  502    0  0.15408171699E+02  0.58570538213E+02 -0.29944545383E+03  0.30550859157E+03  0.00000000000E+00 0. -1.
         22    1    1    2    0    0  0.47173607072E+02 -0.26280631277E+01 -0.70668003986E+02  0.85007192092E+02  0.00000000000E+00 0.  1.
         22    1    1    2    0    0 -0.24381328535E+02 -0.71395538110E+01  0.34762011367E+02  0.43056008222E+02  0.00000000000E+00 0. -1.
</event>
<event>
 6    1  0.8017648E-006  0.6732931E+02  0.7818608E-02  0.1434782E+00
          2   -1    0    0  502    0  0.00000000000E+00  0.00000000000E+00  0.11525444178E+03  0.11525444178E+03  0.00000000000E+00 0.  1.
          1   -1    0    0  501    0 -0.00000000000E+00 -0.00000000000E+00 -0.47933533848E+03  0.47933533848E+03  0.00000000000E+00 0.  1.
          2    1    1    2  501    0  0.39512813540E+02 -0.13006175532E+02 -0.50778389590E+02  0.65641967408E+02  0.00000000000E+00 0.  1.
          1    1    1    2  502    0  0.26474631699E+02 -0.28208720198E+02 -0.36957238338E+03  0.37159169068E+03  0.00000000000E+00 0.  1.
         22    1    1    2    0    0  0.49075800047E+01  0.23469931131E+02 -0.33753216265E+02  0.41402917977E+02  0.00000000000E+00 0.  1.
         22    1    1    2    0    0 -0.70895025244E+02  0.17744964599E+02  0.90023092545E+02  0.11595320420E+03  0.00000000000E+00 0.  1.
</event>
<event>
 6    1  0.8017648E-006  0.9219976E+02  0.7818608E-02  0.1430197E+00
          2   -1    0    0  502    0  0.00000000000E+00  0.00000000000E+00  0.26775876488E+03  0.26775876488E+03  0.00000000000E+00 0.  1.
          1   -1    0    0  501    0 -0.00000000000E+00 -0.00000000000E+00 -0.14107778257E+03  0.14107778257E+03  0.00000000000E+00 0.  1.
          2    1    1    2  501    0  0.24477838772E+02 -0.52731389613E+02  0.17206154526E+03  0.18161756357E+03  0.00000000000E+00 0.  1.
          1    1    1    2  502    0 -0.47088826620E+02  0.67470620110E+02 -0.62079976845E+02  0.10307068301E+03  0.00000000000E+00 0.  1.
         22    1    1    2    0    0  0.22393463063E+02 -0.24743922243E+02  0.65938435327E+02  0.73902680123E+02  0.00000000000E+00 0.  1.
         22    1    1    2    0    0  0.21752478397E+00  0.10004691746E+02 -0.49239021421E+02  0.50245620749E+02  0.00000000000E+00 0.  1.
</event>
<event>
 6    1  0.8017648E-006  0.1757940E+03  0.7818608E-02  0.1285867E+00
          2   -1    0    0  502    0  0.00000000000E+00  0.00000000000E+00  0.49075404274E+02  0.49075404274E+02  0.00000000000E+00 0. -1.
          1   -1    0    0  501    0 -0.00000000000E+00 -0.00000000000E+00 -0.47233211927E+03  0.47233211927E+03  0.00000000000E+00 0. -1.
          2    1    1    2  501    0 -0.22165226591E+01  0.41951170324E+02 -0.15057089067E+03  0.15632148535E+03  0.00000000000E+00 0. -1.
          1    1    1    2  502    0 -0.26263175723E+02 -0.26943231867E+02 -0.22006448175E+03  0.22325785153E+03  0.00000000000E+00 0. -1.
         22    1    1    2    0    0  0.41740509377E+02 -0.24933869338E+02  0.30286326133E+02  0.57282017368E+02  0.00000000000E+00 0. -1.
         22    1    1    2    0    0 -0.13260810994E+02  0.99259308801E+01 -0.82907668705E+02  0.84546169293E+02  0.00000000000E+00 0. -1.
</event>
<event>
 6    1  0.8017648E-006  0.4466794E+02  0.7818608E-02  0.1528686E+00
          2   -1    0    0  502    0  0.00000000000E+00  0.00000000000E+00  0.88139410801E+02  0.88139410801E+02  0.00000000000E+00 0. -1.
          1   -1    0    0  501    0 -0.00000000000E+00 -0.00000000000E+00 -0.15520980295E+03  0.15520980295E+03  0.00000000000E+00 0.  1.
          2    1    1    2  501    0 -0.24259660334E+02  0.11892730789E+02  0.35900004972E+02  0.44930819290E+02  0.00000000000E+00 0. -1.
          1    1    1    2  502    0  0.34233491401E+02 -0.57301030524E+01 -0.60824568274E+02  0.70031379540E+02  0.00000000000E+00 0.  1.
         22    1    1    2    0    0 -0.79633361406E+01  0.15576202495E+02  0.39857353749E+02  0.43527479303E+02  0.00000000000E+00 0. -1.
         22    1    1    2    0    0 -0.20104949269E+01 -0.21738830231E+02 -0.82003182596E+02  0.84859535619E+02  0.00000000000E+00 0.  1.
</event>
<event>
 6    1  0.8017648E-006  0.8924745E+02  0.7818608E-02  0.1419410E+00
          2   -1    0    0  502    0  0.00000000000E+00  0.00000000000E+00  0.27160323160E+03  0.27160323160E+03  0.00000000000E+00 0. -1.
          1   -1    0    0  501    0 -0.00000000000E+00 -0.00000000000E+00 -0.32555458167E+03  0.32555458167E+03  0.00000000000E+00 0.  1.
          2    1    1    2  501    0  0.38588491676E+02  0.35189406066E+02  0.15091568274E+03  0.15969630330E+03  0.00000000000E+00 0. -1.
          1    1    1    2  502    0 -0.58438911733E+02 -0.57722300812E+02 -0.27596775530E+03  0.28793258305E+03  0.00000000000E+00 0.  1.
         22    1    1    2    0    0  0.55339203669E+01 -0.11774120496E+02 -0.34874834994E+02  0.37222416686E+02  0.00000000000E+00 0.  1.
         22    1    1    2    0    0  0.14316499691E+02  0.34307015243E+02  0.10597555749E+03  0.11230651024E+03  0.00000000000E+00 0. -1.
</event>
<event>
 6    1  0.8017648E-006  0.4942070E+02  0.7818608E-02  0.1485037E+00
          2   -1    0    0  502    0  0.00000000000E+00  0.00000000000E+00  0.12559493658E+03  0.12559493658E+03  0.00000000000E+00 0.  1.
          1   -1    0    0  501    0 -0.00000000000E+00 -0.00000000000E+00 -0.13709156072E+03  0.13709156072E+03  0.00000000000E+00 0. -1.
          2    1    1    2  501    0 -0.35643885181E+02 -0.96192204296E+01  0.32919913628E+02  0.49464499045E+02  0.00000000000E+00 0.  1.
          1    1    1    2  502    0  0.38995869061E+02 -0.10468807845E+02  0.43919161617E+02  0.59658750394E+02  0.00000000000E+00 0. -1.
         22    1    1    2    0    0  0.24261165462E+02  0.16260565628E+02 -0.11277168524E+03  0.11649233080E+03  0.00000000000E+00 0. -1.
         22    1    1    2    0    0 -0.27613149341E+02  0.38274626467E+01  0.24435985855E+02  0.37070917058E+02  0.00000000000E+00 0. -1.
</event>
<event>
 6    1  0.8017648E-006  0.8319904E+02  0.7818608E-02  0.1409508E+00
          2   -1    0    0  502    0  0.00000000000E+00  0.00000000000E+00  0.36503446481E+03  0.36503446481E+03  0.00000000000E+00 0. -1.
          1   -1    0    0  501    0 -0.00000000000E+00 -0.00000000000E+00 -0.14010588937E+03  0.14010588937E+03  0.00000000000E+00 0.  1.
          2    1    1    2  501    0  0.54024526430E+02 -0.49112012102E+02  0.28434758702E+03  0.29357143838E+03  0.00000000000E+00 0. -1.
          1    1    1    2  502    0 -0.48785193500E+02  0.59730503343E+02 -0.41469607347E+02  0.87564013545E+02  0.00000000000E+00 0.  1.
         22    1    1    2    0    0 -0.15600932115E+02 -0.10352253643E+02 -0.69214643344E+02  0.71702336723E+02  0.00000000000E+00 0.  1.
         22    1    1    2    0    0  0.10361599185E+02 -0.26623759810E+00  0.51265239108E+02  0.52302565529E+02  0.00000000000E+00 0. -1.
</event>
<event>
 6    1  0.8017648E-006  0.8945861E+02  0.7818608E-02  0.1408592E+00
          2   -1    0    0  502    0  0.00000000000E+00  0.00000000000E+00  0.12175678083E+03  0.12175678083E+03  0.00000000000E+00 0. -1.
          1   -1    0    0  501    0 -0.00000000000E+00 -0.00000000000E+00 -0.15419009611E+03  0.15419009611E+03  0.00000000000E+00 0. -1.
          2    1    1    2  501    0 -0.48274100892E+00 -0.34920909757E+02  0.10637826452E+02  0.36508441884E+02  0.00000000000E+00 0. -1.
          1    1    1    2  502    0 -0.18995586655E+02  0.76060218794E+02 -0.62739721331E+02  0.10041046673E+03  0.00000000000E+00 0. -1.
         22    1    1    2    0    0  0.14213350570E+02  0.56048002015E+01 -0.51499992153E+02  0.53718547183E+02  0.00000000000E+00 0. -1.
         22    1    1    2    0    0  0.52649770943E+01 -0.46744109238E+02  0.71168571744E+02  0.85309421147E+02  0.00000000000E+00 0. -1.
</event>
<event>
 6    1  0.8017648E-006  0.1607258E+03  0.7818608E-02  0.1250267E+00
          2   -1    0    0  502    0  0.00000000000E+00  0.00000000000E+00  0.63494574192E+03  0.63494574192E+03  0.00000000000E+00 0.  1.
          1   -1    0    0  501    0 -0.00000000000E+00 -0.00000000000E+00 -0.12364314885E+03  0.12364314885E+03  0.00000000000E+00 0.  1.
          2    1    1    2  501    0 -0.10275485538E+03 -0.12913487626E+02  0.17051005999E+03  0.19949686470E+03  0.00000000000E+00 0.  1.
          1    1    1    2  502    0  0.16113657321E+03  0.47304863405E+02  0.37880205274E+03  0.41435943393E+03  0.00000000000E+00 0.  1.
         22    1    1    2    0    0 -0.41702073433E+02  0.55054803738E+01  0.38386823224E+02  0.56946654335E+02  0.00000000000E+00 0.  1.
         22    1    1    2    0    0 -0.16679644392E+02 -0.39896856152E+02 -0.76396342894E+02  0.87785937800E+02  0.00000000000E+00 0. -1.
</event>
<event>
 6    1  0.8017648E-006  0.7307016E+02  0.7818608E-02  0.1456017E+00
          2   -1    0    0  502    0  0.00000000000E+00  0.00000000000E+00  0.93537005683E+02  0.93537005683E+02  0.00000000000E+00 0. -1.
          1   -1    0    0  501    0 -0.00000000000E+00 -0.00000000000E+00 -0.56861808952E+03  0.56861808952E+03  0.00000000000E+00 0. -1.
          2    1    1    2  501    0 -0.25234789974E+02  0.46804223667E+01  0.68439692763E+02  0.73093724245E+02  0.00000000000E+00 0. -1.
          1    1    1    2  502    0  0.69056406919E+02 -0.53172751367E+02 -0.23448445699E+03  0.25015812878E+03  0.00000000000E+00 0. -1.
         22    1    1    2    0    0 -0.90030197824E+01 -0.10313653494E+02  0.71295613232E+01  0.15435558243E+02  0.00000000000E+00 0. -1.
         22    1    1    2    0    0 -0.34818597163E+02  0.58805982494E+02 -0.31616588092E+03  0.32346768393E+03  0.00000000000E+00 0. -1.
</event>
<event>
 6    1  0.8017648E-006  0.5028538E+02  0.7818608E-02  0.1475069E+00
          2   -1    0    0  502    0  0.00000000000E+00  0.00000000000E+00  0.10158281184E+03  0.10158281184E+03  0.00000000000E+00 0.  1.
          1   -1    0    0  501    0 -0.00000000000E+00 -0.00000000000E+00 -0.15313746421E+03  0.15313746421E+03  0.00000000000E+00 0. -1.
          2    1    1    2  501    0  0.23028613912E+02 -0.24618031223E+02 -0.83709697118E+01  0.34733811394E+02  0.00000000000E+00 0.  1.
          1    1    1    2  502    0 -0.25840774005E+02  0.18483944140E+02  0.51491225896E+02  0.60504116689E+02  0.00000000000E+00 0. -1.
         22    1    1    2    0    0 -0.54141611735E+01  0.31455181166E+02 -0.11912992038E+03  0.12333158352E+03  0.00000000000E+00 0. -1.
         22    1    1    2    0    0  0.82263212655E+01 -0.25321094083E+02  0.24455011827E+02  0.36150764453E+02  0.00000000000E+00 0.  1.
</event>
<event>
 6    1  0.8017648E-006  0.2323475E+02  0.7818608E-02  0.1700941E+00
          2   -1    0    0  502    0  0.00000000000E+00  0.00000000000E+00  0.10851137941E+03  0.10851137941E+03  0.00000000000E+00 0. -1.
          1   -1    0    0  501    0 -0.00000000000E+00 -0.00000000000E+00 -0.25734100713E+03  0.25734100713E+03  0.00000000000E+00 0. -1.
          2    1    1    2  501    0  0.51451552788E+01 -0.33140823123E+02  0.43684349842E+02  0.55073670672E+02  0.00000000000E+00 0. -1.
          1    1    1    2  502    0  0.11532322699E+02  0.44440880856E+02 -0.17282903469E+03  0.17882354875E+03  0.00000000000E+00 0. -1.
         22    1    1    2    0    0 -0.12540120752E+02 -0.11329509714E+01 -0.74751870759E+02  0.75804883671E+02  0.00000000000E+00 0.  1.
         22    1    1    2    0    0 -0.41373572251E+01 -0.10167106761E+02  0.55066927878E+02  0.56150283442E+02  0.00000000000E+00 0. -1.
</event>
<event>
 6    1  0.8017648E-006  0.6269121E+02  0.7818608E-02  0.1478725E+00
          2   -1    0    0  502    0  0.00000000000E+00  0.00000000000E+00  0.23233631285E+03  0.23233631285E+03  0.00000000000E+00 0.  1.
          1   -1    0    0  501    0 -0.00000000000E+00 -0.00000000000E+00 -0.14454004448E+03  0.14454004448E+03  0.00000000000E+00 0.  1.
          2    1    1    2  501    0 -0.40693117763E+02  0.11200820299E+02  0.11778960814E+03  0.12512305940E+03  0.00000000000E+00 0.  1.
          1    1    1    2  502    0  0.55624933453E+02 -0.27958274022E+02 -0.92146079390E+02  0.11120565748E+03  0.00000000000E+00 0.  1.
         22    1    1    2    0    0 -0.17479757406E+02  0.13274228247E+01  0.98988903158E+02  0.10052913468E+03  0.00000000000E+00 0.  1.
         22    1    1    2    0    0  0.25479417168E+01  0.15430030897E+02 -0.36836163534E+02  0.40018505775E+02  0.00000000000E+00 0.  1.
</event>
<event>
 6    1  0.8017648E-006  0.1207401E+03  0.7818608E-02  0.1243393E+00
          2   -1    0    0  502    0  0.00000000000E+00  0.00000000000E+00  0.57045825338E+03  0.57045825338E+03  0.00000000000E+00 0. -1.
          1   -1    0    0  501    0 -0.00000000000E+00 -0.00000000000E+00 -0.80294674833E+02  0.80294674833E+02  0.00000000000E+00 0.  1.
          2    1    1    2  501    0  0.45889625902E+02  0.77560852915E+02  0.38655392553E+03  0.39691999321E+03  0.00000000000E+00 0. -1.
          1    1    1    2  502    0 -0.43769009339E+02 -0.67453688200E+02 -0.13613628819E+02  0.81554013512E+02  0.00000000000E+00 0.  1.
         22    1    1    2    0    0 -0.31876627782E+02 -0.17328139591E+02 -0.12972193164E+02  0.38531306959E+02  0.00000000000E+00 0.  1.
         22    1    1    2    0    0  0.29756011218E+02  0.72209748762E+01  0.13019547500E+03  0.13374761453E+03  0.00000000000E+00 0.  1.
</event>
<event>
 6    1  0.8017648E-006  0.4479007E+02  0.7818608E-02  0.1540781E+00
          2   -1    0    0  502    0  0.00000000000E+00  0.00000000000E+00  0.12214318863E+03  0.12214318863E+03  0.00000000000E+00 0. -1.
          1   -1    0    0  501    0 -0.00000000000E+00 -0.00000000000E+00 -0.66251069212E+03  0.66251069212E+03  0.00000000000E+00 0.  1.
          2    1    1    2  501    0  0.21657557603E+02 -0.25800064580E+02  0.85219181122E+02  0.91635156816E+02  0.00000000000E+00 0. -1.
          1    1    1    2  502    0 -0.96598949996E+01  0.24054933142E+02 -0.54679435972E+03  0.54740846285E+03  0.00000000000E+00 0.  1.
         22    1    1    2    0    0 -0.13266966362E+02  0.12862040246E+02 -0.11047507596E+03  0.11200976245E+03  0.00000000000E+00 0. -1.
         22    1    1    2    0    0  0.12693037588E+01 -0.11116908808E+02  0.31682751062E+02  0.33600498632E+02  0.00000000000E+00 0. -1.
</event>
<event>
 6    1  0.8017648E-006  0.6540850E+02  0.7818608E-02  0.1380440E+00
          2   -1    0    0  502    0  0.00000000000E+00  0.00000000000E+00  0.86657543974E+03  0.86657543974E+03  0.00000000000E+00 0.  1.
          1   -1    0    0  501    0 -0.00000000000E+00 -0.00000000000E+00 -0.13471016949E+03  0.13471016949E+03  0.00000000000E+00 0. -1.
          2    1    1    2  501    0 -0.58863859954E+02 -0.14935307971E+03  0.70608391126E+03  0.72410343610E+03  0.00000000000E+00 0.  1.
          1    1    1    2  502    0  0.55603859397E+02  0.13905282133E+03  0.10683791742E+02  0.15013866826E+03  0.00000000000E+00 0. -1.
         22    1    1    2    0    0 -0.23424321570E+02  0.86103847989E+01  0.65442083885E+02  0.70039302614E+02  0.00000000000E+00 0. -1.
         22    1    1    2    0    0  0.26684322127E+02  0.16898735763E+01 -0.50344516634E+02  0.57004202259E+02  0.00000000000E+00 0.  1.
</event>
<event>
 6    1  0.8017648E-006  0.4564010E+02  0.7818608E-02  0.1509116E+00
          2   -1    0    0  502    0  0.00000000000E+00  0.00000000000E+00  0.57588101046E+02  0.57588101046E+02  0.00000000000E+00 0.  1.
          1   -1    0    0  501    0 -0.00000000000E+00 -0.00000000000E+00 -0.26814443647E+03  0.26814443647E+03  0.00000000000E+00 0.  1.
          2    1    1    2  501    0  0.41826467062E+02  0.23902360672E+01 -0.11340774470E+01  0.41910054963E+02  0.00000000000E+00 0.  1.
          1    1    1    2  502    0 -0.58872148495E+02  0.16379657505E+02 -0.71237380122E+02  0.93856205842E+02  0.00000000000E+00 0.  1.
         22    1    1    2    0    0  0.12124275684E+02 -0.43295236927E+02 -0.15396171112E+03  0.16039228190E+03  0.00000000000E+00 0.  1.
         22    1    1    2    0    0  0.49214057489E+01  0.24525343355E+02  0.15776833266E+02  0.29573994812E+02  0.00000000000E+00 0.  1.
</event>
<event>
 6    1  0.8017648E-006  0.2465692E+03  0.7818608E-02  0.1248146E+00
          2   -1    0    0  502    0  0.00000000000E+00  0.00000000000E+00  0.27321298227E+03  0.27321298227E+03  0.00000000000E+00 0. -1.
          1   -1    0    0  501    0 -0.00000000000E+00 -0.00000000000E+00 -0.18874031265E+04  0.18874031265E+04  0.00000000000E+00 0.  1.
          2    1    1    2  501    0  0.48194603261E+02 -0.22457038791E+03  0.19184697010E+03  0.29926549892E+03  0.00000000000E+00 0. -1.
          1    1    1    2  502    0 -0.71818699408E+02  0.19128204271E+03 -0.16123003811E+04  0.16251951466E+04  0.00000000000E+00 0.  1.
         22    1    1    2    0    0  0.12051848395E+02  0.38004669387E+02 -0.21106142636E+03  0.21479415179E+03  0.00000000000E+00 0.  1.
         22    1    1    2    0    0  0.11572247753E+02 -0.47163241855E+01  0.17324693201E+02  0.21361311439E+02  0.00000000000E+00 0. -1.
</event>
<event>
 6    1  0.8017648E-006  0.8240796E+02  0.7818608E-02  0.1379971E+00
          2   -1    0    0  502    0  0.00000000000E+00  0.00000000000E+00  0.36023175213E+03  0.36023175213E+03  0.00000000000E+00 0.  1.
          1   -1    0    0  501    0 -0.00000000000E+00 -0.00000000000E+00 -0.78198359594E+02  0.78198359594E+02  0.00000000000E+00 0.  1.
          2    1    1    2  501    0 -0.35570112081E+02 -0.50631470148E+02  0.20788237976E+03  0.21689597151E+03  0.00000000000E+00 0.  1.
          1    1    1    2  502    0  0.88540450396E+01  0.66486797877E+02 -0.13563267090E+02  0.68431356991E+02  0.00000000000E+00 0.  1.
         22    1    1    2    0    0  0.30484201874E+02  0.48759349780E+01 -0.24197439389E+02  0.39224703680E+02  0.00000000000E+00 0.  1.
         22    1    1    2    0    0 -0.37681348323E+01 -0.20731262706E+02  0.11191171925E+03  0.11387807954E+03  0.00000000000E+00 0.  1.
</event>
<event>
 6    1  0.8017648E-006  0.9466018E+02  0.7818608E-02  0.1350474E+00
          2   -1    0    0  502    0  0.00000000000E+00  0.00000000000E+00  0.87446261294E+02  0.87446261294E+02  0.00000000000E+00 0. -1.
          1   -1    0    0  501    0 -0.00000000000E+00 -0.00000000000E+00 -0.10833362254E+03  0.10833362254E+03  0.00000000000E+00 0. -1.
          2    1    1    2  501    0 -0.20926052476E+02 -0.33968933199E+02 -0.24695657453E+02  0.46921888197E+02  0.00000000000E+00 0. -1.
          1    1    1    2  502    0  0.21231060105E+02  0.72175469257E-01  0.28359732507E+01  0.21419754124E+02  0.00000000000E+00 0. -1.
         22    1    1    2    0    0 -0.21097986542E+02  0.78709265666E+01  0.57540757811E+02  0.61790090878E+02  0.00000000000E+00 0. -1.
         22    1    1    2    0    0  0.20792978914E+02  0.26025831164E+02 -0.56568434851E+02  0.65648150632E+02  0.00000000000E+00 0. -1.
</event>
<event>
 6    1  0.8017648E-006  0.1206969E+03  0.7818608E-02  0.1318930E+00
          2   -1    0    0  502    0  0.00000000000E+00  0.00000000000E+00  0.80085292725E+03  0.80085292725E+03  0.00000000000E+00 0.  1.
          1   -1    0    0  501    0 -0.00000000000E+00 -0.00000000000E+00 -0.32849226248E+02  0.32849226248E+02  0.00000000000E+00 0.  1.
          2    1    1    2  501    0  0.29746661496E+02  0.51417997265E+02  0.93022674480E+02  0.11037160994E+03  0.00000000000E+00 0.  1.
          1    1    1    2  502    0 -0.27846362057E+01 -0.98628332202E+02  0.46113226784E+03  0.47157000600E+03  0.00000000000E+00 0.  1.
         22    1    1    2    0    0 -0.13950444822E+02  0.71870455866E+02  0.21146112363E+03  0.22377619209E+03  0.00000000000E+00 0. -1.
         22    1    1    2    0    0 -0.13011580468E+02 -0.24660120930E+02  0.23876350481E+01  0.27984345475E+02  0.00000000000E+00 0. -1.
</event>
<event>
 6    1  0.8017648E-006  0.9698563E+02  0.7818608E-02  0.1359770E+00
          2   -1    0    0  502    0  0.00000000000E+00  0.00000000000E+00  0.25067102918E+03  0.25067102918E+03  0.00000000000E+00 0.  1.
          1   -1    0    0  501    0 -0.00000000000E+00 -0.00000000000E+00 -0.68426612227E+02  0.68426612227E+02  0.00000000000E+00 0. -1.
          2    1    1    2  501    0  0.28819591382E+02 -0.32590061168E+02  0.37878470459E+02  0.57684135242E+02  0.00000000000E+00 0.  1.
          1    1    1    2  502    0 -0.30432943789E+02  0.77107100541E+02  0.86731908332E+02  0.11997538474E+03  0.00000000000E+00 0. -1.
         22    1    1    2    0    0 -0.18914647982E+02  0.18506355672E+02 -0.24385054622E+02  0.35984441047E+02  0.00000000000E+00 0. -1.
         22    1    1    2    0    0  0.20528000389E+02 -0.63023395045E+02  0.82019092781E+02  0.10545368037E+03  0.00000000000E+00 0.  1.
</event>
<event>
 6    1  0.8017648E-006  0.8076109E+02  0.7818608E-02  0.1398572E+00
          2   -1    0    0  502    0  0.00000000000E+00  0.00000000000E+00  0.30092403332E+03  0.30092403332E+03  0.00000000000E+00 0. -1.
          1   -1    0    0  501    0 -0.00000000000E+00 -0.00000000000E+00 -0.14066051525E+03  0.14066051525E+03  0.00000000000E+00 0. -1.
          2    1    1    2  501    0  0.80254921660E+02 -0.93968536749E+02  0.82732486803E+02  0.14871315585E+03  0.00000000000E+00 0. -1.
          1    1    1    2  502    0 -0.11718692388E+03  0.90823614750E+02  0.29279851490E+02  0.15112582118E+03  0.00000000000E+00 0. -1.
         22    1    1    2    0    0  0.47669506695E+02 -0.62319713623E+01  0.87583037573E+02  0.99909998530E+02  0.00000000000E+00 0.  1.
         22    1    1    2    0    0 -0.10737504480E+02  0.93768933606E+01 -0.39331857796E+02  0.41835573012E+02  0.00000000000E+00 0. -1.
</event>
<event>
 6    1  0.8017648E-006  0.1054115E+03  0.7818608E-02  0.1377099E+00
          2   -1    0    0  502    0  0.00000000000E+00  0.00000000000E+00  0.15589442162E+03  0.15589442162E+03  0.00000000000E+00 0. -1.
          1   -1    0    0  501    0 -0.00000000000E+00 -0.00000000000E+00 -0.15574001186E+03  0.15574001186E+03  0.00000000000E+00 0. -1.
          2    1    1    2  501    0 -0.36661140542E+02 -0.35640642399E+02  0.32090038187E+02  0.60366092861E+02  0.00000000000E+00 0. -1.
          1    1    1    2  502    0  0.98395328482E+02  0.43578545081E+02  0.12523009769E+02  0.10834000199E+03  0.00000000000E+00 0. -1.
         22    1    1    2    0    0 -0.49124261204E+02 -0.16881161554E+02  0.34573848491E+02  0.62398058093E+02  0.00000000000E+00 0.  1.
         22    1    1    2    0    0 -0.12609926736E+02  0.89432588715E+01 -0.79032486679E+02  0.80530280530E+02  0.00000000000E+00 0. -1.
</event>
<event>
 6    1  0.8017648E-006  0.2588660E+02  0.7818608E-02  0.1674890E+00
          2   -1    0    0  502    0  0.00000000000E+00  0.00000000000E+00  0.11757128661E+03  0.11757128661E+03  0.00000000000E+00 0.  1.
          1   -1    0    0  501    0 -0.00000000000E+00 -0.00000000000E+00 -0.84806084696E+02  0.84806084696E+02  0.00000000000E+00 0. -1.
          2    1    1    2  501    0 -0.18154626531E+02 -0.18808909497E+02  0.12180454872E+02  0.28839712582E+02  0.00000000000E+00 0.  1.
          1    1    1    2  502    0  0.19219635359E+02  0.25600373323E+02 -0.20071411084E+02  0.37784058021E+02  0.00000000000E+00 0. -1.
         22    1    1    2    0    0  0.64885082664E+01 -0.20492035084E+02  0.85551490298E+02  0.88210440049E+02  0.00000000000E+00 0.  1.
         22    1    1    2    0    0 -0.75535170951E+01  0.13700571257E+02 -0.44895332177E+02  0.47543160649E+02  0.00000000000E+00 0. -1.
</event>
<event>
 6    1  0.8017648E-006  0.6736696E+02  0.7818608E-02  0.1382946E+00
          2   -1    0    0  502    0  0.00000000000E+00  0.00000000000E+00  0.34236440786E+03  0.34236440786E+03  0.00000000000E+00 0. -1.
          1   -1    0    0  501    0 -0.00000000000E+00 -0.00000000000E+00 -0.98450128136E+02  0.98450128136E+02  0.00000000000E+00 0.  1.
          2    1    1    2  501    0 -0.17089756367E+02 -0.39351534556E+02  0.15997180154E+03  0.16562481799E+03  0.00000000000E+00 0. -1.
          1    1    1    2  502    0  0.68844410500E+02  0.77234033183E+02  0.85270543727E+02  0.13407354089E+03  0.00000000000E+00 0.  1.
         22    1    1    2    0    0 -0.56626737837E+02 -0.28635034276E+02 -0.56499588383E+02  0.84963263317E+02  0.00000000000E+00 0.  1.
         22    1    1    2    0    0  0.48720837038E+01 -0.92474643506E+01  0.55171522835E+02  0.56152913802E+02  0.00000000000E+00 0. -1.
</event>
<event>
 6    1  0.8017648E-006  0.3871082E+02  0.7818608E-02  0.1536214E+00
          2   -1    0    0  502    0  0.00000000000E+00  0.00000000000E+00  0.10742528401E+03  0.10742528401E+03  0.00000000000E+00 0. -1.
          1   -1    0    0  501    0 -0.00000000000E+00 -0.00000000000E+00 -0.92135165356E+02  0.92135165356E+02  0.00000000000E+00 0. -1.
          2    1    1    2  501    0 -0.21398363082E+02  0.43495736373E+01  0.28998688312E+02  0.36300587560E+02  0.00000000000E+00 0. -1.
          1    1    1    2  502    0  0.23406368427E+01 -0.23519501481E+02 -0.29927998494E+02  0.38135687021E+02  0.00000000000E+00 0. -1.
         22    1    1    2    0    0 -0.88649978144E+01  0.72017272983E+01  0.65904773605E+02  0.66887160548E+02  0.00000000000E+00 0. -1.
         22    1    1    2    0    0  0.27922724054E+02  0.11968200545E+02 -0.49685344767E+02  0.58237014239E+02  0.00000000000E+00 0. -1.
</event>
<event>
 6    1  0.8017648E-006  0.1303347E+03  0.7818608E-02  0.1352369E+00
          2   -1    0    0  502    0  0.00000000000E+00  0.00000000000E+00  0.15245874749E+03  0.15245874749E+03  0.00000000000E+00 0. -1.
          1   -1    0    0  501    0 -0.00000000000E+00 -0.00000000000E+00 -0.13105672257E+03  0.13105672257E+03  0.00000000000E+00 0. -1.
          2    1    1    2  501    0  0.14935214886E+02  0.35149637448E+02 -0.13442513593E+02  0.40487761461E+02  0.00000000000E+00 0. -1.
          1    1    1    2  502    0  0.25067908174E+02 -0.34660875705E+02 -0.63970337651E+02  0.76954404838E+02  0.00000000000E+00 0. -1.
         22    1    1    2    0    0 -0.37009790340E+02  0.11500225064E+02  0.12834142680E+03  0.13406528854E+03  0.00000000000E+00 0. -1.
         22    1    1    2    0    0 -0.29933327200E+01 -0.11988986807E+02 -0.29526550645E+02  0.32008015222E+02  0.00000000000E+00 0.  1.
</event>
<event>
 6    1  0.8017648E-006  0.1029707E+03  0.7818608E-02  0.1390309E+00
          2   -1    0    0  502    0  0.00000000000E+00  0.00000000000E+00  0.36979690862E+03  0.36979690862E+03  0.00000000000E+00 0. -1.
          1   -1    0    0  501    0 -0.00000000000E+00 -0.00000000000E+00 -0.34339471594E+02  0.34339471594E+02  0.00000000000E+00 0.  1.
          2    1    1    2  501    0  0.16789562337E+02 -0.24880227415E+02  0.32307852241E+02  0.44098893819E+02  0.00000000000E+00 0. -1.
          1    1    1    2  502    0  0.34585349761E+02  0.21753640777E+02  0.21748563891E+02  0.46285714173E+02  0.00000000000E+00 0.  1.
         22    1    1    2    0    0  0.10188482607E+00  0.13385642267E+02 -0.10597451350E+02  0.17073130192E+02  0.00000000000E+00 0. -1.
         22    1    1    2    0    0 -0.51476796924E+02 -0.10259055629E+02  0.29199847225E+03  0.29667864203E+03  0.00000000000E+00 0. -1.
</event>
<event>
 6    1  0.8017648E-006  0.2952135E+02  0.7818608E-02  0.1619541E+00
          2   -1    0    0  502    0  0.00000000000E+00  0.00000000000E+00  0.16786602920E+03  0.16786602920E+03  0.00000000000E+00 0.  1.
          1   -1    0    0  501    0 -0.00000000000E+00 -0.00000000000E+00 -0.16490534038E+03  0.16490534038E+03  0.00000000000E+00 0. -1.
          2    1    1    2  501    0 -0.24756900674E+01 -0.27601619905E+02  0.10867333266E+02  0.29767052172E+02  0.00000000000E+00 0.  1.
          1    1    1    2  502    0  0.15884934518E+02 -0.24844043270E+02 -0.12219061451E+03  0.12569846421E+03  0.00000000000E+00 0. -1.
         22    1    1    2    0    0 -0.19152329692E+02  0.15103251390E+02  0.13294722381E+03  0.13516613575E+03  0.00000000000E+00 0.  1.
         22    1    1    2    0    0  0.57430852411E+01  0.37342411786E+02 -0.18663253754E+02  0.42139717450E+02  0.00000000000E+00 0.  1.
</event>
<event>
 6    1  0.8017648E-006  0.7090859E+02  0.7818608E-02  0.1383495E+00
          2   -1    0    0  502    0  0.00000000000E+00  0.00000000000E+00  0.25594363626E+03  0.25594363626E+03  0.00000000000E+00 0.  1.
          1   -1    0    0  501    0 -0.00000000000E+00 -0.00000000000E+00 -0.66161150130E+02  0.66161150130E+02  0.00000000000E+00 0.  1.
          2    1    1    2  501    0  0.68120705133E+01 -0.58507672758E+02  0.29254177918E+02  0.65767461574E+02  0.00000000000E+00 0.  1.
          1    1    1    2  502    0 -0.23700608418E+01  0.39934558677E+02  0.11980962099E+03  0.12631203999E+03  0.00000000000E+00 0.  1.
         22    1    1    2    0    0  0.72158450183E+01  0.45186309398E+02 -0.29219375130E+02  0.54292198881E+02  0.00000000000E+00 0.  1.
         22    1    1    2    0    0 -0.11657854690E+02 -0.26613195317E+02  0.69938062353E+02  0.75733085944E+02  0.00000000000E+00 0.  1.
</event>
<event>
 6    1  0.8017648E-006  0.2348494E+03  0.7818608E-02  0.1209205E+00
          2   -1    0    0  502    0  0.00000000000E+00  0.00000000000E+00  0.20069536495E+03  0.20069536495E+03  0.00000000000E+00 0.  1.
          1   -1    0    0  501    0 -0.00000000000E+00 -0.00000000000E+00 -0.37757623907E+03  0.37757623907E+03  0.00000000000E+00 0.  1.
          2    1    1    2  501    0 -0.17291493957E+03 -0.16086739413E+02  0.14050262805E+02  0.17422907162E+03  0.00000000000E+00 0.  1.
          1    1    1    2  502    0  0.21531130956E+03  0.20281768651E+02 -0.16491341345E+03  0.27196827775E+03  0.00000000000E+00 0.  1.
         22    1    1    2    0    0  0.16961568134E+02 -0.27585022178E+02 -0.53555730307E+02  0.62584698536E+02  0.00000000000E+00 0.  1.
         22    1    1    2    0    0 -0.59357938129E+02  0.23389992940E+02  0.27538006832E+02  0.69489556114E+02  0.00000000000E+00 0. -1.
</event>
<event>
 6    1  0.8017648E-006  0.1023211E+03  0.7818608E-02  0.1366864E+00
          2   -1    0    0  502    0  0.00000000000E+00  0.00000000000E+00  0.79022547379E+02  0.79022547379E+02  0.00000000000E+00 0.  1.
          1   -1    0    0  501    0 -0.00000000000E+00 -0.00000000000E+00 -0.30004103269E+03  0.30004103269E+03  0.00000000000E+00 0.  1.
          2    1    1    2  501    0  0.34655758587E+02  0.32212275786E+01  0.27086935630E+02  0.44103287771E+02  0.00000000000E+00 0.  1.
          1    1    1    2  502    0 -0.80848386761E+02  0.17683726825E+02 -0.12570310679E+03  0.15050065413E+03  0.00000000000E+00 0.  1.
         22    1    1    2    0    0 -0.17074478412E+02 -0.10441384753E+02 -0.11853914208E+03  0.12021683964E+03  0.00000000000E+00 0.  1.
         22    1    1    2    0    0  0.63267106585E+02 -0.10463569651E+02 -0.38631720812E+01  0.64242798538E+02  0.00000000000E+00 0.  1.
</event>
<event>
 6    1  0.8017648E-006  0.1968617E+03  0.7818608E-02  0.1244870E+00
          2   -1    0    0  502    0  0.00000000000E+00  0.00000000000E+00  0.41048698740E+03  0.41048698740E+03  0.00000000000E+00 0. -1.
          1   -1    0    0  501    0 -0.00000000000E+00 -0.00000000000E+00 -0.59401091496E+03  0.59401091496E+03  0.00000000000E+00 0. -1.
          2    1    1    2  501    0 -0.36598497091E+03 -0.11998946363E+03 -0.11111126015E+03  0.40085930505E+03  0.00000000000E+00 0. -1.
          1    1    1    2  502    0  0.38428330674E+03  0.20215827393E+03 -0.10461823987E+03  0.44663923212E+03  0.00000000000E+00 0. -1.
         22    1    1    2    0    0 -0.25403519637E+02 -0.92741007771E+02  0.68810286936E+02  0.11824165476E+03  0.00000000000E+00 0.  1.
         22    1    1    2    0    0  0.71051838094E+01  0.10572197463E+02 -0.36604714477E+02  0.38757710434E+02  0.00000000000E+00 0. -1.
</event>
<event>
 6    1  0.8017648E-006  0.4680931E+02  0.7818608E-02  0.1524249E+00
          2   -1    0    0  502    0  0.00000000000E+00  0.00000000000E+00  0.10390957747E+03  0.10390957747E+03  0.00000000000E+00 0.  1.
          1   -1    0    0  501    0 -0.00000000000E+00 -0.00000000000E+00 -0.14039579927E+03  0.14039579927E+03  0.00000000000E+00 0.  1.
          2    1    1    2  501    0 -0.77946642605E+01 -0.28815551649E+02  0.41944985983E+02  0.51482760774E+02  0.00000000000E+00 0.  1.
          1    1    1    2  502    0  0.40597246272E+02  0.25164954664E+02 -0.66102649670E+01  0.48219362823E+02  0.00000000000E+00 0.  1.
         22    1    1    2    0    0 -0.18037839982E+02  0.89125958508E+01 -0.10552860271E+03  0.10742943743E+03  0.00000000000E+00 0. -1.
         22    1    1    2    0    0 -0.14764742030E+02 -0.52619988658E+01  0.33707659893E+02  0.37173815714E+02  0.00000000000E+00 0. -1.
</event>
<event>
 6    1  0.8017648E-006  0.2504840E+03  0.7818608E-02  0.1255634E+00
          2   -1    0    0  502    0  0.00000000000E+00  0.00000000000E+00  0.24947539838E+03  0.24947539838E+03  0.00000000000E+00 0.  1.
          1   -1    0    0  501    0 -0.00000000000E+00 -0.00000000000E+00 -0.44387336343E+03  0.44387336343E+03  0.00000000000E+00 0. -1.
          2    1    1    2  501    0  0.12696299497E+03 -0.25883841133E+03 -0.60193830326E+02  0.29451693072E+03  0.00000000000E+00 0.  1.
          1    1    1    2  502    0  0.42242484283E+02  0.10979345496E+03 -0.47027117182E+02  0.12669088357E+03  0.00000000000E+00 0. -1.
         22    1    1    2    0    0 -0.17879936203E+03  0.14538528022E+03 -0.53012223782E+02  0.23646646155E+03  0.00000000000E+00 0. -1.
         22    1    1    2    0    0  0.95938827748E+01  0.36596761520E+01 -0.34164793763E+02  0.35674485969E+02  0.00000000000E+00 0. -1.
</event>
<event>
 6    1  0.8017648E-006  0.6027816E+02  0.7818608E-02  0.1513290E+00
          2   -1    0    0  502    0  0.00000000000E+00  0.00000000000E+00  0.36161448224E+03  0.36161448224E+03  0.00000000000E+00 0.  1.
          1   -1    0    0  501    0 -0.00000000000E+00 -0.00000000000E+00 -0.37420428894E+02  0.37420428894E+02  0.00000000000E+00 0. -1.
          2    1    1    2  501    0  0.22646980382E+02  0.18171760039E+02  0.13365360597E+03  0.13677128709E+03  0.00000000000E+00 0.  1.
          1    1    1    2  502    0 -0.45764236921E+02  0.79184939108E+01  0.25319233603E+02  0.52897367770E+02  0.00000000000E+00 0. -1.
         22    1    1    2    0    0 -0.39541947550E+01 -0.10170049141E+02 -0.19311007140E+02  0.22180634627E+02  0.00000000000E+00 0. -1.
         22    1    1    2    0    0  0.27071451294E+02 -0.15920204809E+02  0.18453222091E+03  0.18718562165E+03  0.00000000000E+00 0.  1.
</event>
<event>
 6    1  0.8017648E-006  0.7554535E+02  0.7818608E-02  0.1464894E+00
          2   -1    0    0  502    0  0.00000000000E+00  0.00000000000E+00  0.94974361883E+02  0.94974361883E+02  0.00000000000E+00 0.  1.
          1   -1    0    0  501    0 -0.00000000000E+00 -0.00000000000E+00 -0.19590334638E+03  0.19590334638E+03  0.00000000000E+00 0. -1.
          2    1    1    2  501    0 -0.13387703201E+02  0.19912269834E+02  0.13493458388E+02  0.27528212913E+02  0.00000000000E+00 0.  1.
          1    1    1    2  502    0  0.11782945316E+02 -0.69213998369E+02 -0.10334624109E+03  0.12493942899E+03  0.00000000000E+00 0. -1.
         22    1    1    2    0    0  0.10863163970E+02 -0.76704991874E+00 -0.64029000404E+02  0.64948514916E+02  0.00000000000E+00 0. -1.
         22    1    1    2    0    0 -0.92584060849E+01  0.50068778454E+02  0.52952798609E+02  0.73461551438E+02  0.00000000000E+00 0.  1.
</event>
<event>
 6    1  0.8017648E-006  0.7705165E+02  0.7818608E-02  0.1415749E+00
          2   -1    0    0  502    0  0.00000000000E+00  0.00000000000E+00  0.21844024527E+03  0.21844024527E+03  0.00000000000E+00 0. -1.
          1   -1    0    0  501    0 -0.00000000000E+00 -0.00000000000E+00 -0.77299191480E+02  0.77299191480E+02  0.00000000000E+00 0.  1.
          2    1    1    2  501    0 -0.12130642155E+02 -0.44562044607E+02  0.68572953195E+02  0.82675136580E+02  0.00000000000E+00 0. -1.
          1    1    1    2  502    0 -0.11941951370E+02  0.67934343119E+02  0.40154625604E+02  0.79812775512E+02  0.00000000000E+00 0.  1.
         22    1    1    2    0    0  0.19515736136E+02  0.87608958015E+01 -0.44717355868E+02  0.49570749116E+02  0.00000000000E+00 0. -1.
         22    1    1    2    0    0  0.45568573887E+01 -0.32133194313E+02  0.77130830856E+02  0.83680775537E+02  0.00000000000E+00 0. -1.
</event>
<event>
 6    1  0.8017648E-006  0.3196673E+02  0.7818608E-02  0.1579863E+00
          2   -1    0    0  502    0  0.00000000000E+00  0.00000000000E+00  0.22266758738E+03  0.22266758738E+03  0.00000000000E+00 0. -1.
          1   -1    0    0  501    0 -0.00000000000E+00 -0.00000000000E+00 -0.10147847605E+04  0.10147847605E+04  0.00000000000E+00 0. -1.
          2    1    1    2  501    0 -0.35243196491E+01  0.37272559020E+02  0.12609540502E+03  0.13153598615E+03  0.00000000000E+00 0. -1.
          1    1    1    2  502    0  0.25374833771E+01 -0.37447604285E+02 -0.97123401266E+03  0.97195898537E+03  0.00000000000E+00 0. -1.
         22    1    1    2    0    0 -0.25420991578E+02  0.72781926103E+01 -0.33809614475E+02  0.42921893382E+02  0.00000000000E+00 0. -1.
         22    1    1    2    0    0  0.26407827850E+02 -0.71031473452E+01  0.86831049050E+02  0.91035482934E+02  0.00000000000E+00 0. -1.
</event>
<event>
 6    1  0.8017648E-006  0.2514143E+03  0.7818608E-02  0.1112886E+00
          2   -1    0    0  502    0  0.00000000000E+00  0.00000000000E+00  0.12229188538E+04  0.12229188538E+04  0.00000000000E+00 0. -1.
          1   -1    0    0  501    0 -0.00000000000E+00 -0.00000000000E+00 -0.94610048569E+02  0.94610048569E+02  0.00000000000E+00 0.  1.
          2    1    1    2  501    0 -0.17310286743E+03  0.46149002033E+02  0.70594050981E+03  0.72831746958E+03  0.00000000000E+00 0. -1.
          1    1    1    2  502    0  0.20149805661E+03 -0.97336870489E+02  0.11228865717E+03  0.25036907896E+03  0.00000000000E+00 0.  1.
         22    1    1    2    0    0 -0.54062681802E+02  0.42864284581E+02  0.30326178329E+03  0.31101097996E+03  0.00000000000E+00 0. -1.
         22    1    1    2    0    0  0.25667492621E+02  0.83235838744E+01  0.68178549956E+01  0.27831373892E+02  0.00000000000E+00 0.  1.
</event>
<event>
 6    1  0.8017648E-006  0.3696052E+02  0.7818608E-02  0.1590458E+00
          2   -1    0    0  502    0  0.00000000000E+00  0.00000000000E+00  0.15862709813E+03  0.15862709813E+03  0.00000000000E+00 0.  1.
          1   -1    0    0  501    0 -0.00000000000E+00 -0.00000000000E+00 -0.14581367838E+03  0.14581367838E+03  0.00000000000E+00 0. -1.
          2    1    1    2  501    0 -0.20790784773E+02 -0.32922534702E+01  0.68902065635E+02  0.72045751527E+02  0.00000000000E+00 0.  1.
          1    1    1    2  502    0  0.38801934980E+02 -0.26209879057E+01 -0.93453652379E+02  0.10122274882E+03  0.00000000000E+00 0. -1.
         22    1    1    2    0    0 -0.72778181562E+01  0.16021621136E+02 -0.44571661333E+02  0.47919640805E+02  0.00000000000E+00 0. -1.
         22    1    1    2    0    0 -0.10733332051E+02 -0.10108379760E+02  0.81936667834E+02  0.83252635358E+02  0.00000000000E+00 0.  1.
</event>
<event>
 6    1  0.8017648E-006  0.1236644E+03  0.7818608E-02  0.1330641E+00
          2   -1    0    0  502    0  0.00000000000E+00  0.00000000000E+00  0.17971722003E+03  0.17971722003E+03  0.00000000000E+00 0.  1.
          1   -1    0    0  501    0 -0.00000000000E+00 -0.00000000000E+00 -0.25232878344E+03  0.25232878344E+03  0.00000000000E+00 0. -1.
          2    1    1    2  501    0 -0.96711089650E+02 -0.26382431835E+02  0.63700768589E+02  0.11877228418E+03  0.00000000000E+00 0.  1.
          1    1    1    2  502    0  0.10296632028E+03  0.13066023283E+01 -0.15534363712E+03  0.18637439715E+03  0.00000000000E+00 0. -1.
         22    1    1    2    0    0 -0.19782594389E+02  0.72258858184E+01  0.68999075166E+02  0.72141782902E+02  0.00000000000E+00 0. -1.
         22    1    1    2    0    0  0.13527363761E+02  0.17849943689E+02 -0.49967770042E+02  0.54757539234E+02  0.00000000000E+00 0. -1.
</event>
<event>
 6    1  0.8017648E-006  0.5742447E+02  0.7818608E-02  0.1422530E+00
          2   -1    0    0  502    0  0.00000000000E+00  0.00000000000E+00  0.64361729494E+03  0.64361729494E+03  0.00000000000E+00 0. -1.
          1   -1    0    0  501    0 -0.00000000000E+00 -0.00000000000E+00 -0.40403617423E+02  0.40403617423E+02  0.00000000000E+00 0. -1.
          2    1    1    2  501    0  0.26508792538E+02  0.53559683916E+02  0.34855700964E+03  0.35364296231E+03  0.00000000000E+00 0. -1.
          1    1    1    2  502    0 -0.56459542230E+02 -0.50352726402E+02  0.60725735648E+02  0.97008720922E+02  0.00000000000E+00 0. -1.
         22    1    1    2    0    0 -0.94779289793E+01  0.41670082040E+02  0.15922080300E+02  0.45604161170E+02  0.00000000000E+00 0.  1.
         22    1    1    2    0    0  0.39428678671E+02 -0.44877039555E+02  0.17800885193E+03  0.18776506796E+03  0.00000000000E+00 0. -1.
</event>
<event>
 6    1  0.8017648E-006  0.8710252E+02  0.7818608E-02  0.1396718E+00
          2   -1    0    0  502    0  0.00000000000E+00  0.00000000000E+00  0.22317139667E+03  0.22317139667E+03  0.00000000000E+00 0.  1.
          1   -1    0    0  501    0 -0.00000000000E+00 -0.00000000000E+00 -0.14886187634E+03  0.14886187634E+03  0.00000000000E+00 0. -1.
          2    1    1    2  501    0  0.31614162335E+01 -0.34933892174E+02  0.11141614527E+03  0.11680722924E+03  0.00000000000E+00 0.  1.
          1    1    1    2  502    0 -0.42238906669E+01  0.97502822412E+02 -0.51538641182E+02  0.11036699310E+03  0.00000000000E+00 0. -1.
         22    1    1    2    0    0  0.98811441257E+01 -0.17344724978E+02 -0.56698088650E+02  0.60109481368E+02  0.00000000000E+00 0.  1.
         22    1    1    2    0    0 -0.88186696923E+01 -0.45224205260E+02  0.71130104889E+02  0.84749569309E+02  0.00000000000E+00 0.  1.
</event>
<event>
 6    1  0.8017648E-006  0.7962750E+02  0.7818608E-02  0.1453421E+00
          2   -1    0    0  502    0  0.00000000000E+00  0.00000000000E+00  0.17836102042E+03  0.17836102042E+03  0.00000000000E+00 0.  1.
          1   -1    0    0  501    0 -0.00000000000E+00 -0.00000000000E+00 -0.38057192264E+03  0.38057192264E+03  0.00000000000E+00 0.  1.
          2    1    1    2  501    0 -0.57253721153E+02  0.39187066310E+02  0.99664592275E+02  0.12143576782E+03  0.00000000000E+00 0.  1.
          1    1    1    2  502    0 -0.17040085387E+02 -0.91811812390E+02  0.41754683158E+01  0.93473033223E+02  0.00000000000E+00 0.  1.
         22    1    1    2    0    0  0.58162302185E+01  0.93232104658E+01  0.11732657958E+02  0.16075013223E+02  0.00000000000E+00 0.  1.
         22    1    1    2    0    0  0.68477576321E+02  0.43301535614E+02 -0.31778362077E+03  0.32794912879E+03  0.00000000000E+00 0.  1.
</event>
<event>
 6    1  0.8017648E-006  0.7254809E+02  0.7818608E-02  0.1393418E+00
          2   -1    0    0  502    0  0.00000000000E+00  0.00000000000E+00  0.87018975434E+02  0.87018975434E+02  0.00000000000E+00 0. -1.
          1   -1    0    0  501    0 -0.00000000000E+00 -0.00000000000E+00 -0.34369379762E+03  0.34369379762E+03  0.00000000000E+00 0. -1.
          2    1    1    2  501    0 -0.40356173476E+02  0.34717579778E+00  0.25052473303E+02  0.47501238797E+02  0.00000000000E+00 0. -1.
          1    1    1    2  502    0  0.45566449983E+02  0.23534769397E+02 -0.25008105937E+03  0.25528557145E+03  0.00000000000E+00 0. -1.
         22    1    1    2    0    0 -0.32417312663E+02  0.32123658166E+00  0.37625916496E+02  0.49665832777E+02  0.00000000000E+00 0.  1.
         22    1    1    2    0    0  0.27207036157E+02 -0.24203181776E+02 -0.69272152611E+02  0.78260130027E+02  0.00000000000E+00 0.  1.
</event>
<event>
 6    1  0.8017648E-006  0.5336166E+02  0.7818608E-02  0.1509876E+00
          2   -1    0    0  502    0  0.00000000000E+00  0.00000000000E+00  0.33451411948E+03  0.33451411948E+03  0.00000000000E+00 0. -1.
          1   -1    0    0  501    0 -0.00000000000E+00 -0.00000000000E+00 -0.54588168932E+02  0.54588168932E+02  0.00000000000E+00 0. -1.
          2    1    1    2  501    0  0.40672701385E+02  0.41058358408E+02  0.47694255216E+02  0.74931965233E+02  0.00000000000E+00 0. -1.
          1    1    1    2  502    0 -0.75746411291E+02 -0.25174055612E+02  0.11171650290E+03  0.13730196255E+03  0.00000000000E+00 0. -1.
         22    1    1    2    0    0  0.48975546941E+02 -0.10451727434E+02  0.14207714949E+03  0.15064447953E+03  0.00000000000E+00 0. -1.
         22    1    1    2    0    0 -0.13901837035E+02 -0.54325753620E+01 -0.21561957058E+02  0.26223881104E+02  0.00000000000E+00 0.  1.
</event>
<event>
 6    1  0.8017648E-006  0.4642977E+02  0.7818608E-02  0.1532716E+00
          2   -1    0    0  502    0  0.00000000000E+00  0.00000000000E+00  0.30192849150E+03  0.30192849150E+03  0.00000000000E+00 0. -1.
          1   -1    0    0  501    0 -0.00000000000E+00 -0.00000000000E+00 -0.54902757248E+02  0.54902757248E+02  0.00000000000E+00 0. -1.
          2    1    1    2  501    0 -0.94810262160E+01 -0.45187389488E+02  0.84513818770E+02  0.96303559591E+02  0.00000000000E+00 0. -1.
          1    1    1    2  502    0  0.29822097080E+02  0.54335105731E+02  0.64341237159E+01  0.62314196914E+02  0.00000000000E+00 0. -1.
         22    1    1    2    0    0 -0.30940529505E+02 -0.18266473433E+02  0.17275417967E+03  0.17645108957E+03  0.00000000000E+00 0. -1.
         22    1    1    2    0    0  0.10599458641E+02  0.91187571902E+01 -0.16676387908E+02  0.21762402667E+02  0.00000000000E+00 0. -1.
</event>
<event>
 6    1  0.8017648E-006  0.8148739E+02  0.7818608E-02  0.1353762E+00
          2   -1    0    0  502    0  0.00000000000E+00  0.00000000000E+00  0.66189020964E+03  0.66189020964E+03  0.00000000000E+00 0. -1.
          1   -1    0    0  501    0 -0.00000000000E+00 -0.00000000000E+00 -0.16796998854E+02  0.16796998854E+02  0.00000000000E+00 0. -1.
          2    1    1    2  501    0 -0.17562884273E+02  0.28017178476E+02  0.66704975776E+02  0.74451131537E+02  0.00000000000E+00 0. -1.
          1    1    1    2  502    0  0.42525489790E+02  0.17996831733E+01  0.22132188506E+03  0.22537753426E+03  0.00000000000E+00 0. -1.
         22    1    1    2    0    0  0.48631632167E+02 -0.85596078409E+01  0.12153291515E+03  0.13118137062E+03  0.00000000000E+00 0. -1.
         22    1    1    2    0    0 -0.73594237683E+02 -0.21257253809E+02  0.23553343480E+03  0.24767717208E+03  0.00000000000E+00 0. -1.
</event>
<event>
 6    1  0.8017648E-006  0.6351927E+02  0.7818608E-02  0.1507720E+00
          2   -1    0    0  502    0  0.00000000000E+00  0.00000000000E+00  0.40057837081E+03  0.40057837081E+03  0.00000000000E+00 0. -1.
          1   -1    0    0  501    0 -0.00000000000E+00 -0.00000000000E+00 -0.76668949662E+02  0.76668949662E+02  0.00000000000E+00 0. -1.
          2    1    1    2  501    0 -0.15133392957E+02  0.16111443160E+02  0.24375542883E+03  0.24475560722E+03  0.00000000000E+00 0. -1.
          1    1    1    2  502    0  0.51012971612E+02 -0.28879621767E+02 -0.23151693945E+02  0.63026635311E+02  0.00000000000E+00 0. -1.
         22    1    1    2    0    0 -0.76966826123E+01 -0.64717863382E+01 -0.30115048305E+02  0.31749631117E+02  0.00000000000E+00 0. -1.
         22    1    1    2    0    0 -0.28182896043E+02  0.19239964945E+02  0.13342073457E+03  0.13771544682E+03  0.00000000000E+00 0.  1.
</event>
<event>
 6    1  0.8017648E-006  0.5584400E+02  0.7818608E-02  0.1418275E+00
          2   -1    0    0  502    0  0.00000000000E+00  0.00000000000E+00  0.37353736258E+03  0.37353736258E+03  0.00000000000E+00 0.  1.
          1   -1    0    0  501    0 -0.00000000000E+00 -0.00000000000E+00 -0.86598890948E+02  0.86598890948E+02  0.00000000000E+00 0. -1.
          2    1    1    2  501    0 -0.69469339740E+01  0.25123668647E+02  0.21424798654E+03  0.21582784426E+03  0.00000000000E+00 0.  1.
          1    1    1    2  502    0  0.15242813745E+02 -0.35475518084E+02 -0.51291393891E+02  0.64200177893E+02  0.00000000000E+00 0. -1.
         22    1    1    2    0    0 -0.20104293836E+02  0.20076176703E+02  0.14850869398E+03  0.15120207568E+03  0.00000000000E+00 0.  1.
         22    1    1    2    0    0  0.11808414065E+02 -0.97243272658E+01 -0.24526814999E+02  0.28906155702E+02  0.00000000000E+00 0. -1.
</event>
<event>
 6    1  0.8017648E-006  0.4660176E+02  0.7818608E-02  0.1505940E+00
          2   -1    0    0  502    0  0.00000000000E+00  0.00000000000E+00  0.34519998343E+03  0.34519998343E+03  0.00000000000E+00 0. -1.
          1   -1    0    0  501    0 -0.00000000000E+00 -0.00000000000E+00 -0.96998842051E+02  0.96998842051E+02  0.00000000000E+00 0.  1.
          2    1    1    2  501    0 -0.45358746906E+00 -0.36696122804E+02  0.28081950246E+03  0.28320735184E+03  0.00000000000E+00 0. -1.
          1    1    1    2  502    0  0.80459449762E+01  0.23265962029E+02 -0.11089881536E+02  0.27000512813E+02  0.00000000000E+00 0.  1.
         22    1    1    2    0    0  0.74745893491E+01 -0.78682245804E+01  0.52442734132E+02  0.53553886948E+02  0.00000000000E+00 0. -1.
         22    1    1    2    0    0 -0.15066946856E+02  0.21298385355E+02 -0.73971213679E+02  0.78437073884E+02  0.00000000000E+00 0. -1.
</event>
<event>
 6    1  0.8017648E-006  0.1227947E+03  0.7818608E-02  0.1351653E+00
          2   -1    0    0  502    0  0.00000000000E+00  0.00000000000E+00  0.13535668312E+03  0.13535668312E+03  0.00000000000E+00 0.  1.
          1   -1    0    0  501    0 -0.00000000000E+00 -0.00000000000E+00 -0.43156300830E+03  0.43156300830E+03  0.00000000000E+00 0. -1.
          2    1    1    2  501    0 -0.20462262809E+02 -0.26192660455E+02  0.20165391921E+02  0.38876762883E+02  0.00000000000E+00 0.  1.
          1    1    1    2  502    0  0.29590419387E+02  0.12717689043E+03 -0.34361692256E+03  0.36758964056E+03  0.00000000000E+00 0. -1.
         22    1    1    2    0    0 -0.14691516755E+02 -0.87100572423E+02  0.71561460314E+02  0.11368110214E+03  0.00000000000E+00 0.  1.
         22    1    1    2    0    0  0.55633601768E+01 -0.13883657556E+02 -0.44316254856E+02  0.46772185838E+02  0.00000000000E+00 0. -1.
</event>
<event>
 6    1  0.8017648E-006  0.1406605E+03  0.7818608E-02  0.1246586E+00
          2   -1    0    0  502    0  0.00000000000E+00  0.00000000000E+00  0.26447952322E+03  0.26447952322E+03  0.00000000000E+00 0.  1.
          1   -1    0    0  501    0 -0.00000000000E+00 -0.00000000000E+00 -0.99255346311E+03  0.99255346311E+03  0.00000000000E+00 0.  1.
          2    1    1    2  501    0  0.39324919315E+03 -0.22581923394E+02 -0.43972105147E+03  0.59034691012E+03  0.00000000000E+00 0.  1.
          1    1    1    2  502    0 -0.35587771655E+03  0.21632872292E+02 -0.83600136125E+01  0.35663261227E+03  0.00000000000E+00 0.  1.
         22    1    1    2    0    0 -0.49895140152E+02 -0.22983766468E+02 -0.27754716610E+03  0.28293145449E+03  0.00000000000E+00 0.  1.
         22    1    1    2    0    0  0.12523663553E+02  0.23932817571E+02 -0.24457086980E+01  0.27122009451E+02  0.00000000000E+00 0.  1.
</event>
<event>
 6    1  0.8017648E-006  0.3060964E+02  0.7818608E-02  0.1642673E+00
          2   -1    0    0  502    0  0.00000000000E+00  0.00000000000E+00  0.13535743427E+03  0.13535743427E+03  0.00000000000E+00 0.  1.
          1   -1    0    0  501    0 -0.00000000000E+00 -0.00000000000E+00 -0.12309597855E+03  0.12309597855E+03  0.00000000000E+00 0.  1.
          2    1    1    2  501    0 -0.49852214497E+01  0.37163886632E+02  0.46349931914E+02  0.59618143974E+02  0.00000000000E+00 0.  1.
          1    1    1    2  502    0 -0.13621411994E+01 -0.52950309681E+02 -0.46538037291E+02  0.70508011168E+02  0.00000000000E+00 0.  1.
         22    1    1    2    0    0 -0.11602802159E+02  0.28911948309E+01  0.67737715486E+02  0.68785042886E+02  0.00000000000E+00 0.  1.
         22    1    1    2    0    0  0.17950164808E+02  0.12895228217E+02 -0.55288154385E+02  0.59542214795E+02  0.00000000000E+00 0.  1.
</event>
<event>
 6    1  0.8017648E-006  0.1076053E+03  0.7818608E-02  0.1339026E+00
          2   -1    0    0  502    0  0.00000000000E+00  0.00000000000E+00  0.16101938786E+03  0.16101938786E+03  0.00000000000E+00 0.  1.
          1   -1    0    0  501    0 -0.00000000000E+00 -0.00000000000E+00 -0.65260581501E+03  0.65260581501E+03  0.00000000000E+00 0.  1.
          2    1    1    2  501    0 -0.14777700252E+02  0.80629754203E+02  0.61793496599E+02  0.10265463413E+03  0.00000000000E+00 0.  1.
          1    1    1    2  502    0  0.31499810864E+02 -0.93605998231E+02 -0.57606257162E+03  0.58446762734E+03  0.00000000000E+00 0.  1.
         22    1    1    2    0    0 -0.14062393423E+01 -0.10000287462E+02 -0.48820016552E+02  0.49853558294E+02  0.00000000000E+00 0. -1.
         22    1    1    2    0    0 -0.15315871270E+02  0.22976531490E+02  0.71502664416E+02  0.76649383107E+02  0.00000000000E+00 0. -1.
</event>
<event>
 6    1  0.8017648E-006  0.5900474E+02  0.7818608E-02  0.1508185E+00
          2   -1    0    0  502    0  0.00000000000E+00  0.00000000000E+00  0.13376433837E+03  0.13376433837E+03  0.00000000000E+00 0. -1.
          1   -1    0    0  501    0 -0.00000000000E+00 -0.00000000000E+00 -0.96757800707E+02  0.96757800707E+02  0.00000000000E+00 0. -1.
          2    1    1    2  501    0  0.48057378515E+02 -0.15254500776E+02 -0.33997442385E+01  0.50534836347E+02  0.00000000000E+00 0. -1.
          1    1    1    2  502    0 -0.87749618782E+01 -0.29194265542E+02 -0.13567206125E+02  0.33367262078E+02  0.00000000000E+00 0. -1.
         22    1    1    2    0    0 -0.40296674467E+01 -0.11796940701E+02 -0.34114705853E+02  0.36321057047E+02  0.00000000000E+00 0.  1.
         22    1    1    2    0    0 -0.35252749191E+02  0.56245707020E+02  0.88088193881E+02  0.11029898361E+03  0.00000000000E+00 0. -1.
</event>
<event>
 6    1  0.8017648E-006  0.6071655E+02  0.7818608E-02  0.1507343E+00
          2   -1    0    0  502    0  0.00000000000E+00  0.00000000000E+00  0.22453855885E+03  0.22453855885E+03  0.00000000000E+00 0.  1.
          1   -1    0    0  501    0 -0.00000000000E+00 -0.00000000000E+00 -0.21264276305E+03  0.21264276305E+03  0.00000000000E+00 0.  1.
          2    1    1    2  501    0 -0.19559854407E+02  0.23846491379E+02  0.88684846633E+02  0.93894861829E+02  0.00000000000E+00 0.  1.
          1    1    1    2  502    0  0.48612552187E+02 -0.44184648929E+02 -0.16905328162E+03  0.18136834194E+03  0.00000000000E+00 0.  1.
         22    1    1    2    0    0 -0.17670955649E+02  0.22433679362E+02  0.12446586998E+03  0.12769998212E+03  0.00000000000E+00 0. -1.
         22    1    1    2    0    0 -0.11381742131E+02 -0.20955218129E+01 -0.32201639194E+02  0.34218136016E+02  0.00000000000E+00 0. -1.
</event>
<event>
 6    1  0.8017648E-006  0.1486863E+03  0.7818608E-02  0.1208358E+00
          2   -1    0    0  502    0  0.00000000000E+00  0.00000000000E+00  0.12296247862E+04  0.12296247862E+04  0.00000000000E+00 0.  1.
          1   -1    0    0  501    0 -0.00000000000E+00 -0.00000000000E+00 -0.16076691796E+03  0.16076691796E+03  0.00000000000E+00 0.  1.
          2    1    1    2  501    0  0.92476127261E+02  0.29878591397E+02  0.11414695026E+02  0.97851211539E+02  0.00000000000E+00 0.  1.
          1    1    1    2  502    0 -0.36137917422E+02 -0.15998863400E+03  0.10865943485E+04  0.10989038130E+04  0.00000000000E+00 0.  1.
         22    1    1    2    0    0  0.29367738106E+02  0.64399128717E+01  0.19105461431E+02  0.35622397108E+02  0.00000000000E+00 0.  1.
         22    1    1    2    0    0 -0.85705947945E+02  0.12367012973E+03 -0.48256636676E+02  0.15801428253E+03  0.00000000000E+00 0.  1.
</event>
<event>
 6    1  0.8017648E-006  0.6933685E+02  0.7818608E-02  0.1403570E+00
          2   -1    0    0  502    0  0.00000000000E+00  0.00000000000E+00  0.18981049574E+03  0.18981049574E+03  0.00000000000E+00 0. -1.
          1   -1    0    0  501    0 -0.00000000000E+00 -0.00000000000E+00 -0.10482597826E+03  0.10482597826E+03  0.00000000000E+00 0. -1.
          2    1    1    2  501    0  0.16605252449E+02  0.13281428820E+02  0.58211145066E+02  0.61973124580E+02  0.00000000000E+00 0. -1.
          1    1    1    2  502    0 -0.35014310966E+02 -0.81189262985E+02  0.20154022856E+02  0.90685627493E+02  0.00000000000E+00 0. -1.
         22    1    1    2    0    0  0.53347184586E+01  0.64653917293E+02 -0.51178263043E+02  0.82630520091E+02  0.00000000000E+00 0. -1.
         22    1    1    2    0    0  0.13074340058E+02  0.32539168726E+01  0.57797612604E+02  0.59347201836E+02  0.00000000000E+00 0. -1.
</event>
<event>
 6    1  0.8017648E-006  0.6049756E+02  0.7818608E-02  0.1505475E+00
          2   -1    0    0  502    0  0.00000000000E+00  0.00000000000E+00  0.28477393492E+03  0.28477393492E+03  0.00000000000E+00 0.  1.
          1   -1    0    0  501    0 -0.00000000000E+00 -0.00000000000E+00 -0.75512379881E+02  0.75512379881E+02  0.00000000000E+00 0. -1.
          2    1    1    2  501    0 -0.84570484634E+01 -0.41763709691E+02  0.16171398301E+03  0.16723379269E+03  0.00000000000E+00 0.  1.
          1    1    1    2  502    0  0.19542720154E+01  0.47958637968E+02 -0.15614855343E+02  0.50474487043E+02  0.00000000000E+00 0. -1.
         22    1    1    2    0    0  0.33449471039E+01 -0.17772625417E+02  0.10114278339E+03  0.10274686135E+03  0.00000000000E+00 0. -1.
         22    1    1    2    0    0  0.31578293440E+01  0.11577697140E+02 -0.37980356014E+02  0.39831173724E+02  0.00000000000E+00 0. -1.
</event>
<event>
 6    1  0.8017648E-006  0.6489658E+02  0.7818608E-02  0.1385475E+00
          2   -1    0    0  502    0  0.00000000000E+00  0.00000000000E+00  0.48849982517E+02  0.48849982517E+02  0.00000000000E+00 0. -1.
          1   -1    0    0  501    0 -0.00000000000E+00 -0.00000000000E+00 -0.44183440779E+03  0.44183440779E+03  0.00000000000E+00 0.  1.
          2    1    1    2  501    0  0.11897108176E+02  0.40910397261E+02 -0.80033011780E+01  0.43350370434E+02  0.00000000000E+00 0. -1.
          1    1    1    2  502    0 -0.49341903132E+02 -0.71158362656E+01 -0.24640593829E+03  0.25139837898E+03  0.00000000000E+00 0.  1.
         22    1    1    2    0    0  0.40975999561E+01  0.13422764659E+02  0.21538114989E+02  0.25707028879E+02  0.00000000000E+00 0. -1.
         22    1    1    2    0    0  0.33347195000E+02 -0.47217325654E+02 -0.16011330080E+03  0.17022861202E+03  0.00000000000E+00 0.  1.
</event>
<event>
 6    1  0.8017648E-006  0.9381634E+02  0.7818608E-02  0.1415255E+00
          2   -1    0    0  502    0  0.00000000000E+00  0.00000000000E+00  0.32486941024E+03  0.32486941024E+03  0.00000000000E+00 0. -1.
          1   -1    0    0  501    0 -0.00000000000E+00 -0.00000000000E+00 -0.30495143852E+03  0.30495143852E+03  0.00000000000E+00 0.  1.
          2    1    1    2  501    0  0.51370218698E+02 -0.37222607797E+02  0.26102716373E+03  0.26862539364E+03  0.00000000000E+00 0. -1.
          1    1    1    2  502    0 -0.12245872148E+03  0.17922329077E+01 -0.12655032710E+03  0.17610887500E+03  0.00000000000E+00 0.  1.
         22    1    1    2    0    0  0.71574138942E+02  0.47362662372E+02 -0.13584119027E+03  0.16068263169E+03  0.00000000000E+00 0. -1.
         22    1    1    2    0    0 -0.48563616304E+00 -0.11932287482E+02  0.21282325348E+02  0.24403948436E+02  0.00000000000E+00 0. -1.
</event>
<event>
 6    1  0.8017648E-006  0.1109895E+03  0.7818608E-02  0.1361309E+00
          2   -1    0    0  502    0  0.00000000000E+00  0.00000000000E+00  0.12138478016E+04  0.12138478016E+04  0.00000000000E+00 0.  1.
          1   -1    0    0  501    0 -0.00000000000E+00 -0.00000000000E+00 -0.27329293904E+02  0.27329293904E+02  0.00000000000E+00 0. -1.
          2    1    1    2  501    0 -0.44860208866E+02 -0.29671531875E+02  0.33602431692E+03  0.34030160109E+03  0.00000000000E+00 0.  1.
          1    1    1    2  502    0  0.55933984366E+02  0.93978527909E+02  0.64229673507E+03  0.65154099656E+03  0.00000000000E+00 0. -1.
         22    1    1    2    0    0  0.54541932864E+01 -0.16318610088E+02 -0.13519733475E+02  0.21882149183E+02  0.00000000000E+00 0. -1.
         22    1    1    2    0    0 -0.16527968787E+02 -0.47988385945E+02  0.22171718918E+03  0.22745234867E+03  0.00000000000E+00 0.  1.
</event>
<event>
 6    1  0.8017648E-006  0.1835604E+03  0.7818608E-02  0.1229758E+00
          2   -1    0    0  502    0  0.00000000000E+00  0.00000000000E+00  0.15616790754E+04  0.15616790754E+04  0.00000000000E+00 0. -1.
          1   -1    0    0  501    0 -0.00000000000E+00 -0.00000000000E+00 -0.26848360685E+02  0.26848360685E+02  0.00000000000E+00 0. -1.
          2    1    1    2  501    0  0.67438108671E+02  0.14399093485E+02  0.46692700937E+03  0.47199159364E+03  0.00000000000E+00 0. -1.
          1    1    1    2  502    0  0.24033862183E+02  0.94088308261E+02  0.66745521206E+03  0.67448253972E+03  0.00000000000E+00 0. -1.
         22    1    1    2    0    0 -0.26910429042E+02 -0.34848716216E+02  0.18515148770E+02  0.47764159650E+02  0.00000000000E+00 0. -1.
         22    1    1    2    0    0 -0.64561541812E+02 -0.73638685531E+02  0.38193334449E+03  0.39428914305E+03  0.00000000000E+00 0. -1.
</event>
<event>
 6    1  0.8017648E-006  0.3741410E+02  0.7818608E-02  0.1628818E+00
          2   -1    0    0  502    0  0.00000000000E+00  0.00000000000E+00  0.22769972641E+03  0.22769972641E+03  0.00000000000E+00 0.  1.
          1   -1    0    0  501    0 -0.00000000000E+00 -0.00000000000E+00 -0.11800130344E+03  0.11800130344E+03  0.00000000000E+00 0. -1.
          2    1    1    2  501    0 -0.10603603330E+02  0.17381484952E+02  0.16142211796E+03  0.16270111429E+03  0.00000000000E+00 0.  1.
          1    1    1    2  502    0  0.17952973321E+02 -0.24099827176E+02 -0.47670255923E+02  0.56352144775E+02  0.00000000000E+00 0. -1.
         22    1    1    2    0    0 -0.66246657958E+00  0.15139237988E+02  0.59904882147E+02  0.61791830317E+02  0.00000000000E+00 0.  1.
         22    1    1    2    0    0 -0.66869034114E+01 -0.84208957640E+01 -0.63958321212E+02  0.64855940476E+02  0.00000000000E+00 0. -1.
</event>
<event>
 6    1  0.8017648E-006  0.1223487E+03  0.7818608E-02  0.1244386E+00
          2   -1    0    0  502    0  0.00000000000E+00  0.00000000000E+00  0.83275771444E+03  0.83275771444E+03  0.00000000000E+00 0. -1.
          1   -1    0    0  501    0 -0.00000000000E+00 -0.00000000000E+00 -0.15659861506E+03  0.15659861506E+03  0.00000000000E+00 0. -1.
          2    1    1    2  501    0 -0.65388775985E+02  0.69856436955E+02  0.73567975048E+03  0.74187620872E+03  0.00000000000E+00 0. -1.
          1    1    1    2  502    0  0.61677177608E+02 -0.27954080149E+02 -0.92919763293E+02  0.11497646387E+03  0.00000000000E+00 0. -1.
         22    1    1    2    0    0  0.15347056785E+02 -0.48949479849E+02 -0.35428982619E+02  0.62344178067E+02  0.00000000000E+00 0.  1.
         22    1    1    2    0    0 -0.11635458408E+02  0.70471230428E+01  0.68828094810E+02  0.70159478837E+02  0.00000000000E+00 0. -1.
</event>
<event>
 6    1  0.8017648E-006  0.1388306E+03  0.7818608E-02  0.1289871E+00
          2   -1    0    0  502    0  0.00000000000E+00  0.00000000000E+00  0.38869995553E+02  0.38869995553E+02  0.00000000000E+00 0. -1.
          1   -1    0    0  501    0 -0.00000000000E+00 -0.00000000000E+00 -0.61908937061E+03  0.61908937061E+03  0.00000000000E+00 0.  1.
          2    1    1    2  501    0  0.26300699629E+02  0.11782148438E+02 -0.13003387564E+03  0.13318916862E+03  0.00000000000E+00 0. -1.
          1    1    1    2  502    0 -0.80646420911E+02  0.25357864833E+02 -0.33204757584E+03  0.34264042251E+03  0.00000000000E+00 0.  1.
         22    1    1    2    0    0  0.10434353848E+02 -0.29394920952E+02 -0.13184251312E+03  0.13548204819E+03  0.00000000000E+00 0.  1.
         22    1    1    2    0    0  0.43911367434E+02 -0.77450923188E+01  0.13704589543E+02  0.46647726841E+02  0.00000000000E+00 0. -1.
</event>
<event>
 6    1  0.8017648E-006  0.7734583E+02  0.7818608E-02  0.1436907E+00
          2   -1    0    0  502    0  0.00000000000E+00  0.00000000000E+00  0.36913347729E+03  0.36913347729E+03  0.00000000000E+00 0. -1.
          1   -1    0    0  501    0 -0.00000000000E+00 -0.00000000000E+00 -0.81886666167E+02  0.81886666167E+02  0.00000000000E+00 0. -1.
          2    1    1    2  501    0  0.75870880141E+01 -0.58523238306E+02  0.20388819420E+03  0.21225675269E+03  0.00000000000E+00 0. -1.
          1    1    1    2  502    0  0.17610263036E+02  0.61188025741E+02  0.93028710725E+02  0.11273170307E+03  0.00000000000E+00 0. -1.
         22    1    1    2    0    0 -0.15624483706E+02 -0.14624367932E+02  0.55291304058E+02  0.59288489042E+02  0.00000000000E+00 0. -1.
         22    1    1    2    0    0 -0.95728673442E+01  0.11959580497E+02 -0.64961397861E+02  0.66743198657E+02  0.00000000000E+00 0. -1.
</event>
<event>
 6    1  0.8017648E-006  0.2852805E+03  0.7818608E-02  0.1154933E+00
          2   -1    0    0  502    0  0.00000000000E+00  0.00000000000E+00  0.13808051071E+04  0.13808051071E+04  0.00000000000E+00 0. -1.
          1   -1    0    0  501    0 -0.00000000000E+00 -0.00000000000E+00 -0.12479271819E+04  0.12479271819E+04  0.00000000000E+00 0.  1.
          2    1    1    2  501    0  0.84006528113E+03  0.38610595237E+03  0.87083918800E+03  0.12700977814E+04  0.00000000000E+00 0. -1.
          1    1    1    2  502    0 -0.91836082586E+03 -0.36826665072E+03 -0.59747121736E+03  0.11558454862E+04  0.00000000000E+00 0.  1.
         22    1    1    2    0    0 -0.25520688454E+00  0.18477876978E+02  0.15685739337E+02  0.24239213822E+02  0.00000000000E+00 0.  1.
         22    1    1    2    0    0  0.78550751617E+02 -0.36317178626E+02 -0.15617578474E+03  0.17854980757E+03  0.00000000000E+00 0.  1.
</event>
<event>
 6    1  0.8017648E-006  0.6694505E+02  0.7818608E-02  0.1465131E+00
          2   -1    0    0  502    0  0.00000000000E+00  0.00000000000E+00  0.13280769274E+03  0.13280769274E+03  0.00000000000E+00 0.  1.
          1   -1    0    0  501    0 -0.00000000000E+00 -0.00000000000E+00 -0.18494496311E+03  0.18494496311E+03  0.00000000000E+00 0. -1.
          2    1    1    2  501    0  0.24379237596E+01 -0.41547208508E+02  0.67613035129E+02  0.79395443990E+02  0.00000000000E+00 0.  1.
          1    1    1    2  502    0  0.16563614373E+02  0.54484705472E+02 -0.99024417436E+02  0.11423122034E+03  0.00000000000E+00 0. -1.
         22    1    1    2    0    0 -0.10356498148E+02  0.11661381616E+02 -0.68201283030E+02  0.69961845902E+02  0.00000000000E+00 0. -1.
         22    1    1    2    0    0 -0.86450399849E+01 -0.24598878580E+02  0.47475394967E+02  0.54164145622E+02  0.00000000000E+00 0.  1.
</event>
<event>
 6    1  0.8017648E-006  0.3221642E+02  0.7818608E-02  0.1595556E+00
          2   -1    0    0  502    0  0.00000000000E+00  0.00000000000E+00  0.48645752215E+02  0.48645752215E+02  0.00000000000E+00 0.  1.
          1   -1    0    0  501    0 -0.00000000000E+00 -0.00000000000E+00 -0.35687425006E+03  0.35687425006E+03  0.00000000000E+00 0.  1.
          2    1    1    2  501    0  0.15130839189E+01  0.55241431036E+02 -0.57909927001E+02  0.80046641223E+02  0.00000000000E+00 0.  1.
          1    1    1    2  502    0 -0.32908830311E+02 -0.21160246798E+02 -0.15765559055E+03  0.16243778005E+03  0.00000000000E+00 0.  1.
         22    1    1    2    0    0  0.91545454686E+01 -0.27948916161E+02  0.27748234074E+02  0.40434046440E+02  0.00000000000E+00 0.  1.
         22    1    1    2    0    0  0.22241200923E+02 -0.61322680766E+01 -0.12041121438E+03  0.12260153456E+03  0.00000000000E+00 0.  1.
</event>
<event>
 6    1  0.8017648E-006  0.1912992E+03  0.7818608E-02  0.1225573E+00
          2   -1    0    0  502    0  0.00000000000E+00  0.00000000000E+00  0.76675983542E+03  0.76675983542E+03  0.00000000000E+00 0.  1.
          1   -1    0    0  501    0 -0.00000000000E+00 -0.00000000000E+00 -0.11844065379E+03  0.11844065379E+03  0.00000000000E+00 0. -1.
          2    1    1    2  501    0  0.17742217917E+03  0.67281829780E+02  0.50232566603E+03  0.53696978410E+03  0.00000000000E+00 0.  1.
          1    1    1    2  502    0 -0.15305667778E+03 -0.54020022807E+02  0.14701765781E+03  0.21899475150E+03  0.00000000000E+00 0. -1.
         22    1    1    2    0    0 -0.36529451462E+02 -0.21573606013E+02 -0.57168798788E+02  0.71190539086E+02  0.00000000000E+00 0. -1.
         22    1    1    2    0    0  0.12163950076E+02  0.83117990393E+01  0.56144656572E+02  0.58045414516E+02  0.00000000000E+00 0. -1.
</event>
<event>
 6    1  0.8017648E-006  0.2186449E+03  0.7818608E-02  0.1232921E+00
          2   -1    0    0  502    0  0.00000000000E+00  0.00000000000E+00  0.91037828733E+03  0.91037828733E+03  0.00000000000E+00 0.  1.
          1   -1    0    0  501    0 -0.00000000000E+00 -0.00000000000E+00 -0.68166515254E+02  0.68166515254E+02  0.00000000000E+00 0.  1.
          2    1    1    2  501    0 -0.17922186344E+01  0.97661005382E+02  0.46397078346E+03  0.47414108863E+03  0.00000000000E+00 0.  1.
          1    1    1    2  502    0  0.11675749961E+03 -0.99022250060E+02  0.11816200695E+03  0.19339074334E+03  0.00000000000E+00 0.  1.
         22    1    1    2    0    0 -0.57060527445E+01 -0.23733344808E+02 -0.34296089136E+01  0.24649399810E+02  0.00000000000E+00 0. -1.
         22    1    1    2    0    0 -0.10925922824E+03  0.25094589486E+02  0.26350859058E+03  0.28636357081E+03  0.00000000000E+00 0.  1.
</event>
<event>
 6    1  0.8017648E-006  0.9519309E+02  0.7818608E-02  0.1337757E+00
          2   -1    0    0  502    0  0.00000000000E+00  0.00000000000E+00  0.29988197820E+02  0.29988197820E+02  0.00000000000E+00 0. -1.
          1   -1    0    0  501    0 -0.00000000000E+00 -0.00000000000E+00 -0.36182997086E+03  0.36182997086E+03  0.00000000000E+00 0. -1.
          2    1    1    2  501    0  0.45981719780E+00 -0.29572654191E+02 -0.92489663857E+02  0.97103507806E+02  0.00000000000E+00 0. -1.
          1    1    1    2  502    0  0.19299562458E+02 -0.27504774230E+02 -0.38866380965E+02  0.51376855547E+02  0.00000000000E+00 0. -1.
         22    1    1    2    0    0  0.82839732791E+00  0.40764937659E+02 -0.21110423273E+03  0.21500572891E+03  0.00000000000E+00 0. -1.
         22    1    1    2    0    0 -0.20587776984E+02  0.16312490762E+02  0.10618504519E+02  0.28332076419E+02  0.00000000000E+00 0. -1.
</event>
<event>
 6    1  0.8017648E-006  0.5744149E+02  0.7818608E-02  0.1486983E+00
          2   -1    0    0  502    0  0.00000000000E+00  0.00000000000E+00  0.40721832757E+03  0.40721832757E+03  0.00000000000E+00 0.  1.
          1   -1    0    0  501    0 -0.00000000000E+00 -0.00000000000E+00 -0.17492113781E+03  0.17492113781E+03  0.00000000000E+00 0. -1.
          2    1    1    2  501    0  0.32570955966E+01 -0.69527702866E+02  0.31448559166E+03  0.32209609979E+03  0.00000000000E+00 0.  1.
          1    1    1    2  502    0  0.27325380049E+02  0.66573437116E+02 -0.10651472006E+03  0.12854604044E+03  0.00000000000E+00 0. -1.
         22    1    1    2    0    0  0.12210302702E+02 -0.61582167755E+01  0.68187450131E+02  0.69545262105E+02  0.00000000000E+00 0. -1.
         22    1    1    2    0    0 -0.42792778347E+02  0.91124825250E+01 -0.43861131983E+02  0.61952063043E+02  0.00000000000E+00 0. -1.
</event>
<event>
 6    1  0.8017648E-006  0.4029011E+02  0.7818608E-02  0.1520204E+00
          2   -1    0    0  502    0  0.00000000000E+00  0.00000000000E+00  0.12341014872E+04  0.12341014872E+04  0.00000000000E+00 0.  1.
          1   -1    0    0  501    0 -0.00000000000E+00 -0.00000000000E+00 -0.29491831926E+02  0.29491831926E+02  0.00000000000E+00 0.  1.
          2    1    1    2  501    0  0.87211317198E+01 -0.32349039792E+02  0.15026041857E+03  0.15395035532E+03  0.00000000000E+00 0.  1.
          1    1    1    2  502    0 -0.30865992799E+02  0.17336061053E+02  0.94134254665E+03  0.94200798227E+03  0.00000000000E+00 0.  1.
         22    1    1    2    0    0  0.19278336399E+02 -0.18163506067E+02  0.12828957269E+03  0.13099534979E+03  0.00000000000E+00 0.  1.
         22    1    1    2    0    0  0.28665246802E+01  0.33176484807E+02 -0.15282882682E+02  0.36639631698E+02  0.00000000000E+00 0.  1.
</event>
<event>
 6    1  0.8017648E-006  0.4621412E+02  0.7818608E-02  0.1563366E+00
          2   -1    0    0  502    0  0.00000000000E+00  0.00000000000E+00  0.28433836050E+03  0.28433836050E+03  0.00000000000E+00 0. -1.
          1   -1    0    0  501    0 -0.00000000000E+00 -0.00000000000E+00 -0.44430733741E+02  0.44430733741E+02  0.00000000000E+00 0. -1.
          2    1    1    2  501    0  0.19610076341E+02  0.12564034918E+02  0.10865719257E+03  0.11112513471E+03  0.00000000000E+00 0. -1.
          1    1    1    2  502    0 -0.39533778631E+02 -0.26719597018E+02  0.42409870494E+02  0.63839279703E+02  0.00000000000E+00 0. -1.
         22    1    1    2    0    0  0.22437702264E+02  0.18132773126E+01  0.11900537528E+03  0.12111572071E+03  0.00000000000E+00 0. -1.
         22    1    1    2    0    0 -0.25139999743E+01  0.12342284788E+02 -0.30164811589E+02  0.32688959113E+02  0.00000000000E+00 0. -1.
</event>
<event>
 6    1  0.8017648E-006  0.1821756E+03  0.7818608E-02  0.1296354E+00
          2   -1    0    0  502    0  0.00000000000E+00  0.00000000000E+00  0.61793862521E+03  0.61793862521E+03  0.00000000000E+00 0.  1.
          1   -1    0    0  501    0 -0.00000000000E+00 -0.00000000000E+00 -0.60860217728E+02  0.60860217728E+02  0.00000000000E+00 0.  1.
          2    1    1    2  501    0  0.10808145591E+00  0.44439379789E+02  0.47886844853E+02  0.65330085470E+02  0.00000000000E+00 0.  1.
          1    1    1    2  502    0 -0.71854984109E+02 -0.14038030234E+03  0.16277451218E+03  0.22663916220E+03  0.00000000000E+00 0.  1.
         22    1    1    2    0    0  0.80738043582E+02  0.10423675227E+03  0.35005864152E+03  0.37406548184E+03  0.00000000000E+00 0.  1.
         22    1    1    2    0    0 -0.89911409288E+01 -0.82958297155E+01 -0.36415910753E+01  0.12764113421E+02  0.00000000000E+00 0.  1.
</event>
<event>
 6    1  0.8017648E-006  0.4851554E+02  0.7818608E-02  0.1547590E+00
          2   -1    0    0  502    0  0.00000000000E+00  0.00000000000E+00  0.28411087900E+03  0.28411087900E+03  0.00000000000E+00 0. -1.
          1   -1    0    0  501    0 -0.00000000000E+00 -0.00000000000E+00 -0.48290376041E+02  0.48290376041E+02  0.00000000000E+00 0. -1.
          2    1    1    2  501    0  0.52361829551E+01  0.21933198745E+02  0.15676202499E+03  0.15837555145E+03  0.00000000000E+00 0. -1.
          1    1    1    2  502    0 -0.23781931776E+02 -0.14806933062E+02 -0.10936745060E+01  0.28036078000E+02  0.00000000000E+00 0. -1.
         22    1    1    2    0    0 -0.70543360122E+01 -0.11290567865E+02 -0.30002007681E+02  0.32823178460E+02  0.00000000000E+00 0. -1.
         22    1    1    2    0    0  0.25600084833E+02  0.41643021815E+01  0.11015416016E+03  0.11316644713E+03  0.00000000000E+00 0. -1.
</event>
<event>
 6    1  0.8017648E-006  0.4225183E+02  0.7818608E-02  0.1512547E+00
          2   -1    0    0  502    0  0.00000000000E+00  0.00000000000E+00  0.18232368884E+03  0.18232368884E+03  0.00000000000E+00 0. -1.
          1   -1    0    0  501    0 -0.00000000000E+00 -0.00000000000E+00 -0.12435319079E+03  0.12435319079E+03  0.00000000000E+00 0. -1.
          2    1    1    2  501    0 -0.13504769237E+02 -0.24875683608E+02  0.96666582981E+02  0.10072540242E+03  0.00000000000E+00 0. -1.
          1    1    1    2  502    0 -0.33071779459E+01  0.65376457366E+02 -0.37332411347E+02  0.75357332362E+02  0.00000000000E+00 0. -1.
         22    1    1    2    0    0  0.14447022609E+01 -0.12428456773E+02  0.60051294608E+02  0.61340946247E+02  0.00000000000E+00 0. -1.
         22    1    1    2    0    0  0.15367244922E+02 -0.28072316985E+02 -0.61414968200E+02  0.69253198600E+02  0.00000000000E+00 0. -1.
</event>
<event>
 6    1  0.8017648E-006  0.5157123E+02  0.7818608E-02  0.1462847E+00
          2   -1    0    0  502    0  0.00000000000E+00  0.00000000000E+00  0.80324811787E+02  0.80324811787E+02  0.00000000000E+00 0. -1.
          1   -1    0    0  501    0 -0.00000000000E+00 -0.00000000000E+00 -0.23876738720E+03  0.23876738720E+03  0.00000000000E+00 0. -1.
          2    1    1    2  501    0  0.19819476582E+01  0.32389197963E+02  0.36032882816E+02  0.48490791964E+02  0.00000000000E+00 0. -1.
          1    1    1    2  502    0  0.15666978032E+02 -0.28649494833E+02 -0.11632022682E+03  0.12081656725E+03  0.00000000000E+00 0. -1.
         22    1    1    2    0    0 -0.27406742966E+02 -0.22184535864E+02 -0.10786349181E+03  0.11348046553E+03  0.00000000000E+00 0. -1.
         22    1    1    2    0    0  0.97578172757E+01  0.18444832733E+02  0.29708260405E+02  0.36304374238E+02  0.00000000000E+00 0.  1.
</event>
<event>
 6    1  0.8017648E-006  0.4816587E+02  0.7818608E-02  0.1539302E+00
          2   -1    0    0  502    0  0.00000000000E+00  0.00000000000E+00  0.11301444931E+04  0.11301444931E+04  0.00000000000E+00 0.  1.
          1   -1    0    0  501    0 -0.00000000000E+00 -0.00000000000E+00 -0.12413834163E+03  0.12413834163E+03  0.00000000000E+00 0. -1.
          2    1    1    2  501    0 -0.15722473506E+02 -0.40310954346E+02  0.75464244498E+03  0.75588186179E+03  0.00000000000E+00 0.  1.
          1    1    1    2  502    0 -0.54693249560E+01  0.67148082769E+02  0.33635358789E+03  0.34303427616E+03  0.00000000000E+00 0. -1.
         22    1    1    2    0    0 -0.14231142452E+02  0.25118913119E+01  0.29023835374E+02  0.32422492706E+02  0.00000000000E+00 0.  1.
         22    1    1    2    0    0  0.35422940914E+02 -0.29349019735E+02 -0.11401371677E+03  0.12294420407E+03  0.00000000000E+00 0. -1.
</event>
<event>
 6    1  0.8017648E-006  0.1960294E+03  0.7818608E-02  0.1203448E+00
          2   -1    0    0  502    0  0.00000000000E+00  0.00000000000E+00  0.55620684529E+03  0.55620684529E+03  0.00000000000E+00 0.  1.
          1   -1    0    0  501    0 -0.00000000000E+00 -0.00000000000E+00 -0.24028765537E+03  0.24028765537E+03  0.00000000000E+00 0. -1.
          2    1    1    2  501    0 -0.17087936795E+03  0.35366413781E+02  0.33605221261E+03  0.37865767022E+03  0.00000000000E+00 0.  1.
          1    1    1    2  502    0  0.23542702237E+03 -0.10242834310E+02  0.75645681247E+02  0.24749357084E+03  0.00000000000E+00 0. -1.
         22    1    1    2    0    0 -0.97636998353E+01  0.60127461015E+01  0.28654881806E+02  0.30863979028E+02  0.00000000000E+00 0.  1.
         22    1    1    2    0    0 -0.54783954583E+02 -0.31136325572E+02 -0.12443358574E+03  0.13947928058E+03  0.00000000000E+00 0. -1.
</event>
<event>
 6    1  0.8017648E-006  0.1341737E+03  0.7818608E-02  0.1302066E+00
          2   -1    0    0  502    0  0.00000000000E+00  0.00000000000E+00  0.36317841260E+02  0.36317841260E+02  0.00000000000E+00 0. -1.
          1   -1    0    0  501    0 -0.00000000000E+00 -0.00000000000E+00 -0.59074767581E+03  0.59074767581E+03  0.00000000000E+00 0. -1.
          2    1    1    2  501    0  0.29967365117E+02  0.46641996639E+01 -0.10868024812E+03  0.11283259309E+03  0.00000000000E+00 0. -1.
          1    1    1    2  502    0 -0.97018294775E+02 -0.18392150825E+02 -0.27959985440E+03  0.29652470270E+03  0.00000000000E+00 0. -1.
         22    1    1    2    0    0 -0.18338025025E+02  0.20569734469E+02 -0.11430195811E+03  0.11757693126E+03  0.00000000000E+00 0. -1.
         22    1    1    2    0    0  0.85388954683E+02 -0.68417833072E+01 -0.51847773925E+02  0.10013129002E+03  0.00000000000E+00 0. -1.
</event>
<event>
 6    1  0.8017648E-006  0.1195333E+03  0.7818608E-02  0.1326365E+00
          2   -1    0    0  502    0  0.00000000000E+00  0.00000000000E+00  0.62246160084E+03  0.62246160084E+03  0.00000000000E+00 0. -1.
          1   -1    0    0  501    0 -0.00000000000E+00 -0.00000000000E+00 -0.43633095266E+02  0.43633095266E+02  0.00000000000E+00 0.  1.
          2    1    1    2  501    0 -0.36947442443E+01 -0.62903936711E+02  0.24351236173E+03  0.25153295351E+03  0.00000000000E+00 0. -1.
          1    1    1    2  502    0 -0.53499490754E+02  0.88462117052E+02  0.13236364527E+03  0.16795200581E+03  0.00000000000E+00 0.  1.
         22    1    1    2    0    0  0.16974493312E+02  0.18554255269E+02 -0.87698172426E+01  0.26632752510E+02  0.00000000000E+00 0.  1.
         22    1    1    2    0    0  0.40219741686E+02 -0.44112435610E+02  0.21172231581E+03  0.21997698427E+03  0.00000000000E+00 0.  1.
</event>
<event>
 6    1  0.8017648E-006  0.1105827E+03  0.7818608E-02  0.1350490E+00
          2   -1    0    0  502    0  0.00000000000E+00  0.00000000000E+00  0.14737913497E+04  0.14737913497E+04  0.00000000000E+00 0. -1.
          1   -1    0    0  501    0 -0.00000000000E+00 -0.00000000000E+00 -0.18648328398E+03  0.18648328398E+03  0.00000000000E+00 0.  1.
          2    1    1    2  501    0 -0.20919110831E+03 -0.47116143432E+01  0.12632409089E+04  0.12804533232E+04  0.00000000000E+00 0. -1.
          1    1    1    2  502    0  0.16325894571E+03 -0.39858939424E+02 -0.94321227911E+02  0.19271406913E+03  0.00000000000E+00 0.  1.
         22    1    1    2    0    0  0.52873978626E+01 -0.11977589157E+02 -0.24709350776E+02  0.27963748567E+02  0.00000000000E+00 0.  1.
         22    1    1    2    0    0  0.40644764736E+02  0.56548142924E+02  0.14309773556E+03  0.15914349277E+03  0.00000000000E+00 0. -1.
</event>
<event>
 6    1  0.8017648E-006  0.1187531E+03  0.7818608E-02  0.1282531E+00
          2   -1    0    0  502    0  0.00000000000E+00  0.00000000000E+00  0.46645684916E+03  0.46645684916E+03  0.00000000000E+00 0. -1.
          1   -1    0    0  501    0 -0.00000000000E+00 -0.00000000000E+00 -0.30538055998E+03  0.30538055998E+03  0.00000000000E+00 0. -1.
          2    1    1    2  501    0  0.90467129586E+02  0.14051172706E+03  0.34234796054E+03  0.38095928006E+03  0.00000000000E+00 0. -1.
          1    1    1    2  502    0 -0.53291663733E+02 -0.87200684156E+02 -0.22139664755E+03  0.24384510716E+03  0.00000000000E+00 0. -1.
         22    1    1    2    0    0  0.40505539172E+01 -0.13613403764E+02 -0.43465512096E+02  0.45727262009E+02  0.00000000000E+00 0. -1.
         22    1    1    2    0    0 -0.41226019770E+02 -0.39697639135E+02  0.83590488285E+02  0.10130575991E+03  0.00000000000E+00 0.  1.
</event>
<event>
 6    1  0.8017648E-006  0.5859399E+02  0.7818608E-02  0.1422760E+00
          2   -1    0    0  502    0  0.00000000000E+00  0.00000000000E+00  0.13090184348E+03  0.13090184348E+03  0.00000000000E+00 0.  1.
          1   -1    0    0  501    0 -0.00000000000E+00 -0.00000000000E+00 -0.12023655281E+03  0.12023655281E+03  0.00000000000E+00 0.  1.
          2    1    1    2  501    0 -0.29967174380E+01  0.49215064236E+02  0.50643834359E+02  0.70681686608E+02  0.00000000000E+00 0.  1.
          1    1    1    2  502    0 -0.28338112910E+02  0.15418915595E+02 -0.48084221169E+01  0.32617671969E+02  0.00000000000E+00 0.  1.
         22    1    1    2    0    0  0.28450628798E+02 -0.80972090695E+02 -0.69024709638E+02  0.11013776959E+03  0.00000000000E+00 0.  1.
         22    1    1    2    0    0  0.28842015497E+01  0.16338110863E+02  0.33854588063E+02  0.37701268123E+02  0.00000000000E+00 0.  1.
</event>
<event>
 6    1  0.8017648E-006  0.7523011E+02  0.7818608E-02  0.1360993E+00
          2   -1    0    0  502    0  0.00000000000E+00  0.00000000000E+00  0.10787732654E+03  0.10787732654E+03  0.00000000000E+00 0.  1.
          1   -1    0    0  501    0 -0.00000000000E+00 -0.00000000000E+00 -0.46105266236E+03  0.46105266236E+03  0.00000000000E+00 0.  1.
          2    1    1    2  501    0 -0.80438515920E+00 -0.55967819846E+02  0.68002855695E+02  0.88076286686E+02  0.00000000000E+00 0.  1.
          1    1    1    2  502    0  0.38479247507E+02  0.43086785863E+02 -0.28809716846E+03  0.29383175812E+03  0.00000000000E+00 0.  1.
         22    1    1    2    0    0 -0.45612953939E+02  0.31698974041E+02 -0.15034587498E+03  0.16027865936E+03  0.00000000000E+00 0. -1.
         22    1    1    2    0    0  0.79380915916E+01 -0.18817940057E+02  0.17264851934E+02  0.26743284735E+02  0.00000000000E+00 0. -1.
</event>
<event>
 6    1  0.8017648E-006  0.5820907E+02  0.7818608E-02  0.1430058E+00
          2   -1    0    0  502    0  0.00000000000E+00  0.00000000000E+00  0.44608656384E+03  0.44608656384E+03  0.00000000000E+00 0. -1.
          1   -1    0    0  501    0 -0.00000000000E+00 -0.00000000000E+00 -0.71385704758E+02  0.71385704758E+02  0.00000000000E+00 0. -1.
          2    1    1    2  501    0  0.97063535434E+02  0.23253299665E+02  0.17501328955E+03  0.20147381313E+03  0.00000000000E+00 0. -1.
          1    1    1    2  502    0 -0.83632587940E+02  0.31423519776E+02  0.23519343397E+02  0.92385100933E+02  0.00000000000E+00 0. -1.
         22    1    1    2    0    0  0.18128668469E+01 -0.35323946874E+02  0.19140567690E+03  0.19464634817E+03  0.00000000000E+00 0. -1.
         22    1    1    2    0    0 -0.15243814341E+02 -0.19352872568E+02 -0.15237450759E+02  0.28967006368E+02  0.00000000000E+00 0. -1.
</event>
<event>
 6    1  0.8017648E-006  0.6103002E+02  0.7818608E-02  0.1463401E+00
          2   -1    0    0  502    0  0.00000000000E+00  0.00000000000E+00  0.17420153194E+03  0.17420153194E+03  0.00000000000E+00 0.  1.
          1   -1    0    0  501    0 -0.00000000000E+00 -0.00000000000E+00 -0.19603856966E+03  0.19603856966E+03  0.00000000000E+00 0.  1.
          2    1    1    2  501    0 -0.35715459456E+02 -0.35473286725E+02  0.12548493960E+03  0.13520509673E+03  0.00000000000E+00 0.  1.
          1    1    1    2  502    0  0.49438019085E+02  0.18559907436E+02 -0.70729566073E+02  0.88268110958E+02  0.00000000000E+00 0.  1.
         22    1    1    2    0    0 -0.31162195183E+01  0.20874163750E+02 -0.10973378581E+03  0.11174500116E+03  0.00000000000E+00 0.  1.
         22    1    1    2    0    0 -0.10606340111E+02 -0.39607844609E+01  0.33141374562E+02  0.35021892752E+02  0.00000000000E+00 0.  1.
</event>
<event>
 6    1  0.8017648E-006  0.2460375E+03  0.7818608E-02  0.1224341E+00
          2   -1    0    0  502    0  0.00000000000E+00  0.00000000000E+00  0.94384642998E+03  0.94384642998E+03  0.00000000000E+00 0. -1.
          1   -1    0    0  501    0 -0.00000000000E+00 -0.00000000000E+00 -0.73060582328E+02  0.73060582328E+02  0.00000000000E+00 0.  1.
          2    1    1    2  501    0  0.80488478348E+02  0.87280617086E+02  0.19521545346E+03  0.22848495472E+03  0.00000000000E+00 0. -1.
          1    1    1    2  502    0 -0.12865971961E+03 -0.19664987346E+03  0.38908217731E+03  0.45454310784E+03  0.00000000000E+00 0.  1.
         22    1    1    2    0    0  0.16018577831E+02 -0.12727915336E+02 -0.37077053292E+00  0.20462945421E+02  0.00000000000E+00 0.  1.
         22    1    1    2    0    0  0.32152663430E+02  0.12209717171E+03  0.28685898742E+03  0.31341600433E+03  0.00000000000E+00 0. -1.
</event>
<event>
 6    1  0.8017648E-006  0.4566265E+02  0.7818608E-02  0.1494709E+00
          2   -1    0    0  502    0  0.00000000000E+00  0.00000000000E+00  0.17872487327E+03  0.17872487327E+03  0.00000000000E+00 0.  1.
          1   -1    0    0  501    0 -0.00000000000E+00 -0.00000000000E+00 -0.60981868871E+02  0.60981868871E+02  0.00000000000E+00 0.  1.
          2    1    1    2  501    0 -0.34499419820E+02  0.93149741655E+01  0.54367502859E+02  0.65060003680E+02  0.00000000000E+00 0.  1.
          1    1    1    2  502    0  0.24098637902E+02 -0.22288409459E+01  0.39957294421E+02  0.46715066714E+02  0.00000000000E+00 0.  1.
         22    1    1    2    0    0  0.31073068842E+02  0.90286377491E+01 -0.44563292423E+02  0.55072124877E+02  0.00000000000E+00 0.  1.
         22    1    1    2    0    0 -0.20672286924E+02 -0.16114770969E+02  0.67981499542E+02  0.72859546869E+02  0.00000000000E+00 0. -1.
</event>
<event>
 6    1  0.8017648E-006  0.6932281E+02  0.7818608E-02  0.1399165E+00
          2   -1    0    0  502    0  0.00000000000E+00  0.00000000000E+00  0.16602857252E+03  0.16602857252E+03  0.00000000000E+00 0. -1.
          1   -1    0    0  501    0 -0.00000000000E+00 -0.00000000000E+00 -0.74117485930E+02  0.74117485930E+02  0.00000000000E+00 0.  1.
          2    1    1    2  501    0 -0.21631191081E+02  0.34211428677E+02  0.39811653672E+02  0.56774096627E+02  0.00000000000E+00 0. -1.
          1    1    1    2  502    0 -0.15613553489E+01 -0.48143717909E+02 -0.10224512371E+01  0.48179879734E+02  0.00000000000E+00 0.  1.
         22    1    1    2    0    0  0.35556737258E+02 -0.13653390172E+02 -0.28877725386E+02  0.47797695039E+02  0.00000000000E+00 0.  1.
         22    1    1    2    0    0 -0.12364190828E+02  0.27585679405E+02  0.81999609543E+02  0.87394387052E+02  0.00000000000E+00 0. -1.
</event>
<event>
 6    1  0.8017648E-006  0.1044609E+03  0.7818608E-02  0.1384188E+00
          2   -1    0    0  502    0  0.00000000000E+00  0.00000000000E+00  0.77680149836E+03  0.77680149836E+03  0.00000000000E+00 0. -1.
          1   -1    0    0  501    0 -0.00000000000E+00 -0.00000000000E+00 -0.32133883883E+02  0.32133883883E+02  0.00000000000E+00 0. -1.
          2    1    1    2  501    0 -0.22662303777E+02 -0.38027766662E+02  0.10320836812E+03  0.11230163979E+03  0.00000000000E+00 0. -1.
          1    1    1    2  502    0  0.68829309460E+02  0.64869579324E+02  0.44877861755E+03  0.45863687568E+03  0.00000000000E+00 0. -1.
         22    1    1    2    0    0  0.12981734998E+02 -0.56358225047E+01 -0.15234837347E+02  0.20793946423E+02  0.00000000000E+00 0. -1.
         22    1    1    2    0    0 -0.59148740681E+02 -0.21205990157E+02  0.20791546615E+03  0.21720292035E+03  0.00000000000E+00 0. -1.
</event>
<event>
 6    1  0.8017648E-006  0.3716484E+03  0.7818608E-02  0.1179958E+00
          2   -1    0    0  502    0  0.00000000000E+00  0.00000000000E+00  0.93265492820E+03  0.93265492820E+03  0.00000000000E+00 0.  1.
          1   -1    0    0  501    0 -0.00000000000E+00 -0.00000000000E+00 -0.11474798339E+03  0.11474798339E+03  0.00000000000E+00 0.  1.
          2    1    1    2  501    0  0.10402435367E+03 -0.81563401572E+02  0.24358614971E+02  0.13441352892E+03  0.00000000000E+00 0.  1.
          1    1    1    2  502    0  0.60578779402E+02  0.18855055198E+03  0.51017228272E+03  0.54726306035E+03  0.00000000000E+00 0.  1.
         22    1    1    2    0    0  0.11963506882E+02  0.98789324329E+01  0.56958588167E+01  0.16527601477E+02  0.00000000000E+00 0. -1.
         22    1    1    2    0    0 -0.17656663995E+03 -0.11686608284E+03  0.27768018830E+03  0.34919872084E+03  0.00000000000E+00 0.  1.
</event>
<event>
 6    1  0.8017648E-006  0.1712656E+03  0.7818608E-02  0.1255692E+00
          2   -1    0    0  502    0  0.00000000000E+00  0.00000000000E+00  0.10499171345E+04  0.10499171345E+04  0.00000000000E+00 0.  1.
          1   -1    0    0  501    0 -0.00000000000E+00 -0.00000000000E+00 -0.16054999560E+03  0.16054999560E+03  0.00000000000E+00 0.  1.
          2    1    1    2  501    0  0.13211007368E+03 -0.13371546832E+02  0.79808883357E+03  0.80905973581E+03  0.00000000000E+00 0.  1.
          1    1    1    2  502    0 -0.16240382128E+03  0.67768498463E+02 -0.66389905501E+02  0.18808293411E+03  0.00000000000E+00 0.  1.
         22    1    1    2    0    0  0.56059738079E+00 -0.32082074686E+02 -0.15906554192E+02  0.35813297138E+02  0.00000000000E+00 0.  1.
         22    1    1    2    0    0  0.29733150225E+02 -0.22314876945E+02  0.17357476507E+03  0.17751116310E+03  0.00000000000E+00 0.  1.
</event>
<event>
 6    1  0.8017648E-006  0.3107467E+02  0.7818608E-02  0.1595949E+00
          2   -1    0    0  502    0  0.00000000000E+00  0.00000000000E+00  0.24616296933E+03  0.24616296933E+03  0.00000000000E+00 0. -1.
          1   -1    0    0  501    0 -0.00000000000E+00 -0.00000000000E+00 -0.19189607303E+03  0.19189607303E+03  0.00000000000E+00 0.  1.
          2    1    1    2  501    0 -0.45719057354E+02 -0.46951058905E+01  0.20483261727E+03  0.20992540895E+03  0.00000000000E+00 0. -1.
          1    1    1    2  502    0  0.50035656470E+01 -0.32143577168E+02 -0.53475609522E+02  0.62593019068E+02  0.00000000000E+00 0.  1.
         22    1    1    2    0    0  0.15878337473E+02  0.21085272061E+02  0.27150351208E+02  0.37866236537E+02  0.00000000000E+00 0.  1.
         22    1    1    2    0    0  0.24837154234E+02  0.15753410998E+02 -0.12424046265E+03  0.12767437780E+03  0.00000000000E+00 0.  1.
</event>
<event>
 6    1  0.8017648E-006  0.1205542E+03  0.7818608E-02  0.1378234E+00
          2   -1    0    0  502    0  0.00000000000E+00  0.00000000000E+00  0.39842498592E+03  0.39842498592E+03  0.00000000000E+00 0. -1.
          1   -1    0    0  501    0 -0.00000000000E+00 -0.00000000000E+00 -0.12629169442E+03  0.12629169442E+03  0.00000000000E+00 0. -1.
          2    1    1    2  501    0 -0.12303641317E+02  0.92655593677E+02  0.25640691436E+03  0.27291197181E+03  0.00000000000E+00 0. -1.
          1    1    1    2  502    0  0.18629147496E+02 -0.11016893705E+03 -0.27417736739E+02  0.11504769496E+03  0.00000000000E+00 0. -1.
         22    1    1    2    0    0 -0.13896375064E+02  0.24266040178E+02  0.87186623544E+02  0.91561221436E+02  0.00000000000E+00 0. -1.
         22    1    1    2    0    0  0.75708688851E+01 -0.67526968012E+01 -0.44042509658E+02  0.45195792135E+02  0.00000000000E+00 0. -1.
</event>
<event>
 6    1  0.8017648E-006  0.1350732E+03  0.7818608E-02  0.1294441E+00
          2   -1    0    0  502    0  0.00000000000E+00  0.00000000000E+00  0.48162986598E+03  0.48162986598E+03  0.00000000000E+00 0.  1.
          1   -1    0    0  501    0 -0.00000000000E+00 -0.00000000000E+00 -0.62520937520E+02  0.62520937520E+02  0.00000000000E+00 0.  1.
          2    1    1    2  501    0 -0.10600263015E+02 -0.47098232890E+02  0.15624741931E+03  0.16353551651E+03  0.00000000000E+00 0.  1.
          1    1    1    2  502    0 -0.42924224539E+02  0.11065256811E+03  0.68416514621E+02  0.13699379312E+03  0.00000000000E+00 0.  1.
         22    1    1    2    0    0  0.23738380840E+02  0.20090965526E+02  0.13939006585E+01  0.31130380334E+02  0.00000000000E+00 0.  1.
         22    1    1    2    0    0  0.29786106713E+02 -0.83645300742E+02  0.19305109387E+03  0.21249111354E+03  0.00000000000E+00 0.  1.
</event>
<event>
 6    1  0.8017648E-006  0.9615465E+02  0.7818608E-02  0.1288853E+00
          2   -1    0    0  502    0  0.00000000000E+00  0.00000000000E+00  0.50170055258E+03  0.50170055258E+03  0.00000000000E+00 0.  1.
          1   -1    0    0  501    0 -0.00000000000E+00 -0.00000000000E+00 -0.96611325962E+02  0.96611325962E+02  0.00000000000E+00 0. -1.
          2    1    1    2  501    0  0.63841613642E+02 -0.27523266362E+02  0.37985336669E+03  0.38616299927E+03  0.00000000000E+00 0.  1.
          1    1    1    2  502    0 -0.58599678474E+02  0.64582053103E+01 -0.34978918381E+02  0.68550386316E+02  0.00000000000E+00 0. -1.
         22    1    1    2    0    0 -0.30080413868E+02  0.20957076534E+02 -0.31651223738E+02  0.48433772509E+02  0.00000000000E+00 0. -1.
         22    1    1    2    0    0  0.24838478700E+02  0.10798451840E+00  0.91866002055E+02  0.95164720450E+02  0.00000000000E+00 0.  1.
</event>
<event>
 6    1  0.8017648E-006  0.1716616E+03  0.7818608E-02  0.1253083E+00
          2   -1    0    0  502    0  0.00000000000E+00  0.00000000000E+00  0.27905929678E+03  0.27905929678E+03  0.00000000000E+00 0. -1.
          1   -1    0    0  501    0 -0.00000000000E+00 -0.00000000000E+00 -0.20935789501E+03  0.20935789501E+03  0.00000000000E+00 0.  1.
          2    1    1    2  501    0  0.18610808296E+01 -0.12705369311E+03  0.91138976653E+02  0.15637268821E+03  0.00000000000E+00 0. -1.
          1    1    1    2  502    0  0.15886687332E+02  0.18590357772E+03  0.12569677755E+01  0.18658538799E+03  0.00000000000E+00 0.  1.
         22    1    1    2    0    0  0.29136688755E+01 -0.32407512742E+02  0.53265092942E+02  0.62417196946E+02  0.00000000000E+00 0. -1.
         22    1    1    2    0    0 -0.20661437037E+02 -0.26442371873E+02 -0.75959635605E+02  0.83041918643E+02  0.00000000000E+00 0. -1.
</event>
<event>
 6    1  0.8017648E-006  0.8496024E+02  0.7818608E-02  0.1439911E+00
          2   -1    0    0  502    0  0.00000000000E+00  0.00000000000E+00  0.17765974354E+04  0.17765974354E+04  0.00000000000E+00 0. -1.
          1   -1    0    0  501    0 -0.00000000000E+00 -0.00000000000E+00 -0.10663756166E+03  0.10663756166E+03  0.00000000000E+00 0. -1.
          2    1    1    2  501    0  0.54041567918E+02 -0.58262700557E+02  0.44633803970E+03  0.45335712085E+03  0.00000000000E+00 0. -1.
          1    1    1    2  502    0 -0.11965322915E+03  0.22601365022E+02  0.12717895858E+04  0.12776057559E+04  0.00000000000E+00 0. -1.
         22    1    1    2    0    0  0.76648825413E+02  0.36186452453E+02 -0.81237356988E+02  0.11740532334E+03  0.00000000000E+00 0. -1.
         22    1    1    2    0    0 -0.11037164183E+02 -0.52511691807E+00  0.33069605205E+02  0.34866796948E+02  0.00000000000E+00 0. -1.
</event>
<event>
 6    1  0.8017648E-006  0.1933491E+03  0.7818608E-02  0.1207826E+00
          2   -1    0    0  502    0  0.00000000000E+00  0.00000000000E+00  0.95838293999E+03  0.95838293999E+03  0.00000000000E+00 0. -1.
          1   -1    0    0  501    0 -0.00000000000E+00 -0.00000000000E+00 -0.31202092234E+03  0.31202092234E+03  0.00000000000E+00 0.  1.
          2    1    1    2  501    0  0.10230081694E+02 -0.78057537798E+02  0.28927453884E+03  0.29979558469E+03  0.00000000000E+00 0. -1.
          1    1    1    2  502    0  0.99510066655E+02  0.18695944292E+03 -0.25215958406E+03  0.32930311644E+03  0.00000000000E+00 0.  1.
         22    1    1    2    0    0 -0.59171181733E+02 -0.84251224628E+01  0.77923930364E+02  0.98205653399E+02  0.00000000000E+00 0. -1.
         22    1    1    2    0    0 -0.50568966617E+02 -0.10047678266E+03  0.53132313251E+03  0.54309950781E+03  0.00000000000E+00 0. -1.
</event>
<event>
 6    1  0.8017648E-006  0.3838492E+03  0.7818608E-02  0.1139118E+00
          2   -1    0    0  502    0  0.00000000000E+00  0.00000000000E+00  0.99112335282E+03  0.99112335282E+03  0.00000000000E+00 0.  1.
          1   -1    0    0  501    0 -0.00000000000E+00 -0.00000000000E+00 -0.17991016970E+03  0.17991016970E+03  0.00000000000E+00 0.  1.
          2    1    1    2  501    0  0.19528832725E+03 -0.21084244542E+03  0.23596041209E+03  0.37184591382E+03  0.00000000000E+00 0.  1.
          1    1    1    2  502    0 -0.30791690440E+03  0.21348617947E+03  0.47880187611E+03  0.60798059624E+03  0.00000000000E+00 0.  1.
         22    1    1    2    0    0  0.31989705582E+02  0.17528625396E+02 -0.24864674381E+02  0.44145735962E+02  0.00000000000E+00 0. -1.
         22    1    1    2    0    0  0.80638871562E+02 -0.20172359448E+02  0.12131556930E+03  0.14706127650E+03  0.00000000000E+00 0.  1.
</event>
<event>
 6    1  0.8017648E-006  0.1713464E+03  0.7818608E-02  0.1239777E+00
          2   -1    0    0  502    0  0.00000000000E+00  0.00000000000E+00  0.48778532614E+03  0.48778532614E+03  0.00000000000E+00 0. -1.
          1   -1    0    0  501    0 -0.00000000000E+00 -0.00000000000E+00 -0.12164766856E+03  0.12164766856E+03  0.00000000000E+00 0. -1.
          2    1    1    2  501    0 -0.15259307084E+03 -0.47611350237E+02  0.30474180355E+03  0.34412069507E+03  0.00000000000E+00 0. -1.
          1    1    1    2  502    0  0.12803168891E+03  0.41157517336E+02  0.30469998934E+02  0.13789298544E+03  0.00000000000E+00 0. -1.
         22    1    1    2    0    0  0.37208821012E+02  0.23647786006E+02 -0.36159942937E+02  0.57019782684E+02  0.00000000000E+00 0. -1.
         22    1    1    2    0    0 -0.12647439083E+02 -0.17193953105E+02  0.67085798030E+02  0.70399531504E+02  0.00000000000E+00 0. -1.
</event>
<event>
 6    1  0.8017648E-006  0.1969784E+03  0.7818608E-02  0.1273101E+00
          2   -1    0    0  502    0  0.00000000000E+00  0.00000000000E+00  0.13396155364E+04  0.13396155364E+04  0.00000000000E+00 0.  1.
          1   -1    0    0  501    0 -0.00000000000E+00 -0.00000000000E+00 -0.53656804851E+02  0.53656804851E+02  0.00000000000E+00 0.  1.
          2    1    1    2  501    0 -0.25833394612E+02  0.14166914664E+03  0.75079367607E+03  0.76447933616E+03  0.00000000000E+00 0.  1.
          1    1    1    2  502    0  0.69381453134E+02 -0.17673836819E+03  0.33592677403E+03  0.38587178485E+03  0.00000000000E+00 0.  1.
         22    1    1    2    0    0 -0.44780564087E+02  0.20104916498E+02  0.21536412445E+03  0.22088733030E+03  0.00000000000E+00 0. -1.
         22    1    1    2    0    0  0.12325055652E+01  0.14964305048E+02 -0.16125842976E+02  0.22033889971E+02  0.00000000000E+00 0. -1.
</event>
<event>
 6    1  0.8017648E-006  0.3602439E+02  0.7818608E-02  0.1559162E+00
          2   -1    0    0  502    0  0.00000000000E+00  0.00000000000E+00  0.11631511058E+03  0.11631511058E+03  0.00000000000E+00 0. -1.
          1   -1    0    0  501    0 -0.00000000000E+00 -0.00000000000E+00 -0.26194961292E+03  0.26194961292E+03  0.00000000000E+00 0.  1.
          2    1    1    2  501    0  0.13649036060E+02 -0.40158523083E+02  0.20610481022E+02  0.47157131905E+02  0.00000000000E+00 0. -1.
          1    1    1    2  502    0  0.31405110458E+01  0.65941966585E+02 -0.18716901773E+03  0.19847026721E+03  0.00000000000E+00 0.  1.
         22    1    1    2    0    0 -0.41498862044E+00 -0.21654060604E+02  0.73913895185E+02  0.77021649279E+02  0.00000000000E+00 0. -1.
         22    1    1    2    0    0 -0.16374558485E+02 -0.41293828982E+01 -0.52989860818E+02  0.55615675113E+02  0.00000000000E+00 0.  1.
</event>
<event>
 6    1  0.8017648E-006  0.8832514E+02  0.7818608E-02  0.1308210E+00
          2   -1    0    0  502    0  0.00000000000E+00  0.00000000000E+00  0.70225367985E+02  0.70225367985E+02  0.00000000000E+00 0. -1.
          1   -1    0    0  501    0 -0.00000000000E+00 -0.00000000000E+00 -0.33116517570E+03  0.33116517570E+03  0.00000000000E+00 0. -1.
          2    1    1    2  501    0  0.41533634699E+02 -0.12725440410E+02 -0.18008949346E-01  0.43439382698E+02  0.00000000000E+00 0. -1.
          1    1    1    2  502    0 -0.66988012950E+02  0.14058377804E+01 -0.21312984656E+03  0.22341374567E+03  0.00000000000E+00 0. -1.
         22    1    1    2    0    0  0.38386623344E+02 -0.21188073265E+01  0.33586158452E+02  0.51049507694E+02  0.00000000000E+00 0. -1.
         22    1    1    2    0    0 -0.12932245092E+02  0.13438409956E+02 -0.81378110657E+02  0.83487907623E+02  0.00000000000E+00 0.  1.
</event>
<event>
 6    1  0.8017648E-006  0.4477025E+02  0.7818608E-02  0.1491600E+00
          2   -1    0    0  502    0  0.00000000000E+00  0.00000000000E+00  0.24910798033E+03  0.24910798033E+03  0.00000000000E+00 0.  1.
          1   -1    0    0  501    0 -0.00000000000E+00 -0.00000000000E+00 -0.97828102784E+02  0.97828102784E+02  0.00000000000E+00 0. -1.
          2    1    1    2  501    0 -0.31526367896E+02  0.67971696528E+01  0.15784967383E+03  0.16111062322E+03  0.00000000000E+00 0.  1.
          1    1    1    2  502    0  0.11480238744E+02 -0.45010405686E+02 -0.19074167180E+02  0.50215100869E+02  0.00000000000E+00 0. -1.
         22    1    1    2    0    0  0.24607317040E+02  0.26064438210E+02 -0.55669980082E+02  0.66211945097E+02  0.00000000000E+00 0.  1.
         22    1    1    2    0    0 -0.45611878886E+01  0.12148797824E+02  0.68174350979E+02  0.69398413922E+02  0.00000000000E+00 0.  1.
</event>
<event>
 6    1  0.8017648E-006  0.3955111E+02  0.7818608E-02  0.1529556E+00
          2   -1    0    0  502    0  0.00000000000E+00  0.00000000000E+00  0.11653759202E+03  0.11653759202E+03  0.00000000000E+00 0.  1.
          1   -1    0    0  501    0 -0.00000000000E+00 -0.00000000000E+00 -0.13927432093E+03  0.13927432093E+03  0.00000000000E+00 0. -1.
          2    1    1    2  501    0 -0.22558205179E+02  0.61951281647E+02  0.13668854177E+02  0.67332544086E+02  0.00000000000E+00 0.  1.
          1    1    1    2  502    0  0.20220625574E+01 -0.22367409134E+02 -0.50606347388E+02  0.55365983458E+02  0.00000000000E+00 0. -1.
         22    1    1    2    0    0  0.12834069379E+02 -0.28316204066E+02  0.69509666460E+02  0.76145351013E+02  0.00000000000E+00 0. -1.
         22    1    1    2    0    0  0.77020732426E+01 -0.11267668446E+02 -0.55308902162E+02  0.56968034395E+02  0.00000000000E+00 0. -1.
</event>
<event>
 6    1  0.8017648E-006  0.9029557E+02  0.7818608E-02  0.1392655E+00
          2   -1    0    0  502    0  0.00000000000E+00  0.00000000000E+00  0.28043030622E+03  0.28043030622E+03  0.00000000000E+00 0. -1.
          1   -1    0    0  501    0 -0.00000000000E+00 -0.00000000000E+00 -0.44642876873E+02  0.44642876873E+02  0.00000000000E+00 0. -1.
          2    1    1    2  501    0  0.15889991398E+02  0.22807021076E+02  0.12075787273E+03  0.12391576116E+03  0.00000000000E+00 0. -1.
          1    1    1    2  502    0  0.24708421799E+02 -0.11421993473E+02  0.40892782650E+01  0.27526173715E+02  0.00000000000E+00 0. -1.
         22    1    1    2    0    0  0.17052142609E+02  0.86456263539E+01 -0.20914839738E+02  0.28336424331E+02  0.00000000000E+00 0. -1.
         22    1    1    2    0    0 -0.57650555805E+02 -0.20030653958E+02  0.13185511809E+03  0.14529482389E+03  0.00000000000E+00 0. -1.
</event>
<event>
 6    1  0.8017648E-006  0.7939014E+02  0.7818608E-02  0.1391400E+00
          2   -1    0    0  502    0  0.00000000000E+00  0.00000000000E+00  0.81229331404E+03  0.81229331404E+03  0.00000000000E+00 0. -1.
          1   -1    0    0  501    0 -0.00000000000E+00 -0.00000000000E+00 -0.51373114377E+02  0.51373114377E+02  0.00000000000E+00 0. -1.
          2    1    1    2  501    0  0.32193663982E+02 -0.46001670838E+02  0.68120275950E+02  0.88277730578E+02  0.00000000000E+00 0. -1.
          1    1    1    2  502    0  0.21296551209E+01  0.51609895272E+02  0.62455076655E+03  0.62668315496E+03  0.00000000000E+00 0. -1.
         22    1    1    2    0    0 -0.17467441657E+02  0.22773021015E+02 -0.32104157265E+02  0.43062732355E+02  0.00000000000E+00 0. -1.
         22    1    1    2    0    0 -0.16855877446E+02 -0.28381245449E+02  0.10035331444E+03  0.10564281053E+03  0.00000000000E+00 0. -1.
</event>
<event>
 6    1  0.8017648E-006  0.6140156E+02  0.7818608E-02  0.1457906E+00
          2   -1    0    0  502    0  0.00000000000E+00  0.00000000000E+00  0.11566543442E+03  0.11566543442E+03  0.00000000000E+00 0. -1.
          1   -1    0    0  501    0 -0.00000000000E+00 -0.00000000000E+00 -0.17994926633E+03  0.17994926633E+03  0.00000000000E+00 0.  1.
          2    1    1    2  501    0  0.36289519927E+02 -0.17759865230E+02  0.49865597092E+02  0.64178811479E+02  0.00000000000E+00 0. -1.
          1    1    1    2  502    0 -0.31714109951E+02  0.31971611932E+02 -0.98633741974E+02  0.10842778147E+03  0.00000000000E+00 0.  1.
         22    1    1    2    0    0 -0.21923466983E+02 -0.48112455853E+01 -0.65516672806E+02  0.69254753658E+02  0.00000000000E+00 0.  1.
         22    1    1    2    0    0  0.17348057007E+02 -0.94005011162E+01  0.50000985776E+02  0.53753354144E+02  0.00000000000E+00 0. -1.
</event>
<event>
 6    1  0.8017648E-006  0.1209179E+03  0.7818608E-02  0.1241924E+00
          2   -1    0    0  502    0  0.00000000000E+00  0.00000000000E+00  0.55440488582E+02  0.55440488582E+02  0.00000000000E+00 0. -1.
          1   -1    0    0  501    0 -0.00000000000E+00 -0.00000000000E+00 -0.40466965293E+03  0.40466965293E+03  0.00000000000E+00 0.  1.
          2    1    1    2  501    0  0.46619319777E+02 -0.31375101698E+02 -0.28137635608E+02  0.62844924383E+02  0.00000000000E+00 0. -1.
          1    1    1    2  502    0 -0.62877771518E+02  0.64154732415E+02 -0.20209120079E+03  0.22115672560E+03  0.00000000000E+00 0.  1.
         22    1    1    2    0    0 -0.54551737198E+01  0.26565428556E+02 -0.10876150896E+03  0.11209168901E+03  0.00000000000E+00 0.  1.
         22    1    1    2    0    0  0.21713625461E+02 -0.59345059272E+02 -0.10238818997E+02  0.64016802522E+02  0.00000000000E+00 0. -1.
</event>
<event>
 6    1  0.8017648E-006  0.5968508E+02  0.7818608E-02  0.1468406E+00
          2   -1    0    0  502    0  0.00000000000E+00  0.00000000000E+00  0.36044091040E+03  0.36044091040E+03  0.00000000000E+00 0. -1.
          1   -1    0    0  501    0 -0.00000000000E+00 -0.00000000000E+00 -0.36848417269E+02  0.36848417269E+02  0.00000000000E+00 0. -1.
          2    1    1    2  501    0 -0.31995405690E+01 -0.25953584783E+02  0.12286345180E+03  0.12561549829E+03  0.00000000000E+00 0. -1.
          1    1    1    2  502    0 -0.29520252325E+02  0.38321359970E+02  0.35055855006E+02  0.59740144772E+02  0.00000000000E+00 0. -1.
         22    1    1    2    0    0  0.20398839822E+02 -0.29367110260E+02  0.18191120283E+03  0.18539208598E+03  0.00000000000E+00 0. -1.
         22    1    1    2    0    0  0.12320953071E+02  0.16999335072E+02 -0.16238016501E+02  0.26541598622E+02  0.00000000000E+00 0. -1.
</event>
<event>
 6    1  0.8017648E-006  0.5450178E+02  0.7818608E-02  0.1447925E+00
          2   -1    0    0  502    0  0.00000000000E+00  0.00000000000E+00  0.82655843361E+02  0.82655843361E+02  0.00000000000E+00 0. -1.
          1   -1    0    0  501    0 -0.00000000000E+00 -0.00000000000E+00 -0.30762442467E+03  0.30762442467E+03  0.00000000000E+00 0. -1.
          2    1    1    2  501    0 -0.88840537388E+01 -0.39530850572E+02  0.36293098145E+02  0.54394885152E+02  0.00000000000E+00 0. -1.
          1    1    1    2  502    0 -0.18159583321E+02  0.73305661748E+02 -0.12985813218E+03  0.15022191919E+03  0.00000000000E+00 0. -1.
         22    1    1    2    0    0 -0.16959473992E+01 -0.10223443517E+02  0.23861255360E+02  0.26014506382E+02  0.00000000000E+00 0.  1.
         22    1    1    2    0    0  0.28739584459E+02 -0.23551367659E+02 -0.15526480263E+03  0.15964895731E+03  0.00000000000E+00 0. -1.
</event>
<event>
 6    1  0.8017648E-006  0.9442787E+02  0.7818608E-02  0.1367657E+00
          2   -1    0    0  502    0  0.00000000000E+00  0.00000000000E+00  0.24086481432E+03  0.24086481432E+03  0.00000000000E+00 0. -1.
          1   -1    0    0  501    0 -0.00000000000E+00 -0.00000000000E+00 -0.15597247038E+03  0.15597247038E+03  0.00000000000E+00 0.  1.
          2    1    1    2  501    0  0.49841615735E+02  0.43827664565E+02  0.90989650766E+02  0.11262400893E+03  0.00000000000E+00 0. -1.
          1    1    1    2  502    0 -0.51533570540E+02 -0.61860796642E+02 -0.10054635587E+03  0.12881008009E+03  0.00000000000E+00 0.  1.
         22    1    1    2    0    0 -0.16912854795E+02  0.11388827922E+01 -0.26726673619E+02  0.31648961975E+02  0.00000000000E+00 0. -1.
         22    1    1    2    0    0  0.18604809601E+02  0.16894249285E+02  0.12117572267E+03  0.12375423372E+03  0.00000000000E+00 0.  1.
</event>
<event>
 6    1  0.8017648E-006  0.1077984E+03  0.7818608E-02  0.1374641E+00
          2   -1    0    0  502    0  0.00000000000E+00  0.00000000000E+00  0.21609541967E+03  0.21609541967E+03  0.00000000000E+00 0. -1.
          1   -1    0    0  501    0 -0.00000000000E+00 -0.00000000000E+00 -0.17236136444E+03  0.17236136444E+03  0.00000000000E+00 0. -1.
          2    1    1    2  501    0  0.13617803810E+02  0.32164082062E+02  0.35494260462E+02  0.49797743736E+02  0.00000000000E+00 0. -1.
          1    1    1    2  502    0 -0.75448297948E+02 -0.19616746726E+02 -0.12174424018E+03  0.14456459606E+03  0.00000000000E+00 0. -1.
         22    1    1    2    0    0 -0.71634568353E+01 -0.13236051621E+02 -0.22303001000E+02  0.26905985021E+02  0.00000000000E+00 0. -1.
         22    1    1    2    0    0  0.68993950973E+02  0.68871628546E+00  0.15228703596E+03  0.16718845929E+03  0.00000000000E+00 0. -1.
</event>
<event>
 6    1  0.8017648E-006  0.1234338E+03  0.7818608E-02  0.1315827E+00
          2   -1    0    0  502    0  0.00000000000E+00  0.00000000000E+00  0.47888691888E+02  0.47888691888E+02  0.00000000000E+00 0.  1.
          1   -1    0    0  501    0 -0.00000000000E+00 -0.00000000000E+00 -0.48326369143E+03  0.48326369143E+03  0.00000000000E+00 0.  1.
          2    1    1    2  501    0 -0.22199798278E+02 -0.24519517402E+02 -0.20473174863E+02  0.38899725786E+02  0.00000000000E+00 0.  1.
          1    1    1    2  502    0  0.50256261358E+02 -0.35272974334E+02 -0.30218428396E+03  0.30835890776E+03  0.00000000000E+00 0.  1.
         22    1    1    2    0    0 -0.37768915105E+02  0.85585098241E+02 -0.32434284849E+02  0.99011528737E+02  0.00000000000E+00 0.  1.
         22    1    1    2    0    0  0.97124520244E+01 -0.25792606504E+02 -0.80283255871E+02  0.84882221035E+02  0.00000000000E+00 0.  1.
</event>
<event>
 6    1  0.8017648E-006  0.6486967E+02  0.7818608E-02  0.1433548E+00
          2   -1    0    0  502    0  0.00000000000E+00  0.00000000000E+00  0.13850225822E+04  0.13850225822E+04  0.00000000000E+00 0. -1.
          1   -1    0    0  501    0 -0.00000000000E+00 -0.00000000000E+00 -0.83460803651E+02  0.83460803651E+02  0.00000000000E+00 0.  1.
          2    1    1    2  501    0  0.25862923065E+02  0.79789358598E+02  0.11473049153E+04  0.11503668116E+04  0.00000000000E+00 0. -1.
          1    1    1    2  502    0 -0.63698043625E+02 -0.11402494052E+03  0.23293484061E+02  0.13267145217E+03  0.00000000000E+00 0.  1.
         22    1    1    2    0    0  0.12239125241E+02  0.91880532006E+01 -0.22858877524E+02  0.27508994710E+02  0.00000000000E+00 0. -1.
         22    1    1    2    0    0  0.25595995318E+02  0.25047528722E+02  0.15382225673E+03  0.15793612740E+03  0.00000000000E+00 0. -1.
</event>
<event>
 6    1  0.8017648E-006  0.5177238E+02  0.7818608E-02  0.1522618E+00
          2   -1    0    0  502    0  0.00000000000E+00  0.00000000000E+00  0.12258011709E+03  0.12258011709E+03  0.00000000000E+00 0.  1.
          1   -1    0    0  501    0 -0.00000000000E+00 -0.00000000000E+00 -0.27666496656E+03  0.27666496656E+03  0.00000000000E+00 0. -1.
          2    1    1    2  501    0 -0.22752889145E+02 -0.14213594476E+02  0.56855049845E+02  0.62866659886E+02  0.00000000000E+00 0.  1.
          1    1    1    2  502    0  0.25502376926E+02  0.44453626579E+02 -0.20224520188E+03  0.20863752737E+03  0.00000000000E+00 0. -1.
         22    1    1    2    0    0 -0.14358378175E+02 -0.20433108185E+02  0.55983630372E+02  0.61301238189E+02  0.00000000000E+00 0.  1.
         22    1    1    2    0    0  0.11608890394E+02 -0.98069239179E+01 -0.64678327818E+02  0.66439658204E+02  0.00000000000E+00 0.  1.
</event>
<event>
 6    1  0.8017648E-006  0.9058337E+02  0.7818608E-02  0.1312549E+00
          2   -1    0    0  502    0  0.00000000000E+00  0.00000000000E+00  0.57300642140E+02  0.57300642140E+02  0.00000000000E+00 0.  1.
          1   -1    0    0  501    0 -0.00000000000E+00 -0.00000000000E+00 -0.50343679840E+03  0.50343679840E+03  0.00000000000E+00 0.  1.
          2    1    1    2  501    0 -0.79077752866E+02 -0.79169606507E+01 -0.32498469825E+02  0.85861049406E+02  0.00000000000E+00 0.  1.
          1    1    1    2  502    0  0.35781890773E+02 -0.71668128424E+02 -0.12818053732E+03  0.15115195826E+03  0.00000000000E+00 0.  1.
         22    1    1    2    0    0  0.61553358815E+02  0.87127965017E+02 -0.28461712726E+03  0.30395231106E+03  0.00000000000E+00 0.  1.
         22    1    1    2    0    0 -0.18257496722E+02 -0.75428759421E+01 -0.84002185208E+00  0.19772121807E+02  0.00000000000E+00 0.  1.
</event>
<event>
 6    1  0.8017648E-006  0.2128528E+02  0.7818608E-02  0.1734357E+00
          2   -1    0    0  502    0  0.00000000000E+00  0.00000000000E+00  0.68657882178E+03  0.68657882178E+03  0.00000000000E+00 0. -1.
          1   -1    0    0  501    0 -0.00000000000E+00 -0.00000000000E+00 -0.84506099852E+02  0.84506099852E+02  0.00000000000E+00 0. -1.
          2    1    1    2  501    0 -0.10270407859E+02  0.36860038219E+02  0.61470514409E+03  0.61589492438E+03  0.00000000000E+00 0. -1.
          1    1    1    2  502    0  0.16034662127E+02 -0.19489538804E+02  0.10947914491E+02  0.27510168012E+02  0.00000000000E+00 0. -1.
         22    1    1    2    0    0  0.38954373814E+01 -0.12046743614E+02 -0.74505673768E+02  0.75573764546E+02  0.00000000000E+00 0. -1.
         22    1    1    2    0    0 -0.96596916489E+01 -0.53237558008E+01  0.50925337111E+02  0.52106064699E+02  0.00000000000E+00 0. -1.
</event>
<event>
 6    1  0.8017648E-006  0.1869527E+03  0.7818608E-02  0.1163626E+00
          2   -1    0    0  502    0  0.00000000000E+00  0.00000000000E+00  0.26073398980E+03  0.26073398980E+03  0.00000000000E+00 0. -1.
          1   -1    0    0  501    0 -0.00000000000E+00 -0.00000000000E+00 -0.51385559271E+03  0.51385559271E+03  0.00000000000E+00 0. -1.
          2    1    1    2  501    0 -0.16395877232E+03  0.25519838072E+02  0.20182010886E+03  0.26127590302E+03  0.00000000000E+00 0. -1.
          1    1    1    2  502    0  0.33232270760E+02 -0.33943618925E+02 -0.16597653156E+03  0.17264055756E+03  0.00000000000E+00 0. -1.
         22    1    1    2    0    0  0.13601998136E+03 -0.69640035956E+00 -0.29749082716E+03  0.32711269090E+03  0.00000000000E+00 0. -1.
         22    1    1    2    0    0 -0.52934797967E+01  0.91201812117E+01  0.85256469492E+01  0.13560431025E+02  0.00000000000E+00 0.  1.
</event>
<event>
 6    1  0.8017648E-006  0.1726472E+03  0.7818608E-02  0.1289935E+00
          2   -1    0    0  502    0  0.00000000000E+00  0.00000000000E+00  0.71400345750E+03  0.71400345750E+03  0.00000000000E+00 0. -1.
          1   -1    0    0  501    0 -0.00000000000E+00 -0.00000000000E+00 -0.67620689567E+02  0.67620689567E+02  0.00000000000E+00 0. -1.
          2    1    1    2  501    0  0.20622093746E+02  0.10141102509E+03  0.27781547920E+03  0.29646400666E+03  0.00000000000E+00 0. -1.
          1    1    1    2  502    0 -0.43141014274E+02 -0.15361326756E+03  0.26954670105E+03  0.31323091663E+03  0.00000000000E+00 0. -1.
         22    1    1    2    0    0 -0.33707905202E+01 -0.15845069558E+02 -0.24013807292E+02  0.28967074390E+02  0.00000000000E+00 0.  1.
         22    1    1    2    0    0  0.25889711049E+02  0.68047312029E+02  0.12303439498E+03  0.14296214940E+03  0.00000000000E+00 0. -1.
</event>
<event>
 6    1  0.8017648E-006  0.1125354E+03  0.7818608E-02  0.1275606E+00
          2   -1    0    0  502    0  0.00000000000E+00  0.00000000000E+00  0.26018865863E+03  0.26018865863E+03  0.00000000000E+00 0.  1.
          1   -1    0    0  501    0 -0.00000000000E+00 -0.00000000000E+00 -0.58141286700E+02  0.58141286700E+02  0.00000000000E+00 0.  1.
          2    1    1    2  501    0  0.21749555707E+02  0.54095435998E+02  0.26299554264E+02  0.63961128225E+02  0.00000000000E+00 0.  1.
          1    1    1    2  502    0 -0.62284928920E+01  0.26567426400E+02  0.67532377662E+01  0.28111002998E+02  0.00000000000E+00 0.  1.
         22    1    1    2    0    0  0.98714172518E+01 -0.76101901997E+02  0.26105286809E+02  0.81058191230E+02  0.00000000000E+00 0.  1.
         22    1    1    2    0    0 -0.25392480067E+02 -0.45609604015E+01  0.14288929309E+03  0.14519962287E+03  0.00000000000E+00 0.  1.
</event>
<event>
 6    1  0.8017648E-006  0.1667625E+03  0.7818608E-02  0.1291586E+00
          2   -1    0    0  502    0  0.00000000000E+00  0.00000000000E+00  0.20651037139E+03  0.20651037139E+03  0.00000000000E+00 0.  1.
          1   -1    0    0  501    0 -0.00000000000E+00 -0.00000000000E+00 -0.14344940152E+03  0.14344940152E+03  0.00000000000E+00 0.  1.
          2    1    1    2  501    0  0.90079654954E+01 -0.24290889843E+02 -0.90566073511E+01  0.27444724601E+02  0.00000000000E+00 0.  1.
          1    1    1    2  502    0 -0.13421028092E+03  0.18825740975E+02  0.17138661536E+02  0.13660359346E+03  0.00000000000E+00 0.  1.
         22    1    1    2    0    0  0.13265897805E+03  0.21218492290E+02  0.79289825572E+02  0.15599841445E+03  0.00000000000E+00 0.  1.
         22    1    1    2    0    0 -0.74566626213E+01 -0.15753343422E+02 -0.24310909883E+02  0.29913040397E+02  0.00000000000E+00 0.  1.
</event>
<event>
 6    1  0.8017648E-006  0.1051675E+03  0.7818608E-02  0.1306963E+00
          2   -1    0    0  502    0  0.00000000000E+00  0.00000000000E+00  0.33432585566E+03  0.33432585566E+03  0.00000000000E+00 0.  1.
          1   -1    0    0  501    0 -0.00000000000E+00 -0.00000000000E+00 -0.19505289898E+03  0.19505289898E+03  0.00000000000E+00 0. -1.
          2    1    1    2  501    0  0.83027299245E+02  0.13596723561E+03  0.16819544097E+03  0.23166857349E+03  0.00000000000E+00 0.  1.
          1    1    1    2  502    0 -0.48947542390E+02 -0.15416684213E+03 -0.38506616411E+02  0.16627097349E+03  0.00000000000E+00 0. -1.
         22    1    1    2    0    0  0.29407056052E+02 -0.16619723241E+02 -0.33177422253E+02  0.47346926970E+02  0.00000000000E+00 0. -1.
         22    1    1    2    0    0 -0.63486812907E+02  0.34819329759E+02  0.42761554375E+02  0.84092280684E+02  0.00000000000E+00 0.  1.
</event>
<event>
 6    1  0.8017648E-006  0.4252889E+02  0.7818608E-02  0.1553067E+00
          2   -1    0    0  502    0  0.00000000000E+00  0.00000000000E+00  0.17410425251E+03  0.17410425251E+03  0.00000000000E+00 0. -1.
          1   -1    0    0  501    0 -0.00000000000E+00 -0.00000000000E+00 -0.26180675228E+03  0.26180675228E+03  0.00000000000E+00 0. -1.
          2    1    1    2  501    0 -0.24937025061E+02  0.16357099156E+01  0.12037123258E+03  0.12293805106E+03  0.00000000000E+00 0. -1.
          1    1    1    2  502    0  0.46077005127E+02 -0.51233408969E+02 -0.85694643867E+01  0.69436217610E+02  0.00000000000E+00 0. -1.
         22    1    1    2    0    0 -0.25725663934E+02  0.31755924157E+02 -0.21537690411E+03  0.21922011616E+03  0.00000000000E+00 0. -1.
         22    1    1    2    0    0  0.45856838689E+01  0.17841774896E+02  0.15872636148E+02  0.24316619960E+02  0.00000000000E+00 0. -1.
</event>
<event>
 6    1  0.8017648E-006  0.1653848E+03  0.7818608E-02  0.1285847E+00
          2   -1    0    0  502    0  0.00000000000E+00  0.00000000000E+00  0.12505378752E+04  0.12505378752E+04  0.00000000000E+00 0.  1.
          1   -1    0    0  501    0 -0.00000000000E+00 -0.00000000000E+00 -0.30085190801E+02  0.30085190801E+02  0.00000000000E+00 0. -1.
          2    1    1    2  501    0 -0.39341982012E+02 -0.40230884536E+02  0.33534607452E+03  0.34003427079E+03  0.00000000000E+00 0.  1.
          1    1    1    2  502    0  0.15063802062E+03  0.27042905273E+02  0.43158381188E+03  0.45791671586E+03  0.00000000000E+00 0. -1.
         22    1    1    2    0    0 -0.40154509346E+01  0.19490739348E+02  0.37644669070E+01  0.20252999226E+02  0.00000000000E+00 0. -1.
         22    1    1    2    0    0 -0.10728058767E+03 -0.63027600848E+01  0.44975833106E+03  0.46241908009E+03  0.00000000000E+00 0.  1.
</event>
<event>
 6    1  0.8017648E-006  0.3602958E+02  0.7818608E-02  0.1562345E+00
          2   -1    0    0  502    0  0.00000000000E+00  0.00000000000E+00  0.24654545584E+03  0.24654545584E+03  0.00000000000E+00 0. -1.
          1   -1    0    0  501    0 -0.00000000000E+00 -0.00000000000E+00 -0.20119115162E+03  0.20119115162E+03  0.00000000000E+00 0. -1.
          2    1    1    2  501    0 -0.68197052571E+02 -0.26697493419E+02  0.14724644983E+03  0.16445397873E+03  0.00000000000E+00 0. -1.
          1    1    1    2  502    0  0.60505346469E+02 -0.40268097820E+01 -0.13659087982E+03  0.14944624652E+03  0.00000000000E+00 0. -1.
         22    1    1    2    0    0  0.81389322464E+01  0.16728771248E+02 -0.47207964497E+02  0.50741362984E+02  0.00000000000E+00 0.  1.
         22    1    1    2    0    0 -0.44722614440E+00  0.13995531953E+02  0.81906698705E+02  0.83095019217E+02  0.00000000000E+00 0. -1.
</event>
<event>
 6    1  0.8017648E-006  0.1274035E+03  0.7818608E-02  0.1360972E+00
          2   -1    0    0  502    0  0.00000000000E+00  0.00000000000E+00  0.17557593949E+03  0.17557593949E+03  0.00000000000E+00 0. -1.
          1   -1    0    0  501    0 -0.00000000000E+00 -0.00000000000E+00 -0.63502904589E+03  0.63502904589E+03  0.00000000000E+00 0.  1.
          2    1    1    2  501    0  0.20097052964E+02  0.50108729347E+02  0.41237552240E+02  0.67936087681E+02  0.00000000000E+00 0. -1.
          1    1    1    2  502    0 -0.68947335360E+02 -0.11093984457E+03 -0.56424611796E+03  0.57916756280E+03  0.00000000000E+00 0.  1.
         22    1    1    2    0    0  0.37593151506E+02  0.58791817966E+02  0.10188998175E+03  0.12349611849E+03  0.00000000000E+00 0. -1.
         22    1    1    2    0    0  0.11257130890E+02  0.20392972540E+01 -0.38334522434E+02  0.40005216403E+02  0.00000000000E+00 0.  1.
</event>
<event>
 6    1  0.8017648E-006  0.5710607E+02  0.7818608E-02  0.1430448E+00
          2   -1    0    0  502    0  0.00000000000E+00  0.00000000000E+00  0.55188241040E+03  0.55188241040E+03  0.00000000000E+00 0. -1.
          1   -1    0    0  501    0 -0.00000000000E+00 -0.00000000000E+00 -0.26362598732E+02  0.26362598732E+02  0.00000000000E+00 0. -1.
          2    1    1    2  501    0 -0.43890018704E+02 -0.50861904609E+01  0.83425054272E+02  0.94403086578E+02  0.00000000000E+00 0. -1.
          1    1    1    2  502    0  0.46795529480E+02  0.44209698422E+02  0.12658893119E+03  0.14201787392E+03  0.00000000000E+00 0. -1.
         22    1    1    2    0    0  0.27730039323E+02 -0.67790149137E+02  0.11050481304E+03  0.13257365162E+03  0.00000000000E+00 0. -1.
         22    1    1    2    0    0 -0.30635550099E+02  0.28666641176E+02  0.20500101317E+03  0.20925039700E+03  0.00000000000E+00 0. -1.
</event>
<event>
 6    1  0.8017648E-006  0.3228536E+03  0.7818608E-02  0.1148174E+00
          2   -1    0    0  502    0  0.00000000000E+00  0.00000000000E+00  0.95506968924E+03  0.95506968924E+03  0.00000000000E+00 0. -1.
          1   -1    0    0  501    0 -0.00000000000E+00 -0.00000000000E+00 -0.14425993071E+03  0.14425993071E+03  0.00000000000E+00 0. -1.
          2    1    1    2  501    0 -0.37990049044E+02 -0.15191665813E+03  0.12121649842E+02  0.15706320141E+03  0.00000000000E+00 0. -1.
          1    1    1    2  502    0  0.47282351423E+02  0.28114919220E+03  0.64009790045E+03  0.70071806827E+03  0.00000000000E+00 0. -1.
         22    1    1    2    0    0  0.64339622940E+01 -0.48922601088E+02 -0.13357492580E+02  0.51119853052E+02  0.00000000000E+00 0. -1.
         22    1    1    2    0    0 -0.15726264673E+02 -0.80309932988E+02  0.17194770082E+03  0.19042849722E+03  0.00000000000E+00 0. -1.
</event>
<event>
 6    1  0.8017648E-006  0.1830012E+03  0.7818608E-02  0.1249860E+00
          2   -1    0    0  502    0  0.00000000000E+00  0.00000000000E+00  0.12419054794E+04  0.12419054794E+04  0.00000000000E+00 0. -1.
          1   -1    0    0  501    0 -0.00000000000E+00 -0.00000000000E+00 -0.12670801510E+03  0.12670801510E+03  0.00000000000E+00 0. -1.
          2    1    1    2  501    0 -0.15189902054E+03 -0.30486377833E+02  0.37987708072E+03  0.41025519879E+03  0.00000000000E+00 0. -1.
          1    1    1    2  502    0  0.18396633171E+03  0.56560825345E+02  0.79054195007E+03  0.81363340208E+03  0.00000000000E+00 0. -1.
         22    1    1    2    0    0 -0.23365186778E+02 -0.18066633420E+02 -0.96952080408E+02  0.10135107839E+03  0.00000000000E+00 0. -1.
         22    1    1    2    0    0 -0.87021243995E+01 -0.80078140918E+01  0.41730513933E+02  0.43373815243E+02  0.00000000000E+00 0.  1.
</event>
<event>
 6    1  0.8017648E-006  0.5466699E+02  0.7818608E-02  0.1475855E+00
          2   -1    0    0  502    0  0.00000000000E+00  0.00000000000E+00  0.22699610062E+03  0.22699610062E+03  0.00000000000E+00 0. -1.
          1   -1    0    0  501    0 -0.00000000000E+00 -0.00000000000E+00 -0.65926462962E+02  0.65926462962E+02  0.00000000000E+00 0. -1.
          2    1    1    2  501    0  0.20767813557E+02  0.11281176083E+01  0.20804304031E+02  0.29417576302E+02  0.00000000000E+00 0. -1.
          1    1    1    2  502    0 -0.48275546940E+02 -0.45918809034E+01  0.12120869684E+03  0.13054946186E+03  0.00000000000E+00 0. -1.
         22    1    1    2    0    0  0.35681942623E+02 -0.19701994739E+02  0.67378468621E+02  0.78747874001E+02  0.00000000000E+00 0. -1.
         22    1    1    2    0    0 -0.81742092399E+01  0.23165758034E+02 -0.48321831826E+02  0.54207651425E+02  0.00000000000E+00 0. -1.
</event>
<event>
 6    1  0.8017648E-006  0.5804293E+02  0.7818608E-02  0.1459794E+00
          2   -1    0    0  502    0  0.00000000000E+00  0.00000000000E+00  0.10992277975E+03  0.10992277975E+03  0.00000000000E+00 0. -1.
          1   -1    0    0  501    0 -0.00000000000E+00 -0.00000000000E+00 -0.80458752590E+02  0.80458752590E+02  0.00000000000E+00 0.  1.
          2    1    1    2  501    0  0.92209454337E+01 -0.21366786399E+02  0.10693415975E+02  0.25610828587E+02  0.00000000000E+00 0. -1.
          1    1    1    2  502    0 -0.26388163725E+02  0.11463253679E+02 -0.14511034516E+02  0.32222841160E+02  0.00000000000E+00 0.  1.
         22    1    1    2    0    0  0.26982294969E+02 -0.14012097277E+02  0.76425951091E+02  0.82251499148E+02  0.00000000000E+00 0. -1.
         22    1    1    2    0    0 -0.98150766781E+01  0.23915629997E+02 -0.43144305390E+02  0.50296363446E+02  0.00000000000E+00 0.  1.
</event>
<event>
 6    1  0.8017648E-006  0.1937420E+02  0.7818608E-02  0.1796279E+00
          2   -1    0    0  502    0  0.00000000000E+00  0.00000000000E+00  0.52466031062E+03  0.52466031062E+03  0.00000000000E+00 0.  1.
          1   -1    0    0  501    0 -0.00000000000E+00 -0.00000000000E+00 -0.74507401548E+02  0.74507401548E+02  0.00000000000E+00 0.  1.
          2    1    1    2  501    0  0.14653920521E+02 -0.35280098001E+02  0.43613426006E+03  0.43780419767E+03  0.00000000000E+00 0.  1.
          1    1    1    2  502    0 -0.92662737370E+01  0.30384510253E+02 -0.17224907225E+02  0.36135574178E+02  0.00000000000E+00 0.  1.
         22    1    1    2    0    0  0.17476445593E+01 -0.12563291727E+02 -0.44965183547E+02  0.46719998843E+02  0.00000000000E+00 0.  1.
         22    1    1    2    0    0 -0.71352913438E+01  0.17458879475E+02  0.76208739784E+02  0.78507941475E+02  0.00000000000E+00 0.  1.
</event>
<event>
 6    1  0.8017648E-006  0.3119729E+03  0.7818608E-02  0.1199073E+00
          2   -1    0    0  502    0  0.00000000000E+00  0.00000000000E+00  0.15785586550E+04  0.15785586550E+04  0.00000000000E+00 0. -1.
          1   -1    0    0  501    0 -0.00000000000E+00 -0.00000000000E+00 -0.45028793789E+02  0.45028793789E+02  0.00000000000E+00 0. -1.
          2    1    1    2  501    0  0.86743096019E+02  0.67085209492E+02  0.68038329639E+03  0.68916342042E+03  0.00000000000E+00 0. -1.
          1    1    1    2  502    0 -0.17075920018E+03  0.62488234923E+02  0.47409973824E+03  0.50777361663E+03  0.00000000000E+00 0. -1.
         22    1    1    2    0    0  0.92040828247E+02 -0.14477330783E+03  0.36852082881E+03  0.40649529640E+03  0.00000000000E+00 0. -1.
         22    1    1    2    0    0 -0.80247240859E+01  0.15199863416E+02  0.10525997732E+02  0.20155115301E+02  0.00000000000E+00 0.  1.
</event>
<event>
 6    1  0.8017648E-006  0.9139540E+02  0.7818608E-02  0.1399363E+00
          2   -1    0    0  502    0  0.00000000000E+00  0.00000000000E+00  0.43291174660E+03  0.43291174660E+03  0.00000000000E+00 0.  1.
          1   -1    0    0  501    0 -0.00000000000E+00 -0.00000000000E+00 -0.41741563709E+02  0.41741563709E+02  0.00000000000E+00 0.  1.
          2    1    1    2  501    0 -0.40878699563E+02  0.30262056200E+02  0.13732708749E+03  0.14644312576E+03  0.00000000000E+00 0.  1.
          1    1    1    2  502    0  0.75441517145E+02 -0.18198472267E+02  0.71129659278E+02  0.10527124646E+03  0.00000000000E+00 0.  1.
         22    1    1    2    0    0 -0.38774229769E+02  0.39606656457E+01  0.19714850145E+03  0.20096432368E+03  0.00000000000E+00 0.  1.
         22    1    1    2    0    0  0.42114121857E+01 -0.16024249578E+02 -0.14435065335E+02  0.21974614408E+02  0.00000000000E+00 0.  1.
</event>
<event>
 6    1  0.8017648E-006  0.1431953E+03  0.7818608E-02  0.1327475E+00
          2   -1    0    0  502    0  0.00000000000E+00  0.00000000000E+00  0.78992763861E+02  0.78992763861E+02  0.00000000000E+00 0. -1.
          1   -1    0    0  501    0 -0.00000000000E+00 -0.00000000000E+00 -0.19742144727E+03  0.19742144727E+03  0.00000000000E+00 0. -1.
          2    1    1    2  501    0  0.19321322952E+02  0.78342595695E+01 -0.64245988851E+02  0.67544327867E+02  0.00000000000E+00 0. -1.
          1    1    1    2  502    0 -0.19206232066E+02  0.27280094025E+02 -0.74752178323E+02  0.81859459101E+02  0.00000000000E+00 0. -1.
         22    1    1    2    0    0 -0.74701831096E+01 -0.22800436805E+02  0.70809021004E+02  0.74763500518E+02  0.00000000000E+00 0. -1.
         22    1    1    2    0    0  0.73550922244E+01 -0.12313916790E+02 -0.50239537242E+02  0.52246923648E+02  0.00000000000E+00 0. -1.
</event>
<event>
 6    1  0.8017648E-006  0.2627405E+03  0.7818608E-02  0.1148865E+00
          2   -1    0    0  502    0  0.00000000000E+00  0.00000000000E+00  0.24302119358E+04  0.24302119358E+04  0.00000000000E+00 0. -1.
          1   -1    0    0  501    0 -0.00000000000E+00 -0.00000000000E+00 -0.41232287311E+02  0.41232287311E+02  0.00000000000E+00 0. -1.
          2    1    1    2  501    0  0.90165384839E+02 -0.74896058850E+02  0.35173146222E+03  0.37074821344E+03  0.00000000000E+00 0. -1.
          1    1    1    2  502    0 -0.27405383308E+03  0.84838608621E+02  0.12866507223E+04  0.13182462495E+04  0.00000000000E+00 0. -1.
         22    1    1    2    0    0  0.81457850391E+02  0.38419409308E+02  0.18670247034E+03  0.20729024297E+03  0.00000000000E+00 0.  1.
         22    1    1    2    0    0  0.10243059785E+03 -0.48361959079E+02  0.56389499360E+03  0.57515951723E+03  0.00000000000E+00 0. -1.
</event>
<event>
 6    1  0.8017648E-006  0.7198970E+02  0.7818608E-02  0.1468611E+00
          2   -1    0    0  502    0  0.00000000000E+00  0.00000000000E+00  0.16529014821E+03  0.16529014821E+03  0.00000000000E+00 0. -1.
          1   -1    0    0  501    0 -0.00000000000E+00 -0.00000000000E+00 -0.26125007316E+03  0.26125007316E+03  0.00000000000E+00 0. -1.
          2    1    1    2  501    0 -0.86921543735E+01 -0.23083492647E+02  0.53743804950E+02  0.59133727694E+02  0.00000000000E+00 0. -1.
          1    1    1    2  502    0  0.64011975524E+02  0.41493968000E+02 -0.20494328070E+03  0.21868020188E+03  0.00000000000E+00 0. -1.
         22    1    1    2    0    0 -0.43399512766E+02 -0.17943384021E+02  0.95668708617E+02  0.10657384551E+03  0.00000000000E+00 0.  1.
         22    1    1    2    0    0 -0.11920308385E+02 -0.46709133207E+00 -0.40429157810E+02  0.42152446282E+02  0.00000000000E+00 0.  1.
</event>
<event>
 6    1  0.8017648E-006  0.1979455E+03  0.7818608E-02  0.1270183E+00
          2   -1    0    0  502    0  0.00000000000E+00  0.00000000000E+00  0.13275362171E+04  0.13275362171E+04  0.00000000000E+00 0. -1.
          1   -1    0    0  501    0 -0.00000000000E+00 -0.00000000000E+00 -0.68770892800E+02  0.68770892800E+02  0.00000000000E+00 0. -1.
          2    1    1    2  501    0 -0.42153558370E+02 -0.33774285772E+02 -0.10653323280E+02  0.55055591538E+02  0.00000000000E+00 0. -1.
          1    1    1    2  502    0  0.12751445389E+03 -0.14804343138E+02  0.11144638589E+04  0.11218327849E+04  0.00000000000E+00 0. -1.
         22    1    1    2    0    0 -0.84784027335E+02  0.64220600317E+02  0.16813754643E+03  0.19895439506E+03  0.00000000000E+00 0.  1.
         22    1    1    2    0    0 -0.57686818311E+00 -0.15641971406E+02 -0.13182757704E+02  0.20464338423E+02  0.00000000000E+00 0. -1.
</event>
<event>
 6    1  0.8017648E-006  0.1289466E+03  0.7818608E-02  0.1274220E+00
          2   -1    0    0  502    0  0.00000000000E+00  0.00000000000E+00  0.14143190205E+04  0.14143190205E+04  0.00000000000E+00 0.  1.
          1   -1    0    0  501    0 -0.00000000000E+00 -0.00000000000E+00 -0.49958776745E+02  0.49958776745E+02  0.00000000000E+00 0. -1.
          2    1    1    2  501    0 -0.33903402051E+02 -0.55437115103E+02  0.12087161743E+04  0.12104616906E+04  0.00000000000E+00 0.  1.
          1    1    1    2  502    0  0.29951609790E+02 -0.66034658739E+00 -0.15166512992E+02  0.33579131957E+02  0.00000000000E+00 0. -1.
         22    1    1    2    0    0  0.37637643308E+02  0.36435886755E+02  0.82106042304E+01  0.53024334595E+02  0.00000000000E+00 0.  1.
         22    1    1    2    0    0 -0.33685851047E+02  0.19661574935E+02  0.16259997813E+03  0.16721264001E+03  0.00000000000E+00 0.  1.
</event>
<event>
 6    1  0.8017648E-006  0.4080090E+03  0.7818608E-02  0.1079502E+00
          2   -1    0    0  502    0  0.00000000000E+00  0.00000000000E+00  0.22441882877E+04  0.22441882877E+04  0.00000000000E+00 0.  1.
          1   -1    0    0  501    0 -0.00000000000E+00 -0.00000000000E+00 -0.18574425873E+03  0.18574425873E+03  0.00000000000E+00 0. -1.
          2    1    1    2  501    0  0.17238280851E+03 -0.34606001808E+03  0.16135803443E+04  0.16592513059E+04  0.00000000000E+00 0.  1.
          1    1    1    2  502    0 -0.29881485355E+03  0.31107181041E+03  0.22154093528E+03  0.48490862432E+03  0.00000000000E+00 0. -1.
         22    1    1    2    0    0  0.12774356112E+03  0.55033697212E+02  0.13025309958E+03  0.19055968931E+03  0.00000000000E+00 0. -1.
         22    1    1    2    0    0 -0.13115160791E+01 -0.20045489538E+02  0.93069649834E+02  0.95212926882E+02  0.00000000000E+00 0.  1.
</event>
<event>
 6    1  0.8017648E-006  0.4988166E+02  0.7818608E-02  0.1544870E+00
          2   -1    0    0  502    0  0.00000000000E+00  0.00000000000E+00  0.26863124950E+03  0.26863124950E+03  0.00000000000E+00 0.  1.
          1   -1    0    0  501    0 -0.00000000000E+00 -0.00000000000E+00 -0.17396345057E+03  0.17396345057E+03  0.00000000000E+00 0. -1.
          2    1    1    2  501    0  0.20198086301E+02 -0.31964160815E+02  0.20361638826E+03  0.20709732937E+03  0.00000000000E+00 0.  1.
          1    1    1    2  502    0 -0.30629886862E+02  0.47346596842E+02 -0.97466866504E+02  0.11260408637E+03  0.00000000000E+00 0. -1.
         22    1    1    2    0    0  0.11466208757E+02 -0.27378305165E+01  0.54470680779E+02  0.55731720983E+02  0.00000000000E+00 0.  1.
         22    1    1    2    0    0 -0.10344081965E+01 -0.12644605511E+02 -0.65952403604E+02  0.67161563338E+02  0.00000000000E+00 0.  1.
</event>
<event>
 6    1  0.8017648E-006  0.2113641E+02  0.7818608E-02  0.1735324E+00
          2   -1    0    0  502    0  0.00000000000E+00  0.00000000000E+00  0.19393779511E+03  0.19393779511E+03  0.00000000000E+00 0. -1.
          1   -1    0    0  501    0 -0.00000000000E+00 -0.00000000000E+00 -0.16212741096E+03  0.16212741096E+03  0.00000000000E+00 0.  1.
          2    1    1    2  501    0  0.10991449956E+02 -0.19058796732E+02  0.11815310729E+03  0.12018405246E+03  0.00000000000E+00 0. -1.
          1    1    1    2  502    0 -0.29480127321E+02  0.28366901104E+02 -0.99779862208E+02  0.10784145718E+03  0.00000000000E+00 0.  1.
         22    1    1    2    0    0  0.39254190014E+01 -0.12671126647E+02 -0.55724397953E+02  0.57281540588E+02  0.00000000000E+00 0.  1.
         22    1    1    2    0    0  0.14563258363E+02  0.33630222751E+01  0.69161537031E+02  0.70758155837E+02  0.00000000000E+00 0. -1.
</event>
<event>
 6    1  0.8017648E-006  0.1120345E+03  0.7818608E-02  0.1310486E+00
          2   -1    0    0  502    0  0.00000000000E+00  0.00000000000E+00  0.22423915810E+03  0.22423915810E+03  0.00000000000E+00 0. -1.
          1   -1    0    0  501    0 -0.00000000000E+00 -0.00000000000E+00 -0.97663438133E+02  0.97663438133E+02  0.00000000000E+00 0. -1.
          2    1    1    2  501    0  0.50923699644E+02  0.20475344511E+02  0.36330320590E+02  0.65820628320E+02  0.00000000000E+00 0. -1.
          1    1    1    2  502    0 -0.95955922568E+02 -0.93166030426E+01  0.23109182532E+01  0.96434840754E+02  0.00000000000E+00 0. -1.
         22    1    1    2    0    0  0.43889673602E+02  0.29415898800E+02  0.10347450856E+03  0.11618335713E+03  0.00000000000E+00 0. -1.
         22    1    1    2    0    0  0.11425493224E+01 -0.40574640268E+02 -0.15540027446E+02  0.43463770026E+02  0.00000000000E+00 0.  1.
</event>
<event>
 6    1  0.8017648E-006  0.3204593E+03  0.7818608E-02  0.1173298E+00
          2   -1    0    0  502    0  0.00000000000E+00  0.00000000000E+00  0.28039027780E+04  0.28039027780E+04  0.00000000000E+00 0.  1.
          1   -1    0    0  501    0 -0.00000000000E+00 -0.00000000000E+00 -0.41427477450E+02  0.41427477450E+02  0.00000000000E+00 0.  1.
          2    1    1    2  501    0  0.87694886263E+02  0.10740828778E+03  0.65626805865E+03  0.67075681000E+03  0.00000000000E+00 0.  1.
          1    1    1    2  502    0 -0.25294810623E+03 -0.23210228351E+02  0.16020110357E+04  0.16220236798E+04  0.00000000000E+00 0.  1.
         22    1    1    2    0    0 -0.17540475175E+00 -0.28133910799E+02  0.12567817115E+02  0.30813921053E+02  0.00000000000E+00 0. -1.
         22    1    1    2    0    0  0.16542862472E+03 -0.56064148627E+02  0.49162838908E+03  0.52173584464E+03  0.00000000000E+00 0.  1.
</event>
<event>
 6    1  0.8017648E-006  0.8679094E+02  0.7818608E-02  0.1402463E+00
          2   -1    0    0  502    0  0.00000000000E+00  0.00000000000E+00  0.23507939331E+03  0.23507939331E+03  0.00000000000E+00 0. -1.
          1   -1    0    0  501    0 -0.00000000000E+00 -0.00000000000E+00 -0.11147974173E+03  0.11147974173E+03  0.00000000000E+00 0.  1.
          2    1    1    2  501    0  0.40350482571E+02  0.50877193586E+02  0.11958311631E+03  0.13607634613E+03  0.00000000000E+00 0. -1.
          1    1    1    2  502    0 -0.65534151177E+02 -0.50887580615E+02  0.18607550710E+01  0.82992368570E+02  0.00000000000E+00 0.  1.
         22    1    1    2    0    0  0.15004098718E+02  0.15364633524E+02  0.61611006917E+02  0.65246541020E+02  0.00000000000E+00 0.  1.
         22    1    1    2    0    0  0.10179569888E+02 -0.15354246495E+02 -0.59455226716E+02  0.62243879317E+02  0.00000000000E+00 0.  1.
</event>
<event>
 6    1  0.8017648E-006  0.9627175E+02  0.7818608E-02  0.1316405E+00
          2   -1    0    0  502    0  0.00000000000E+00  0.00000000000E+00  0.21946730892E+03  0.21946730892E+03  0.00000000000E+00 0.  1.
          1   -1    0    0  501    0 -0.00000000000E+00 -0.00000000000E+00 -0.25601857303E+03  0.25601857303E+03  0.00000000000E+00 0.  1.
          2    1    1    2  501    0 -0.28299579561E+02 -0.96067266347E+01  0.12941636920E+03  0.13282225723E+03  0.00000000000E+00 0.  1.
          1    1    1    2  502    0  0.77409710032E+02  0.93553892877E+02 -0.12839355518E+03  0.17671870046E+03  0.00000000000E+00 0.  1.
         22    1    1    2    0    0 -0.22498938398E+02 -0.69626597757E+01  0.44477481090E+02  0.50328194726E+02  0.00000000000E+00 0.  1.
         22    1    1    2    0    0 -0.26611192072E+02 -0.76984506467E+02 -0.82051559222E+02  0.11561672954E+03  0.00000000000E+00 0.  1.
</event>
<event>
 6    1  0.8017648E-006  0.1557467E+03  0.7818608E-02  0.1274969E+00
          2   -1    0    0  502    0  0.00000000000E+00  0.00000000000E+00  0.49906186518E+03  0.49906186518E+03  0.00000000000E+00 0.  1.
          1   -1    0    0  501    0 -0.00000000000E+00 -0.00000000000E+00 -0.11136504474E+03  0.11136504474E+03  0.00000000000E+00 0.  1.
          2    1    1    2  501    0 -0.13736874820E+02  0.61664066940E+02  0.24038099581E+03  0.24854412491E+03  0.00000000000E+00 0.  1.
          1    1    1    2  502    0  0.27682452109E+02 -0.78702202047E+00 -0.86184134187E+02  0.90524264946E+02  0.00000000000E+00 0.  1.
         22    1    1    2    0    0  0.16480625788E+02  0.24231401763E+02  0.11174458351E+02  0.31363041581E+02  0.00000000000E+00 0.  1.
         22    1    1    2    0    0 -0.30426203077E+02 -0.85108446682E+02  0.22232550048E+03  0.23999547849E+03  0.00000000000E+00 0.  1.
</event>
<event>
 6    1  0.8017648E-006  0.1506594E+03  0.7818608E-02  0.1200848E+00
          2   -1    0    0  502    0  0.00000000000E+00  0.00000000000E+00  0.26956744787E+03  0.26956744787E+03  0.00000000000E+00 0. -1.
          1   -1    0    0  501    0 -0.00000000000E+00 -0.00000000000E+00 -0.17757696656E+03  0.17757696656E+03  0.00000000000E+00 0.  1.
          2    1    1    2  501    0 -0.43842312667E+02 -0.56738009120E+02  0.63160941339E+02  0.95554458659E+02  0.00000000000E+00 0. -1.
          1    1    1    2  502    0  0.88528219740E+02  0.82489987849E+02 -0.10805624629E+03  0.16222822242E+03  0.00000000000E+00 0.  1.
         22    1    1    2    0    0 -0.50352367154E+02 -0.49324100586E+02  0.14705255829E+03  0.16307263006E+03  0.00000000000E+00 0. -1.
         22    1    1    2    0    0  0.56664600810E+01  0.23572121857E+02 -0.10166772021E+02  0.26289103295E+02  0.00000000000E+00 0.  1.
</event>
<event>
 6    1  0.8017648E-006  0.8947128E+02  0.7818608E-02  0.1365266E+00
          2   -1    0    0  502    0  0.00000000000E+00  0.00000000000E+00  0.29058796904E+03  0.29058796904E+03  0.00000000000E+00 0. -1.
          1   -1    0    0  501    0 -0.00000000000E+00 -0.00000000000E+00 -0.76642543169E+02  0.76642543169E+02  0.00000000000E+00 0. -1.
          2    1    1    2  501    0 -0.57094724415E+01  0.64941206571E+02  0.12445098939E+03  0.14049201809E+03  0.00000000000E+00 0. -1.
          1    1    1    2  502    0  0.25819549051E+02 -0.65859580395E+02  0.61862292771E+02  0.93973808638E+02  0.00000000000E+00 0. -1.
         22    1    1    2    0    0 -0.18696956512E+02  0.31628164390E+02  0.70801923841E+02  0.79767345356E+02  0.00000000000E+00 0.  1.
         22    1    1    2    0    0 -0.14131200968E+01 -0.30709790565E+02 -0.43169780126E+02  0.52997340132E+02  0.00000000000E+00 0. -1.
</event>
<event>
 6    1  0.8017648E-006  0.2727369E+03  0.7818608E-02  0.1167274E+00
          2   -1    0    0  502    0  0.00000000000E+00  0.00000000000E+00  0.46870987124E+03  0.46870987124E+03  0.00000000000E+00 0. -1.
          1   -1    0    0  501    0 -0.00000000000E+00 -0.00000000000E+00 -0.93467473860E+03  0.93467473860E+03  0.00000000000E+00 0. -1.
          2    1    1    2  501    0  0.24004358285E+03  0.38552301347E+02 -0.71198342282E+03  0.75234805507E+03  0.00000000000E+00 0. -1.
          1    1    1    2  502    0 -0.25979670466E+03 -0.29413571393E+02  0.38430187556E+03  0.46480901184E+03  0.00000000000E+00 0. -1.
         22    1    1    2    0    0 -0.38955546281E+02 -0.35011482079E+02 -0.29986495018E+02  0.60353362349E+02  0.00000000000E+00 0.  1.
         22    1    1    2    0    0  0.58708668090E+02  0.25872752125E+02 -0.10829682509E+03  0.12587418057E+03  0.00000000000E+00 0. -1.
</event>
<event>
 6    1  0.8017648E-006  0.4815827E+02  0.7818608E-02  0.1510556E+00
          2   -1    0    0  502    0  0.00000000000E+00  0.00000000000E+00  0.11871675038E+03  0.11871675038E+03  0.00000000000E+00 0.  1.
          1   -1    0    0  501    0 -0.00000000000E+00 -0.00000000000E+00 -0.13249077235E+03  0.13249077235E+03  0.00000000000E+00 0.  1.
          2    1    1    2  501    0 -0.16760757347E+02  0.48093898898E+02  0.19664511159E+02  0.54595229619E+02  0.00000000000E+00 0.  1.
          1    1    1    2  502    0 -0.33217987793E+01 -0.60572386910E+02 -0.34543770781E+02  0.69809172054E+02  0.00000000000E+00 0.  1.
         22    1    1    2    0    0 -0.87372126395E+01 -0.15599428644E+02 -0.54959329374E+02  0.57794540780E+02  0.00000000000E+00 0.  1.
         22    1    1    2    0    0  0.28819768766E+02  0.28077916656E+02  0.56064567028E+02  0.69008580275E+02  0.00000000000E+00 0. -1.
</event>
<event>
 6    1  0.8017648E-006  0.1088096E+03  0.7818608E-02  0.1297299E+00
          2   -1    0    0  502    0  0.00000000000E+00  0.00000000000E+00  0.72999427605E+03  0.72999427605E+03  0.00000000000E+00 0. -1.
          1   -1    0    0  501    0 -0.00000000000E+00 -0.00000000000E+00 -0.45899004043E+02  0.45899004043E+02  0.00000000000E+00 0. -1.
          2    1    1    2  501    0  0.30366370908E+02  0.29909954140E+02  0.52903083352E+03  0.53074508444E+03  0.00000000000E+00 0. -1.
          1    1    1    2  502    0 -0.22271344604E+02 -0.14826408148E+02  0.11360530858E+03  0.11671332960E+03  0.00000000000E+00 0. -1.
         22    1    1    2    0    0 -0.16068757123E+02 -0.54081214806E+02 -0.15901681426E+02  0.58616091839E+02  0.00000000000E+00 0. -1.
         22    1    1    2    0    0  0.79737308191E+01  0.38997668814E+02  0.57360811329E+02  0.69818774211E+02  0.00000000000E+00 0.  1.
</event>
<event>
 6    1  0.8017648E-006  0.7048397E+02  0.7818608E-02  0.1411018E+00
          2   -1    0    0  502    0  0.00000000000E+00  0.00000000000E+00  0.35898370784E+03  0.35898370784E+03  0.00000000000E+00 0. -1.
          1   -1    0    0  501    0 -0.00000000000E+00 -0.00000000000E+00 -0.77215142832E+02  0.77215142832E+02  0.00000000000E+00 0. -1.
          2    1    1    2  501    0 -0.16441449711E+02 -0.13648239100E+02  0.64549809783E+02  0.67994658923E+02  0.00000000000E+00 0. -1.
          1    1    1    2  502    0  0.19197474686E+02  0.87766390194E+02 -0.19314186886E+02  0.91894069978E+02  0.00000000000E+00 0. -1.
         22    1    1    2    0    0 -0.85908969813E+01 -0.44612641017E+02  0.24157803093E+03  0.24581301080E+03  0.00000000000E+00 0. -1.
         22    1    1    2    0    0  0.58348720057E+01 -0.29505510077E+02 -0.50450888231E+01  0.30497110969E+02  0.00000000000E+00 0. -1.
</event>
<event>
 6    1  0.8017648E-006  0.7704270E+02  0.7818608E-02  0.1378901E+00
          2   -1    0    0  502    0  0.00000000000E+00  0.00000000000E+00  0.39273925156E+03  0.39273925156E+03  0.00000000000E+00 0.  1.
          1   -1    0    0  501    0 -0.00000000000E+00 -0.00000000000E+00 -0.24861820563E+03  0.24861820563E+03  0.00000000000E+00 0.  1.
          2    1    1    2  501    0 -0.17858669100E+03  0.51563133110E+02  0.15833963332E+03  0.24417903755E+03  0.00000000000E+00 0.  1.
          1    1    1    2  502    0  0.15475019239E+03 -0.40395922252E+02 -0.14238154711E+03  0.21413070200E+03  0.00000000000E+00 0.  1.
         22    1    1    2    0    0  0.22006059889E+02 -0.29292641272E+02  0.15011481358E+03  0.15452114018E+03  0.00000000000E+00 0.  1.
         22    1    1    2    0    0  0.18304387152E+01  0.18125430415E+02 -0.21951853860E+02  0.28526577459E+02  0.00000000000E+00 0.  1.
</event>
<event>
 6    1  0.8017648E-006  0.3046975E+02  0.7818608E-02  0.1654334E+00
          2   -1    0    0  502    0  0.00000000000E+00  0.00000000000E+00  0.20232117257E+03  0.20232117257E+03  0.00000000000E+00 0. -1.
          1   -1    0    0  501    0 -0.00000000000E+00 -0.00000000000E+00 -0.21514941259E+03  0.21514941259E+03  0.00000000000E+00 0.  1.
          2    1    1    2  501    0 -0.19719557947E+02  0.85477161484E+01  0.16947890530E+03  0.17083624838E+03  0.00000000000E+00 0. -1.
          1    1    1    2  502    0  0.33807721420E+02  0.72959209267E+01 -0.30187184644E+02  0.45907064887E+02  0.00000000000E+00 0.  1.
         22    1    1    2    0    0 -0.11033660179E+02 -0.30404784005E+02 -0.17249332650E+03  0.17549968728E+03  0.00000000000E+00 0.  1.
         22    1    1    2    0    0 -0.30545032936E+01  0.14561146930E+02  0.20373365822E+02  0.25227584609E+02  0.00000000000E+00 0.  1.
</event>
<event>
 6    1  0.8017648E-006  0.4286763E+03  0.7818608E-02  0.1178025E+00
          2   -1    0    0  502    0  0.00000000000E+00  0.00000000000E+00  0.59693594988E+02  0.59693594988E+02  0.00000000000E+00 0. -1.
          1   -1    0    0  501    0 -0.00000000000E+00 -0.00000000000E+00 -0.14393334161E+04  0.14393334161E+04  0.00000000000E+00 0. -1.
          2    1    1    2  501    0 -0.26288897772E+02 -0.10935521696E+03 -0.68099791931E+03  0.69022303332E+03  0.00000000000E+00 0. -1.
          1    1    1    2  502    0  0.30577200018E+02 -0.29385166211E+02 -0.58869610488E+03  0.59022161690E+03  0.00000000000E+00 0. -1.
         22    1    1    2    0    0 -0.88096650945E+01  0.14828361837E+03 -0.48539285790E+02  0.15627445070E+03  0.00000000000E+00 0. -1.
         22    1    1    2    0    0  0.45213628492E+01 -0.95432352005E+01 -0.61406511176E+02  0.62307910212E+02  0.00000000000E+00 0. -1.
</event>
<event>
 6    1  0.8017648E-006  0.1008983E+03  0.7818608E-02  0.1349362E+00
          2   -1    0    0  502    0  0.00000000000E+00  0.00000000000E+00  0.22956526512E+02  0.22956526512E+02  0.00000000000E+00 0.  1.
          1   -1    0    0  501    0 -0.00000000000E+00 -0.00000000000E+00 -0.77626843898E+03  0.77626843898E+03  0.00000000000E+00 0. -1.
          2    1    1    2  501    0 -0.21376400937E+01  0.24274736017E+02 -0.49879896856E+02  0.55514290270E+02  0.00000000000E+00 0.  1.
          1    1    1    2  502    0 -0.11075759701E+02  0.19338769778E+02 -0.49689833557E+03  0.49739784515E+03  0.00000000000E+00 0. -1.
         22    1    1    2    0    0  0.25652726308E+02 -0.68737129580E+02 -0.53677933094E+02  0.90907512622E+02  0.00000000000E+00 0.  1.
         22    1    1    2    0    0 -0.12439326513E+02  0.25123623784E+02 -0.15285574695E+03  0.15540531745E+03  0.00000000000E+00 0.  1.
</event>
<event>
 6    1  0.8017648E-006  0.6314115E+02  0.7818608E-02  0.1436215E+00
          2   -1    0    0  502    0  0.00000000000E+00  0.00000000000E+00  0.79463851362E+03  0.79463851362E+03  0.00000000000E+00 0.  1.
          1   -1    0    0  501    0 -0.00000000000E+00 -0.00000000000E+00 -0.18375169964E+02  0.18375169964E+02  0.00000000000E+00 0.  1.
          2    1    1    2  501    0  0.20454096372E+02  0.65750287888E+01  0.29937779136E+02  0.36849310463E+02  0.00000000000E+00 0.  1.
          1    1    1    2  502    0 -0.39466878692E+02 -0.10340369997E+02  0.47854982369E+03  0.48028584355E+03  0.00000000000E+00 0.  1.
         22    1    1    2    0    0  0.47150578636E+02 -0.45180539761E+00  0.26279752630E+03  0.26699423406E+03  0.00000000000E+00 0. -1.
         22    1    1    2    0    0 -0.28137796316E+02  0.42171466062E+01  0.49782145346E+01  0.28884295507E+02  0.00000000000E+00 0.  1.
</event>
<event>
 6    1  0.8017648E-006  0.6272437E+02  0.7818608E-02  0.1419762E+00
          2   -1    0    0  502    0  0.00000000000E+00  0.00000000000E+00  0.26716073947E+02  0.26716073947E+02  0.00000000000E+00 0.  1.
          1   -1    0    0  501    0 -0.00000000000E+00 -0.00000000000E+00 -0.21192999143E+04  0.21192999143E+04  0.00000000000E+00 0.  1.
          2    1    1    2  501    0  0.10071045227E+02  0.61331239971E+02 -0.59763260845E+02  0.86224093473E+02  0.00000000000E+00 0.  1.
          1    1    1    2  502    0  0.22841448516E+02  0.39153519856E+02 -0.15413167153E+04  0.15419831214E+04  0.00000000000E+00 0.  1.
         22    1    1    2    0    0 -0.70726113688E+01  0.16500247888E+02 -0.79484672157E+01  0.19633087965E+02  0.00000000000E+00 0.  1.
         22    1    1    2    0    0 -0.25839882374E+02 -0.11698500772E+03 -0.48355539700E+03  0.49817568540E+03  0.00000000000E+00 0.  1.
</event>
<event>
 6    1  0.8017648E-006  0.8426754E+02  0.7818608E-02  0.1405974E+00
          2   -1    0    0  502    0  0.00000000000E+00  0.00000000000E+00  0.15127527533E+03  0.15127527533E+03  0.00000000000E+00 0.  1.
          1   -1    0    0  501    0 -0.00000000000E+00 -0.00000000000E+00 -0.18449558682E+03  0.18449558682E+03  0.00000000000E+00 0.  1.
          2    1    1    2  501    0 -0.37714701509E+02 -0.17904407587E+02  0.56467056857E+02  0.70224604172E+02  0.00000000000E+00 0.  1.
          1    1    1    2  502    0  0.65033927261E+02 -0.26918463423E+02 -0.11132856705E+03  0.13171205416E+03  0.00000000000E+00 0.  1.
         22    1    1    2    0    0 -0.33087995060E+02  0.26672584466E+02  0.69982446930E+02  0.81876645372E+02  0.00000000000E+00 0.  1.
         22    1    1    2    0    0  0.57687693084E+01  0.18150286543E+02 -0.48341248217E+02  0.51957558451E+02  0.00000000000E+00 0.  1.
</event>
<event>
 6    1  0.8017648E-006  0.4922297E+02  0.7818608E-02  0.1542518E+00
          2   -1    0    0  502    0  0.00000000000E+00  0.00000000000E+00  0.15588117715E+03  0.15588117715E+03  0.00000000000E+00 0. -1.
          1   -1    0    0  501    0 -0.00000000000E+00 -0.00000000000E+00 -0.94493660427E+02  0.94493660427E+02  0.00000000000E+00 0. -1.
          2    1    1    2  501    0  0.25250059087E+02  0.11250074136E+02  0.35282421097E+02  0.44821634178E+02  0.00000000000E+00 0. -1.
          1    1    1    2  502    0 -0.29538854167E+02 -0.27605409609E+02  0.63983705144E+02  0.75686967631E+02  0.00000000000E+00 0. -1.
         22    1    1    2    0    0 -0.96601783534E+01 -0.95891337213E+01 -0.78509669577E+02  0.79680855595E+02  0.00000000000E+00 0. -1.
         22    1    1    2    0    0  0.13948973433E+02  0.25944469194E+02  0.40631060064E+02  0.50185380177E+02  0.00000000000E+00 0. -1.
</event>
<event>
 6    1  0.8017648E-006  0.4615571E+02  0.7818608E-02  0.1537568E+00
          2   -1    0    0  502    0  0.00000000000E+00  0.00000000000E+00  0.20445421287E+03  0.20445421287E+03  0.00000000000E+00 0. -1.
          1   -1    0    0  501    0 -0.00000000000E+00 -0.00000000000E+00 -0.11468283556E+03  0.11468283556E+03  0.00000000000E+00 0. -1.
          2    1    1    2  501    0 -0.15181491668E+01 -0.49900027225E+02  0.11726929156E+03  0.12745353756E+03  0.00000000000E+00 0. -1.
          1    1    1    2  502    0  0.26418762244E+02  0.20744485101E+02 -0.48347722983E+02  0.58870934919E+02  0.00000000000E+00 0. -1.
         22    1    1    2    0    0 -0.42034113109E+02  0.33216963842E+02  0.65615060080E+02  0.84708733086E+02  0.00000000000E+00 0. -1.
         22    1    1    2    0    0  0.17133500032E+02 -0.40614217181E+01 -0.44765251350E+02  0.48103842863E+02  0.00000000000E+00 0. -1.
</event>
<event>
 6    1  0.8017648E-006  0.8363645E+02  0.7818608E-02  0.1342090E+00
          2   -1    0    0  502    0  0.00000000000E+00  0.00000000000E+00  0.10822087399E+03  0.10822087399E+03  0.00000000000E+00 0. -1.
          1   -1    0    0  501    0 -0.00000000000E+00 -0.00000000000E+00 -0.58777488713E+03  0.58777488713E+03  0.00000000000E+00 0.  1.
          2    1    1    2  501    0 -0.13182860678E+02  0.67799189153E+02  0.69844227947E+02  0.98227969759E+02  0.00000000000E+00 0. -1.
          1    1    1    2  502    0  0.49716942336E+02 -0.29687274994E+02 -0.35753984426E+03  0.36219863181E+03  0.00000000000E+00 0.  1.
         22    1    1    2    0    0 -0.25110859185E+02 -0.49796126563E+02 -0.20633464667E+03  0.21373861581E+03  0.00000000000E+00 0.  1.
         22    1    1    2    0    0 -0.11423222473E+02  0.11684212403E+02  0.14476249841E+02  0.21830543754E+02  0.00000000000E+00 0. -1.
</event>
<event>
 6    1  0.8017648E-006  0.6694101E+02  0.7818608E-02  0.1453920E+00
          2   -1    0    0  502    0  0.00000000000E+00  0.00000000000E+00  0.19392876582E+03  0.19392876582E+03  0.00000000000E+00 0. -1.
          1   -1    0    0  501    0 -0.00000000000E+00 -0.00000000000E+00 -0.39634954963E+03  0.39634954963E+03  0.00000000000E+00 0.  1.
          2    1    1    2  501    0  0.20911495385E+02 -0.59918907333E+01  0.39224250502E+02  0.44852371411E+02  0.00000000000E+00 0. -1.
          1    1    1    2  502    0 -0.73074930674E+02 -0.87244746723E+01 -0.35834474990E+03  0.36582375774E+03  0.00000000000E+00 0.  1.
         22    1    1    2    0    0  0.94161827945E+01  0.15761762765E+02 -0.25324923806E+02  0.31280176304E+02  0.00000000000E+00 0.  1.
         22    1    1    2    0    0  0.42747252494E+02 -0.10453973591E+01  0.14202463940E+03  0.14832200999E+03  0.00000000000E+00 0. -1.
</event>
<event>
 6    1  0.8017648E-006  0.1695541E+03  0.7818608E-02  0.1236603E+00
          2   -1    0    0  502    0  0.00000000000E+00  0.00000000000E+00  0.62874896203E+03  0.62874896203E+03  0.00000000000E+00 0. -1.
          1   -1    0    0  501    0 -0.00000000000E+00 -0.00000000000E+00 -0.28780741601E+02  0.28780741601E+02  0.00000000000E+00 0. -1.
          2    1    1    2  501    0 -0.16703102382E+02 -0.70634842902E+02  0.14287336238E+03  0.16025315079E+03  0.00000000000E+00 0. -1.
          1    1    1    2  502    0 -0.10116505793E+02 -0.30606616606E+02  0.10625218092E+03  0.11103438486E+03  0.00000000000E+00 0. -1.
         22    1    1    2    0    0  0.47957772463E+02  0.74890872869E+01  0.47009669064E+02  0.67571764470E+02  0.00000000000E+00 0.  1.
         22    1    1    2    0    0 -0.21138164288E+02  0.93752372222E+02  0.30383300807E+03  0.31867040352E+03  0.00000000000E+00 0. -1.
</event>
<event>
 6    1  0.8017648E-006  0.9892567E+02  0.7818608E-02  0.1348655E+00
          2   -1    0    0  502    0  0.00000000000E+00  0.00000000000E+00  0.21679609880E+03  0.21679609880E+03  0.00000000000E+00 0.  1.
          1   -1    0    0  501    0 -0.00000000000E+00 -0.00000000000E+00 -0.29966335851E+03  0.29966335851E+03  0.00000000000E+00 0.  1.
          2    1    1    2  501    0 -0.42635687826E+02 -0.61923860275E+02  0.13659306172E+03  0.15591674335E+03  0.00000000000E+00 0.  1.
          1    1    1    2  502    0  0.73948213995E+02  0.41181902480E+02 -0.21751817693E+03  0.23340617974E+03  0.00000000000E+00 0.  1.
         22    1    1    2    0    0 -0.87372814222E+01  0.28811015383E+02 -0.58452910071E+02  0.65750721591E+02  0.00000000000E+00 0. -1.
         22    1    1    2    0    0 -0.22575244747E+02 -0.80690575880E+01  0.56510765577E+02  0.61385812627E+02  0.00000000000E+00 0.  1.
</event>
<event>
 6    1  0.8017648E-006  0.7842142E+02  0.7818608E-02  0.1459824E+00
          2   -1    0    0  502    0  0.00000000000E+00  0.00000000000E+00  0.30876420571E+03  0.30876420571E+03  0.00000000000E+00 0. -1.
          1   -1    0    0  501    0 -0.00000000000E+00 -0.00000000000E+00 -0.11209887232E+03  0.11209887232E+03  0.00000000000E+00 0. -1.
          2    1    1    2  501    0  0.57185661394E+01 -0.60462194307E+02  0.19694868623E+03  0.20609988827E+03  0.00000000000E+00 0. -1.
          1    1    1    2  502    0 -0.14695080298E+02  0.82404061601E+02 -0.23712531088E+02  0.86998039540E+02  0.00000000000E+00 0. -1.
         22    1    1    2    0    0  0.11140347102E+02 -0.11690707989E+02  0.74193678452E+02  0.75930770502E+02  0.00000000000E+00 0.  1.
         22    1    1    2    0    0 -0.21638329437E+01 -0.10251159305E+02 -0.50764500195E+02  0.51834379713E+02  0.00000000000E+00 0.  1.
</event>
<event>
 6    1  0.8017648E-006  0.8205152E+02  0.7818608E-02  0.1335486E+00
          2   -1    0    0  502    0  0.00000000000E+00  0.00000000000E+00  0.38596606573E+03  0.38596606573E+03  0.00000000000E+00 0. -1.
          1   -1    0    0  501    0 -0.00000000000E+00 -0.00000000000E+00 -0.10664528767E+03  0.10664528767E+03  0.00000000000E+00 0. -1.
          2    1    1    2  501    0  0.26239970978E+01 -0.75807214761E+02  0.25901750695E+03  0.26989569851E+03  0.00000000000E+00 0. -1.
          1    1    1    2  502    0  0.57797011557E+02  0.40146130865E+01  0.32560726648E+02  0.66459104591E+02  0.00000000000E+00 0. -1.
         22    1    1    2    0    0 -0.50128904949E+02  0.83013728870E+02 -0.54579082140E+02  0.11127920965E+03  0.00000000000E+00 0. -1.
         22    1    1    2    0    0 -0.10292103706E+02 -0.11221127195E+02  0.42321626603E+02  0.44977340656E+02  0.00000000000E+00 0. -1.
</event>
<event>
 6    1  0.8017648E-006  0.1335414E+03  0.7818608E-02  0.1356201E+00
          2   -1    0    0  502    0  0.00000000000E+00  0.00000000000E+00  0.43889165728E+03  0.43889165728E+03  0.00000000000E+00 0.  1.
          1   -1    0    0  501    0 -0.00000000000E+00 -0.00000000000E+00 -0.10725512545E+03  0.10725512545E+03  0.00000000000E+00 0. -1.
          2    1    1    2  501    0 -0.12033461095E+02 -0.10716158955E+03  0.25579799394E+03  0.27759867464E+03  0.00000000000E+00 0.  1.
          1    1    1    2  502    0  0.45059490559E+01  0.12147360310E+03 -0.65527364222E+01  0.12173363620E+03  0.00000000000E+00 0. -1.
         22    1    1    2    0    0  0.78412262396E+01  0.73762316737E+01 -0.30247561607E+02  0.32106208213E+02  0.00000000000E+00 0. -1.
         22    1    1    2    0    0 -0.31371420052E+00 -0.21688245232E+02  0.11263883592E+03  0.11470826367E+03  0.00000000000E+00 0.  1.
</event>
<event>
 6    1  0.8017648E-006  0.6250469E+02  0.7818608E-02  0.1462336E+00
          2   -1    0    0  502    0  0.00000000000E+00  0.00000000000E+00  0.14925656893E+03  0.14925656893E+03  0.00000000000E+00 0.  1.
          1   -1    0    0  501    0 -0.00000000000E+00 -0.00000000000E+00 -0.39357640464E+03  0.39357640464E+03  0.00000000000E+00 0. -1.
          2    1    1    2  501    0 -0.37339313203E+02 -0.26442576684E+02  0.84204141279E+02  0.95831996644E+02  0.00000000000E+00 0.  1.
          1    1    1    2  502    0  0.51475097823E+02  0.71419110773E+01 -0.31618345421E+03  0.32042576255E+03  0.00000000000E+00 0. -1.
         22    1    1    2    0    0 -0.14371253349E+02 -0.64954462055E+00  0.54735687981E+02  0.56594614318E+02  0.00000000000E+00 0. -1.
         22    1    1    2    0    0  0.23546872923E+00  0.19950210227E+02 -0.67076210770E+02  0.69980600060E+02  0.00000000000E+00 0. -1.
</event>
<event>
 6    1  0.8017648E-006  0.4137726E+03  0.7818608E-02  0.1039591E+00
          2   -1    0    0  502    0  0.00000000000E+00  0.00000000000E+00  0.55327104462E+03  0.55327104462E+03  0.00000000000E+00 0. -1.
          1   -1    0    0  501    0 -0.00000000000E+00 -0.00000000000E+00 -0.67927404100E+03  0.67927404100E+03  0.00000000000E+00 0.  1.
          2    1    1    2  501    0 -0.11400864583E+02 -0.34296722300E+03  0.28388770579E+03  0.44536358772E+03  0.00000000000E+00 0. -1.
          1    1    1    2  502    0  0.12561612140E+02  0.39084441519E+03 -0.49369779986E+03  0.62980526242E+03  0.00000000000E+00 0.  1.
         22    1    1    2    0    0  0.11725328221E+02  0.11921437968E+02 -0.26446795289E+02  0.31289566730E+02  0.00000000000E+00 0. -1.
         22    1    1    2    0    0 -0.12886075778E+02 -0.59798630155E+02  0.11025389299E+03  0.12608666875E+03  0.00000000000E+00 0. -1.
</event>
<event>
 6    1  0.8017648E-006  0.1317035E+03  0.7818608E-02  0.1320043E+00
          2   -1    0    0  502    0  0.00000000000E+00  0.00000000000E+00  0.86218719243E+03  0.86218719243E+03  0.00000000000E+00 0.  1.
          1   -1    0    0  501    0 -0.00000000000E+00 -0.00000000000E+00 -0.74267047847E+02  0.74267047847E+02  0.00000000000E+00 0.  1.
          2    1    1    2  501    0 -0.96080223468E+02 -0.23650295873E+02  0.43106976865E+03  0.44228033110E+03  0.00000000000E+00 0.  1.
          1    1    1    2  502    0  0.10746303797E+03  0.21220484746E+02  0.35368571881E+03  0.37025964025E+03  0.00000000000E+00 0.  1.
         22    1    1    2    0    0 -0.30309983739E+02  0.11611795065E+02  0.57289257435E+02  0.65845181421E+02  0.00000000000E+00 0. -1.
         22    1    1    2    0    0  0.18927169236E+02 -0.91819839376E+01 -0.54124600317E+02  0.58069087506E+02  0.00000000000E+00 0.  1.
</event>
<event>
 6    1  0.8017648E-006  0.8788431E+02  0.7818608E-02  0.1425742E+00
          2   -1    0    0  502    0  0.00000000000E+00  0.00000000000E+00  0.37920205787E+03  0.37920205787E+03  0.00000000000E+00 0. -1.
          1   -1    0    0  501    0 -0.00000000000E+00 -0.00000000000E+00 -0.12291847123E+03  0.12291847123E+03  0.00000000000E+00 0.  1.
          2    1    1    2  501    0 -0.28710247935E+02 -0.53616263721E+02  0.27039153609E+03  0.27714718988E+03  0.00000000000E+00 0. -1.
          1    1    1    2  502    0  0.48742349159E+02  0.47337421656E+02 -0.62375792943E+02  0.92235500952E+02  0.00000000000E+00 0.  1.
         22    1    1    2    0    0 -0.26592177136E+02 -0.42020431121E+01  0.87528946242E+02  0.91575747233E+02  0.00000000000E+00 0. -1.
         22    1    1    2    0    0  0.65600759115E+01  0.10480885178E+02 -0.39261102738E+02  0.41162091034E+02  0.00000000000E+00 0.  1.
</event>
<event>
 6    1  0.8017648E-006  0.5337682E+02  0.7818608E-02  0.1502148E+00
          2   -1    0    0  502    0  0.00000000000E+00  0.00000000000E+00  0.40097963844E+03  0.40097963844E+03  0.00000000000E+00 0.  1.
          1   -1    0    0  501    0 -0.00000000000E+00 -0.00000000000E+00 -0.94534636281E+02  0.94534636281E+02  0.00000000000E+00 0. -1.
          2    1    1    2  501    0 -0.32242931144E+01  0.43786489374E+02  0.32570683015E+03  0.32865269195E+03  0.00000000000E+00 0.  1.
          1    1    1    2  502    0  0.21031851710E+01 -0.36297951098E+02  0.87792991032E+01  0.37403752947E+02  0.00000000000E+00 0. -1.
         22    1    1    2    0    0 -0.63072644130E+00  0.10713274963E+02  0.49058910959E+02  0.50219008560E+02  0.00000000000E+00 0.  1.
         22    1    1    2    0    0  0.17518343847E+01 -0.18201813239E+02 -0.77100038051E+02  0.79238821270E+02  0.00000000000E+00 0. -1.
</event>
<event>
 6    1  0.8017648E-006  0.1049186E+03  0.7818608E-02  0.1325994E+00
          2   -1    0    0  502    0  0.00000000000E+00  0.00000000000E+00  0.16258319937E+03  0.16258319937E+03  0.00000000000E+00 0. -1.
          1   -1    0    0  501    0 -0.00000000000E+00 -0.00000000000E+00 -0.25523408893E+03  0.25523408893E+03  0.00000000000E+00 0.  1.
          2    1    1    2  501    0  0.38913220968E+02  0.69044389378E+02  0.85787548128E+02  0.11679413463E+03  0.00000000000E+00 0. -1.
          1    1    1    2  502    0 -0.75522165358E+02 -0.44999338894E+02 -0.13629786851E+03  0.16219015667E+03  0.00000000000E+00 0.  1.
         22    1    1    2    0    0  0.11818640765E+02 -0.35517857011E+02 -0.82214178494E+02  0.90334763970E+02  0.00000000000E+00 0.  1.
         22    1    1    2    0    0  0.24790303625E+02  0.11472806526E+02  0.40073609311E+02  0.48498233026E+02  0.00000000000E+00 0. -1.
</event>
<event>
 6    1  0.8017648E-006  0.1019859E+03  0.7818608E-02  0.1276736E+00
          2   -1    0    0  502    0  0.00000000000E+00  0.00000000000E+00  0.13323000390E+03  0.13323000390E+03  0.00000000000E+00 0.  1.
          1   -1    0    0  501    0 -0.00000000000E+00 -0.00000000000E+00 -0.24186811530E+03  0.24186811530E+03  0.00000000000E+00 0. -1.
          2    1    1    2  501    0 -0.15344905299E+02 -0.39475822983E+02  0.24668002515E+02  0.49013437616E+02  0.00000000000E+00 0.  1.
          1    1    1    2  502    0  0.20968347588E+02  0.84999293296E+02 -0.16318978432E+03  0.18519032687E+03  0.00000000000E+00 0. -1.
         22    1    1    2    0    0  0.18956621421E+01  0.98334214365E+01 -0.45768263802E+02  0.46851079855E+02  0.00000000000E+00 0. -1.
         22    1    1    2    0    0 -0.75191044317E+01 -0.55356891749E+02  0.75651934204E+02  0.94043274849E+02  0.00000000000E+00 0.  1.
</event>
<event>
 6    1  0.8017648E-006  0.6487785E+02  0.7818608E-02  0.1389640E+00
          2   -1    0    0  502    0  0.00000000000E+00  0.00000000000E+00  0.86945576708E+02  0.86945576708E+02  0.00000000000E+00 0. -1.
          1   -1    0    0  501    0 -0.00000000000E+00 -0.00000000000E+00 -0.53852671459E+03  0.53852671459E+03  0.00000000000E+00 0.  1.
          2    1    1    2  501    0  0.20731246968E+02  0.69776355105E+02  0.24414277106E+02  0.76776176377E+02  0.00000000000E+00 0. -1.
          1    1    1    2  502    0 -0.33413839242E+02 -0.82580823276E+02 -0.37813544123E+03  0.38848743730E+03  0.00000000000E+00 0.  1.
         22    1    1    2    0    0  0.48404227686E+02 -0.26578732777E+01  0.64204147210E+01  0.48900462916E+02  0.00000000000E+00 0. -1.
         22    1    1    2    0    0 -0.35721635411E+02  0.15462341449E+02 -0.10428038849E+03  0.11130821471E+03  0.00000000000E+00 0. -1.
</event>
<event>
 6    1  0.8017648E-006  0.9456334E+02  0.7818608E-02  0.1349287E+00
          2   -1    0    0  502    0  0.00000000000E+00  0.00000000000E+00  0.36926941931E+03  0.36926941931E+03  0.00000000000E+00 0.  1.
          1   -1    0    0  501    0 -0.00000000000E+00 -0.00000000000E+00 -0.10171817219E+03  0.10171817219E+03  0.00000000000E+00 0.  1.
          2    1    1    2  501    0 -0.64272303137E+02 -0.10133182393E+03  0.16084099831E+03  0.20067110960E+03  0.00000000000E+00 0.  1.
          1    1    1    2  502    0  0.46060694312E+01  0.10888122137E+03  0.25592957737E+02  0.11194344879E+03  0.00000000000E+00 0.  1.
         22    1    1    2    0    0  0.89655317908E+02 -0.78061156201E+01  0.89817514851E+02  0.12714636229E+03  0.00000000000E+00 0. -1.
         22    1    1    2    0    0 -0.29989084202E+02  0.25671818435E+00 -0.87002237797E+01  0.31226670801E+02  0.00000000000E+00 0. -1.
</event>
<event>
 6    1  0.8017648E-006  0.1046957E+03  0.7818608E-02  0.1362738E+00
          2   -1    0    0  502    0  0.00000000000E+00  0.00000000000E+00  0.90820717816E+02  0.90820717816E+02  0.00000000000E+00 0. -1.
          1   -1    0    0  501    0 -0.00000000000E+00 -0.00000000000E+00 -0.19353732632E+03  0.19353732632E+03  0.00000000000E+00 0. -1.
          2    1    1    2  501    0 -0.26770454520E+02  0.21974678140E+02 -0.25196232857E+02  0.42829824478E+02  0.00000000000E+00 0. -1.
          1    1    1    2  502    0  0.58546879914E+02 -0.67400767328E+02 -0.21708829852E+02  0.91879670643E+02  0.00000000000E+00 0. -1.
         22    1    1    2    0    0 -0.19857937841E+02 -0.24971261038E+01 -0.88298083175E+02  0.90537974499E+02  0.00000000000E+00 0.  1.
         22    1    1    2    0    0 -0.11918487553E+02  0.47923215291E+02  0.32486537375E+02  0.59110574520E+02  0.00000000000E+00 0. -1.
</event>
<event>
 6    1  0.8017648E-006  0.6372322E+02  0.7818608E-02  0.1443921E+00
          2   -1    0    0  502    0  0.00000000000E+00  0.00000000000E+00  0.67091283980E+02  0.67091283980E+02  0.00000000000E+00 0. -1.
          1   -1    0    0  501    0 -0.00000000000E+00 -0.00000000000E+00 -0.31696332010E+03  0.31696332010E+03  0.00000000000E+00 0.  1.
          2    1    1    2  501    0  0.23887276952E+02  0.28866575352E+02  0.27661554631E+02  0.46572983342E+02  0.00000000000E+00 0. -1.
          1    1    1    2  502    0 -0.30602930213E+02 -0.32820645636E+02 -0.15643835389E+03  0.16274732773E+03  0.00000000000E+00 0.  1.
         22    1    1    2    0    0  0.11056637211E+01  0.27976389977E+02  0.18120088164E+02  0.33350239631E+02  0.00000000000E+00 0. -1.
         22    1    1    2    0    0  0.56099895397E+01 -0.24022319692E+02 -0.13921532503E+03  0.14138405338E+03  0.00000000000E+00 0.  1.
</event>
<event>
 6    1  0.8017648E-006  0.7110628E+02  0.7818608E-02  0.1431634E+00
          2   -1    0    0  502    0  0.00000000000E+00  0.00000000000E+00  0.88375605013E+03  0.88375605013E+03  0.00000000000E+00 0. -1.
          1   -1    0    0  501    0 -0.00000000000E+00 -0.00000000000E+00 -0.29133884186E+02  0.29133884186E+02  0.00000000000E+00 0. -1.
          2    1    1    2  501    0 -0.20265758778E+02  0.49259262912E+01  0.68671724577E+03  0.68703387207E+03  0.00000000000E+00 0. -1.
          1    1    1    2  502    0  0.26647368528E+02  0.51684334813E+01  0.20314356057E+02  0.33903805334E+02  0.00000000000E+00 0. -1.
         22    1    1    2    0    0 -0.27371029126E+02 -0.13981296401E+02  0.16284214181E+03  0.16571726836E+03  0.00000000000E+00 0. -1.
         22    1    1    2    0    0  0.20989419376E+02  0.38869366287E+01 -0.15251577694E+02  0.26234988550E+02  0.00000000000E+00 0. -1.
</event>
<event>
 6    1  0.8017648E-006  0.8319747E+02  0.7818608E-02  0.1322962E+00
          2   -1    0    0  502    0  0.00000000000E+00  0.00000000000E+00  0.25332920990E+03  0.25332920990E+03  0.00000000000E+00 0. -1.
          1   -1    0    0  501    0 -0.00000000000E+00 -0.00000000000E+00 -0.29300234491E+03  0.29300234491E+03  0.00000000000E+00 0.  1.
          2    1    1    2  501    0  0.61484957105E+02  0.23521471909E+01  0.17797357795E+03  0.18830965720E+03  0.00000000000E+00 0. -1.
          1    1    1    2  502    0 -0.67691741481E+02 -0.65066169380E+01 -0.21744752449E+03  0.22783312717E+03  0.00000000000E+00 0.  1.
         22    1    1    2    0    0 -0.97741707016E+01  0.10979622825E+02 -0.63173308547E+02  0.64861031776E+02  0.00000000000E+00 0.  1.
         22    1    1    2    0    0  0.15980955077E+02 -0.68251530780E+01  0.62974120077E+02  0.65327738666E+02  0.00000000000E+00 0. -1.
</event>
<event>
 6    1  0.8017648E-006  0.7322942E+02  0.7818608E-02  0.1364474E+00
          2   -1    0    0  502    0  0.00000000000E+00  0.00000000000E+00  0.27667503526E+03  0.27667503526E+03  0.00000000000E+00 0. -1.
          1   -1    0    0  501    0 -0.00000000000E+00 -0.00000000000E+00 -0.48484198671E+03  0.48484198671E+03  0.00000000000E+00 0.  1.
          2    1    1    2  501    0 -0.10677146351E+03 -0.94741096519E+02  0.21289907086E+03  0.25632408229E+03  0.00000000000E+00 0. -1.
          1    1    1    2  502    0  0.94673918826E+02  0.95373277161E+02 -0.29533702072E+03  0.32447367954E+03  0.00000000000E+00 0.  1.
         22    1    1    2    0    0  0.46072462941E+02 -0.64771259540E+01  0.38006416244E+01  0.46680508554E+02  0.00000000000E+00 0. -1.
         22    1    1    2    0    0 -0.33974918254E+02  0.58449453122E+01 -0.12952964321E+03  0.13403875159E+03  0.00000000000E+00 0.  1.
</event>
<event>
 6    1  0.8017648E-006  0.5939799E+02  0.7818608E-02  0.1483294E+00
          2   -1    0    0  502    0  0.00000000000E+00  0.00000000000E+00  0.87328821849E+02  0.87328821849E+02  0.00000000000E+00 0.  1.
          1   -1    0    0  501    0 -0.00000000000E+00 -0.00000000000E+00 -0.13075825799E+03  0.13075825799E+03  0.00000000000E+00 0. -1.
          2    1    1    2  501    0 -0.17095591603E+00 -0.27153615503E+02  0.14093564854E+02  0.30593735161E+02  0.00000000000E+00 0.  1.
          1    1    1    2  502    0 -0.11688290329E+02  0.30665459431E+02 -0.48591297299E+02  0.58635319613E+02  0.00000000000E+00 0. -1.
         22    1    1    2    0    0  0.23845626165E+02 -0.15902037185E+02  0.55336067416E+02  0.62318288093E+02  0.00000000000E+00 0.  1.
         22    1    1    2    0    0 -0.11986379920E+02  0.12390193256E+02 -0.64267771114E+02  0.66539736973E+02  0.00000000000E+00 0. -1.
</event>
<event>
 6    1  0.8017648E-006  0.3647323E+02  0.7818608E-02  0.1586945E+00
          2   -1    0    0  502    0  0.00000000000E+00  0.00000000000E+00  0.35416232544E+03  0.35416232544E+03  0.00000000000E+00 0.  1.
          1   -1    0    0  501    0 -0.00000000000E+00 -0.00000000000E+00 -0.75669971259E+02  0.75669971259E+02  0.00000000000E+00 0.  1.
          2    1    1    2  501    0  0.34394000737E+00 -0.35327432587E+02  0.17579020475E+03  0.17930516410E+03  0.00000000000E+00 0.  1.
          1    1    1    2  502    0 -0.13018246696E+02  0.41656187996E+02 -0.42771746831E+02  0.61107569681E+02  0.00000000000E+00 0.  1.
         22    1    1    2    0    0 -0.14478389291E+02  0.23636832251E+00 -0.18268509734E+02  0.23311329313E+02  0.00000000000E+00 0. -1.
         22    1    1    2    0    0  0.27152695979E+02 -0.65651237312E+01  0.16374240600E+03  0.16610823361E+03  0.00000000000E+00 0.  1.
</event>
<event>
 6    1  0.8017648E-006  0.8832079E+02  0.7818608E-02  0.1417218E+00
          2   -1    0    0  502    0  0.00000000000E+00  0.00000000000E+00  0.57337356888E+02  0.57337356888E+02  0.00000000000E+00 0.  1.
          1   -1    0    0  501    0 -0.00000000000E+00 -0.00000000000E+00 -0.49254651818E+03  0.49254651818E+03  0.00000000000E+00 0.  1.
          2    1    1    2  501    0  0.22059596138E+02  0.35934930417E+01 -0.19552901298E+02  0.29696042214E+02  0.00000000000E+00 0.  1.
          1    1    1    2  502    0 -0.14413894437E+02 -0.52774726402E+02 -0.37826026031E+03  0.38219596627E+03  0.00000000000E+00 0.  1.
         22    1    1    2    0    0 -0.13677339294E+02  0.23924000775E+01 -0.75861519964E+02  0.77121744013E+02  0.00000000000E+00 0.  1.
         22    1    1    2    0    0  0.60316375936E+01  0.46788833282E+02  0.38465520280E+02  0.60870122576E+02  0.00000000000E+00 0.  1.
</event>
<event>
 6    1  0.8017648E-006  0.1165446E+03  0.7818608E-02  0.1340039E+00
          2   -1    0    0  502    0  0.00000000000E+00  0.00000000000E+00  0.51618145931E+03  0.51618145931E+03  0.00000000000E+00 0. -1.
          1   -1    0    0  501    0 -0.00000000000E+00 -0.00000000000E+00 -0.58819118307E+02  0.58819118307E+02  0.00000000000E+00 0.  1.
          2    1    1    2  501    0  0.23398383975E+02  0.64707022810E+01  0.37869653099E+02  0.44982941061E+02  0.00000000000E+00 0. -1.
          1    1    1    2  502    0 -0.91258110415E+02 -0.44008313688E+02  0.18446593620E+02  0.10298082931E+03  0.00000000000E+00 0.  1.
         22    1    1    2    0    0  0.80135591729E+02  0.20062626624E+02  0.39674261055E+03  0.40525167621E+03  0.00000000000E+00 0. -1.
         22    1    1    2    0    0 -0.12275865290E+02  0.17474984783E+02  0.43034837386E+01  0.21785131032E+02  0.00000000000E+00 0.  1.
</event>
<event>
 6    1  0.8017648E-006  0.1248375E+03  0.7818608E-02  0.1337753E+00
          2   -1    0    0  502    0  0.00000000000E+00  0.00000000000E+00  0.68014522138E+03  0.68014522138E+03  0.00000000000E+00 0.  1.
          1   -1    0    0  501    0 -0.00000000000E+00 -0.00000000000E+00 -0.15278432649E+03  0.15278432649E+03  0.00000000000E+00 0.  1.
          2    1    1    2  501    0  0.48992998930E+02 -0.97392986897E+02  0.57656056165E+03  0.58677746130E+03  0.00000000000E+00 0.  1.
          1    1    1    2  502    0 -0.47118225686E+02  0.81467493737E+02 -0.69849636616E+02  0.11720090214E+03  0.00000000000E+00 0.  1.
         22    1    1    2    0    0 -0.19953583607E+02  0.16069151197E+02 -0.49915585939E+02  0.56106406395E+02  0.00000000000E+00 0.  1.
         22    1    1    2    0    0  0.18078810364E+02 -0.14365803687E+00  0.70565555797E+02  0.72844778033E+02  0.00000000000E+00 0. -1.
</event>
<event>
 6    1  0.8017648E-006  0.5114296E+02  0.7818608E-02  0.1553826E+00
          2   -1    0    0  502    0  0.00000000000E+00  0.00000000000E+00  0.12075845005E+03  0.12075845005E+03  0.00000000000E+00 0. -1.
          1   -1    0    0  501    0 -0.00000000000E+00 -0.00000000000E+00 -0.10791777578E+03  0.10791777578E+03  0.00000000000E+00 0. -1.
          2    1    1    2  501    0 -0.41973389368E+01  0.20155940415E+02  0.26596924902E+02  0.33634446664E+02  0.00000000000E+00 0. -1.
          1    1    1    2  502    0 -0.31183629312E+02 -0.22357630612E+02 -0.44366375624E+02  0.58657119514E+02  0.00000000000E+00 0. -1.
         22    1    1    2    0    0  0.26227744753E+02  0.73277176802E+01  0.80719252513E+02  0.85189129397E+02  0.00000000000E+00 0. -1.
         22    1    1    2    0    0  0.91532234950E+01 -0.51260274831E+01 -0.50109127513E+02  0.51195530256E+02  0.00000000000E+00 0. -1.
</event>
<event>
 6    1  0.8017648E-006  0.6716234E+02  0.7818608E-02  0.1407311E+00
          2   -1    0    0  502    0  0.00000000000E+00  0.00000000000E+00  0.28715304748E+03  0.28715304748E+03  0.00000000000E+00 0.  1.
          1   -1    0    0  501    0 -0.00000000000E+00 -0.00000000000E+00 -0.14433235353E+03  0.14433235353E+03  0.00000000000E+00 0.  1.
          2    1    1    2  501    0 -0.85516618672E+01 -0.42645019672E+02  0.20379824093E+03  0.20838774348E+03  0.00000000000E+00 0.  1.
          1    1    1    2  502    0 -0.30724256883E+02  0.42352101653E+02 -0.79773976849E+02  0.95402137595E+02  0.00000000000E+00 0.  1.
         22    1    1    2    0    0  0.91439087566E+01 -0.20897009913E+02  0.64836867449E+02  0.68732201123E+02  0.00000000000E+00 0. -1.
         22    1    1    2    0    0  0.30132009994E+02  0.21189927932E+02 -0.46040437592E+02  0.58963318815E+02  0.00000000000E+00 0.  1.
</event>
<event>
 6    1  0.8017648E-006  0.4073943E+02  0.7818608E-02  0.1526613E+00
          2   -1    0    0  502    0  0.00000000000E+00  0.00000000000E+00  0.96544516462E+02  0.96544516462E+02  0.00000000000E+00 0.  1.
          1   -1    0    0  501    0 -0.00000000000E+00 -0.00000000000E+00 -0.68997663280E+03  0.68997663280E+03  0.00000000000E+00 0.  1.
          2    1    1    2  501    0  0.53185695908E+02 -0.51245493034E+02  0.30681130800E+02  0.79975937586E+02  0.00000000000E+00 0.  1.
          1    1    1    2  502    0 -0.29102512111E+02  0.78049034609E+02 -0.55102906546E+03  0.55728954682E+03  0.00000000000E+00 0.  1.
         22    1    1    2    0    0 -0.82404690643E+01 -0.13033660444E+02  0.35477267368E+02  0.38683564144E+02  0.00000000000E+00 0. -1.
         22    1    1    2    0    0 -0.15842714733E+02 -0.13769881132E+02 -0.10856144905E+03  0.11057210071E+03  0.00000000000E+00 0.  1.
</event>
<event>
 6    1  0.8017648E-006  0.2489912E+03  0.7818608E-02  0.1255104E+00
          2   -1    0    0  502    0  0.00000000000E+00  0.00000000000E+00  0.80264780619E+03  0.80264780619E+03  0.00000000000E+00 0. -1.
          1   -1    0    0  501    0 -0.00000000000E+00 -0.00000000000E+00 -0.21884737812E+03  0.21884737812E+03  0.00000000000E+00 0. -1.
          2    1    1    2  501    0 -0.36186543485E+02  0.80905862940E+02 -0.84771091953E+02  0.12264323307E+03  0.00000000000E+00 0. -1.
          1    1    1    2  502    0  0.12042089303E+03 -0.18106520272E+03  0.68448583685E+03  0.71819681144E+03  0.00000000000E+00 0. -1.
         22    1    1    2    0    0  0.37900184971E+01 -0.98610950024E+01 -0.36736189038E+02  0.38225031326E+02  0.00000000000E+00 0.  1.
         22    1    1    2    0    0 -0.88024368037E+02  0.11002043478E+03  0.20821872219E+02  0.14243010848E+03  0.00000000000E+00 0. -1.
</event>
<event>
 6    1  0.8017648E-006  0.4427490E+02  0.7818608E-02  0.1489443E+00
          2   -1    0    0  502    0  0.00000000000E+00  0.00000000000E+00  0.49541442929E+02  0.49541442929E+02  0.00000000000E+00 0.  1.
          1   -1    0    0  501    0 -0.00000000000E+00 -0.00000000000E+00 -0.24331461542E+03  0.24331461542E+03  0.00000000000E+00 0. -1.
          2    1    1    2  501    0  0.23040330559E+02  0.13447979179E+02  0.11576880781E+02  0.29081422676E+02  0.00000000000E+00 0.  1.
          1    1    1    2  502    0  0.52927290566E+01 -0.21339499546E+02 -0.91194790786E+02  0.93807660073E+02  0.00000000000E+00 0. -1.
         22    1    1    2    0    0  0.85928821906E+01  0.17642580340E+02  0.21458147271E+02  0.29078348470E+02  0.00000000000E+00 0.  1.
         22    1    1    2    0    0 -0.36925941806E+02 -0.97510599732E+01 -0.13561340976E+03  0.14088862713E+03  0.00000000000E+00 0. -1.
</event>
<event>
 6    1  0.8017648E-006  0.3956077E+02  0.7818608E-02  0.1547597E+00
          2   -1    0    0  502    0  0.00000000000E+00  0.00000000000E+00  0.11962399107E+03  0.11962399107E+03  0.00000000000E+00 0. -1.
          1   -1    0    0  501    0 -0.00000000000E+00 -0.00000000000E+00 -0.26184093005E+03  0.26184093005E+03  0.00000000000E+00 0. -1.
          2    1    1    2  501    0 -0.52360858787E+02  0.31707941101E+01  0.46630678055E+02  0.70186420368E+02  0.00000000000E+00 0. -1.
          1    1    1    2  502    0  0.70074004763E+02 -0.13792599262E+02 -0.16871877253E+03  0.18321197052E+03  0.00000000000E+00 0. -1.
         22    1    1    2    0    0 -0.94785933676E+01  0.24352587449E+02 -0.70513050320E+02  0.75199617772E+02  0.00000000000E+00 0. -1.
         22    1    1    2    0    0 -0.82345526080E+01 -0.13730782297E+02  0.50384205808E+02  0.52866912469E+02  0.00000000000E+00 0.  1.
</event>
<event>
 6    1  0.8017648E-006  0.5439519E+02  0.7818608E-02  0.1428738E+00
          2   -1    0    0  502    0  0.00000000000E+00  0.00000000000E+00  0.15509820760E+03  0.15509820760E+03  0.00000000000E+00 0.  1.
          1   -1    0    0  501    0 -0.00000000000E+00 -0.00000000000E+00 -0.20970695568E+03  0.20970695568E+03  0.00000000000E+00 0.  1.
          2    1    1    2  501    0  0.37841545805E+02 -0.68828848995E+02 -0.65412452021E+02  0.10221634861E+03  0.00000000000E+00 0.  1.
          1    1    1    2  502    0 -0.92402639870E+02  0.52902278266E+02  0.57730796355E+02  0.12111871758E+03  0.00000000000E+00 0.  1.
         22    1    1    2    0    0  0.22841105743E+02  0.29594211268E+02 -0.83304170627E+02  0.91307821658E+02  0.00000000000E+00 0.  1.
         22    1    1    2    0    0  0.31719988323E+02 -0.13667640539E+02  0.36377078211E+02  0.50162275430E+02  0.00000000000E+00 0. -1.
</event>
<event>
 6    1  0.8017648E-006  0.2098255E+03  0.7818608E-02  0.1165427E+00
          2   -1    0    0  502    0  0.00000000000E+00  0.00000000000E+00  0.48420895590E+03  0.48420895590E+03  0.00000000000E+00 0.  1.
          1   -1    0    0  501    0 -0.00000000000E+00 -0.00000000000E+00 -0.31656823278E+03  0.31656823278E+03  0.00000000000E+00 0.  1.
          2    1    1    2  501    0 -0.78053888478E+02 -0.59242288199E+02  0.22369990090E+03  0.24422060494E+03  0.00000000000E+00 0.  1.
          1    1    1    2  502    0 -0.13816091889E+02  0.23021161361E+03 -0.18329134545E+03  0.29459122315E+03  0.00000000000E+00 0.  1.
         22    1    1    2    0    0  0.99761626788E+02 -0.15137817815E+03  0.59177294293E+02  0.19070838251E+03  0.00000000000E+00 0.  1.
         22    1    1    2    0    0 -0.78916464216E+01 -0.19591147267E+02  0.68054873384E+02  0.71256978085E+02  0.00000000000E+00 0. -1.
</event>
<event>
 6    1  0.8017648E-006  0.8358003E+02  0.7818608E-02  0.1384029E+00
          2   -1    0    0  502    0  0.00000000000E+00  0.00000000000E+00  0.75919468974E+03  0.75919468974E+03  0.00000000000E+00 0.  1.
          1   -1    0    0  501    0 -0.00000000000E+00 -0.00000000000E+00 -0.98211937430E+02  0.98211937430E+02  0.00000000000E+00 0.  1.
          2    1    1    2  501    0 -0.48067539489E+02  0.34135815363E+02  0.61122915500E+03  0.61406581257E+03  0.00000000000E+00 0.  1.
          1    1    1    2  502    0  0.74853366770E+02 -0.71084047686E+02  0.10061328750E+02  0.10371691612E+03  0.00000000000E+00 0.  1.
         22    1    1    2    0    0 -0.19189203719E+02  0.19978344250E+02 -0.45039391986E+02  0.52876333163E+02  0.00000000000E+00 0.  1.
         22    1    1    2    0    0 -0.75966235618E+01  0.16969888072E+02  0.84731660540E+02  0.86747565318E+02  0.00000000000E+00 0.  1.
</event>
<event>
 6    1  0.8017648E-006  0.7412909E+02  0.7818608E-02  0.1424797E+00
          2   -1    0    0  502    0  0.00000000000E+00  0.00000000000E+00  0.18205042556E+03  0.18205042556E+03  0.00000000000E+00 0.  1.
          1   -1    0    0  501    0 -0.00000000000E+00 -0.00000000000E+00 -0.72599593560E+02  0.72599593560E+02  0.00000000000E+00 0. -1.
          2    1    1    2  501    0 -0.15096879478E+02 -0.32403329376E+02  0.42809169951E+02  0.55772005133E+02  0.00000000000E+00 0.  1.
          1    1    1    2  502    0  0.28350586182E+02  0.50351416518E+02  0.11540661008E+02  0.58925442202E+02  0.00000000000E+00 0. -1.
         22    1    1    2    0    0  0.62533989850E+01  0.19946058745E+02 -0.34723316776E+02  0.40529729659E+02  0.00000000000E+00 0. -1.
         22    1    1    2    0    0 -0.19507105689E+02 -0.37894145886E+02  0.89824317816E+02  0.99422842124E+02  0.00000000000E+00 0.  1.
</event>
<event>
 6    1  0.8017648E-006  0.3490458E+02  0.7818608E-02  0.1560470E+00
          2   -1    0    0  502    0  0.00000000000E+00  0.00000000000E+00  0.91083742549E+02  0.91083742549E+02  0.00000000000E+00 0. -1.
          1   -1    0    0  501    0 -0.00000000000E+00 -0.00000000000E+00 -0.23506151725E+03  0.23506151725E+03  0.00000000000E+00 0. -1.
          2    1    1    2  501    0  0.20185809220E+02 -0.14979288775E+02  0.42736280685E+02  0.49580597746E+02  0.00000000000E+00 0. -1.
          1    1    1    2  502    0 -0.28838583869E+02 -0.17693625670E+02 -0.13115327429E+03  0.13544707330E+03  0.00000000000E+00 0. -1.
         22    1    1    2    0    0  0.59752000288E+01 -0.86936555429E+01  0.37652582474E+02  0.39102424848E+02  0.00000000000E+00 0. -1.
         22    1    1    2    0    0  0.26775746198E+01  0.41366569988E+02 -0.93213363573E+02  0.10201516391E+03  0.00000000000E+00 0. -1.
</event>
<event>
 6    1  0.8017648E-006  0.9786218E+02  0.7818608E-02  0.1385611E+00
          2   -1    0    0  502    0  0.00000000000E+00  0.00000000000E+00  0.69962163627E+03  0.69962163627E+03  0.00000000000E+00 0.  1.
          1   -1    0    0  501    0 -0.00000000000E+00 -0.00000000000E+00 -0.43585371869E+02  0.43585371869E+02  0.00000000000E+00 0.  1.
          2    1    1    2  501    0  0.58336423321E+02 -0.28737100050E+02  0.40559420240E+03  0.41077441039E+03  0.00000000000E+00 0.  1.
          1    1    1    2  502    0 -0.86415898643E+02  0.11509676503E+02  0.86406835491E+02  0.12274494454E+03  0.00000000000E+00 0.  1.
         22    1    1    2    0    0  0.34356682072E+02  0.16220475841E+01  0.18191580925E+03  0.18513879738E+03  0.00000000000E+00 0. -1.
         22    1    1    2    0    0 -0.62772067500E+01  0.15605375963E+02 -0.17880582738E+02  0.24548855830E+02  0.00000000000E+00 0. -1.
</event>
<event>
 6    1  0.8017648E-006  0.7011231E+02  0.7818608E-02  0.1467104E+00
          2   -1    0    0  502    0  0.00000000000E+00  0.00000000000E+00  0.54588255319E+03  0.54588255319E+03  0.00000000000E+00 0.  1.
          1   -1    0    0  501    0 -0.00000000000E+00 -0.00000000000E+00 -0.62060380077E+02  0.62060380077E+02  0.00000000000E+00 0. -1.
          2    1    1    2  501    0 -0.37981926564E+02 -0.34979794645E+02  0.36798347075E+03  0.37158854601E+03  0.00000000000E+00 0.  1.
          1    1    1    2  502    0  0.56908043655E+02  0.48626521406E+02  0.57585323827E+02  0.94441164420E+02  0.00000000000E+00 0. -1.
         22    1    1    2    0    0 -0.59980075598E+01 -0.16293766385E+02  0.98262142398E+02  0.99784325153E+02  0.00000000000E+00 0.  1.
         22    1    1    2    0    0 -0.12928109531E+02  0.26470396236E+01 -0.40008763860E+02  0.42128897688E+02  0.00000000000E+00 0. -1.
</event>
<event>
 6    1  0.8017648E-006  0.4630536E+02  0.7818608E-02  0.1479300E+00
          2   -1    0    0  502    0  0.00000000000E+00  0.00000000000E+00  0.36037298510E+02  0.36037298510E+02  0.00000000000E+00 0. -1.
          1   -1    0    0  501    0 -0.00000000000E+00 -0.00000000000E+00 -0.48750469579E+03  0.48750469579E+03  0.00000000000E+00 0.  1.
          2    1    1    2  501    0  0.19904984452E+02 -0.10782766233E+02  0.61469841936E+01  0.23457661186E+02  0.00000000000E+00 0. -1.
          1    1    1    2  502    0  0.13879712223E+02  0.46789164218E+02 -0.24039804772E+03  0.24530204575E+03  0.00000000000E+00 0.  1.
         22    1    1    2    0    0  0.10339010132E+02 -0.10441709507E+02  0.12611972576E+02  0.19364562484E+02  0.00000000000E+00 0. -1.
         22    1    1    2    0    0 -0.44123706807E+02 -0.25564688477E+02 -0.22982830632E+03  0.23541772488E+03  0.00000000000E+00 0.  1.
</event>
<event>
 6    1  0.8017648E-006  0.1655700E+03  0.7818608E-02  0.1183632E+00
          2   -1    0    0  502    0  0.00000000000E+00  0.00000000000E+00  0.36344464114E+03  0.36344464114E+03  0.00000000000E+00 0.  1.
          1   -1    0    0  501    0 -0.00000000000E+00 -0.00000000000E+00 -0.48967497482E+03  0.48967497482E+03  0.00000000000E+00 0.  1.
          2    1    1    2  501    0  0.75042028543E+02  0.84793784331E+02  0.21285719642E+03  0.24110055573E+03  0.00000000000E+00 0.  1.
          1    1    1    2  502    0 -0.74960537942E+02 -0.11015896533E+03 -0.43108052494E+03  0.45120338970E+03  0.00000000000E+00 0.  1.
         22    1    1    2    0    0 -0.98699917738E+01 -0.20932927804E+02 -0.25328893017E+02  0.34309722027E+02  0.00000000000E+00 0. -1.
         22    1    1    2    0    0  0.97885011725E+01  0.46298108804E+02  0.11732188787E+03  0.12650594850E+03  0.00000000000E+00 0.  1.
</event>
<event>
 6    1  0.8017648E-006  0.5532211E+02  0.7818608E-02  0.1421309E+00
          2   -1    0    0  502    0  0.00000000000E+00  0.00000000000E+00  0.36725213828E+03  0.36725213828E+03  0.00000000000E+00 0.  1.
          1   -1    0    0  501    0 -0.00000000000E+00 -0.00000000000E+00 -0.12333340523E+03  0.12333340523E+03  0.00000000000E+00 0.  1.
          2    1    1    2  501    0 -0.42176748184E+02  0.23819497185E+02  0.24819230795E+03  0.25287480749E+03  0.00000000000E+00 0.  1.
          1    1    1    2  502    0  0.96978344076E+02 -0.10884639285E+02 -0.95357357210E+01  0.98052051726E+02  0.00000000000E+00 0.  1.
         22    1    1    2    0    0 -0.32071789640E+02  0.17532877610E+02  0.61640500502E+02  0.71662771298E+02  0.00000000000E+00 0.  1.
         22    1    1    2    0    0 -0.22729806251E+02 -0.30467735509E+02 -0.56378339687E+02  0.67995913004E+02  0.00000000000E+00 0.  1.
</event>
<event>
 6    1  0.1272925E-005  0.2366030E+03  0.7818608E-02  0.1145669E+00
          2   -1    0    0  502    0  0.00000000000E+00  0.00000000000E+00  0.65111494396E+03  0.65111494396E+03  0.00000000000E+00 0.  1.
          1   -1    0    0  501    0 -0.00000000000E+00 -0.00000000000E+00 -0.58124569031E+03  0.58124569031E+03  0.00000000000E+00 0. -1.
          2    1    1    2  501    0 -0.16997593825E+02 -0.17324277971E+03  0.29038385747E+03  0.33856279122E+03  0.00000000000E+00 0.  1.
          1    1    1    2  502    0  0.10163465835E+03  0.33342713533E+03 -0.45437451594E+03  0.57267744768E+03  0.00000000000E+00 0. -1.
         22    1    1    2    0    0 -0.19439930790E+02 -0.44168461787E+02  0.16372789119E+03  0.17069149445E+03  0.00000000000E+00 0.  1.
         22    1    1    2    0    0 -0.65197133740E+02 -0.11601589383E+03  0.70132020930E+02  0.15042890091E+03  0.00000000000E+00 0. -1.
</event>
<event>
 6    1  0.8017648E-006  0.6821219E+02  0.7818608E-02  0.1436109E+00
          2   -1    0    0  502    0  0.00000000000E+00  0.00000000000E+00  0.39300883745E+03  0.39300883745E+03  0.00000000000E+00 0.  1.
          1   -1    0    0  501    0 -0.00000000000E+00 -0.00000000000E+00 -0.85248437664E+02  0.85248437664E+02  0.00000000000E+00 0. -1.
          2    1    1    2  501    0  0.52802297039E+02 -0.62440130425E+02  0.20706078998E+03  0.22262305183E+03  0.00000000000E+00 0.  1.
          1    1    1    2  502    0 -0.77950222562E+02  0.35205894669E+01 -0.11291684364E+02  0.78842462439E+02  0.00000000000E+00 0. -1.
         22    1    1    2    0    0 -0.98663032210E+01  0.15775936506E+02 -0.23719326976E+02  0.30146817147E+02  0.00000000000E+00 0. -1.
         22    1    1    2    0    0  0.35014228744E+02  0.43143604452E+02  0.13571062115E+03  0.14664494370E+03  0.00000000000E+00 0. -1.
</event>
<event>
 6    1  0.8017648E-006  0.1789975E+03  0.7818608E-02  0.1233894E+00
          2   -1    0    0  502    0  0.00000000000E+00  0.00000000000E+00  0.22958285751E+03  0.22958285751E+03  0.00000000000E+00 0. -1.
          1   -1    0    0  501    0 -0.00000000000E+00 -0.00000000000E+00 -0.38231669032E+03  0.38231669032E+03  0.00000000000E+00 0. -1.
          2    1    1    2  501    0  0.75674794033E+02 -0.76804791482E+02 -0.21228451960E+03  0.23809739123E+03  0.00000000000E+00 0. -1.
          1    1    1    2  502    0 -0.78808298341E+02  0.12070133490E+03  0.15488090936E+03  0.21158368609E+03  0.00000000000E+00 0. -1.
         22    1    1    2    0    0  0.70456657971E+01 -0.87327813052E+02 -0.61930703762E+02  0.10729026241E+03  0.00000000000E+00 0. -1.
         22    1    1    2    0    0 -0.39121614889E+01  0.43431269628E+02 -0.33399518806E+02  0.54928208104E+02  0.00000000000E+00 0. -1.
</event>
<event>
 6    1  0.8017648E-006  0.3029592E+02  0.7818608E-02  0.1690409E+00
          2   -1    0    0  502    0  0.00000000000E+00  0.00000000000E+00  0.12977514328E+03  0.12977514328E+03  0.00000000000E+00 0. -1.
          1   -1    0    0  501    0 -0.00000000000E+00 -0.00000000000E+00 -0.11055799615E+03  0.11055799615E+03  0.00000000000E+00 0. -1.
          2    1    1    2  501    0  0.61598601997E+01  0.29769447894E+02  0.55584760678E+02  0.63354790863E+02  0.00000000000E+00 0. -1.
          1    1    1    2  502    0  0.29981329042E+02 -0.22749859716E+02 -0.33009426576E+02  0.50060547850E+02  0.00000000000E+00 0. -1.
         22    1    1    2    0    0 -0.29345580034E+02  0.56473950742E+00 -0.61365406744E+02  0.68023489642E+02  0.00000000000E+00 0. -1.
         22    1    1    2    0    0 -0.67956092075E+01 -0.75843276858E+01  0.58007219773E+02  0.58894311073E+02  0.00000000000E+00 0. -1.
</event>
<event>
 6    1  0.8017648E-006  0.1054542E+03  0.7818608E-02  0.1332455E+00
          2   -1    0    0  502    0  0.00000000000E+00  0.00000000000E+00  0.28954054232E+03  0.28954054232E+03  0.00000000000E+00 0.  1.
          1   -1    0    0  501    0 -0.00000000000E+00 -0.00000000000E+00 -0.20826419202E+03  0.20826419202E+03  0.00000000000E+00 0. -1.
          2    1    1    2  501    0  0.59750845497E+02 -0.43112953990E+02  0.13284124812E+03  0.15190683837E+03  0.00000000000E+00 0.  1.
          1    1    1    2  502    0 -0.80267711604E+02  0.87607481089E+02 -0.14165439238E+03  0.18488900224E+03  0.00000000000E+00 0. -1.
         22    1    1    2    0    0  0.22414789722E+02 -0.77339402935E+02  0.19085249646E+02  0.82752962476E+02  0.00000000000E+00 0. -1.
         22    1    1    2    0    0 -0.18979236146E+01  0.32844875835E+02  0.71004244911E+02  0.78255931264E+02  0.00000000000E+00 0.  1.
</event>
<event>
 6    1  0.8017648E-006  0.4850028E+02  0.7818608E-02  0.1479638E+00
          2   -1    0    0  502    0  0.00000000000E+00  0.00000000000E+00  0.22991924118E+03  0.22991924118E+03  0.00000000000E+00 0.  1.
          1   -1    0    0  501    0 -0.00000000000E+00 -0.00000000000E+00 -0.10163227885E+03  0.10163227885E+03  0.00000000000E+00 0.  1.
          2    1    1    2  501    0 -0.35339508614E+02  0.51421264723E+01  0.14102561328E+03  0.14547696015E+03  0.00000000000E+00 0.  1.
          1    1    1    2  502    0  0.37144804255E+02  0.31761538386E+02 -0.24207349198E+02  0.54539229542E+02  0.00000000000E+00 0.  1.
         22    1    1    2    0    0 -0.12076460509E+02 -0.51834351351E+01  0.66176107862E+02  0.67468408533E+02  0.00000000000E+00 0.  1.
         22    1    1    2    0    0  0.10271164868E+02 -0.31720229724E+02 -0.54707409622E+02  0.64066921801E+02  0.00000000000E+00 0.  1.
</event>
<event>
 6    1  0.8017648E-006  0.4074062E+02  0.7818608E-02  0.1535745E+00
          2   -1    0    0  502    0  0.00000000000E+00  0.00000000000E+00  0.34714142038E+03  0.34714142038E+03  0.00000000000E+00 0.  1.
          1   -1    0    0  501    0 -0.00000000000E+00 -0.00000000000E+00 -0.13136424639E+03  0.13136424639E+03  0.00000000000E+00 0. -1.
          2    1    1    2  501    0  0.24283079472E+01 -0.69275599653E+02  0.27929175199E+03  0.28776533515E+03  0.00000000000E+00 0.  1.
          1    1    1    2  502    0  0.18090656999E+02  0.46756996115E+02 -0.19359201317E+02  0.53742601649E+02  0.00000000000E+00 0. -1.
         22    1    1    2    0    0 -0.15580190178E+02 -0.12471662575E+01  0.43405870441E+02  0.46134231742E+02  0.00000000000E+00 0.  1.
         22    1    1    2    0    0 -0.49387747676E+01  0.23765769796E+02 -0.87561247131E+02  0.90863498223E+02  0.00000000000E+00 0. -1.
</event>
<event>
 6    1  0.8017648E-006  0.7240963E+02  0.7818608E-02  0.1355199E+00
          2   -1    0    0  502    0  0.00000000000E+00  0.00000000000E+00  0.23477322562E+03  0.23477322562E+03  0.00000000000E+00 0.  1.
          1   -1    0    0  501    0 -0.00000000000E+00 -0.00000000000E+00 -0.10348480756E+03  0.10348480756E+03  0.00000000000E+00 0. -1.
          2    1    1    2  501    0  0.29543799140E+02 -0.87595074484E+01  0.11868301434E+03  0.12261819984E+03  0.00000000000E+00 0.  1.
          1    1    1    2  502    0 -0.28521367855E+02  0.16154642908E+02 -0.62007489188E+02  0.70138218021E+02  0.00000000000E+00 0. -1.
         22    1    1    2    0    0  0.31476251097E+02 -0.19054322917E+02  0.97410088787E+02  0.10412755160E+03  0.00000000000E+00 0.  1.
         22    1    1    2    0    0 -0.32498682381E+02  0.11659187458E+02 -0.22797195886E+02  0.41374063723E+02  0.00000000000E+00 0. -1.
</event>
<event>
 6    1  0.8017648E-006  0.1101355E+03  0.7818608E-02  0.1368386E+00
          2   -1    0    0  502    0  0.00000000000E+00  0.00000000000E+00  0.64974654524E+03  0.64974654524E+03  0.00000000000E+00 0.  1.
          1   -1    0    0  501    0 -0.00000000000E+00 -0.00000000000E+00 -0.26109008771E+02  0.26109008771E+02  0.00000000000E+00 0.  1.
          2    1    1    2  501    0  0.13179512508E+01  0.36945151523E+02  0.17647483641E+03  0.18030543282E+03  0.00000000000E+00 0.  1.
          1    1    1    2  502    0 -0.36017401489E+02  0.35300814287E+02  0.48591823709E+02  0.70032606911E+02  0.00000000000E+00 0.  1.
         22    1    1    2    0    0  0.19439590421E+02 -0.68780902945E+02  0.40297228098E+03  0.40926198153E+03  0.00000000000E+00 0.  1.
         22    1    1    2    0    0  0.15259859817E+02 -0.34650628654E+01 -0.44014046354E+01  0.16255532753E+02  0.00000000000E+00 0.  1.
</event>
<event>
 6    1  0.8017648E-006  0.9264721E+02  0.7818608E-02  0.1340416E+00
          2   -1    0    0  502    0  0.00000000000E+00  0.00000000000E+00  0.24948923333E+03  0.24948923333E+03  0.00000000000E+00 0. -1.
          1   -1    0    0  501    0 -0.00000000000E+00 -0.00000000000E+00 -0.12183720441E+03  0.12183720441E+03  0.00000000000E+00 0.  1.
          2    1    1    2  501    0  0.33669730513E+02 -0.54983398273E+02  0.11931083598E+03  0.13561674093E+03  0.00000000000E+00 0. -1.
          1    1    1    2  502    0  0.21965600244E+01  0.96013497034E+02 -0.22534463844E+02  0.98646938875E+02  0.00000000000E+00 0.  1.
         22    1    1    2    0    0 -0.39925581267E+02 -0.13770533182E+02 -0.41748317716E+02  0.59385197278E+02  0.00000000000E+00 0.  1.
         22    1    1    2    0    0  0.40592907291E+01 -0.27259565578E+02  0.72623974510E+02  0.77677560662E+02  0.00000000000E+00 0.  1.
</event>
<event>
 6    1  0.8017648E-006  0.1520076E+03  0.7818608E-02  0.1330210E+00
          2   -1    0    0  502    0  0.00000000000E+00  0.00000000000E+00  0.35106950798E+03  0.35106950798E+03  0.00000000000E+00 0. -1.
          1   -1    0    0  501    0 -0.00000000000E+00 -0.00000000000E+00 -0.12688609977E+03  0.12688609977E+03  0.00000000000E+00 0. -1.
          2    1    1    2  501    0  0.43564236180E+02  0.85818756939E+02  0.17294960452E+03  0.19792490348E+03  0.00000000000E+00 0. -1.
          1    1    1    2  502    0 -0.78451966345E+02 -0.11391944953E+03  0.43099956893E+02  0.14487911612E+03  0.00000000000E+00 0. -1.
         22    1    1    2    0    0 -0.75261319803E+01 -0.85975575309E+01 -0.51813147348E+02  0.53058108675E+02  0.00000000000E+00 0. -1.
         22    1    1    2    0    0  0.42413862145E+02  0.36698250123E+02  0.59946994150E+02  0.82093479472E+02  0.00000000000E+00 0.  1.
</event>
<event>
 6    1  0.8017648E-006  0.1184763E+03  0.7818608E-02  0.1374298E+00
          2   -1    0    0  502    0  0.00000000000E+00  0.00000000000E+00  0.33568803078E+03  0.33568803078E+03  0.00000000000E+00 0.  1.
          1   -1    0    0  501    0 -0.00000000000E+00 -0.00000000000E+00 -0.18800286863E+03  0.18800286863E+03  0.00000000000E+00 0.  1.
          2    1    1    2  501    0  0.54334750669E+02 -0.30611086378E+02  0.15676371582E+03  0.16871326663E+03  0.00000000000E+00 0.  1.
          1    1    1    2  502    0 -0.78759041397E+02  0.77623022758E+02 -0.13119316231E+03  0.17158078593E+03  0.00000000000E+00 0.  1.
         22    1    1    2    0    0  0.15354922363E+02 -0.53919971047E+02  0.14629174329E+03  0.15666656016E+03  0.00000000000E+00 0.  1.
         22    1    1    2    0    0  0.90693683655E+01  0.69080346668E+01 -0.24177134659E+02  0.26730286677E+02  0.00000000000E+00 0. -1.
</event>
<event>
 6    1  0.8017648E-006  0.5642379E+02  0.7818608E-02  0.1414359E+00
          2   -1    0    0  502    0  0.00000000000E+00  0.00000000000E+00  0.22838396548E+03  0.22838396548E+03  0.00000000000E+00 0.  1.
          1   -1    0    0  501    0 -0.00000000000E+00 -0.00000000000E+00 -0.74120481899E+02  0.74120481899E+02  0.00000000000E+00 0. -1.
          2    1    1    2  501    0  0.82413687351E+01 -0.26159886154E+02  0.10147548479E+03  0.10511676277E+03  0.00000000000E+00 0.  1.
          1    1    1    2  502    0 -0.27707968304E+02  0.21847885107E+02 -0.26231417487E+02  0.43967588683E+02  0.00000000000E+00 0. -1.
         22    1    1    2    0    0 -0.71437056946E+01  0.15796088345E+02 -0.33234846774E+02  0.37484716594E+02  0.00000000000E+00 0. -1.
         22    1    1    2    0    0  0.26610305264E+02 -0.11484087298E+02  0.11225426305E+03  0.11593537932E+03  0.00000000000E+00 0.  1.
</event>
<event>
 6    1  0.8017648E-006  0.8714591E+02  0.7818608E-02  0.1360267E+00
          2   -1    0    0  502    0  0.00000000000E+00  0.00000000000E+00  0.13387488230E+03  0.13387488230E+03  0.00000000000E+00 0.  1.
          1   -1    0    0  501    0 -0.00000000000E+00 -0.00000000000E+00 -0.52788958295E+03  0.52788958295E+03  0.00000000000E+00 0.  1.
          2    1    1    2  501    0 -0.67376476582E+02 -0.14284093962E+02  0.87159170902E+02  0.11108711001E+03  0.00000000000E+00 0.  1.
          1    1    1    2  502    0  0.43274848506E+02  0.36488449074E+02 -0.37920741535E+03  0.38340889828E+03  0.00000000000E+00 0.  1.
         22    1    1    2    0    0 -0.11459508668E+02 -0.15581324377E+02  0.27063196418E+02  0.33264314342E+02  0.00000000000E+00 0.  1.
         22    1    1    2    0    0  0.35561136745E+02 -0.66230307357E+01 -0.12902965263E+03  0.13400414262E+03  0.00000000000E+00 0. -1.
</event>
<event>
 6    1  0.3693217E-005  0.1147506E+03  0.7818608E-02  0.1357946E+00
          2   -1    0    0  502    0  0.00000000000E+00  0.00000000000E+00  0.11340071154E+03  0.11340071154E+03  0.00000000000E+00 0. -1.
          1   -1    0    0  501    0 -0.00000000000E+00 -0.00000000000E+00 -0.92006630868E+03  0.92006630868E+03  0.00000000000E+00 0.  1.
          2    1    1    2  501    0 -0.17549268464E+02  0.11716327108E+02 -0.23726641285E+02  0.31752207029E+02  0.00000000000E+00 0. -1.
          1    1    1    2  502    0  0.31061021156E+02 -0.18148501586E+02 -0.85498934269E+03  0.85574583333E+03  0.00000000000E+00 0.  1.
         22    1    1    2    0    0 -0.19732340372E+02  0.21687412406E+02  0.10506093155E+03  0.10907570056E+03  0.00000000000E+00 0. -1.
         22    1    1    2    0    0  0.62205876805E+01 -0.15255237928E+02 -0.33010544721E+02  0.36893279308E+02  0.00000000000E+00 0.  1.
</event>
<event>
 6    1  0.8017648E-006  0.2596977E+02  0.7818608E-02  0.1670750E+00
          2   -1    0    0  502    0  0.00000000000E+00  0.00000000000E+00  0.23315126631E+03  0.23315126631E+03  0.00000000000E+00 0. -1.
          1   -1    0    0  501    0 -0.00000000000E+00 -0.00000000000E+00 -0.10839223951E+03  0.10839223951E+03  0.00000000000E+00 0.  1.
          2    1    1    2  501    0  0.32903750134E+02 -0.20468509946E+02  0.15822605701E+03  0.16290212334E+03  0.00000000000E+00 0. -1.
          1    1    1    2  502    0 -0.14015388561E+02  0.39432062566E+02  0.77358759824E+01  0.42557754311E+02  0.00000000000E+00 0.  1.
         22    1    1    2    0    0 -0.43581058998E+01 -0.11751774839E+02  0.45849973036E+02  0.47532276679E+02  0.00000000000E+00 0.  1.
         22    1    1    2    0    0 -0.14530255673E+02 -0.72117777815E+01 -0.87052879223E+02  0.88551351484E+02  0.00000000000E+00 0.  1.
</event>
<event>
 6    1  0.8017648E-006  0.6138847E+02  0.7818608E-02  0.1393432E+00
          2   -1    0    0  502    0  0.00000000000E+00  0.00000000000E+00  0.20239617121E+03  0.20239617121E+03  0.00000000000E+00 0. -1.
          1   -1    0    0  501    0 -0.00000000000E+00 -0.00000000000E+00 -0.99006465688E+02  0.99006465688E+02  0.00000000000E+00 0. -1.
          2    1    1    2  501    0 -0.19616085775E+02  0.21509917403E+02  0.70994911453E+02  0.76731641583E+02  0.00000000000E+00 0. -1.
          1    1    1    2  502    0  0.21011038638E+02 -0.40260664006E+02 -0.53017562060E+02  0.69808643431E+02  0.00000000000E+00 0. -1.
         22    1    1    2    0    0  0.13171149172E+01  0.30958234092E+02  0.11692395695E+03  0.12096015360E+03  0.00000000000E+00 0. -1.
         22    1    1    2    0    0 -0.27120677809E+01 -0.12207487489E+02 -0.31511600820E+02  0.33902198287E+02  0.00000000000E+00 0. -1.
</event>
<event>
 6    1  0.8017648E-006  0.1015611E+03  0.7818608E-02  0.1302946E+00
          2   -1    0    0  502    0  0.00000000000E+00  0.00000000000E+00  0.44034638238E+02  0.44034638238E+02  0.00000000000E+00 0. -1.
          1   -1    0    0  501    0 -0.00000000000E+00 -0.00000000000E+00 -0.51257791588E+03  0.51257791588E+03  0.00000000000E+00 0. -1.
          2    1    1    2  501    0  0.35327290968E+01 -0.49262831354E+02 -0.36687826267E+02  0.61524818765E+02  0.00000000000E+00 0. -1.
          1    1    1    2  502    0 -0.76197770324E+02  0.53270927944E+02 -0.22352764449E+03  0.24209192431E+03  0.00000000000E+00 0. -1.
         22    1    1    2    0    0  0.31222225978E+02 -0.50822650267E+02 -0.35982361316E+02  0.69659884446E+02  0.00000000000E+00 0. -1.
         22    1    1    2    0    0  0.41442815249E+02  0.46814553676E+02 -0.17234544557E+03  0.18333592660E+03  0.00000000000E+00 0.  1.
</event>
<event>
 6    1  0.8017648E-006  0.8908376E+02  0.7818608E-02  0.1331229E+00
          2   -1    0    0  502    0  0.00000000000E+00  0.00000000000E+00  0.78820225775E+03  0.78820225775E+03  0.00000000000E+00 0. -1.
          1   -1    0    0  501    0 -0.00000000000E+00 -0.00000000000E+00 -0.29008132527E+02  0.29008132527E+02  0.00000000000E+00 0. -1.
          2    1    1    2  501    0  0.93487216649E+01 -0.37292598083E+02  0.31594689274E+03  0.31827751335E+03  0.00000000000E+00 0. -1.
          1    1    1    2  502    0  0.13443033239E+02  0.85948477635E+02  0.13875768299E+03  0.16377286265E+03  0.00000000000E+00 0. -1.
         22    1    1    2    0    0  0.32245611540E+02 -0.39702984700E+02  0.25662776125E+03  0.26167520766E+03  0.00000000000E+00 0. -1.
         22    1    1    2    0    0 -0.55037366444E+02 -0.89528948509E+01  0.47861788230E+02  0.73484806619E+02  0.00000000000E+00 0. -1.
</event>
<event>
 6    1  0.8017648E-006  0.8477161E+02  0.7818608E-02  0.1336804E+00
          2   -1    0    0  502    0  0.00000000000E+00  0.00000000000E+00  0.30059670682E+02  0.30059670682E+02  0.00000000000E+00 0.  1.
          1   -1    0    0  501    0 -0.00000000000E+00 -0.00000000000E+00 -0.51704235193E+03  0.51704235193E+03  0.00000000000E+00 0. -1.
          2    1    1    2  501    0 -0.42063808135E+02 -0.33563355576E+01 -0.54832539006E+02  0.69189856750E+02  0.00000000000E+00 0.  1.
          1    1    1    2  502    0  0.73092988614E+02 -0.16051699168E+02 -0.20122379991E+03  0.21468875071E+03  0.00000000000E+00 0. -1.
         22    1    1    2    0    0 -0.53099963830E+01  0.58459545914E+02 -0.19670995195E+03  0.20528156217E+03  0.00000000000E+00 0. -1.
         22    1    1    2    0    0 -0.25719184097E+02 -0.39051511188E+02 -0.34216390383E+02  0.57941852986E+02  0.00000000000E+00 0.  1.
</event>
<event>
 6    1  0.8017648E-006  0.7962156E+02  0.7818608E-02  0.1406809E+00
          2   -1    0    0  502    0  0.00000000000E+00  0.00000000000E+00  0.20993339351E+03  0.20993339351E+03  0.00000000000E+00 0.  1.
          1   -1    0    0  501    0 -0.00000000000E+00 -0.00000000000E+00 -0.29446369983E+03  0.29446369983E+03  0.00000000000E+00 0.  1.
          2    1    1    2  501    0 -0.47499357877E+02 -0.10339440485E+02  0.94640520374E+02  0.10639511796E+03  0.00000000000E+00 0.  1.
          1    1    1    2  502    0  0.81625104175E+02  0.25933819491E+02 -0.24250943956E+03  0.25718874179E+03  0.00000000000E+00 0.  1.
         22    1    1    2    0    0 -0.13728269960E+02 -0.24565967402E+02  0.96690302276E+02  0.10070236693E+03  0.00000000000E+00 0.  1.
         22    1    1    2    0    0 -0.20397476338E+02  0.89715883955E+01 -0.33351689408E+02  0.40110866678E+02  0.00000000000E+00 0.  1.
</event>
<event>
 6    1  0.8017648E-006  0.5166141E+02  0.7818608E-02  0.1480170E+00
          2   -1    0    0  502    0  0.00000000000E+00  0.00000000000E+00  0.10200919513E+03  0.10200919513E+03  0.00000000000E+00 0.  1.
          1   -1    0    0  501    0 -0.00000000000E+00 -0.00000000000E+00 -0.14028371033E+03  0.14028371033E+03  0.00000000000E+00 0.  1.
          2    1    1    2  501    0 -0.80485092172E+01  0.39889824038E+02  0.50586307434E+02  0.64922654461E+02  0.00000000000E+00 0.  1.
          1    1    1    2  502    0 -0.19692017949E+02 -0.19361175862E+02 -0.11270312378E+02  0.29827011965E+02  0.00000000000E+00 0.  1.
         22    1    1    2    0    0  0.13956287509E+02 -0.23557754772E+02 -0.10938348495E+03  0.11275855865E+03  0.00000000000E+00 0.  1.
         22    1    1    2    0    0  0.13784239657E+02  0.30291065956E+01  0.31792974691E+02  0.34784680384E+02  0.00000000000E+00 0. -1.
</event>
<event>
 6    1  0.8017648E-006  0.1081577E+03  0.7818608E-02  0.1317793E+00
          2   -1    0    0  502    0  0.00000000000E+00  0.00000000000E+00  0.30272972619E+03  0.30272972619E+03  0.00000000000E+00 0.  1.
          1   -1    0    0  501    0 -0.00000000000E+00 -0.00000000000E+00 -0.11889156903E+03  0.11889156903E+03  0.00000000000E+00 0.  1.
          2    1    1    2  501    0 -0.82788175119E+02  0.36013052192E+01  0.15354182229E+03  0.17447619474E+03  0.00000000000E+00 0.  1.
          1    1    1    2  502    0  0.86870329919E+02  0.42118896020E+02 -0.28846111056E+02  0.10075988163E+03  0.00000000000E+00 0.  1.
         22    1    1    2    0    0  0.15548306883E+02 -0.36359640746E+02 -0.33127532542E+02  0.51586885295E+02  0.00000000000E+00 0. -1.
         22    1    1    2    0    0 -0.19630461684E+02 -0.93605604925E+01  0.92269978471E+02  0.94798333559E+02  0.00000000000E+00 0.  1.
</event>
<event>
 6    1  0.8017648E-006  0.9356359E+02  0.7818608E-02  0.1322443E+00
          2   -1    0    0  502    0  0.00000000000E+00  0.00000000000E+00  0.40550646554E+02  0.40550646554E+02  0.00000000000E+00 0. -1.
          1   -1    0    0  501    0 -0.00000000000E+00 -0.00000000000E+00 -0.46082605526E+03  0.46082605526E+03  0.00000000000E+00 0. -1.
          2    1    1    2  501    0 -0.33628802347E+02  0.28823106317E+02 -0.28675991136E+02  0.52763436892E+02  0.00000000000E+00 0. -1.
          1    1    1    2  502    0 -0.24042298337E+02  0.54116252008E+02 -0.12022315457E+03  0.13401569959E+03  0.00000000000E+00 0. -1.
         22    1    1    2    0    0  0.24065696414E+02 -0.37872776525E+02 -0.83646107613E+01  0.45645061713E+02  0.00000000000E+00 0. -1.
         22    1    1    2    0    0  0.33605404270E+02 -0.45066581800E+02 -0.26301165224E+03  0.26895250362E+03  0.00000000000E+00 0. -1.
</event>
<event>
 6    1  0.8017648E-006  0.5433523E+02  0.7818608E-02  0.1460712E+00
          2   -1    0    0  502    0  0.00000000000E+00  0.00000000000E+00  0.17738453454E+03  0.17738453454E+03  0.00000000000E+00 0.  1.
          1   -1    0    0  501    0 -0.00000000000E+00 -0.00000000000E+00 -0.96544702183E+02  0.96544702183E+02  0.00000000000E+00 0.  1.
          2    1    1    2  501    0 -0.86457575279E+01  0.38596115664E+02  0.10326832059E+03  0.11058370271E+03  0.00000000000E+00 0.  1.
          1    1    1    2  502    0 -0.16616413086E+02 -0.28695318505E+02 -0.24464232324E+01  0.33249232692E+02  0.00000000000E+00 0.  1.
         22    1    1    2    0    0  0.14464293051E+02 -0.27526412015E+02 -0.69662422834E+02  0.76287432038E+02  0.00000000000E+00 0.  1.
         22    1    1    2    0    0  0.10797877563E+02  0.17625614856E+02  0.49680357829E+02  0.53808869278E+02  0.00000000000E+00 0.  1.
</event>
<event>
 6    1  0.8017648E-006  0.7186171E+02  0.7818608E-02  0.1362817E+00
          2   -1    0    0  502    0  0.00000000000E+00  0.00000000000E+00  0.32082913007E+02  0.32082913007E+02  0.00000000000E+00 0.  1.
          1   -1    0    0  501    0 -0.00000000000E+00 -0.00000000000E+00 -0.56238615726E+03  0.56238615726E+03  0.00000000000E+00 0. -1.
          2    1    1    2  501    0 -0.52602999491E+02 -0.27140712021E+02 -0.42918507133E+02  0.73114239783E+02  0.00000000000E+00 0.  1.
          1    1    1    2  502    0  0.36611581318E+02 -0.28884348034E+02 -0.17102624509E+03  0.17727010452E+03  0.00000000000E+00 0. -1.
         22    1    1    2    0    0  0.35060874703E+02  0.69098313855E+02 -0.31078969654E+03  0.32030310237E+03  0.00000000000E+00 0. -1.
         22    1    1    2    0    0 -0.19069456530E+02 -0.13073253800E+02 -0.55687954855E+01  0.23781623587E+02  0.00000000000E+00 0.  1.
</event>
<event>
 6    1  0.8017648E-006  0.4710932E+02  0.7818608E-02  0.1538817E+00
          2   -1    0    0  502    0  0.00000000000E+00  0.00000000000E+00  0.18043059993E+03  0.18043059993E+03  0.00000000000E+00 0.  1.
          1   -1    0    0  501    0 -0.00000000000E+00 -0.00000000000E+00 -0.11999793339E+03  0.11999793339E+03  0.00000000000E+00 0. -1.
          2    1    1    2  501    0 -0.22597289779E+01  0.26660899502E+02  0.10311464111E+03  0.10652952242E+03  0.00000000000E+00 0.  1.
          1    1    1    2  502    0  0.23244401522E+01 -0.39654532365E+02 -0.57440259566E+02  0.69837442523E+02  0.00000000000E+00 0. -1.
         22    1    1    2    0    0 -0.16281455408E+02  0.60479278129E+00 -0.51874922135E+02  0.54373330880E+02  0.00000000000E+00 0. -1.
         22    1    1    2    0    0  0.16216744233E+02  0.12388840082E+02  0.66633207138E+02  0.69688237499E+02  0.00000000000E+00 0.  1.
</event>
<event>
 6    1  0.8017648E-006  0.3107444E+02  0.7818608E-02  0.1587571E+00
          2   -1    0    0  502    0  0.00000000000E+00  0.00000000000E+00  0.17177958802E+03  0.17177958802E+03  0.00000000000E+00 0.  1.
          1   -1    0    0  501    0 -0.00000000000E+00 -0.00000000000E+00 -0.11821762920E+03  0.11821762920E+03  0.00000000000E+00 0.  1.
          2    1    1    2  501    0 -0.51453420348E+02 -0.21511201307E+02  0.98603971238E+02  0.11328252024E+03  0.00000000000E+00 0.  1.
          1    1    1    2  502    0  0.35138400180E+02  0.28769498155E+02 -0.21667442805E+02  0.50317683463E+02  0.00000000000E+00 0.  1.
         22    1    1    2    0    0  0.14155991246E+02  0.92194325263E+01 -0.72549227168E+02  0.74490136172E+02  0.00000000000E+00 0.  1.
         22    1    1    2    0    0  0.21590289215E+01 -0.16477729374E+02  0.49174657556E+02  0.51906877357E+02  0.00000000000E+00 0. -1.
</event>
<event>
 6    1  0.8017648E-006  0.9438846E+02  0.7818608E-02  0.1365519E+00
          2   -1    0    0  502    0  0.00000000000E+00  0.00000000000E+00  0.37266296884E+03  0.37266296884E+03  0.00000000000E+00 0. -1.
          1   -1    0    0  501    0 -0.00000000000E+00 -0.00000000000E+00 -0.43536869691E+02  0.43536869691E+02  0.00000000000E+00 0. -1.
          2    1    1    2  501    0 -0.31789429892E+02  0.23557608691E+02  0.53984404740E+02  0.66931642257E+02  0.00000000000E+00 0. -1.
          1    1    1    2  502    0  0.75300084152E+02 -0.36032520043E+02  0.10166454066E+03  0.13154514055E+03  0.00000000000E+00 0. -1.
         22    1    1    2    0    0 -0.29522614332E+02  0.34478501893E+02  0.18406698379E+03  0.18958113401E+03  0.00000000000E+00 0. -1.
         22    1    1    2    0    0 -0.13988039928E+02 -0.22003590541E+02 -0.10589830042E+02  0.28141921719E+02  0.00000000000E+00 0. -1.
</event>
<event>
 6    1  0.8017648E-006  0.4845704E+02  0.7818608E-02  0.1455243E+00
          2   -1    0    0  502    0  0.00000000000E+00  0.00000000000E+00  0.28114312358E+02  0.28114312358E+02  0.00000000000E+00 0.  1.
          1   -1    0    0  501    0 -0.00000000000E+00 -0.00000000000E+00 -0.40478320263E+03  0.40478320263E+03  0.00000000000E+00 0.  1.
          2    1    1    2  501    0 -0.22122070688E+02  0.22120305198E+01 -0.77200470924E+01  0.23534617432E+02  0.00000000000E+00 0.  1.
          1    1    1    2  502    0  0.15849570724E+02  0.40863083832E+02 -0.75862098549E+02  0.87613118359E+02  0.00000000000E+00 0.  1.
         22    1    1    2    0    0  0.38157177823E+02 -0.30669769481E+02 -0.28135350639E+03  0.28558081262E+03  0.00000000000E+00 0.  1.
         22    1    1    2    0    0 -0.31884677859E+02 -0.12405344871E+02 -0.11733238241E+02  0.36168966576E+02  0.00000000000E+00 0.  1.
</event>
<event>
 6    1  0.8017648E-006  0.5261656E+02  0.7818608E-02  0.1540611E+00
          2   -1    0    0  502    0  0.00000000000E+00  0.00000000000E+00  0.19349666746E+03  0.19349666746E+03  0.00000000000E+00 0.  1.
          1   -1    0    0  501    0 -0.00000000000E+00 -0.00000000000E+00 -0.42671015164E+03  0.42671015164E+03  0.00000000000E+00 0. -1.
          2    1    1    2  501    0  0.24375347393E+02  0.11923601818E+02  0.78251712105E+02  0.82823066161E+02  0.00000000000E+00 0.  1.
          1    1    1    2  502    0 -0.51727560428E+02 -0.22199033203E+02 -0.38326253468E+03  0.38737411901E+03  0.00000000000E+00 0. -1.
         22    1    1    2    0    0  0.30827176900E+01  0.10999641545E+02 -0.36902960250E+02  0.38630606230E+02  0.00000000000E+00 0.  1.
         22    1    1    2    0    0  0.24269495345E+02 -0.72421015985E+00  0.10870029866E+03  0.11137902770E+03  0.00000000000E+00 0.  1.
</event>
<event>
 6    1  0.8017648E-006  0.7479996E+02  0.7818608E-02  0.1374550E+00
          2   -1    0    0  502    0  0.00000000000E+00  0.00000000000E+00  0.10364353712E+03  0.10364353712E+03  0.00000000000E+00 0. -1.
          1   -1    0    0  501    0 -0.00000000000E+00 -0.00000000000E+00 -0.25845738438E+03  0.25845738438E+03  0.00000000000E+00 0. -1.
          2    1    1    2  501    0 -0.22452665037E+02  0.22285031381E+01  0.32765870840E+02  0.39783045200E+02  0.00000000000E+00 0. -1.
          1    1    1    2  502    0  0.95020358998E+02  0.99138148881E+01 -0.13439412847E+03  0.16489067323E+03  0.00000000000E+00 0. -1.
         22    1    1    2    0    0 -0.56840498938E+02 -0.28102831491E+02 -0.92517131816E+02  0.11216073795E+03  0.00000000000E+00 0. -1.
         22    1    1    2    0    0 -0.15727195023E+02  0.15960513465E+02  0.39331542187E+02  0.45266465117E+02  0.00000000000E+00 0. -1.
</event>
<event>
 6    1  0.8017648E-006  0.4063363E+02  0.7818608E-02  0.1532419E+00
          2   -1    0    0  502    0  0.00000000000E+00  0.00000000000E+00  0.23400922019E+03  0.23400922019E+03  0.00000000000E+00 0. -1.
          1   -1    0    0  501    0 -0.00000000000E+00 -0.00000000000E+00 -0.20257052072E+03  0.20257052072E+03  0.00000000000E+00 0. -1.
          2    1    1    2  501    0 -0.42214765305E+02  0.56945098635E+02 -0.79257099452E+01  0.71327747381E+02  0.00000000000E+00 0. -1.
          1    1    1    2  502    0 -0.70598383193E+01 -0.31278743747E+02 -0.13797230465E+03  0.14164941927E+03  0.00000000000E+00 0. -1.
         22    1    1    2    0    0  0.16547406511E+02 -0.16317996240E+02 -0.15402841651E+02  0.27880839199E+02  0.00000000000E+00 0. -1.
         22    1    1    2    0    0  0.32727197114E+02 -0.93483586485E+01  0.19273955572E+03  0.19572173507E+03  0.00000000000E+00 0. -1.
</event>
<event>
 6    1  0.8017648E-006  0.1022458E+03  0.7818608E-02  0.1323444E+00
          2   -1    0    0  502    0  0.00000000000E+00  0.00000000000E+00  0.82908596631E+02  0.82908596631E+02  0.00000000000E+00 0.  1.
          1   -1    0    0  501    0 -0.00000000000E+00 -0.00000000000E+00 -0.34384151253E+03  0.34384151253E+03  0.00000000000E+00 0.  1.
          2    1    1    2  501    0 -0.38226857929E+02  0.13667143308E+02  0.16949257432E+02  0.43992735773E+02  0.00000000000E+00 0.  1.
          1    1    1    2  502    0  0.94069447813E+02 -0.28805939898E+02 -0.21044139351E+03  0.23230243927E+03  0.00000000000E+00 0.  1.
         22    1    1    2    0    0 -0.55126755485E+02 -0.27172253762E+02  0.99406904312E+01  0.62258395989E+02  0.00000000000E+00 0.  1.
         22    1    1    2    0    0 -0.71583439845E+00  0.42311050352E+02 -0.77381470248E+02  0.88196538132E+02  0.00000000000E+00 0.  1.
</event>
<event>
 6    1  0.8017648E-006  0.5963764E+02  0.7818608E-02  0.1413857E+00
          2   -1    0    0  502    0  0.00000000000E+00  0.00000000000E+00  0.67715969374E+02  0.67715969374E+02  0.00000000000E+00 0.  1.
          1   -1    0    0  501    0 -0.00000000000E+00 -0.00000000000E+00 -0.11559088045E+04  0.11559088045E+04  0.00000000000E+00 0. -1.
          2    1    1    2  501    0  0.57338289670E+02 -0.80448804618E+02 -0.39160956868E+02  0.10626979895E+03  0.00000000000E+00 0.  1.
          1    1    1    2  502    0 -0.87397156021E+02  0.79306933148E+02 -0.95127704300E+03  0.95856969756E+03  0.00000000000E+00 0. -1.
         22    1    1    2    0    0  0.20979825272E+02 -0.20099165406E+02  0.22238932246E+02  0.36588244367E+02  0.00000000000E+00 0.  1.
         22    1    1    2    0    0  0.90790410791E+01  0.21241036875E+02 -0.11999376747E+03  0.12219703296E+03  0.00000000000E+00 0.  1.
</event>
<event>
 6    1  0.8017648E-006  0.5334907E+02  0.7818608E-02  0.1535130E+00
          2   -1    0    0  502    0  0.00000000000E+00  0.00000000000E+00  0.22522346046E+03  0.22522346046E+03  0.00000000000E+00 0. -1.
          1   -1    0    0  501    0 -0.00000000000E+00 -0.00000000000E+00 -0.10726389068E+03  0.10726389068E+03  0.00000000000E+00 0.  1.
          2    1    1    2  501    0 -0.26652340106E+02 -0.22310472831E+02  0.12030801104E+03  0.12522827936E+03  0.00000000000E+00 0. -1.
          1    1    1    2  502    0  0.47863723480E+02  0.18477628251E+02 -0.46798981724E+02  0.69444247145E+02  0.00000000000E+00 0.  1.
         22    1    1    2    0    0 -0.16550396841E+02 -0.69775237730E+01  0.89483637122E+02  0.91268410670E+02  0.00000000000E+00 0. -1.
         22    1    1    2    0    0 -0.46609865324E+01  0.10810368352E+02 -0.45033096652E+02  0.46546413970E+02  0.00000000000E+00 0.  1.
</event>
<event>
 6    1  0.8017648E-006  0.1375712E+03  0.7818608E-02  0.1283313E+00
          2   -1    0    0  502    0  0.00000000000E+00  0.00000000000E+00  0.17024972681E+03  0.17024972681E+03  0.00000000000E+00 0. -1.
          1   -1    0    0  501    0 -0.00000000000E+00 -0.00000000000E+00 -0.18395960986E+03  0.18395960986E+03  0.00000000000E+00 0. -1.
          2    1    1    2  501    0  0.65339361967E+02  0.88094064566E+02  0.86513650314E+01  0.11002110048E+03  0.00000000000E+00 0. -1.
          1    1    1    2  502    0 -0.62705604777E+02 -0.94515829368E+02  0.14626442389E+02  0.11436418884E+03  0.00000000000E+00 0. -1.
         22    1    1    2    0    0 -0.21017041122E+02 -0.29560665758E+02 -0.69213029374E+02  0.78140849834E+02  0.00000000000E+00 0.  1.
         22    1    1    2    0    0  0.18383283932E+02  0.35982430561E+02  0.32225338904E+02  0.51683197508E+02  0.00000000000E+00 0. -1.
</event>
<event>
 6    1  0.8017648E-006  0.1082215E+03  0.7818608E-02  0.1294916E+00
          2   -1    0    0  502    0  0.00000000000E+00  0.00000000000E+00  0.31027823313E+03  0.31027823313E+03  0.00000000000E+00 0. -1.
          1   -1    0    0  501    0 -0.00000000000E+00 -0.00000000000E+00 -0.39323178413E+03  0.39323178413E+03  0.00000000000E+00 0. -1.
          2    1    1    2  501    0 -0.47990775983E+01 -0.48740181611E+02  0.17037495678E+03  0.17727453948E+03  0.00000000000E+00 0. -1.
          1    1    1    2  502    0 -0.36162586934E+02 -0.96674103920E+02 -0.30486627293E+03  0.32186497081E+03  0.00000000000E+00 0. -1.
         22    1    1    2    0    0  0.34605505226E+02  0.15418327532E+03  0.66115679859E+01  0.15815731476E+03  0.00000000000E+00 0. -1.
         22    1    1    2    0    0  0.63561593069E+01 -0.87689897930E+01  0.44926197157E+02  0.46213192209E+02  0.00000000000E+00 0.  1.
</event>
<event>
 6    1  0.8017648E-006  0.1292364E+03  0.7818608E-02  0.1299799E+00
          2   -1    0    0  502    0  0.00000000000E+00  0.00000000000E+00  0.29066134366E+03  0.29066134366E+03  0.00000000000E+00 0. -1.
          1   -1    0    0  501    0 -0.00000000000E+00 -0.00000000000E+00 -0.11671541358E+03  0.11671541358E+03  0.00000000000E+00 0. -1.
          2    1    1    2  501    0  0.97058023661E+02 -0.22109656887E+02  0.13717883420E+03  0.16949079455E+03  0.00000000000E+00 0. -1.
          1    1    1    2  502    0 -0.94703931355E+02  0.44005058319E+02 -0.87991281829E+01  0.10479839898E+03  0.00000000000E+00 0. -1.
         22    1    1    2    0    0  0.29498815007E+02 -0.17520439487E+02  0.79349929750E+02  0.86449738218E+02  0.00000000000E+00 0. -1.
         22    1    1    2    0    0 -0.31852907313E+02 -0.43749619451E+01 -0.33783705685E+02  0.46637825487E+02  0.00000000000E+00 0. -1.
</event>
<event>
 6    1  0.8017648E-006  0.1308143E+03  0.7818608E-02  0.1321515E+00
          2   -1    0    0  502    0  0.00000000000E+00  0.00000000000E+00  0.58579678149E+03  0.58579678149E+03  0.00000000000E+00 0. -1.
          1   -1    0    0  501    0 -0.00000000000E+00 -0.00000000000E+00 -0.62654142030E+03  0.62654142030E+03  0.00000000000E+00 0. -1.
          2    1    1    2  501    0 -0.83676223442E+02  0.73465000850E+02  0.52697650130E+03  0.53861215141E+03  0.00000000000E+00 0. -1.
          1    1    1    2  502    0  0.99482441924E+02 -0.63792219638E+02 -0.52954493934E+03  0.54257169694E+03  0.00000000000E+00 0. -1.
         22    1    1    2    0    0 -0.12940444207E+02  0.11041942686E+02  0.43571369623E+02  0.46774393052E+02  0.00000000000E+00 0. -1.
         22    1    1    2    0    0 -0.28657742746E+01 -0.20714723899E+02 -0.81747570402E+02  0.84379960387E+02  0.00000000000E+00 0. -1.
</event>
<event>
 6    1  0.9134006E-006  0.1010578E+03  0.7818608E-02  0.1338966E+00
          2   -1    0    0  502    0  0.00000000000E+00  0.00000000000E+00  0.79558377564E+03  0.79558377564E+03  0.00000000000E+00 0. -1.
          1   -1    0    0  501    0 -0.00000000000E+00 -0.00000000000E+00 -0.39361776029E+03  0.39361776029E+03  0.00000000000E+00 0.  1.
          2    1    1    2  501    0 -0.62557604722E+02 -0.50064030772E+02  0.12361758834E+03  0.14731316721E+03  0.00000000000E+00 0. -1.
          1    1    1    2  502    0 -0.42273811664E+02 -0.91285771317E+02 -0.35733495648E+03  0.37122558953E+03  0.00000000000E+00 0.  1.
         22    1    1    2    0    0  0.10444414014E+03  0.10798175282E+03  0.61088811365E+03  0.62908896409E+03  0.00000000000E+00 0. -1.
         22    1    1    2    0    0  0.38727624738E+00  0.33368049273E+02  0.24795269842E+02  0.41573815097E+02  0.00000000000E+00 0. -1.
</event>
<event>
 6    1  0.8017648E-006  0.1846895E+03  0.7818608E-02  0.1301895E+00
          2   -1    0    0  502    0  0.00000000000E+00  0.00000000000E+00  0.29014116594E+03  0.29014116594E+03  0.00000000000E+00 0. -1.
          1   -1    0    0  501    0 -0.00000000000E+00 -0.00000000000E+00 -0.15882973994E+03  0.15882973994E+03  0.00000000000E+00 0. -1.
          2    1    1    2  501    0 -0.14907187853E+02  0.38380345195E+02  0.68902612666E+02  0.80267335693E+02  0.00000000000E+00 0. -1.
          1    1    1    2  502    0  0.10652833479E+03 -0.14261703775E+03  0.13021959040E+02  0.17848662971E+03  0.00000000000E+00 0. -1.
         22    1    1    2    0    0  0.31172756618E+01  0.10130431189E+02 -0.32085535588E+02  0.33790895780E+02  0.00000000000E+00 0. -1.
         22    1    1    2    0    0 -0.94738422602E+02  0.94106261363E+02  0.81472389888E+02  0.15642604470E+03  0.00000000000E+00 0. -1.
</event>
<event>
 6    1  0.8017648E-006  0.5292585E+02  0.7818608E-02  0.1509888E+00
          2   -1    0    0  502    0  0.00000000000E+00  0.00000000000E+00  0.17713441703E+03  0.17713441703E+03  0.00000000000E+00 0.  1.
          1   -1    0    0  501    0 -0.00000000000E+00 -0.00000000000E+00 -0.32273661978E+03  0.32273661978E+03  0.00000000000E+00 0.  1.
          2    1    1    2  501    0  0.36830753222E+02 -0.13211838643E+02  0.13897933367E+03  0.14438252058E+03  0.00000000000E+00 0.  1.
          1    1    1    2  502    0  0.40921849561E+02 -0.14856689572E+02 -0.14429502102E+03  0.15071951462E+03  0.00000000000E+00 0.  1.
         22    1    1    2    0    0 -0.73278640870E+02  0.44344158975E+02 -0.15836010083E+03  0.18003912125E+03  0.00000000000E+00 0.  1.
         22    1    1    2    0    0 -0.44739619131E+01 -0.16275630761E+02  0.18073585442E+02  0.24729880360E+02  0.00000000000E+00 0.  1.
</event>
<event>
 6    1  0.8017648E-006  0.9646427E+02  0.7818608E-02  0.1394348E+00
          2   -1    0    0  502    0  0.00000000000E+00  0.00000000000E+00  0.66428041827E+02  0.66428041827E+02  0.00000000000E+00 0.  1.
          1   -1    0    0  501    0 -0.00000000000E+00 -0.00000000000E+00 -0.28910652817E+03  0.28910652817E+03  0.00000000000E+00 0.  1.
          2    1    1    2  501    0 -0.31165786389E+02 -0.43007817349E+01 -0.96884675079E+01  0.32919133759E+02  0.00000000000E+00 0.  1.
          1    1    1    2  502    0  0.13297320027E+02 -0.41634380518E+02 -0.17258826090E+03  0.17803636752E+03  0.00000000000E+00 0.  1.
         22    1    1    2    0    0  0.33129772337E+02  0.46050394145E+02  0.35656628765E+02  0.67004595297E+02  0.00000000000E+00 0.  1.
         22    1    1    2    0    0 -0.15261305974E+02 -0.11523189241E+00 -0.76058386703E+02  0.77574473419E+02  0.00000000000E+00 0. -1.
</event>
<event>
 6    1  0.8017648E-006  0.6411356E+02  0.7818608E-02  0.1503353E+00
          2   -1    0    0  502    0  0.00000000000E+00  0.00000000000E+00  0.32052822455E+03  0.32052822455E+03  0.00000000000E+00 0.  1.
          1   -1    0    0  501    0 -0.00000000000E+00 -0.00000000000E+00 -0.74120673241E+02  0.74120673241E+02  0.00000000000E+00 0. -1.
          2    1    1    2  501    0 -0.19361788041E+02  0.24471354068E+02  0.15979662524E+03  0.16281488705E+03  0.00000000000E+00 0.  1.
          1    1    1    2  502    0  0.43369048827E+02 -0.25308635286E+02 -0.27855366942E+02  0.57422320431E+02  0.00000000000E+00 0. -1.
         22    1    1    2    0    0  0.87209120003E+01 -0.56276507600E+01 -0.27072826880E+02  0.28994184149E+02  0.00000000000E+00 0. -1.
         22    1    1    2    0    0 -0.32728172786E+02  0.64649319783E+01  0.14153911989E+03  0.14541750616E+03  0.00000000000E+00 0.  1.
</event>
<event>
 6    1  0.8017648E-006  0.3607316E+02  0.7818608E-02  0.1611101E+00
          2   -1    0    0  502    0  0.00000000000E+00  0.00000000000E+00  0.38288624608E+03  0.38288624608E+03  0.00000000000E+00 0. -1.
          1   -1    0    0  501    0 -0.00000000000E+00 -0.00000000000E+00 -0.40661678680E+02  0.40661678680E+02  0.00000000000E+00 0. -1.
          2    1    1    2  501    0 -0.33320089548E+02  0.11145389028E+02  0.54698772384E+02  0.65010797292E+02  0.00000000000E+00 0. -1.
          1    1    1    2  502    0  0.48858289129E+02  0.31557089259E+02  0.18343170916E+03  0.19243225879E+03  0.00000000000E+00 0. -1.
         22    1    1    2    0    0 -0.26406651568E+01 -0.13665727368E+02 -0.27450572232E+02  0.30777575161E+02  0.00000000000E+00 0.  1.
         22    1    1    2    0    0 -0.12897534424E+02 -0.29036750919E+02  0.13154465809E+03  0.13532729352E+03  0.00000000000E+00 0. -1.
</event>
<event>
 6    1  0.8017648E-006  0.1408532E+03  0.7818608E-02  0.1284830E+00
          2   -1    0    0  502    0  0.00000000000E+00  0.00000000000E+00  0.59016570535E+03  0.59016570535E+03  0.00000000000E+00 0. -1.
          1   -1    0    0  501    0 -0.00000000000E+00 -0.00000000000E+00 -0.96472041905E+02  0.96472041905E+02  0.00000000000E+00 0.  1.
          2    1    1    2  501    0  0.23608479660E+02 -0.10011029526E+03  0.35787165135E+03  0.37235943706E+03  0.00000000000E+00 0. -1.
          1    1    1    2  502    0  0.16461538847E+02  0.12794251540E+03  0.10529435303E+02  0.12942618945E+03  0.00000000000E+00 0.  1.
         22    1    1    2    0    0 -0.91384642365E+01 -0.38858354939E+02  0.14235492974E+03  0.14784589713E+03  0.00000000000E+00 0. -1.
         22    1    1    2    0    0 -0.30931554270E+02  0.11026134804E+02 -0.17062352947E+02  0.37006223617E+02  0.00000000000E+00 0.  1.
</event>
<event>
 6    1  0.8017648E-006  0.6603229E+02  0.7818608E-02  0.1423454E+00
          2   -1    0    0  502    0  0.00000000000E+00  0.00000000000E+00  0.13095196363E+03  0.13095196363E+03  0.00000000000E+00 0. -1.
          1   -1    0    0  501    0 -0.00000000000E+00 -0.00000000000E+00 -0.22783696945E+03  0.22783696945E+03  0.00000000000E+00 0.  1.
          2    1    1    2  501    0  0.54458815390E+01  0.48829068046E+02  0.76635154690E+02  0.91032315396E+02  0.00000000000E+00 0. -1.
          1    1    1    2  502    0  0.34252102275E+01 -0.75087973051E+02 -0.68186885465E+02  0.10148589612E+03  0.00000000000E+00 0.  1.
         22    1    1    2    0    0  0.14287069801E+02  0.68945163700E+01  0.26576410043E+02  0.30950933593E+02  0.00000000000E+00 0. -1.
         22    1    1    2    0    0 -0.23158161568E+02  0.19364388636E+02 -0.13190968509E+03  0.13531978796E+03  0.00000000000E+00 0.  1.
</event>
<event>
 6    1  0.8017648E-006  0.1378277E+03  0.7818608E-02  0.1279762E+00
          2   -1    0    0  502    0  0.00000000000E+00  0.00000000000E+00  0.23733998504E+03  0.23733998504E+03  0.00000000000E+00 0. -1.
          1   -1    0    0  501    0 -0.00000000000E+00 -0.00000000000E+00 -0.16221015442E+03  0.16221015442E+03  0.00000000000E+00 0. -1.
          2    1    1    2  501    0  0.45952111507E+02 -0.15690600772E+02 -0.45012245280E+02  0.66210978921E+02  0.00000000000E+00 0. -1.
          1    1    1    2  502    0  0.30887487921E+01 -0.25845737949E+02  0.17645760066E+03  0.17836711404E+03  0.00000000000E+00 0. -1.
         22    1    1    2    0    0 -0.34241289249E+01 -0.38431424361E+02 -0.49353346533E+02  0.62645445575E+02  0.00000000000E+00 0.  1.
         22    1    1    2    0    0 -0.45616731375E+02  0.79967763082E+02 -0.69621782293E+01  0.92326600930E+02  0.00000000000E+00 0. -1.
</event>
<event>
 6    1  0.8017648E-006  0.2458733E+02  0.7818608E-02  0.1673638E+00
          2   -1    0    0  502    0  0.00000000000E+00  0.00000000000E+00  0.61951991298E+02  0.61951991298E+02  0.00000000000E+00 0.  1.
          1   -1    0    0  501    0 -0.00000000000E+00 -0.00000000000E+00 -0.22984488200E+03  0.22984488200E+03  0.00000000000E+00 0.  1.
          2    1    1    2  501    0  0.18289871540E+02  0.15436876487E+02 -0.36330031658E+02  0.43505031397E+02  0.00000000000E+00 0.  1.
          1    1    1    2  502    0  0.24393764218E+02 -0.67088252912E+01 -0.10663852191E+03  0.10959853295E+03  0.00000000000E+00 0.  1.
         22    1    1    2    0    0 -0.22280716110E+02  0.50885479732E+01 -0.77408902459E+02  0.80712215994E+02  0.00000000000E+00 0.  1.
         22    1    1    2    0    0 -0.20402919648E+02 -0.13816599169E+02  0.52484565326E+02  0.57981092955E+02  0.00000000000E+00 0.  1.
</event>
<event>
 6    1  0.8017648E-006  0.1499229E+03  0.7818608E-02  0.1313230E+00
          2   -1    0    0  502    0  0.00000000000E+00  0.00000000000E+00  0.11780181040E+04  0.11780181040E+04  0.00000000000E+00 0.  1.
          1   -1    0    0  501    0 -0.00000000000E+00 -0.00000000000E+00 -0.70478544721E+02  0.70478544721E+02  0.00000000000E+00 0. -1.
          2    1    1    2  501    0  0.89349784420E+01 -0.32813874273E+02  0.10356020322E+04  0.10361602932E+04  0.00000000000E+00 0.  1.
          1    1    1    2  502    0  0.30666546053E+02 -0.71127693444E-01 -0.27761567034E+02  0.41366009115E+02  0.00000000000E+00 0. -1.
         22    1    1    2    0    0  0.62282244656E+01  0.14866315172E+02 -0.28996304065E+02  0.33175047192E+02  0.00000000000E+00 0. -1.
         22    1    1    2    0    0 -0.45829748961E+02  0.18018686795E+02  0.12869539821E+03  0.13779529921E+03  0.00000000000E+00 0. -1.
</event>
<event>
 6    1  0.8017648E-006  0.1027980E+03  0.7818608E-02  0.1344353E+00
          2   -1    0    0  502    0  0.00000000000E+00  0.00000000000E+00  0.22342815784E+04  0.22342815784E+04  0.00000000000E+00 0.  1.
          1   -1    0    0  501    0 -0.00000000000E+00 -0.00000000000E+00 -0.52816506422E+02  0.52816506422E+02  0.00000000000E+00 0.  1.
          2    1    1    2  501    0  0.13492841985E+03 -0.83650243914E+02  0.16444514749E+04  0.16520967572E+04  0.00000000000E+00 0.  1.
          1    1    1    2  502    0 -0.12126071439E+03  0.14453756825E+03  0.23027138206E+03  0.29769141554E+03  0.00000000000E+00 0.  1.
         22    1    1    2    0    0 -0.14991808412E+02 -0.49784305362E+01 -0.79518055651E+01  0.17685313167E+02  0.00000000000E+00 0.  1.
         22    1    1    2    0    0  0.13241029504E+01 -0.55908893797E+02  0.31469402056E+03  0.31962459892E+03  0.00000000000E+00 0. -1.
</event>
<event>
 6    1  0.8017648E-006  0.8691889E+03  0.7818608E-02  0.1069684E+00
          2   -1    0    0  502    0  0.00000000000E+00  0.00000000000E+00  0.13540194219E+04  0.13540194219E+04  0.00000000000E+00 0.  1.
          1   -1    0    0  501    0 -0.00000000000E+00 -0.00000000000E+00 -0.25856987727E+03  0.25856987727E+03  0.00000000000E+00 0. -1.
          2    1    1    2  501    0  0.45194722500E+01 -0.37642844481E+03  0.27816626931E+03  0.46807614025E+03  0.00000000000E+00 0.  1.
          1    1    1    2  502    0  0.97230666123E+02 -0.48628006564E+02 -0.82676066630E+02  0.13657897880E+03  0.00000000000E+00 0. -1.
         22    1    1    2    0    0 -0.11914715022E+03  0.41794609113E+03  0.87111647072E+03  0.97350854339E+03  0.00000000000E+00 0.  1.
         22    1    1    2    0    0  0.17397011847E+02  0.71103602402E+01  0.28842871253E+02  0.34425636756E+02  0.00000000000E+00 0. -1.
</event>
<event>
 6    1  0.8017648E-006  0.2407882E+03  0.7818608E-02  0.1175747E+00
          2   -1    0    0  502    0  0.00000000000E+00  0.00000000000E+00  0.33245060335E+03  0.33245060335E+03  0.00000000000E+00 0.  1.
          1   -1    0    0  501    0 -0.00000000000E+00 -0.00000000000E+00 -0.24391439893E+03  0.24391439893E+03  0.00000000000E+00 0.  1.
          2    1    1    2  501    0  0.12977462093E+03  0.11765022553E+03 -0.60531795976E+00  0.17516676116E+03  0.00000000000E+00 0.  1.
          1    1    1    2  502    0 -0.13426590921E+03 -0.19038943438E+03  0.96614180821E+02  0.25220977585E+03  0.00000000000E+00 0.  1.
         22    1    1    2    0    0  0.49673729393E+02  0.29214819567E+02  0.40140859580E+02  0.70230147956E+02  0.00000000000E+00 0. -1.
         22    1    1    2    0    0 -0.45182441113E+02  0.43524389287E+02 -0.47613518026E+02  0.78758317317E+02  0.00000000000E+00 0. -1.
</event>
<event>
 6    1  0.8017648E-006  0.1807001E+03  0.7818608E-02  0.1256268E+00
          2   -1    0    0  502    0  0.00000000000E+00  0.00000000000E+00  0.21854510459E+03  0.21854510459E+03  0.00000000000E+00 0. -1.
          1   -1    0    0  501    0 -0.00000000000E+00 -0.00000000000E+00 -0.21930628726E+03  0.21930628726E+03  0.00000000000E+00 0. -1.
          2    1    1    2  501    0  0.51255791817E+02 -0.38921959292E+02 -0.18307507984E+01  0.64384988611E+02  0.00000000000E+00 0. -1.
          1    1    1    2  502    0 -0.52064946510E+02  0.13570002654E+03 -0.10575017507E+03  0.17974525135E+03  0.00000000000E+00 0. -1.
         22    1    1    2    0    0  0.25150147722E+02 -0.85072737901E+02  0.13050218056E+03  0.15779961913E+03  0.00000000000E+00 0. -1.
         22    1    1    2    0    0 -0.24340993030E+02 -0.11705329342E+02 -0.23682437361E+02  0.35921532763E+02  0.00000000000E+00 0. -1.
</event>
<event>
 6    1  0.8017648E-006  0.1096436E+03  0.7818608E-02  0.1376456E+00
          2   -1    0    0  502    0  0.00000000000E+00  0.00000000000E+00  0.57859434725E+03  0.57859434725E+03  0.00000000000E+00 0. -1.
          1   -1    0    0  501    0 -0.00000000000E+00 -0.00000000000E+00 -0.38792091395E+02  0.38792091395E+02  0.00000000000E+00 0. -1.
          2    1    1    2  501    0  0.44126823905E+01  0.31376819670E+02  0.23021931896E+02  0.39166132394E+02  0.00000000000E+00 0. -1.
          1    1    1    2  502    0  0.40932741427E+02 -0.78628492165E+02  0.35524186990E+03  0.36613483203E+03  0.00000000000E+00 0. -1.
         22    1    1    2    0    0 -0.47975483015E+02  0.60883299962E+02  0.17583194100E+03  0.19215955522E+03  0.00000000000E+00 0. -1.
         22    1    1    2    0    0  0.26300591979E+01 -0.13631627467E+02 -0.14293486944E+02  0.19925918995E+02  0.00000000000E+00 0. -1.
</event>
<event>
 6    1  0.8017648E-006  0.7919670E+02  0.7818608E-02  0.1367844E+00
          2   -1    0    0  502    0  0.00000000000E+00  0.00000000000E+00  0.22201785524E+03  0.22201785524E+03  0.00000000000E+00 0.  1.
          1   -1    0    0  501    0 -0.00000000000E+00 -0.00000000000E+00 -0.24884682000E+03  0.24884682000E+03  0.00000000000E+00 0. -1.
          2    1    1    2  501    0  0.21222947811E+02 -0.58273621424E+02  0.17960709549E+03  0.19001299224E+03  0.00000000000E+00 0.  1.
          1    1    1    2  502    0  0.13377912099E+02  0.60495124999E+02 -0.82856728763E+02  0.10345949054E+03  0.00000000000E+00 0. -1.
         22    1    1    2    0    0  0.59483536438E+01 -0.14833586725E+02  0.21179752513E+02  0.26533000635E+02  0.00000000000E+00 0. -1.
         22    1    1    2    0    0 -0.40549213554E+02  0.12612083151E+02 -0.14475908400E+03  0.15085919184E+03  0.00000000000E+00 0. -1.
</event>
<event>
 6    1  0.8017648E-006  0.1600113E+03  0.7818608E-02  0.1239389E+00
          2   -1    0    0  502    0  0.00000000000E+00  0.00000000000E+00  0.73783842968E+03  0.73783842968E+03  0.00000000000E+00 0. -1.
          1   -1    0    0  501    0 -0.00000000000E+00 -0.00000000000E+00 -0.20466047367E+03  0.20466047367E+03  0.00000000000E+00 0. -1.
          2    1    1    2  501    0  0.28453986538E+02  0.19501896270E+03 -0.28902451518E+02  0.19919180924E+03  0.00000000000E+00 0. -1.
          1    1    1    2  502    0  0.94917736796E+02 -0.26814160478E+03  0.41479050403E+03  0.50295174639E+03  0.00000000000E+00 0. -1.
         22    1    1    2    0    0 -0.86127521722E+02  0.98070499186E+02  0.14554011403E+03  0.19549347201E+03  0.00000000000E+00 0. -1.
         22    1    1    2    0    0 -0.37244201612E+02 -0.24947857113E+02  0.17497894807E+01  0.44861875702E+02  0.00000000000E+00 0.  1.
</event>
<event>
 6    1  0.8017648E-006  0.1107657E+03  0.7818608E-02  0.1281134E+00
          2   -1    0    0  502    0  0.00000000000E+00  0.00000000000E+00  0.14775833897E+03  0.14775833897E+03  0.00000000000E+00 0.  1.
          1   -1    0    0  501    0 -0.00000000000E+00 -0.00000000000E+00 -0.17515539095E+03  0.17515539095E+03  0.00000000000E+00 0. -1.
          2    1    1    2  501    0  0.54992330902E+02 -0.73562556357E+02 -0.26228446237E+02  0.95517210742E+02  0.00000000000E+00 0.  1.
          1    1    1    2  502    0 -0.61643579738E+01  0.86350095049E+02  0.25041420247E+02  0.90118871232E+02  0.00000000000E+00 0. -1.
         22    1    1    2    0    0 -0.61766221451E+02  0.37812697369E+02 -0.40703050233E+02  0.83075895980E+02  0.00000000000E+00 0. -1.
         22    1    1    2    0    0  0.12938248523E+02 -0.50600236061E+02  0.14493024240E+02  0.54201751963E+02  0.00000000000E+00 0. -1.
</event>
<event>
 6    1  0.8017648E-006  0.2385351E+03  0.7818608E-02  0.1226716E+00
          2   -1    0    0  502    0  0.00000000000E+00  0.00000000000E+00  0.17397143539E+04  0.17397143539E+04  0.00000000000E+00 0. -1.
          1   -1    0    0  501    0 -0.00000000000E+00 -0.00000000000E+00 -0.34047659329E+02  0.34047659329E+02  0.00000000000E+00 0. -1.
          2    1    1    2  501    0  0.24737156918E+02  0.73688160397E+02  0.53393009906E+03  0.53955835884E+03  0.00000000000E+00 0. -1.
          1    1    1    2  502    0 -0.16390544198E+03 -0.10813582077E+03  0.65277371217E+03  0.68166844503E+03  0.00000000000E+00 0. -1.
         22    1    1    2    0    0  0.14717623376E+03  0.14636085301E+02  0.50681451500E+03  0.52795455429E+03  0.00000000000E+00 0.  1.
         22    1    1    2    0    0 -0.80079486996E+01  0.19811575077E+02  0.12148368303E+02  0.24580655032E+02  0.00000000000E+00 0.  1.
</event>
<event>
 6    1  0.8017648E-006  0.8833653E+02  0.7818608E-02  0.1407822E+00
          2   -1    0    0  502    0  0.00000000000E+00  0.00000000000E+00  0.22326814892E+03  0.22326814892E+03  0.00000000000E+00 0. -1.
          1   -1    0    0  501    0 -0.00000000000E+00 -0.00000000000E+00 -0.16907289446E+03  0.16907289446E+03  0.00000000000E+00 0. -1.
          2    1    1    2  501    0  0.71917757234E+02 -0.73807831152E+02  0.62589168477E+02  0.12057016113E+03  0.00000000000E+00 0. -1.
          1    1    1    2  502    0 -0.10153224489E+03  0.11373403394E+02 -0.64799559516E+02  0.12098402361E+03  0.00000000000E+00 0. -1.
         22    1    1    2    0    0  0.43349485701E+02  0.62989176771E+02  0.87851607021E+02  0.11646767430E+03  0.00000000000E+00 0. -1.
         22    1    1    2    0    0 -0.13734998049E+02 -0.55474901236E+00 -0.31445961517E+02  0.34319184338E+02  0.00000000000E+00 0. -1.
</event>
<event>
 6    1  0.8017648E-006  0.1054008E+03  0.7818608E-02  0.1320242E+00
          2   -1    0    0  502    0  0.00000000000E+00  0.00000000000E+00  0.26862262148E+02  0.26862262148E+02  0.00000000000E+00 0. -1.
          1   -1    0    0  501    0 -0.00000000000E+00 -0.00000000000E+00 -0.60720473551E+03  0.60720473551E+03  0.00000000000E+00 0. -1.
          2    1    1    2  501    0 -0.29772731443E+02 -0.45455620963E+01 -0.66352530653E+02  0.72867935311E+02  0.00000000000E+00 0. -1.
          1    1    1    2  502    0 -0.12413880773E+02 -0.50185477704E+02 -0.38163917239E+02  0.64258627337E+02  0.00000000000E+00 0. -1.
         22    1    1    2    0    0  0.23577362148E+02  0.91149867638E+02 -0.24399562252E+03  0.26153021658E+03  0.00000000000E+00 0. -1.
         22    1    1    2    0    0  0.18609250069E+02 -0.36418827838E+02 -0.23183040295E+03  0.23541021843E+03  0.00000000000E+00 0.  1.
</event>
<event>
 6    1  0.8017648E-006  0.9091392E+02  0.7818608E-02  0.1380593E+00
          2   -1    0    0  502    0  0.00000000000E+00  0.00000000000E+00  0.57304060225E+02  0.57304060225E+02  0.00000000000E+00 0.  1.
          1   -1    0    0  501    0 -0.00000000000E+00 -0.00000000000E+00 -0.62098993398E+03  0.62098993398E+03  0.00000000000E+00 0. -1.
          2    1    1    2  501    0 -0.19065752353E+02 -0.22711201143E+02 -0.15422411258E+01  0.29693098151E+02  0.00000000000E+00 0.  1.
          1    1    1    2  502    0  0.62000709839E+02  0.75680816585E+02 -0.46404709865E+03  0.47424823013E+03  0.00000000000E+00 0. -1.
         22    1    1    2    0    0  0.80813367898E+01 -0.21277086408E+02 -0.11067466338E+03  0.11299072317E+03  0.00000000000E+00 0. -1.
         22    1    1    2    0    0 -0.51016294276E+02 -0.31692529034E+02  0.12578129398E+02  0.61361942744E+02  0.00000000000E+00 0.  1.
</event>
<event>
 6    1  0.8017648E-006  0.2453750E+02  0.7818608E-02  0.1693997E+00
          2   -1    0    0  502    0  0.00000000000E+00  0.00000000000E+00  0.10361217171E+03  0.10361217171E+03  0.00000000000E+00 0.  1.
          1   -1    0    0  501    0 -0.00000000000E+00 -0.00000000000E+00 -0.89042700670E+02  0.89042700670E+02  0.00000000000E+00 0.  1.
          2    1    1    2  501    0  0.46877316961E+01 -0.22522331117E+02  0.21792019196E+02  0.31687889296E+02  0.00000000000E+00 0.  1.
          1    1    1    2  502    0 -0.25689130018E+02  0.87721499183E+01 -0.15126957144E+02  0.31075824167E+02  0.00000000000E+00 0.  1.
         22    1    1    2    0    0  0.62106882178E+01  0.21522862126E+02 -0.57855969818E+02  0.62041272439E+02  0.00000000000E+00 0.  1.
         22    1    1    2    0    0  0.14790710104E+02 -0.77726809271E+01  0.65760378802E+02  0.67849886473E+02  0.00000000000E+00 0.  1.
</event>
<event>
 6    1  0.8017648E-006  0.8168960E+02  0.7818608E-02  0.1410725E+00
          2   -1    0    0  502    0  0.00000000000E+00  0.00000000000E+00  0.36892287685E+03  0.36892287685E+03  0.00000000000E+00 0.  1.
          1   -1    0    0  501    0 -0.00000000000E+00 -0.00000000000E+00 -0.12059386837E+03  0.12059386837E+03  0.00000000000E+00 0. -1.
          2    1    1    2  501    0  0.25408001584E+02  0.82405520285E+02  0.27716850728E+03  0.29027335004E+03  0.00000000000E+00 0.  1.
          1    1    1    2  502    0 -0.47769158424E+02 -0.14412341497E+02  0.64497423020E+01  0.50311104736E+02  0.00000000000E+00 0. -1.
         22    1    1    2    0    0  0.41423229219E+02 -0.71642754450E+02  0.24309792061E+02  0.86252734299E+02  0.00000000000E+00 0. -1.
         22    1    1    2    0    0 -0.19062072379E+02  0.36495756611E+01 -0.59599033158E+02  0.62679556150E+02  0.00000000000E+00 0. -1.
</event>
<event>
 6    1  0.8017648E-006  0.6838726E+02  0.7818608E-02  0.1417886E+00
          2   -1    0    0  502    0  0.00000000000E+00  0.00000000000E+00  0.71831293083E+03  0.71831293083E+03  0.00000000000E+00 0.  1.
          1   -1    0    0  501    0 -0.00000000000E+00 -0.00000000000E+00 -0.78028537722E+02  0.78028537722E+02  0.00000000000E+00 0.  1.
          2    1    1    2  501    0  0.29328889927E+02 -0.10860934473E+02  0.63973198768E+03  0.64049602633E+03  0.00000000000E+00 0.  1.
          1    1    1    2  502    0 -0.20889101824E+02 -0.12306928639E+01  0.20797239599E+02  0.29502446591E+02  0.00000000000E+00 0.  1.
         22    1    1    2    0    0 -0.54362398755E+01  0.29099225674E+02 -0.68751313993E+02  0.74853595869E+02  0.00000000000E+00 0.  1.
         22    1    1    2    0    0 -0.30035482276E+01 -0.17007598337E+02  0.48506479819E+02  0.51489399760E+02  0.00000000000E+00 0. -1.
</event>
<event>
 6    1  0.8017648E-006  0.1068723E+03  0.7818608E-02  0.1314637E+00
          2   -1    0    0  502    0  0.00000000000E+00  0.00000000000E+00  0.36901458935E+03  0.36901458935E+03  0.00000000000E+00 0. -1.
          1   -1    0    0  501    0 -0.00000000000E+00 -0.00000000000E+00 -0.22362066118E+03  0.22362066118E+03  0.00000000000E+00 0. -1.
          2    1    1    2  501    0 -0.34212585937E+02  0.76325361109E+01 -0.24768312157E+02  0.42921159480E+02  0.00000000000E+00 0. -1.
          1    1    1    2  502    0  0.96946210999E+02 -0.40841025725E+02  0.32287002726E+03  0.33957563475E+03  0.00000000000E+00 0. -1.
         22    1    1    2    0    0 -0.39906434473E+02 -0.36812214062E+01  0.10364618357E+02  0.41394446693E+02  0.00000000000E+00 0. -1.
         22    1    1    2    0    0 -0.22827190589E+02  0.36889711021E+02 -0.16307240529E+03  0.16874400960E+03  0.00000000000E+00 0. -1.
</event>
<event>
 6    1  0.8017648E-006  0.7048004E+02  0.7818608E-02  0.1376073E+00
          2   -1    0    0  502    0  0.00000000000E+00  0.00000000000E+00  0.98877893161E+03  0.98877893161E+03  0.00000000000E+00 0.  1.
          1   -1    0    0  501    0 -0.00000000000E+00 -0.00000000000E+00 -0.64277534280E+02  0.64277534280E+02  0.00000000000E+00 0.  1.
          2    1    1    2  501    0 -0.64868813459E+02  0.58479044258E+02  0.81126549992E+03  0.81595310707E+03  0.00000000000E+00 0.  1.
          1    1    1    2  502    0  0.35527982630E+02  0.94558792407E+01 -0.20489506028E+02  0.42088847208E+02  0.00000000000E+00 0.  1.
         22    1    1    2    0    0 -0.47751898473E+00 -0.52595104854E+02  0.14911462975E+03  0.15811908767E+03  0.00000000000E+00 0.  1.
         22    1    1    2    0    0  0.29818349814E+02 -0.15339818645E+02 -0.15389226313E+02  0.36895423946E+02  0.00000000000E+00 0.  1.
</event>
<event>
 6    1  0.8017648E-006  0.8771463E+02  0.7818608E-02  0.1350357E+00
          2   -1    0    0  502    0  0.00000000000E+00  0.00000000000E+00  0.14449271383E+03  0.14449271383E+03  0.00000000000E+00 0. -1.
          1   -1    0    0  501    0 -0.00000000000E+00 -0.00000000000E+00 -0.10081986917E+03  0.10081986917E+03  0.00000000000E+00 0. -1.
          2    1    1    2  501    0 -0.48223577944E+01 -0.30971053026E+02  0.28488149526E+01  0.31473433351E+02  0.00000000000E+00 0. -1.
          1    1    1    2  502    0 -0.24201786548E+02  0.65473707443E+02  0.43980258582E+02  0.82503308924E+02  0.00000000000E+00 0. -1.
         22    1    1    2    0    0 -0.13724046770E+02 -0.39643584530E+02 -0.51614094845E+02  0.66512991519E+02  0.00000000000E+00 0. -1.
         22    1    1    2    0    0  0.42748191112E+02  0.51409301132E+01  0.48457865964E+02  0.64822849209E+02  0.00000000000E+00 0. -1.
</event>
<event>
 6    1  0.8017648E-006  0.8009328E+02  0.7818608E-02  0.1384886E+00
          2   -1    0    0  502    0  0.00000000000E+00  0.00000000000E+00  0.12385719310E+03  0.12385719310E+03  0.00000000000E+00 0. -1.
          1   -1    0    0  501    0 -0.00000000000E+00 -0.00000000000E+00 -0.15449322499E+03  0.15449322499E+03  0.00000000000E+00 0. -1.
          2    1    1    2  501    0  0.23893145718E+02 -0.83844951130E+01  0.61720554701E+02  0.66712885136E+02  0.00000000000E+00 0. -1.
          1    1    1    2  502    0 -0.37126832572E+01  0.36809475894E+02 -0.65851386267E+02  0.75532288499E+02  0.00000000000E+00 0. -1.
         22    1    1    2    0    0  0.95007116517E+00 -0.51168965745E+02  0.38516633802E+02  0.64052297149E+02  0.00000000000E+00 0. -1.
         22    1    1    2    0    0 -0.21130533626E+02  0.22743984964E+02 -0.65021834127E+02  0.72052947314E+02  0.00000000000E+00 0. -1.
</event>
<event>
 6    1  0.8017648E-006  0.5870186E+02  0.7818608E-02  0.1471815E+00
          2   -1    0    0  502    0  0.00000000000E+00  0.00000000000E+00  0.63668302969E+03  0.63668302969E+03  0.00000000000E+00 0.  1.
          1   -1    0    0  501    0 -0.00000000000E+00 -0.00000000000E+00 -0.51019662549E+02  0.51019662549E+02  0.00000000000E+00 0. -1.
          2    1    1    2  501    0  0.24892635629E+01 -0.70065048274E+02  0.39751026995E+03  0.40364554022E+03  0.00000000000E+00 0.  1.
          1    1    1    2  502    0 -0.40976165638E+02  0.56167930816E+02  0.20315110502E+02  0.72433323252E+02  0.00000000000E+00 0. -1.
         22    1    1    2    0    0  0.47620982697E+02  0.31223395771E+02  0.17984844072E+03  0.18864813825E+03  0.00000000000E+00 0.  1.
         22    1    1    2    0    0 -0.91340806214E+01 -0.17326278313E+02 -0.12010454026E+02  0.22975690520E+02  0.00000000000E+00 0. -1.
</event>
<event>
 6    1  0.8017648E-006  0.5184916E+02  0.7818608E-02  0.1527073E+00
          2   -1    0    0  502    0  0.00000000000E+00  0.00000000000E+00  0.16200831632E+03  0.16200831632E+03  0.00000000000E+00 0. -1.
          1   -1    0    0  501    0 -0.00000000000E+00 -0.00000000000E+00 -0.82895726843E+02  0.82895726843E+02  0.00000000000E+00 0. -1.
          2    1    1    2  501    0  0.22881072018E+02 -0.46355256960E+01  0.41928562240E+02  0.47989956102E+02  0.00000000000E+00 0. -1.
          1    1    1    2  502    0 -0.57366821648E+02 -0.73483124639E+01 -0.12738842282E+02  0.59221854283E+02  0.00000000000E+00 0. -1.
         22    1    1    2    0    0  0.96561578490E+01  0.10492918886E+02 -0.41010071270E+02  0.43418529187E+02  0.00000000000E+00 0.  1.
         22    1    1    2    0    0  0.24829591781E+02  0.14909192738E+01  0.90932940790E+02  0.94273703592E+02  0.00000000000E+00 0.  1.
</event>
<event>
 6    1  0.8017648E-006  0.6456412E+02  0.7818608E-02  0.1380401E+00
          2   -1    0    0  502    0  0.00000000000E+00  0.00000000000E+00  0.11719249684E+03  0.11719249684E+03  0.00000000000E+00 0. -1.
          1   -1    0    0  501    0 -0.00000000000E+00 -0.00000000000E+00 -0.14582307344E+03  0.14582307344E+03  0.00000000000E+00 0.  1.
          2    1    1    2  501    0 -0.25847757170E+01  0.33866446158E+02  0.42522859117E+02  0.54422520967E+02  0.00000000000E+00 0. -1.
          1    1    1    2  502    0  0.75492277694E+01 -0.43136925869E+02 -0.70523360647E+02  0.83014032611E+02  0.00000000000E+00 0.  1.
         22    1    1    2    0    0  0.12482031294E+02 -0.13256990068E+02 -0.58395524574E+02  0.61168506449E+02  0.00000000000E+00 0.  1.
         22    1    1    2    0    0 -0.17446483347E+02  0.22527469779E+02  0.57765449502E+02  0.64410510260E+02  0.00000000000E+00 0. -1.
</event>
<event>
 6    1  0.8017648E-006  0.1155586E+03  0.7818608E-02  0.1361337E+00
          2   -1    0    0  502    0  0.00000000000E+00  0.00000000000E+00  0.21873259798E+04  0.21873259798E+04  0.00000000000E+00 0.  1.
          1   -1    0    0  501    0 -0.00000000000E+00 -0.00000000000E+00 -0.23683706018E+02  0.23683706018E+02  0.00000000000E+00 0.  1.
          2    1    1    2  501    0 -0.47334963843E+02  0.44622887136E+02  0.54438088775E+03  0.54825391180E+03  0.00000000000E+00 0.  1.
          1    1    1    2  502    0 -0.31401843012E+01 -0.63981761415E+02  0.14272707182E+04  0.14287075382E+04  0.00000000000E+00 0.  1.
         22    1    1    2    0    0  0.41364927301E+02  0.71447072399E+01  0.20785501115E+03  0.21205143176E+03  0.00000000000E+00 0.  1.
         22    1    1    2    0    0  0.91102208435E+01  0.12214167039E+02 -0.15864343336E+02  0.21996804080E+02  0.00000000000E+00 0.  1.
</event>
<event>
 6    1  0.8017648E-006  0.6020646E+02  0.7818608E-02  0.1402520E+00
          2   -1    0    0  502    0  0.00000000000E+00  0.00000000000E+00  0.79665907538E+02  0.79665907538E+02  0.00000000000E+00 0. -1.
          1   -1    0    0  501    0 -0.00000000000E+00 -0.00000000000E+00 -0.22440751187E+03  0.22440751187E+03  0.00000000000E+00 0. -1.
          2    1    1    2  501    0 -0.48392519141E+02  0.38152227355E+02  0.30098727706E+02  0.68581059852E+02  0.00000000000E+00 0. -1.
          1    1    1    2  502    0  0.28836656580E+02  0.21663336449E+01 -0.26560713535E+02  0.39264707660E+02  0.00000000000E+00 0. -1.
         22    1    1    2    0    0  0.24546449048E+02 -0.57927536873E+02 -0.16171582675E+03  0.17352272563E+03  0.00000000000E+00 0. -1.
         22    1    1    2    0    0 -0.49905864868E+01  0.17608975873E+02  0.13436208244E+02  0.22704926266E+02  0.00000000000E+00 0.  1.
</event>
<event>
 6    1  0.8017648E-006  0.1568906E+03  0.7818608E-02  0.1310658E+00
          2   -1    0    0  502    0  0.00000000000E+00  0.00000000000E+00  0.24347826209E+04  0.24347826209E+04  0.00000000000E+00 0.  1.
          1   -1    0    0  501    0 -0.00000000000E+00 -0.00000000000E+00 -0.23864689375E+03  0.23864689375E+03  0.00000000000E+00 0.  1.
          2    1    1    2  501    0 -0.11611364680E+03  0.12774997076E+03  0.22823223497E+04  0.22888420090E+04  0.00000000000E+00 0.  1.
          1    1    1    2  502    0  0.14147932070E+03 -0.52480946344E+01 -0.13826776849E+03  0.19789369997E+03  0.00000000000E+00 0.  1.
         22    1    1    2    0    0  0.12888342573E+01  0.12855656285E+02  0.46891900825E+02  0.48639277906E+02  0.00000000000E+00 0.  1.
         22    1    1    2    0    0 -0.26654508158E+02 -0.13535753241E+03  0.51892451156E+01  0.13805452781E+03  0.00000000000E+00 0.  1.
</event>
<event>
 6    1  0.1903362E-005  0.1640312E+03  0.7818608E-02  0.1312405E+00
          2   -1    0    0  502    0  0.00000000000E+00  0.00000000000E+00  0.41517182879E+03  0.41517182879E+03  0.00000000000E+00 0. -1.
          1   -1    0    0  501    0 -0.00000000000E+00 -0.00000000000E+00 -0.83633954659E+03  0.83633954659E+03  0.00000000000E+00 0. -1.
          2    1    1    2  501    0  0.84297851020E+02 -0.43536019544E+02  0.16121780213E+03  0.18706333796E+03  0.00000000000E+00 0. -1.
          1    1    1    2  502    0 -0.10292036635E+03  0.10160772858E+03 -0.79596162882E+03  0.80899421930E+03  0.00000000000E+00 0. -1.
         22    1    1    2    0    0 -0.10015348916E+02 -0.74652075893E+01 -0.15044524333E+02  0.19554392107E+02  0.00000000000E+00 0. -1.
         22    1    1    2    0    0  0.28637864244E+02 -0.50606501450E+02  0.22862063322E+03  0.23589942601E+03  0.00000000000E+00 0. -1.
</event>
<event>
 6    1  0.8017648E-006  0.5561118E+02  0.7818608E-02  0.1422585E+00
          2   -1    0    0  502    0  0.00000000000E+00  0.00000000000E+00  0.25990787824E+03  0.25990787824E+03  0.00000000000E+00 0. -1.
          1   -1    0    0  501    0 -0.00000000000E+00 -0.00000000000E+00 -0.17218419115E+03  0.17218419115E+03  0.00000000000E+00 0. -1.
          2    1    1    2  501    0 -0.38050923720E+02  0.88161752936E+01  0.21199982482E+03  0.21556790918E+03  0.00000000000E+00 0. -1.
          1    1    1    2  502    0  0.28221078007E+02  0.87932587356E+01 -0.73439946700E+02  0.79165500153E+02  0.00000000000E+00 0. -1.
         22    1    1    2    0    0  0.20737769116E+02 -0.14240156799E+02 -0.91618059049E+02  0.95008977879E+02  0.00000000000E+00 0. -1.
         22    1    1    2    0    0 -0.10907923403E+02 -0.33692772299E+01  0.40781868014E+02  0.42349682179E+02  0.00000000000E+00 0. -1.
</event>
<event>
 6    1  0.8017648E-006  0.8539579E+02  0.7818608E-02  0.1323478E+00
          2   -1    0    0  502    0  0.00000000000E+00  0.00000000000E+00  0.86944943397E+03  0.86944943397E+03  0.00000000000E+00 0. -1.
          1   -1    0    0  501    0 -0.00000000000E+00 -0.00000000000E+00 -0.22356127522E+02  0.22356127522E+02  0.00000000000E+00 0.  1.
          2    1    1    2  501    0 -0.76382271881E+01 -0.55389595773E+02  0.40556664656E+03  0.40940280243E+03  0.00000000000E+00 0. -1.
          1    1    1    2  502    0 -0.42127097360E+02 -0.63384323900E+00  0.46893474150E+02  0.63040399801E+02  0.00000000000E+00 0.  1.
         22    1    1    2    0    0  0.22759216248E+02  0.89781941528E+02  0.20641482262E+03  0.22624291800E+03  0.00000000000E+00 0.  1.
         22    1    1    2    0    0  0.27006108301E+02 -0.33758502516E+02  0.18821836312E+03  0.19311944126E+03  0.00000000000E+00 0. -1.
</event>
<event>
 6    1  0.8017648E-006  0.3852820E+02  0.7818608E-02  0.1585125E+00
          2   -1    0    0  502    0  0.00000000000E+00  0.00000000000E+00  0.97237380196E+03  0.97237380196E+03  0.00000000000E+00 0. -1.
          1   -1    0    0  501    0 -0.00000000000E+00 -0.00000000000E+00 -0.39441067952E+02  0.39441067952E+02  0.00000000000E+00 0.  1.
          2    1    1    2  501    0  0.21045977268E+01  0.37875860976E+02  0.77815976022E+03  0.77908383541E+03  0.00000000000E+00 0. -1.
          1    1    1    2  502    0  0.24994198526E+02 -0.67880202884E+01  0.80543774698E+02  0.84605477494E+02  0.00000000000E+00 0.  1.
         22    1    1    2    0    0 -0.16658105300E+02 -0.43970014929E+02  0.10395128309E+03  0.11409085827E+03  0.00000000000E+00 0.  1.
         22    1    1    2    0    0 -0.10440690953E+02  0.12882174242E+02 -0.29722083998E+02  0.34034698735E+02  0.00000000000E+00 0.  1.
</event>
<event>
 6    1  0.8017648E-006  0.8589872E+02  0.7818608E-02  0.1367097E+00
          2   -1    0    0  502    0  0.00000000000E+00  0.00000000000E+00  0.18157739892E+03  0.18157739892E+03  0.00000000000E+00 0.  1.
          1   -1    0    0  501    0 -0.00000000000E+00 -0.00000000000E+00 -0.49469744683E+03  0.49469744683E+03  0.00000000000E+00 0.  1.
          2    1    1    2  501    0 -0.57896585357E+02 -0.29457681696E+02  0.13606141192E+03  0.15077293331E+03  0.00000000000E+00 0.  1.
          1    1    1    2  502    0  0.79354621166E+02  0.72009460372E+02 -0.31916562789E+03  0.33667375352E+03  0.00000000000E+00 0.  1.
         22    1    1    2    0    0 -0.48110808859E+01 -0.33351137532E+02 -0.15432571809E+03  0.15796161602E+03  0.00000000000E+00 0.  1.
         22    1    1    2    0    0 -0.16646954924E+02 -0.92006411441E+01  0.24309886145E+02  0.30866542891E+02  0.00000000000E+00 0.  1.
</event>
<event>
 6    1  0.8017648E-006  0.1951752E+03  0.7818608E-02  0.1250728E+00
          2   -1    0    0  502    0  0.00000000000E+00  0.00000000000E+00  0.10419551527E+04  0.10419551527E+04  0.00000000000E+00 0. -1.
          1   -1    0    0  501    0 -0.00000000000E+00 -0.00000000000E+00 -0.18091384256E+03  0.18091384256E+03  0.00000000000E+00 0. -1.
          2    1    1    2  501    0  0.20474675307E+03  0.15668960056E+03 -0.28046944301E+02  0.25934435583E+03  0.00000000000E+00 0. -1.
          1    1    1    2  502    0 -0.30910914947E+02 -0.10058426751E+03  0.53270420890E+03  0.54299765535E+03  0.00000000000E+00 0. -1.
         22    1    1    2    0    0 -0.18520879899E+03 -0.35053078995E+02  0.34686778828E+03  0.39477624057E+03  0.00000000000E+00 0. -1.
         22    1    1    2    0    0  0.11372960870E+02 -0.21052254052E+02  0.95162572716E+01  0.25750743525E+02  0.00000000000E+00 0. -1.
</event>
<event>
 6    1  0.8017648E-006  0.3955266E+02  0.7818608E-02  0.1545854E+00
          2   -1    0    0  502    0  0.00000000000E+00  0.00000000000E+00  0.12351248273E+03  0.12351248273E+03  0.00000000000E+00 0. -1.
          1   -1    0    0  501    0 -0.00000000000E+00 -0.00000000000E+00 -0.18176729096E+03  0.18176729096E+03  0.00000000000E+00 0. -1.
          2    1    1    2  501    0  0.16387787322E+02  0.27741574763E+02  0.54822535357E+02  0.63589817790E+02  0.00000000000E+00 0. -1.
          1    1    1    2  502    0  0.11201766691E+02 -0.19155872924E+02 -0.11000942136E+03  0.11222521923E+03  0.00000000000E+00 0. -1.
         22    1    1    2    0    0 -0.23714132475E+02  0.83038693858E+01  0.59475538391E+02  0.64565114363E+02  0.00000000000E+00 0.  1.
         22    1    1    2    0    0 -0.38754215377E+01 -0.16889571224E+02 -0.62543460627E+02  0.64899622306E+02  0.00000000000E+00 0. -1.
</event>
<event>
 6    1  0.8017648E-006  0.2178724E+02  0.7818608E-02  0.1727772E+00
          2   -1    0    0  502    0  0.00000000000E+00  0.00000000000E+00  0.10012230112E+03  0.10012230112E+03  0.00000000000E+00 0.  1.
          1   -1    0    0  501    0 -0.00000000000E+00 -0.00000000000E+00 -0.84077913307E+02  0.84077913307E+02  0.00000000000E+00 0.  1.
          2    1    1    2  501    0 -0.21006471270E+02 -0.17157867721E+02  0.18530918706E+02  0.32849036638E+02  0.00000000000E+00 0.  1.
          1    1    1    2  502    0  0.26472808045E+02  0.15352063498E+02 -0.15181795854E-01  0.30602216422E+02  0.00000000000E+00 0.  1.
         22    1    1    2    0    0 -0.14060654085E+02 -0.85024346720E+01  0.57238023020E+02  0.59549850276E+02  0.00000000000E+00 0.  1.
         22    1    1    2    0    0  0.85943173099E+01  0.10308238896E+02 -0.59709372120E+02  0.61199111089E+02  0.00000000000E+00 0.  1.
</event>
<event>
 6    1  0.8017648E-006  0.4363457E+02  0.7818608E-02  0.1525559E+00
          2   -1    0    0  502    0  0.00000000000E+00  0.00000000000E+00  0.10368362779E+03  0.10368362779E+03  0.00000000000E+00 0.  1.
          1   -1    0    0  501    0 -0.00000000000E+00 -0.00000000000E+00 -0.13823704601E+03  0.13823704601E+03  0.00000000000E+00 0.  1.
          2    1    1    2  501    0 -0.24260643697E+02 -0.20968813447E+01  0.38601522232E+02  0.45640478335E+02  0.00000000000E+00 0.  1.
          1    1    1    2  502    0  0.20285532018E+02  0.22792766769E+02 -0.62451651811E+02  0.69506991304E+02  0.00000000000E+00 0.  1.
         22    1    1    2    0    0 -0.17029436423E+02 -0.82601501987E+01  0.54211590363E+02  0.57420626223E+02  0.00000000000E+00 0.  1.
         22    1    1    2    0    0  0.21004548102E+02 -0.12435735226E+02 -0.64914879005E+02  0.69352577947E+02  0.00000000000E+00 0.  1.
</event>
<event>
 6    1  0.8017648E-006  0.5655981E+02  0.7818608E-02  0.1458157E+00
          2   -1    0    0  502    0  0.00000000000E+00  0.00000000000E+00  0.14419410099E+03  0.14419410099E+03  0.00000000000E+00 0.  1.
          1   -1    0    0  501    0 -0.00000000000E+00 -0.00000000000E+00 -0.14460332294E+03  0.14460332294E+03  0.00000000000E+00 0. -1.
          2    1    1    2  501    0 -0.29792616520E+02 -0.38563592566E+02  0.70717827111E+02  0.85882255106E+02  0.00000000000E+00 0.  1.
          1    1    1    2  502    0  0.28854305545E+02  0.29175906313E+02  0.18464333793E+02  0.44997067461E+02  0.00000000000E+00 0. -1.
         22    1    1    2    0    0 -0.45761594140E+01 -0.18687985107E+02  0.29620460691E+02  0.35320726406E+02  0.00000000000E+00 0.  1.
         22    1    1    2    0    0  0.55144703887E+01  0.28075671360E+02 -0.11921184354E+03  0.12259737495E+03  0.00000000000E+00 0. -1.
</event>
<event>
 6    1  0.8017648E-006  0.1284112E+03  0.7818608E-02  0.1300401E+00
          2   -1    0    0  502    0  0.00000000000E+00  0.00000000000E+00  0.29469320264E+03  0.29469320264E+03  0.00000000000E+00 0. -1.
          1   -1    0    0  501    0 -0.00000000000E+00 -0.00000000000E+00 -0.51428028452E+02  0.51428028452E+02  0.00000000000E+00 0. -1.
          2    1    1    2  501    0 -0.19370908617E+02  0.29102954579E+02 -0.92456211855E+00  0.34972401705E+02  0.00000000000E+00 0. -1.
          1    1    1    2  502    0 -0.19618732609E+02  0.13285419306E+02  0.12116704379E+03  0.12346193558E+03  0.00000000000E+00 0. -1.
         22    1    1    2    0    0 -0.31857594517E+02 -0.59790081189E+01 -0.88711910226E+01  0.33605846168E+02  0.00000000000E+00 0. -1.
         22    1    1    2    0    0  0.70847235744E+02 -0.36409365766E+02  0.13189388354E+03  0.15408104765E+03  0.00000000000E+00 0. -1.
</event>
<event>
 6    1  0.8017648E-006  0.6798905E+02  0.7818608E-02  0.1417945E+00
          2   -1    0    0  502    0  0.00000000000E+00  0.00000000000E+00  0.14737560158E+03  0.14737560158E+03  0.00000000000E+00 0. -1.
          1   -1    0    0  501    0 -0.00000000000E+00 -0.00000000000E+00 -0.16532402148E+03  0.16532402148E+03  0.00000000000E+00 0. -1.
          2    1    1    2  501    0  0.11465629940E+01  0.43087148811E+02  0.65145412194E+02  0.78113646242E+02  0.00000000000E+00 0. -1.
          1    1    1    2  502    0 -0.33273525665E+01 -0.84641174692E+02 -0.29281028394E+02  0.89624652592E+02  0.00000000000E+00 0. -1.
         22    1    1    2    0    0 -0.14516044430E+02  0.16511625809E+02  0.40434338020E+02  0.46024830515E+02  0.00000000000E+00 0.  1.
         22    1    1    2    0    0  0.16696834003E+02  0.25042400072E+02 -0.94247141716E+02  0.98936493716E+02  0.00000000000E+00 0. -1.
</event>
<event>
 6    1  0.8017648E-006  0.8678163E+02  0.7818608E-02  0.1409304E+00
          2   -1    0    0  502    0  0.00000000000E+00  0.00000000000E+00  0.27312770427E+03  0.27312770427E+03  0.00000000000E+00 0. -1.
          1   -1    0    0  501    0 -0.00000000000E+00 -0.00000000000E+00 -0.99609054265E+02  0.99609054265E+02  0.00000000000E+00 0.  1.
          2    1    1    2  501    0  0.35443246501E+02  0.40463819355E+02  0.68744508119E+02  0.87288898469E+02  0.00000000000E+00 0. -1.
          1    1    1    2  502    0 -0.69884046588E+02 -0.29055521984E+02  0.13491925881E+03  0.15469715487E+03  0.00000000000E+00 0.  1.
         22    1    1    2    0    0  0.39511072545E+02  0.43473614602E+01  0.41354454333E+02  0.57360398347E+02  0.00000000000E+00 0.  1.
         22    1    1    2    0    0 -0.50702724587E+01 -0.15755658831E+02 -0.71499571266E+02  0.73390306848E+02  0.00000000000E+00 0.  1.
</event>
<event>
 6    1  0.8017648E-006  0.1484842E+03  0.7818608E-02  0.1256482E+00
          2   -1    0    0  502    0  0.00000000000E+00  0.00000000000E+00  0.12632025064E+03  0.12632025064E+03  0.00000000000E+00 0.  1.
          1   -1    0    0  501    0 -0.00000000000E+00 -0.00000000000E+00 -0.81971101841E+03  0.81971101841E+03  0.00000000000E+00 0.  1.
          2    1    1    2  501    0 -0.10450358103E+03  0.25579798860E+02 -0.43862987835E+02  0.11618642890E+03  0.00000000000E+00 0.  1.
          1    1    1    2  502    0  0.14546648587E+03 -0.22679402006E+02 -0.67720122850E+03  0.69301973829E+03  0.00000000000E+00 0.  1.
         22    1    1    2    0    0 -0.48279594335E+02  0.43377392268E+01  0.74499447586E+02  0.88881397949E+02  0.00000000000E+00 0.  1.
         22    1    1    2    0    0  0.73166895001E+01 -0.72381360809E+01 -0.46825999023E+02  0.47943703900E+02  0.00000000000E+00 0. -1.
</event>
<event>
 6    1  0.8017648E-006  0.1585193E+03  0.7818608E-02  0.1232046E+00
          2   -1    0    0  502    0  0.00000000000E+00  0.00000000000E+00  0.13964266764E+04  0.13964266764E+04  0.00000000000E+00 0.  1.
          1   -1    0    0  501    0 -0.00000000000E+00 -0.00000000000E+00 -0.15020116232E+03  0.15020116232E+03  0.00000000000E+00 0. -1.
          2    1    1    2  501    0 -0.30154303656E+02 -0.13484531893E+03  0.11524915424E+04  0.11607451475E+04  0.00000000000E+00 0.  1.
          1    1    1    2  502    0  0.46233720234E+02  0.21019662676E+03  0.15464307335E+02  0.21577609596E+03  0.00000000000E+00 0. -1.
         22    1    1    2    0    0 -0.28464734535E+01 -0.65152460837E+02 -0.21715605175E+02  0.68735093456E+02  0.00000000000E+00 0. -1.
         22    1    1    2    0    0 -0.13232943124E+02 -0.10198846993E+02  0.99985269503E+02  0.10137150182E+03  0.00000000000E+00 0. -1.
</event>
<event>
 6    1  0.8017648E-006  0.7311423E+02  0.7818608E-02  0.1407836E+00
          2   -1    0    0  502    0  0.00000000000E+00  0.00000000000E+00  0.46313881590E+03  0.46313881590E+03  0.00000000000E+00 0. -1.
          1   -1    0    0  501    0 -0.00000000000E+00 -0.00000000000E+00 -0.63797627616E+03  0.63797627616E+03  0.00000000000E+00 0.  1.
          2    1    1    2  501    0 -0.34643222148E+02 -0.77141252476E+02  0.40487201543E+03  0.41360884245E+03  0.00000000000E+00 0. -1.
          1    1    1    2  502    0  0.13373922670E+02  0.12708986486E+03 -0.52080413527E+03  0.53625333833E+03  0.00000000000E+00 0.  1.
         22    1    1    2    0    0 -0.15408348658E+02 -0.12995526916E+02  0.36995441984E+02  0.42130317537E+02  0.00000000000E+00 0. -1.
         22    1    1    2    0    0  0.36677648136E+02 -0.36953085471E+02 -0.95900782408E+02  0.10912259374E+03  0.00000000000E+00 0. -1.
</event>
<event>
 6    1  0.8017648E-006  0.8619391E+02  0.7818608E-02  0.1380356E+00
          2   -1    0    0  502    0  0.00000000000E+00  0.00000000000E+00  0.65823904571E+03  0.65823904571E+03  0.00000000000E+00 0. -1.
          1   -1    0    0  501    0 -0.00000000000E+00 -0.00000000000E+00 -0.18540582703E+03  0.18540582703E+03  0.00000000000E+00 0.  1.
          2    1    1    2  501    0 -0.24640257224E+02 -0.66238916915E+02  0.56811928241E+03  0.57249825802E+03  0.00000000000E+00 0. -1.
          1    1    1    2  502    0  0.63440742564E+01  0.69500574466E+02 -0.11999345562E+03  0.13881284710E+03  0.00000000000E+00 0.  1.
         22    1    1    2    0    0 -0.66639072955E+01 -0.13050924701E+02  0.74421663551E+02  0.75850631518E+02  0.00000000000E+00 0. -1.
         22    1    1    2    0    0  0.24960090263E+02  0.97892671497E+01 -0.49714271661E+02  0.56483136103E+02  0.00000000000E+00 0. -1.
</event>
<event>
 6    1  0.8017648E-006  0.9736934E+02  0.7818608E-02  0.1409870E+00
          2   -1    0    0  502    0  0.00000000000E+00  0.00000000000E+00  0.79848608567E+03  0.79848608567E+03  0.00000000000E+00 0. -1.
          1   -1    0    0  501    0 -0.00000000000E+00 -0.00000000000E+00 -0.50668877907E+02  0.50668877907E+02  0.00000000000E+00 0. -1.
          2    1    1    2  501    0  0.70801504664E+02 -0.35158605853E+02  0.30092918867E+03  0.31113880701E+03  0.00000000000E+00 0. -1.
          1    1    1    2  502    0 -0.77545861841E+02  0.21195361315E+02  0.38744138826E+03  0.39569361047E+03  0.00000000000E+00 0. -1.
         22    1    1    2    0    0  0.18226206410E+02  0.15715361011E+02  0.98593927797E+02  0.10148856965E+03  0.00000000000E+00 0.  1.
         22    1    1    2    0    0 -0.11481849233E+02 -0.17521164733E+01 -0.39147296960E+02  0.40833976456E+02  0.00000000000E+00 0. -1.
</event>
<event>
 6    1  0.8017648E-006  0.2736901E+02  0.7818608E-02  0.1686869E+00
          2   -1    0    0  502    0  0.00000000000E+00  0.00000000000E+00  0.12758736474E+03  0.12758736474E+03  0.00000000000E+00 0.  1.
          1   -1    0    0  501    0 -0.00000000000E+00 -0.00000000000E+00 -0.99162620108E+02  0.99162620108E+02  0.00000000000E+00 0.  1.
          2    1    1    2  501    0 -0.31767874897E+02 -0.12300588666E+02  0.46009078132E+02  0.57248036014E+02  0.00000000000E+00 0.  1.
          1    1    1    2  502    0  0.72896475217E+01  0.24912633226E+02 -0.31083760267E+02  0.40496646868E+02  0.00000000000E+00 0.  1.
         22    1    1    2    0    0  0.26367119409E+01 -0.11233041205E+02  0.68680416812E+02  0.69642897111E+02  0.00000000000E+00 0.  1.
         22    1    1    2    0    0  0.21841515434E+02 -0.13790033549E+01 -0.55180990050E+02  0.59362404850E+02  0.00000000000E+00 0.  1.
</event>
<event>
 6    1  0.8017648E-006  0.6315704E+02  0.7818608E-02  0.1464295E+00
          2   -1    0    0  502    0  0.00000000000E+00  0.00000000000E+00  0.27801119442E+03  0.27801119442E+03  0.00000000000E+00 0. -1.
          1   -1    0    0  501    0 -0.00000000000E+00 -0.00000000000E+00 -0.62914553175E+02  0.62914553175E+02  0.00000000000E+00 0.  1.
          2    1    1    2  501    0  0.18244375605E+02 -0.41289747514E+02  0.15487594745E+03  0.16132036323E+03  0.00000000000E+00 0. -1.
          1    1    1    2  502    0 -0.19987153643E+02  0.43792855686E+02  0.12945850144E+02  0.49848726722E+02  0.00000000000E+00 0.  1.
         22    1    1    2    0    0  0.50670609788E+01  0.18103979842E+02 -0.37768711213E+02  0.42188917262E+02  0.00000000000E+00 0.  1.
         22    1    1    2    0    0 -0.33242829414E+01 -0.20607088013E+02  0.85043554857E+02  0.87567740386E+02  0.00000000000E+00 0. -1.
</event>
<event>
 6    1  0.8017648E-006  0.5849429E+02  0.7818608E-02  0.1504457E+00
          2   -1    0    0  502    0  0.00000000000E+00  0.00000000000E+00  0.15248326506E+03  0.15248326506E+03  0.00000000000E+00 0.  1.
          1   -1    0    0  501    0 -0.00000000000E+00 -0.00000000000E+00 -0.18673027853E+03  0.18673027853E+03  0.00000000000E+00 0.  1.
          2    1    1    2  501    0  0.39414124479E+02  0.13771459989E+02  0.93268485005E+02  0.10218677318E+03  0.00000000000E+00 0.  1.
          1    1    1    2  502    0 -0.39599138203E+02 -0.21774003142E+02 -0.94448711576E+02  0.10470319039E+03  0.00000000000E+00 0.  1.
         22    1    1    2    0    0  0.13321699911E+02  0.10944941594E+02  0.47555831908E+02  0.50584746549E+02  0.00000000000E+00 0. -1.
         22    1    1    2    0    0 -0.13136686187E+02 -0.29423984411E+01 -0.80622618809E+02  0.81738833465E+02  0.00000000000E+00 0.  1.
</event>
<event>
 6    1  0.8017648E-006  0.6209365E+02  0.7818608E-02  0.1466579E+00
          2   -1    0    0  502    0  0.00000000000E+00  0.00000000000E+00  0.17654134161E+03  0.17654134161E+03  0.00000000000E+00 0.  1.
          1   -1    0    0  501    0 -0.00000000000E+00 -0.00000000000E+00 -0.16820746324E+03  0.16820746324E+03  0.00000000000E+00 0. -1.
          2    1    1    2  501    0  0.27439749637E+02  0.42073499304E+02  0.11596323443E+03  0.12637480344E+03  0.00000000000E+00 0.  1.
          1    1    1    2  502    0 -0.13360372043E+02 -0.48356293643E+02 -0.79521096270E+02  0.94023589742E+02  0.00000000000E+00 0. -1.
         22    1    1    2    0    0 -0.18714525863E+02 -0.40189824956E+01 -0.74336824027E+02  0.76761638238E+02  0.00000000000E+00 0.  1.
         22    1    1    2    0    0  0.46351482693E+01  0.10301776835E+02  0.46228564237E+02  0.47588773433E+02  0.00000000000E+00 0.  1.
</event>
<event>
 6    1  0.8017648E-006  0.3341553E+03  0.7818608E-02  0.1101892E+00
          2   -1    0    0  502    0  0.00000000000E+00  0.00000000000E+00  0.47071424491E+03  0.47071424491E+03  0.00000000000E+00 0. -1.
          1   -1    0    0  501    0 -0.00000000000E+00 -0.00000000000E+00 -0.81899354514E+03  0.81899354514E+03  0.00000000000E+00 0. -1.
          2    1    1    2  501    0 -0.16133262327E+03 -0.17079411529E+03 -0.35752840080E+03  0.42781468246E+03  0.00000000000E+00 0. -1.
          1    1    1    2  502    0  0.29291677710E+03  0.15731581620E+03  0.34632387512E+03  0.48009241903E+03  0.00000000000E+00 0. -1.
         22    1    1    2    0    0  0.32796331089E+00 -0.33992859686E+02 -0.10807358111E+03  0.11329395837E+03  0.00000000000E+00 0. -1.
         22    1    1    2    0    0 -0.13191211714E+03  0.47471158770E+02 -0.22900119343E+03  0.26850673019E+03  0.00000000000E+00 0.  1.
</event>
<event>
 6    1  0.8017648E-006  0.1586276E+03  0.7818608E-02  0.1305382E+00
          2   -1    0    0  502    0  0.00000000000E+00  0.00000000000E+00  0.82404619422E+03  0.82404619422E+03  0.00000000000E+00 0. -1.
          1   -1    0    0  501    0 -0.00000000000E+00 -0.00000000000E+00 -0.46801324984E+02  0.46801324984E+02  0.00000000000E+00 0. -1.
          2    1    1    2  501    0  0.22371462333E+02  0.22919594335E+02  0.14246781601E+02  0.35053686217E+02  0.00000000000E+00 0. -1.
          1    1    1    2  502    0 -0.13058840024E+03  0.65800674325E+01  0.54518195024E+03  0.56064247648E+03  0.00000000000E+00 0. -1.
         22    1    1    2    0    0  0.12262321954E+03 -0.23276329665E+02  0.22545501591E+03  0.25769789617E+03  0.00000000000E+00 0. -1.
         22    1    1    2    0    0 -0.14406281631E+02 -0.62233321022E+01 -0.76388785124E+01  0.17453460340E+02  0.00000000000E+00 0. -1.
</event>
<event>
 6    1  0.8017648E-006  0.9186982E+02  0.7818608E-02  0.1300599E+00
          2   -1    0    0  502    0  0.00000000000E+00  0.00000000000E+00  0.23629986582E+03  0.23629986582E+03  0.00000000000E+00 0. -1.
          1   -1    0    0  501    0 -0.00000000000E+00 -0.00000000000E+00 -0.15693579298E+03  0.15693579298E+03  0.00000000000E+00 0.  1.
          2    1    1    2  501    0 -0.15078666271E+02  0.46212913772E+02  0.10784281628E+03  0.11829231843E+03  0.00000000000E+00 0. -1.
          1    1    1    2  502    0  0.34488149864E+00 -0.75025313184E+02 -0.10345240524E+03  0.12779404021E+03  0.00000000000E+00 0.  1.
         22    1    1    2    0    0  0.20162889078E+01  0.39189003790E+02  0.10546067211E+03  0.11252464975E+03  0.00000000000E+00 0. -1.
         22    1    1    2    0    0  0.12717495865E+02 -0.10376604378E+02 -0.30487010301E+02  0.34624650418E+02  0.00000000000E+00 0.  1.
</event>
<event>
 6    1  0.8017648E-006  0.8302747E+02  0.7818608E-02  0.1337155E+00
          2   -1    0    0  502    0  0.00000000000E+00  0.00000000000E+00  0.48887171469E+03  0.48887171469E+03  0.00000000000E+00 0. -1.
          1   -1    0    0  501    0 -0.00000000000E+00 -0.00000000000E+00 -0.62035887640E+03  0.62035887640E+03  0.00000000000E+00 0. -1.
          2    1    1    2  501    0  0.63649987414E+02 -0.33578991546E+02  0.43294001696E+03  0.43888031154E+03  0.00000000000E+00 0. -1.
          1    1    1    2  502    0 -0.99980377614E+02 -0.19502386264E+02 -0.51438223480E+03  0.52437153094E+03  0.00000000000E+00 0. -1.
         22    1    1    2    0    0  0.96228076248E+01 -0.29792861836E+01  0.37397301164E+02  0.38730255706E+02  0.00000000000E+00 0.  1.
         22    1    1    2    0    0  0.26707582575E+02  0.56060663993E+02 -0.87442245033E+02  0.10724849291E+03  0.00000000000E+00 0. -1.
</event>
<event>
 6    1  0.8017648E-006  0.4743483E+02  0.7818608E-02  0.1537683E+00
          2   -1    0    0  502    0  0.00000000000E+00  0.00000000000E+00  0.90556708661E+02  0.90556708661E+02  0.00000000000E+00 0. -1.
          1   -1    0    0  501    0 -0.00000000000E+00 -0.00000000000E+00 -0.41742298776E+03  0.41742298776E+03  0.00000000000E+00 0.  1.
          2    1    1    2  501    0  0.19438155749E+02 -0.91760740404E+01  0.27768917454E+02  0.35116306900E+02  0.00000000000E+00 0. -1.
          1    1    1    2  502    0 -0.56701131872E+02  0.25345060136E+02 -0.33894815000E+03  0.34459140851E+03  0.00000000000E+00 0.  1.
         22    1    1    2    0    0  0.14072080773E+02 -0.80208938723E+01 -0.68303107228E+02  0.70197383518E+02  0.00000000000E+00 0.  1.
         22    1    1    2    0    0  0.23190895351E+02 -0.81480922235E+01  0.52616060671E+02  0.58074597498E+02  0.00000000000E+00 0. -1.
</event>
<event>
 6    1  0.1052777E-005  0.4543084E+03  0.7818608E-02  0.1131193E+00
          2   -1    0    0  502    0  0.00000000000E+00  0.00000000000E+00  0.13739988347E+04  0.13739988347E+04  0.00000000000E+00 0.  1.
          1   -1    0    0  501    0 -0.00000000000E+00 -0.00000000000E+00 -0.11981278380E+04  0.11981278380E+04  0.00000000000E+00 0.  1.
          2    1    1    2  501    0 -0.38878599049E+03 -0.20605934211E+03  0.12274919093E+04  0.13039752245E+04  0.00000000000E+00 0.  1.
          1    1    1    2  502    0  0.38546042317E+03  0.23500332037E+03 -0.10495521880E+04  0.11425261895E+04  0.00000000000E+00 0.  1.
         22    1    1    2    0    0 -0.11271709599E+02 -0.66104087016E+01  0.58234877244E+02  0.59682911023E+02  0.00000000000E+00 0. -1.
         22    1    1    2    0    0  0.14597276918E+02 -0.22333569556E+02 -0.60303601760E+02  0.65942347605E+02  0.00000000000E+00 0.  1.
</event>
<event>
 6    1  0.8017648E-006  0.6296947E+02  0.7818608E-02  0.1456379E+00
          2   -1    0    0  502    0  0.00000000000E+00  0.00000000000E+00  0.79246832180E+03  0.79246832180E+03  0.00000000000E+00 0. -1.
          1   -1    0    0  501    0 -0.00000000000E+00 -0.00000000000E+00 -0.20845276198E+02  0.20845276198E+02  0.00000000000E+00 0. -1.
          2    1    1    2  501    0  0.36959688051E+02  0.74240326064E+01  0.22465805238E+03  0.22779898002E+03  0.00000000000E+00 0. -1.
          1    1    1    2  502    0 -0.51025421071E+02 -0.20789179555E+01  0.34579490571E+03  0.34954546530E+03  0.00000000000E+00 0. -1.
         22    1    1    2    0    0  0.31697745329E+02 -0.17256929665E+02  0.20989206858E+03  0.21297236707E+03  0.00000000000E+00 0.  1.
         22    1    1    2    0    0 -0.17632012309E+02  0.11911815014E+02 -0.87219810633E+01  0.22996785616E+02  0.00000000000E+00 0. -1.
</event>
<event>
 6    1  0.8017648E-006  0.6124315E+02  0.7818608E-02  0.1497859E+00
          2   -1    0    0  502    0  0.00000000000E+00  0.00000000000E+00  0.99403095546E+03  0.99403095546E+03  0.00000000000E+00 0.  1.
          1   -1    0    0  501    0 -0.00000000000E+00 -0.00000000000E+00 -0.53666569244E+02  0.53666569244E+02  0.00000000000E+00 0. -1.
          2    1    1    2  501    0 -0.22979022583E+02  0.73610358058E+01  0.82657722831E+03  0.82692934081E+03  0.00000000000E+00 0.  1.
          1    1    1    2  502    0  0.12267366497E+02 -0.34446565476E+02  0.78994489730E+02  0.87047019257E+02  0.00000000000E+00 0. -1.
         22    1    1    2    0    0  0.26562069792E+01  0.12563243942E+02 -0.47790095438E+02  0.49485187237E+02  0.00000000000E+00 0. -1.
         22    1    1    2    0    0  0.80554491064E+01  0.14522285728E+02  0.82582763607E+02  0.84235977397E+02  0.00000000000E+00 0.  1.
</event>
<event>
 6    1  0.8017648E-006  0.1299898E+03  0.7818608E-02  0.1345045E+00
          2   -1    0    0  502    0  0.00000000000E+00  0.00000000000E+00  0.10318649265E+04  0.10318649265E+04  0.00000000000E+00 0.  1.
          1   -1    0    0  501    0 -0.00000000000E+00 -0.00000000000E+00 -0.18011307274E+03  0.18011307274E+03  0.00000000000E+00 0.  1.
          2    1    1    2  501    0  0.22530915929E+02  0.95900003845E+02  0.86459052420E+03  0.87018459389E+03  0.00000000000E+00 0.  1.
          1    1    1    2  502    0 -0.14629852654E+02 -0.12575925384E+03 -0.11899977205E+03  0.17375375755E+03  0.00000000000E+00 0.  1.
         22    1    1    2    0    0 -0.13835185486E+02  0.28066163569E+01 -0.27835553330E+02  0.31210694994E+02  0.00000000000E+00 0. -1.
         22    1    1    2    0    0  0.59341222117E+01  0.27052633641E+02  0.13399665489E+03  0.13682895276E+03  0.00000000000E+00 0.  1.
</event>
<event>
 6    1  0.8017648E-006  0.1891264E+03  0.7818608E-02  0.1231904E+00
          2   -1    0    0  502    0  0.00000000000E+00  0.00000000000E+00  0.15690527146E+03  0.15690527146E+03  0.00000000000E+00 0.  1.
          1   -1    0    0  501    0 -0.00000000000E+00 -0.00000000000E+00 -0.40849651865E+03  0.40849651865E+03  0.00000000000E+00 0.  1.
          2    1    1    2  501    0  0.64596002838E+02 -0.32489042149E+02  0.66910797786E+02  0.98515157731E+02  0.00000000000E+00 0.  1.
          1    1    1    2  502    0 -0.65181592843E+02  0.15550879759E+03 -0.17100213418E+03  0.24015277652E+03  0.00000000000E+00 0.  1.
         22    1    1    2    0    0  0.18343639743E+02 -0.88845334935E+02 -0.19134117129E+02  0.92715139525E+02  0.00000000000E+00 0.  1.
         22    1    1    2    0    0 -0.17758049738E+02 -0.34174420507E+02 -0.12836579366E+03  0.13401871634E+03  0.00000000000E+00 0.  1.
</event>
<event>
 6    1  0.8017648E-006  0.6737667E+02  0.7818608E-02  0.1458649E+00
          2   -1    0    0  502    0  0.00000000000E+00  0.00000000000E+00  0.14195238079E+03  0.14195238079E+03  0.00000000000E+00 0.  1.
          1   -1    0    0  501    0 -0.00000000000E+00 -0.00000000000E+00 -0.70210741784E+02  0.70210741784E+02  0.00000000000E+00 0. -1.
          2    1    1    2  501    0 -0.67265738142E+01  0.24284154697E+02  0.19796844253E+02  0.32044999720E+02  0.00000000000E+00 0.  1.
          1    1    1    2  502    0 -0.20404907624E+02 -0.30212433283E+02 -0.13801095024E+02  0.38982324249E+02  0.00000000000E+00 0. -1.
         22    1    1    2    0    0  0.30886381297E+02 -0.10451804073E+02  0.98807330431E+02  0.10404853341E+03  0.00000000000E+00 0.  1.
         22    1    1    2    0    0 -0.37548998590E+01  0.16380082659E+02 -0.33061440659E+02  0.37087265190E+02  0.00000000000E+00 0. -1.
</event>
<event>
 6    1  0.8017648E-006  0.6311915E+02  0.7818608E-02  0.1397682E+00
          2   -1    0    0  502    0  0.00000000000E+00  0.00000000000E+00  0.45497388192E+02  0.45497388192E+02  0.00000000000E+00 0.  1.
          1   -1    0    0  501    0 -0.00000000000E+00 -0.00000000000E+00 -0.61602984299E+03  0.61602984299E+03  0.00000000000E+00 0.  1.
          2    1    1    2  501    0 -0.63721071227E+02  0.65203795358E+02 -0.65060962982E+02  0.11200374436E+03  0.00000000000E+00 0.  1.
          1    1    1    2  502    0  0.51657123951E+02  0.15669110334E+02 -0.22435028232E+03  0.23075317690E+03  0.00000000000E+00 0.  1.
         22    1    1    2    0    0 -0.21889895809E+02 -0.49667158000E+02 -0.27229194574E+02  0.60724156310E+02  0.00000000000E+00 0.  1.
         22    1    1    2    0    0  0.33953843085E+02 -0.31205747692E+02 -0.25389201493E+03  0.25804615361E+03  0.00000000000E+00 0.  1.
</event>
<event>
 6    1  0.8017648E-006  0.9055990E+02  0.7818608E-02  0.1357358E+00
          2   -1    0    0  502    0  0.00000000000E+00  0.00000000000E+00  0.72298611561E+02  0.72298611561E+02  0.00000000000E+00 0.  1.
          1   -1    0    0  501    0 -0.00000000000E+00 -0.00000000000E+00 -0.30496467527E+03  0.30496467527E+03  0.00000000000E+00 0.  1.
          2    1    1    2  501    0  0.29705655493E+02 -0.22375938441E+02 -0.43446551363E+01  0.37443085044E+02  0.00000000000E+00 0.  1.
          1    1    1    2  502    0 -0.10346737960E+03  0.94984107220E+01 -0.69571355749E+02  0.12504356036E+03  0.00000000000E+00 0.  1.
         22    1    1    2    0    0  0.46613949384E+02 -0.73457078527E+01  0.51019382251E+01  0.47464191500E+02  0.00000000000E+00 0.  1.
         22    1    1    2    0    0  0.27147774720E+02  0.20223235572E+02 -0.16385199105E+03  0.16731244993E+03  0.00000000000E+00 0.  1.
</event>
<event>
 6    1  0.8017648E-006  0.6451610E+02  0.7818608E-02  0.1380184E+00
          2   -1    0    0  502    0  0.00000000000E+00  0.00000000000E+00  0.10139156044E+03  0.10139156044E+03  0.00000000000E+00 0.  1.
          1   -1    0    0  501    0 -0.00000000000E+00 -0.00000000000E+00 -0.33187825998E+03  0.33187825998E+03  0.00000000000E+00 0.  1.
          2    1    1    2  501    0  0.14790235657E+01  0.42199191490E+02  0.48723087259E+02  0.64474014185E+02  0.00000000000E+00 0.  1.
          1    1    1    2  502    0 -0.85143412500E+01 -0.39555765816E+02 -0.23249656736E+03  0.23599111520E+03  0.00000000000E+00 0.  1.
         22    1    1    2    0    0  0.52820684097E+01  0.20083861053E+02  0.38960943406E+02  0.44149935816E+02  0.00000000000E+00 0.  1.
         22    1    1    2    0    0  0.17532492747E+01 -0.22727286727E+02 -0.85674162840E+02  0.88654755221E+02  0.00000000000E+00 0.  1.
</event>
<event>
 6    1  0.8017648E-006  0.3743037E+02  0.7818608E-02  0.1595609E+00
          2   -1    0    0  502    0  0.00000000000E+00  0.00000000000E+00  0.27625977183E+03  0.27625977183E+03  0.00000000000E+00 0. -1.
          1   -1    0    0  501    0 -0.00000000000E+00 -0.00000000000E+00 -0.71642071921E+02  0.71642071921E+02  0.00000000000E+00 0. -1.
          2    1    1    2  501    0 -0.39000499774E+02 -0.40830064399E+02  0.11059365464E+03  0.12417362678E+03  0.00000000000E+00 0. -1.
          1    1    1    2  502    0  0.40360483630E+02 -0.56356968431E+01 -0.21015322478E+02  0.45851646607E+02  0.00000000000E+00 0. -1.
         22    1    1    2    0    0 -0.27769924933E+01  0.32437533321E+02  0.14294804159E+03  0.14660848492E+03  0.00000000000E+00 0. -1.
         22    1    1    2    0    0  0.14170086377E+01  0.14028227922E+02 -0.27908673840E+02  0.31268085448E+02  0.00000000000E+00 0. -1.
</event>
<event>
 6    1  0.8017648E-006  0.1138007E+03  0.7818608E-02  0.1304717E+00
          2   -1    0    0  502    0  0.00000000000E+00  0.00000000000E+00  0.47507137439E+03  0.47507137439E+03  0.00000000000E+00 0.  1.
          1   -1    0    0  501    0 -0.00000000000E+00 -0.00000000000E+00 -0.48917017244E+02  0.48917017244E+02  0.00000000000E+00 0.  1.
          2    1    1    2  501    0 -0.49643844402E+02 -0.33776164025E+02  0.13544547775E+03  0.14815808445E+03  0.00000000000E+00 0.  1.
          1    1    1    2  502    0  0.55440513107E+02  0.61423260347E+02  0.19797629059E+03  0.21457185054E+03  0.00000000000E+00 0.  1.
         22    1    1    2    0    0 -0.14757525942E+01 -0.70451314595E+02  0.94877394539E+02  0.11818327110E+03  0.00000000000E+00 0.  1.
         22    1    1    2    0    0 -0.43209161099E+01  0.42804218273E+02 -0.21448057434E+01  0.43075185544E+02  0.00000000000E+00 0.  1.
</event>
<event>
 6    1  0.8017648E-006  0.9137677E+02  0.7818608E-02  0.1409046E+00
          2   -1    0    0  502    0  0.00000000000E+00  0.00000000000E+00  0.62357313190E+02  0.62357313190E+02  0.00000000000E+00 0.  1.
          1   -1    0    0  501    0 -0.00000000000E+00 -0.00000000000E+00 -0.83231073520E+03  0.83231073520E+03  0.00000000000E+00 0.  1.
          2    1    1    2  501    0 -0.15353633072E+02 -0.17815567557E+02 -0.33979673920E+01  0.23762884469E+02  0.00000000000E+00 0.  1.
          1    1    1    2  502    0 -0.32926337879E+02  0.46308067326E+02 -0.72375115434E+03  0.72597817752E+03  0.00000000000E+00 0.  1.
         22    1    1    2    0    0  0.49572324118E+02 -0.42668677550E+02  0.29128232409E+02  0.71599478249E+02  0.00000000000E+00 0.  1.
         22    1    1    2    0    0 -0.12923531664E+01  0.14176177782E+02 -0.71932532690E+02  0.73327508157E+02  0.00000000000E+00 0. -1.
</event>
<event>
 6    1  0.8017648E-006  0.6291319E+02  0.7818608E-02  0.1391815E+00
          2   -1    0    0  502    0  0.00000000000E+00  0.00000000000E+00  0.11831254719E+04  0.11831254719E+04  0.00000000000E+00 0. -1.
          1   -1    0    0  501    0 -0.00000000000E+00 -0.00000000000E+00 -0.48397436056E+02  0.48397436056E+02  0.00000000000E+00 0. -1.
          2    1    1    2  501    0 -0.92964010361E+02 -0.32538890787E+02  0.89921795800E+03  0.90459605495E+03  0.00000000000E+00 0. -1.
          1    1    1    2  502    0  0.93156886793E+02  0.37087549179E+02  0.13488572695E+03  0.16807097071E+03  0.00000000000E+00 0. -1.
         22    1    1    2    0    0  0.18641705125E+02 -0.33007455261E+02 -0.13110800312E+02  0.40111075248E+02  0.00000000000E+00 0.  1.
         22    1    1    2    0    0 -0.18834581557E+02  0.28458796869E+02  0.11373515125E+03  0.11874480709E+03  0.00000000000E+00 0.  1.
</event>
<event>
 6    1  0.8017648E-006  0.5499774E+02  0.7818608E-02  0.1500752E+00
          2   -1    0    0  502    0  0.00000000000E+00  0.00000000000E+00  0.55182254729E+03  0.55182254729E+03  0.00000000000E+00 0. -1.
          1   -1    0    0  501    0 -0.00000000000E+00 -0.00000000000E+00 -0.45277159275E+02  0.45277159275E+02  0.00000000000E+00 0. -1.
          2    1    1    2  501    0  0.45579528918E+02 -0.27909675863E+02  0.38607368773E+03  0.38975548209E+03  0.00000000000E+00 0. -1.
          1    1    1    2  502    0  0.22751771721E+02  0.15610990553E+02  0.19393260677E+02  0.33726024108E+02  0.00000000000E+00 0. -1.
         22    1    1    2    0    0 -0.12030697956E+02 -0.12066488402E+02 -0.26816092435E+02  0.31771695723E+02  0.00000000000E+00 0. -1.
         22    1    1    2    0    0 -0.56300602683E+02  0.24365173712E+02  0.12789453205E+03  0.14184650465E+03  0.00000000000E+00 0. -1.
</event>
<event>
 6    1  0.8017648E-006  0.1702622E+03  0.7818608E-02  0.1180818E+00
          2   -1    0    0  502    0  0.00000000000E+00  0.00000000000E+00  0.10055319769E+03  0.10055319769E+03  0.00000000000E+00 0.  1.
          1   -1    0    0  501    0 -0.00000000000E+00 -0.00000000000E+00 -0.81637039805E+03  0.81637039805E+03  0.00000000000E+00 0.  1.
          2    1    1    2  501    0  0.85467636961E+02  0.16443220134E+02  0.23834908809E+02  0.90239677160E+02  0.00000000000E+00 0.  1.
          1    1    1    2  502    0 -0.14962557432E+03  0.10383131414E+03 -0.32233793958E+03  0.37023033584E+03  0.00000000000E+00 0.  1.
         22    1    1    2    0    0  0.63506399466E+02 -0.14497483411E+03 -0.33493634680E+03  0.37044989095E+03  0.00000000000E+00 0.  1.
         22    1    1    2    0    0  0.65153789668E+00  0.24700299830E+02 -0.82377822790E+02  0.86003691787E+02  0.00000000000E+00 0.  1.
</event>
<event>
 6    1  0.8017648E-006  0.7835319E+03  0.7818608E-02  0.1039735E+00
          2   -1    0    0  502    0  0.00000000000E+00  0.00000000000E+00  0.13519005863E+04  0.13519005863E+04  0.00000000000E+00 0.  1.
          1   -1    0    0  501    0 -0.00000000000E+00 -0.00000000000E+00 -0.60294433553E+03  0.60294433553E+03  0.00000000000E+00 0. -1.
          2    1    1    2  501    0  0.68004581863E+03 -0.35933450871E+03  0.68188021167E+03  0.10278833726E+04  0.00000000000E+00 0.  1.
          1    1    1    2  502    0 -0.66124962134E+03  0.34076249316E+03  0.16846800050E+03  0.76272642911E+03  0.00000000000E+00 0. -1.
         22    1    1    2    0    0 -0.45191887142E+02  0.39226013989E+02 -0.11373623391E+03  0.12851816114E+03  0.00000000000E+00 0. -1.
         22    1    1    2    0    0  0.26395689855E+02 -0.20653998440E+02  0.12344272469E+02  0.35716958959E+02  0.00000000000E+00 0.  1.
</event>
<event>
 6    1  0.8017648E-006  0.1095993E+03  0.7818608E-02  0.1338785E+00
          2   -1    0    0  502    0  0.00000000000E+00  0.00000000000E+00  0.18952192340E+03  0.18952192340E+03  0.00000000000E+00 0. -1.
          1   -1    0    0  501    0 -0.00000000000E+00 -0.00000000000E+00 -0.26959365232E+03  0.26959365232E+03  0.00000000000E+00 0. -1.
          2    1    1    2  501    0  0.36474636268E+02  0.22464735140E+02  0.20013020218E+02  0.47281966901E+02  0.00000000000E+00 0. -1.
          1    1    1    2  502    0 -0.79853017733E+02 -0.48467124080E+02 -0.21328250338E+03  0.23284113212E+03  0.00000000000E+00 0. -1.
         22    1    1    2    0    0  0.44496129788E+02 -0.21665681407E+00  0.13670269663E+03  0.14376223347E+03  0.00000000000E+00 0. -1.
         22    1    1    2    0    0 -0.11177483227E+01  0.26219045754E+02 -0.23504942384E+02  0.35230243230E+02  0.00000000000E+00 0. -1.
</event>
<event>
 6    1  0.8017648E-006  0.2150679E+03  0.7818608E-02  0.1275223E+00
          2   -1    0    0  502    0  0.00000000000E+00  0.00000000000E+00  0.21713993858E+03  0.21713993858E+03  0.00000000000E+00 0.  1.
          1   -1    0    0  501    0 -0.00000000000E+00 -0.00000000000E+00 -0.47227217125E+03  0.47227217125E+03  0.00000000000E+00 0.  1.
          2    1    1    2  501    0  0.20851400631E+03 -0.64730776854E+01 -0.28256227872E+03  0.35122846257E+03  0.00000000000E+00 0.  1.
          1    1    1    2  502    0  0.14856628130E+02 -0.31919215296E+02 -0.57223649633E+02  0.67187065584E+02  0.00000000000E+00 0.  1.
         22    1    1    2    0    0 -0.90835420529E+01  0.63363762148E+01 -0.25595389436E+02  0.27888785562E+02  0.00000000000E+00 0. -1.
         22    1    1    2    0    0 -0.21428709239E+03  0.32055916767E+02  0.11024908512E+03  0.24310779612E+03  0.00000000000E+00 0.  1.
</event>
<event>
 6    1  0.8017648E-006  0.4524812E+02  0.7818608E-02  0.1508435E+00
          2   -1    0    0  502    0  0.00000000000E+00  0.00000000000E+00  0.13882105754E+03  0.13882105754E+03  0.00000000000E+00 0. -1.
          1   -1    0    0  501    0 -0.00000000000E+00 -0.00000000000E+00 -0.12616949755E+03  0.12616949755E+03  0.00000000000E+00 0. -1.
          2    1    1    2  501    0 -0.46263920164E+02 -0.26071236473E+02  0.26087970746E+02  0.59166222609E+02  0.00000000000E+00 0. -1.
          1    1    1    2  502    0  0.69022820765E+02  0.21025936745E+02 -0.36225148021E+02  0.80737235224E+02  0.00000000000E+00 0. -1.
         22    1    1    2    0    0 -0.28039964997E+02 -0.12593051449E+02  0.68894703071E+02  0.75440736297E+02  0.00000000000E+00 0. -1.
         22    1    1    2    0    0  0.52810643955E+01  0.17638351178E+02 -0.46105965805E+02  0.49646360956E+02  0.00000000000E+00 0. -1.
</event>
<event>
 6    1  0.8017648E-006  0.9295653E+02  0.7818608E-02  0.1346560E+00
          2   -1    0    0  502    0  0.00000000000E+00  0.00000000000E+00  0.39087194674E+02  0.39087194674E+02  0.00000000000E+00 0.  1.
          1   -1    0    0  501    0 -0.00000000000E+00 -0.00000000000E+00 -0.71413839861E+03  0.71413839861E+03  0.00000000000E+00 0.  1.
          2    1    1    2  501    0 -0.10649541574E+02 -0.40847755485E+02 -0.31756194615E+02  0.52824310316E+02  0.00000000000E+00 0.  1.
          1    1    1    2  502    0 -0.23949585521E+02  0.11091578791E+03 -0.41233351426E+03  0.42766204138E+03  0.00000000000E+00 0.  1.
         22    1    1    2    0    0  0.25929838690E+02 -0.27245954989E+02 -0.22560783097E+03  0.22872164741E+03  0.00000000000E+00 0.  1.
         22    1    1    2    0    0  0.86692884041E+01 -0.42822077438E+02 -0.53536640819E+01  0.44017594172E+02  0.00000000000E+00 0.  1.
</event>
<event>
 6    1  0.8017648E-006  0.7180671E+02  0.7818608E-02  0.1438806E+00
          2   -1    0    0  502    0  0.00000000000E+00  0.00000000000E+00  0.40979949795E+03  0.40979949795E+03  0.00000000000E+00 0. -1.
          1   -1    0    0  501    0 -0.00000000000E+00 -0.00000000000E+00 -0.61088365369E+02  0.61088365369E+02  0.00000000000E+00 0.  1.
          2    1    1    2  501    0  0.32106727967E+02 -0.29440365578E+02  0.23213215261E+03  0.23618406674E+03  0.00000000000E+00 0. -1.
          1    1    1    2  502    0 -0.11902969983E+02  0.53374928846E+02 -0.83721034760E+01  0.55323194416E+02  0.00000000000E+00 0.  1.
         22    1    1    2    0    0 -0.23690754951E+01 -0.29240419045E+02  0.14736101307E+03  0.15025272976E+03  0.00000000000E+00 0.  1.
         22    1    1    2    0    0 -0.17834682489E+02  0.53058557767E+01 -0.22409929628E+02  0.29127872407E+02  0.00000000000E+00 0. -1.
</event>
<event>
 6    1  0.8017648E-006  0.2095407E+02  0.7818608E-02  0.1734021E+00
          2   -1    0    0  502    0  0.00000000000E+00  0.00000000000E+00  0.19401600392E+03  0.19401600392E+03  0.00000000000E+00 0. -1.
          1   -1    0    0  501    0 -0.00000000000E+00 -0.00000000000E+00 -0.54702185677E+02  0.54702185677E+02  0.00000000000E+00 0.  1.
          2    1    1    2  501    0  0.19743140073E+02  0.10270708398E+02  0.84475422845E+02  0.87357747772E+02  0.00000000000E+00 0. -1.
          1    1    1    2  502    0 -0.19922170000E+02 -0.12462937697E+02  0.95189161560E+01  0.25354041854E+02  0.00000000000E+00 0.  1.
         22    1    1    2    0    0 -0.25259641772E+01 -0.14266010691E+02 -0.43388807796E+02  0.45743723045E+02  0.00000000000E+00 0.  1.
         22    1    1    2    0    0  0.27049941042E+01  0.16458239989E+02  0.88708287042E+02  0.90262676930E+02  0.00000000000E+00 0. -1.
</event>
<event>
 6    1  0.8017648E-006  0.1446985E+03  0.7818608E-02  0.1286225E+00
          2   -1    0    0  502    0  0.00000000000E+00  0.00000000000E+00  0.54384557438E+02  0.54384557438E+02  0.00000000000E+00 0.  1.
          1   -1    0    0  501    0 -0.00000000000E+00 -0.00000000000E+00 -0.56887716364E+03  0.56887716364E+03  0.00000000000E+00 0.  1.
          2    1    1    2  501    0 -0.18545052269E+02  0.48493461612E+02 -0.92498880120E+02  0.10607345382E+03  0.00000000000E+00 0.  1.
          1    1    1    2  502    0 -0.71608122400E+01 -0.56997330588E+02 -0.37757058269E+03  0.38191558994E+03  0.00000000000E+00 0.  1.
         22    1    1    2    0    0  0.79285767819E+01  0.28417289047E+02 -0.83154680272E+02  0.88233244856E+02  0.00000000000E+00 0.  1.
         22    1    1    2    0    0  0.17777287727E+02 -0.19913420071E+02  0.38731536875E+02  0.47039432464E+02  0.00000000000E+00 0.  1.
</event>
<event>
 6    1  0.8017648E-006  0.6630238E+02  0.7818608E-02  0.1437800E+00
          2   -1    0    0  502    0  0.00000000000E+00  0.00000000000E+00  0.55521542386E+02  0.55521542386E+02  0.00000000000E+00 0. -1.
          1   -1    0    0  501    0 -0.00000000000E+00 -0.00000000000E+00 -0.10068336839E+04  0.10068336839E+04  0.00000000000E+00 0. -1.
          2    1    1    2  501    0  0.79964471726E+02  0.57345690998E+01 -0.23209295046E+02  0.83461808019E+02  0.00000000000E+00 0. -1.
          1    1    1    2  502    0 -0.36159023933E+02 -0.17336300114E+02 -0.77381276202E+03  0.77485109084E+03  0.00000000000E+00 0. -1.
         22    1    1    2    0    0 -0.52037854046E+02  0.34140980168E+02 -0.16788077041E+02  0.64462270447E+02  0.00000000000E+00 0.  1.
         22    1    1    2    0    0  0.82324062522E+01 -0.22539249153E+02 -0.13750200742E+03  0.13958005699E+03  0.00000000000E+00 0.  1.
</event>
<event>
 6    1  0.8017648E-006  0.2960778E+03  0.7818608E-02  0.1230485E+00
          2   -1    0    0  502    0  0.00000000000E+00  0.00000000000E+00  0.64679037186E+03  0.64679037186E+03  0.00000000000E+00 0. -1.
          1   -1    0    0  501    0 -0.00000000000E+00 -0.00000000000E+00 -0.21574882200E+03  0.21574882200E+03  0.00000000000E+00 0. -1.
          2    1    1    2  501    0  0.19460449621E+03 -0.36701068449E+02  0.27815875372E+03  0.34145302845E+03  0.00000000000E+00 0. -1.
          1    1    1    2  502    0 -0.27967788040E+03  0.72361656817E+02 -0.19862130047E+02  0.28956938784E+03  0.00000000000E+00 0. -1.
         22    1    1    2    0    0  0.11978182636E+01  0.10266052287E+02 -0.16507959881E+02  0.19476635685E+02  0.00000000000E+00 0.  1.
         22    1    1    2    0    0  0.83875565930E+02 -0.45926640655E+02  0.18925288607E+03  0.21204014188E+03  0.00000000000E+00 0.  1.
</event>
<event>
 6    1  0.8017648E-006  0.7399302E+02  0.7818608E-02  0.1354371E+00
          2   -1    0    0  502    0  0.00000000000E+00  0.00000000000E+00  0.29137290758E+02  0.29137290758E+02  0.00000000000E+00 0. -1.
          1   -1    0    0  501    0 -0.00000000000E+00 -0.00000000000E+00 -0.49990397391E+03  0.49990397391E+03  0.00000000000E+00 0. -1.
          2    1    1    2  501    0  0.41259241510E+02  0.18042763802E+02 -0.63311839844E+02  0.77693342057E+02  0.00000000000E+00 0. -1.
          1    1    1    2  502    0  0.21083316681E+02 -0.26581232834E+02 -0.17397440914E+03  0.17725169454E+03  0.00000000000E+00 0. -1.
         22    1    1    2    0    0 -0.64803369272E+02 -0.78532882465E+01 -0.24523609567E+03  0.25377528136E+03  0.00000000000E+00 0. -1.
         22    1    1    2    0    0  0.24608110807E+01  0.16391757278E+02  0.11755661509E+02  0.20320946714E+02  0.00000000000E+00 0. -1.
</event>
<event>
 6    1  0.8017648E-006  0.4585497E+02  0.7818608E-02  0.1577558E+00
          2   -1    0    0  502    0  0.00000000000E+00  0.00000000000E+00  0.78468217664E+03  0.78468217664E+03  0.00000000000E+00 0. -1.
          1   -1    0    0  501    0 -0.00000000000E+00 -0.00000000000E+00 -0.27415420110E+02  0.27415420110E+02  0.00000000000E+00 0.  1.
          2    1    1    2  501    0  0.44297288428E+02 -0.32254085099E+02  0.52673433269E+03  0.52957684334E+03  0.00000000000E+00 0. -1.
          1    1    1    2  502    0 -0.27626233214E+02 -0.56662848790E+01  0.33222611387E+02  0.43578176342E+02  0.00000000000E+00 0.  1.
         22    1    1    2    0    0 -0.63427425864E+01  0.41068554637E+02  0.21458441357E+03  0.21857110310E+03  0.00000000000E+00 0.  1.
         22    1    1    2    0    0 -0.10328312628E+02 -0.31481846589E+01 -0.17274601110E+02  0.20371473975E+02  0.00000000000E+00 0.  1.
</event>
<event>
 6    1  0.8017648E-006  0.5109499E+02  0.7818608E-02  0.1480990E+00
          2   -1    0    0  502    0  0.00000000000E+00  0.00000000000E+00  0.23280056172E+03  0.23280056172E+03  0.00000000000E+00 0. -1.
          1   -1    0    0  501    0 -0.00000000000E+00 -0.00000000000E+00 -0.18366533975E+03  0.18366533975E+03  0.00000000000E+00 0.  1.
          2    1    1    2  501    0 -0.38551419632E+02  0.11294409342E+01  0.15478109545E+03  0.15951387119E+03  0.00000000000E+00 0. -1.
          1    1    1    2  502    0  0.29372540814E+02 -0.15468262088E+02 -0.12724259251E+03  0.13150167541E+03  0.00000000000E+00 0.  1.
         22    1    1    2    0    0 -0.11857687975E+02 -0.41039569334E+01  0.69149340276E+02  0.70278577726E+02  0.00000000000E+00 0. -1.
         22    1    1    2    0    0  0.21036566793E+02  0.18442778088E+02 -0.47552621240E+02  0.55171777140E+02  0.00000000000E+00 0. -1.
</event>
<event>
 6    1  0.8017648E-006  0.7097747E+02  0.7818608E-02  0.1393930E+00
          2   -1    0    0  502    0  0.00000000000E+00  0.00000000000E+00  0.44313065127E+02  0.44313065127E+02  0.00000000000E+00 0. -1.
          1   -1    0    0  501    0 -0.00000000000E+00 -0.00000000000E+00 -0.22534458417E+03  0.22534458417E+03  0.00000000000E+00 0. -1.
          2    1    1    2  501    0 -0.26126929826E+02 -0.93928936360E+00 -0.23453299115E+02  0.35122015404E+02  0.00000000000E+00 0. -1.
          1    1    1    2  502    0  0.45253422527E+02  0.66815485848E+01 -0.47005924646E+02  0.65590184432E+02  0.00000000000E+00 0. -1.
         22    1    1    2    0    0  0.29242754494E+02  0.25148708897E+02 -0.10431068852E+03  0.11121293085E+03  0.00000000000E+00 0. -1.
         22    1    1    2    0    0 -0.48369247196E+02 -0.30890968119E+02 -0.62616067635E+01  0.57732518609E+02  0.00000000000E+00 0. -1.
</event>
<event>
 6    1  0.8017648E-006  0.4171286E+02  0.7818608E-02  0.1588285E+00
          2   -1    0    0  502    0  0.00000000000E+00  0.00000000000E+00  0.21037352518E+03  0.21037352518E+03  0.00000000000E+00 0.  1.
          1   -1    0    0  501    0 -0.00000000000E+00 -0.00000000000E+00 -0.82416885081E+02  0.82416885081E+02  0.00000000000E+00 0. -1.
          2    1    1    2  501    0 -0.29908150422E+02 -0.13870998312E+02  0.11030700086E+03  0.11512834792E+03  0.00000000000E+00 0.  1.
          1    1    1    2  502    0  0.28817316484E+02  0.22881172637E+02  0.38263993600E+02  0.53085958565E+02  0.00000000000E+00 0. -1.
         22    1    1    2    0    0 -0.97883926598E+01 -0.27121249153E+01  0.50931427172E+02  0.51934367486E+02  0.00000000000E+00 0. -1.
         22    1    1    2    0    0  0.10879226598E+02 -0.62980494095E+01 -0.71545781527E+02  0.72641736296E+02  0.00000000000E+00 0. -1.
</event>
<event>
 6    1  0.8017648E-006  0.5275375E+02  0.7818608E-02  0.1431784E+00
          2   -1    0    0  502    0  0.00000000000E+00  0.00000000000E+00  0.13966314200E+03  0.13966314200E+03  0.00000000000E+00 0.  1.
          1   -1    0    0  501    0 -0.00000000000E+00 -0.00000000000E+00 -0.37161173686E+03  0.37161173686E+03  0.00000000000E+00 0. -1.
          2    1    1    2  501    0  0.71756128998E+00  0.23832700006E+02  0.74228586546E+02  0.77964065726E+02  0.00000000000E+00 0.  1.
          1    1    1    2  502    0 -0.60023133609E+00 -0.41477942358E+02 -0.30518604519E+03  0.30799237354E+03  0.00000000000E+00 0. -1.
         22    1    1    2    0    0 -0.59285998106E+01  0.26866004463E+02  0.58600888760E+02  0.64737891957E+02  0.00000000000E+00 0.  1.
         22    1    1    2    0    0  0.58112698567E+01 -0.92207621108E+01 -0.59592024985E+02  0.60580547646E+02  0.00000000000E+00 0. -1.
</event>
<event>
 6    1  0.8017648E-006  0.1928864E+03  0.7818608E-02  0.1290241E+00
          2   -1    0    0  502    0  0.00000000000E+00  0.00000000000E+00  0.37082221369E+03  0.37082221369E+03  0.00000000000E+00 0. -1.
          1   -1    0    0  501    0 -0.00000000000E+00 -0.00000000000E+00 -0.48182912616E+03  0.48182912616E+03  0.00000000000E+00 0. -1.
          2    1    1    2  501    0 -0.45669276645E+02 -0.10533282572E+03  0.18187596917E+03  0.21508034584E+03  0.00000000000E+00 0. -1.
          1    1    1    2  502    0  0.11906003269E+03  0.13250844745E+03 -0.40955233558E+03  0.44661716896E+03  0.00000000000E+00 0. -1.
         22    1    1    2    0    0 -0.50361821324E+01  0.10394382516E+02 -0.25946840435E+02  0.28401493745E+02  0.00000000000E+00 0.  1.
         22    1    1    2    0    0 -0.68354573913E+02 -0.37570004241E+02  0.14261629437E+03  0.16255233131E+03  0.00000000000E+00 0. -1.
</event>
<event>
 6    1  0.8017648E-006  0.3352418E+02  0.7818608E-02  0.1606906E+00
          2   -1    0    0  502    0  0.00000000000E+00  0.00000000000E+00  0.38360413183E+03  0.38360413183E+03  0.00000000000E+00 0.  1.
          1   -1    0    0  501    0 -0.00000000000E+00 -0.00000000000E+00 -0.57538298259E+02  0.57538298259E+02  0.00000000000E+00 0.  1.
          2    1    1    2  501    0  0.25586914982E+02 -0.52556007871E+01  0.24199720814E+03  0.24340287654E+03  0.00000000000E+00 0.  1.
          1    1    1    2  502    0 -0.22679981542E+02 -0.55264977556E+01  0.64576327142E+02  0.68666045229E+02  0.00000000000E+00 0.  1.
         22    1    1    2    0    0 -0.15407334297E+02  0.11691712828E+02 -0.52525463910E+02  0.55973265564E+02  0.00000000000E+00 0.  1.
         22    1    1    2    0    0  0.12500400857E+02 -0.90961428480E+00  0.72017762197E+02  0.73100242760E+02  0.00000000000E+00 0.  1.
</event>
<event>
 6    1  0.8017648E-006  0.3396929E+02  0.7818608E-02  0.1589134E+00
          2   -1    0    0  502    0  0.00000000000E+00  0.00000000000E+00  0.11290054196E+03  0.11290054196E+03  0.00000000000E+00 0.  1.
          1   -1    0    0  501    0 -0.00000000000E+00 -0.00000000000E+00 -0.15205686666E+03  0.15205686666E+03  0.00000000000E+00 0. -1.
          2    1    1    2  501    0  0.11010582436E+02  0.21799482060E+02  0.50048244734E+02  0.55689111544E+02  0.00000000000E+00 0.  1.
          1    1    1    2  502    0 -0.31453981788E+02 -0.67737285598E+01  0.20807375603E+02  0.38316879419E+02  0.00000000000E+00 0. -1.
         22    1    1    2    0    0  0.99895676593E+01 -0.20757413819E+02 -0.13832533042E+03  0.14023037733E+03  0.00000000000E+00 0. -1.
         22    1    1    2    0    0  0.10453831692E+02  0.57316603183E+01  0.28313385379E+02  0.30721040325E+02  0.00000000000E+00 0.  1.
</event>
<event>
 6    1  0.8017648E-006  0.4507638E+02  0.7818608E-02  0.1478464E+00
          2   -1    0    0  502    0  0.00000000000E+00  0.00000000000E+00  0.45326825748E+02  0.45326825748E+02  0.00000000000E+00 0.  1.
          1   -1    0    0  501    0 -0.00000000000E+00 -0.00000000000E+00 -0.22883310995E+03  0.22883310995E+03  0.00000000000E+00 0.  1.
          2    1    1    2  501    0 -0.22498990202E+02 -0.49088726692E+01  0.22734959788E+01  0.23140232820E+02  0.00000000000E+00 0.  1.
          1    1    1    2  502    0  0.21977040209E+02 -0.27642289514E+02 -0.15981275612E+02  0.38761935402E+02  0.00000000000E+00 0.  1.
         22    1    1    2    0    0 -0.17373592815E+02 -0.14889865425E+02  0.10347488168E+02  0.25112155046E+02  0.00000000000E+00 0.  1.
         22    1    1    2    0    0  0.17895542808E+02  0.47441027608E+02 -0.18014599273E+03  0.18714561243E+03  0.00000000000E+00 0.  1.
</event>
<event>
 6    1  0.8017648E-006  0.1968195E+03  0.7818608E-02  0.1153380E+00
          2   -1    0    0  502    0  0.00000000000E+00  0.00000000000E+00  0.91884096127E+03  0.91884096127E+03  0.00000000000E+00 0. -1.
          1   -1    0    0  501    0 -0.00000000000E+00 -0.00000000000E+00 -0.84591603357E+02  0.84591603357E+02  0.00000000000E+00 0. -1.
          2    1    1    2  501    0  0.86744253163E+02  0.66809867808E+02  0.38893379235E+03  0.40405150504E+03  0.00000000000E+00 0. -1.
          1    1    1    2  502    0 -0.10384663494E+03 -0.14129072386E+03  0.56225950076E+02  0.18414274273E+03  0.00000000000E+00 0. -1.
         22    1    1    2    0    0  0.32613085441E+02  0.79562897646E+02  0.38953245543E+03  0.39891026792E+03  0.00000000000E+00 0. -1.
         22    1    1    2    0    0 -0.15510703659E+02 -0.50820415983E+01 -0.44283994156E+00  0.16328048935E+02  0.00000000000E+00 0. -1.
</event>
<event>
 6    1  0.8017648E-006  0.8485147E+02  0.7818608E-02  0.1390670E+00
          2   -1    0    0  502    0  0.00000000000E+00  0.00000000000E+00  0.49899794180E+03  0.49899794180E+03  0.00000000000E+00 0. -1.
          1   -1    0    0  501    0 -0.00000000000E+00 -0.00000000000E+00 -0.62462575616E+02  0.62462575616E+02  0.00000000000E+00 0. -1.
          2    1    1    2  501    0 -0.53020091637E+02 -0.77778470223E+01  0.32534329598E+03  0.32972698595E+03  0.00000000000E+00 0. -1.
          1    1    1    2  502    0  0.48509132376E+02  0.48767523806E+02  0.11882898189E+02  0.69804087068E+02  0.00000000000E+00 0. -1.
         22    1    1    2    0    0  0.19264305883E+02 -0.13950156767E+02 -0.24618309396E+02  0.34231294344E+02  0.00000000000E+00 0. -1.
         22    1    1    2    0    0 -0.14753346621E+02 -0.27039520017E+02  0.12392748141E+03  0.12769815006E+03  0.00000000000E+00 0.  1.
</event>
<event>
 6    1  0.8017648E-006  0.8056663E+02  0.7818608E-02  0.1418388E+00
          2   -1    0    0  502    0  0.00000000000E+00  0.00000000000E+00  0.16470570037E+03  0.16470570037E+03  0.00000000000E+00 0. -1.
          1   -1    0    0  501    0 -0.00000000000E+00 -0.00000000000E+00 -0.26818744252E+03  0.26818744252E+03  0.00000000000E+00 0.  1.
          2    1    1    2  501    0  0.55734726182E+02 -0.94242368286E+02  0.31109401760E+02  0.11382345347E+03  0.00000000000E+00 0. -1.
          1    1    1    2  502    0 -0.10943332736E+03  0.69695481988E+02 -0.12347608342E+03  0.17910738825E+03  0.00000000000E+00 0.  1.
         22    1    1    2    0    0  0.50552733816E+02  0.13253743225E+02  0.53207194981E+02  0.74580467976E+02  0.00000000000E+00 0. -1.
         22    1    1    2    0    0  0.31458673653E+01  0.11293143074E+02 -0.64322255478E+02  0.65381833193E+02  0.00000000000E+00 0.  1.
</event>
<event>
 6    1  0.8017648E-006  0.2064398E+03  0.7818608E-02  0.1223269E+00
          2   -1    0    0  502    0  0.00000000000E+00  0.00000000000E+00  0.24806047349E+03  0.24806047349E+03  0.00000000000E+00 0.  1.
          1   -1    0    0  501    0 -0.00000000000E+00 -0.00000000000E+00 -0.15550440614E+03  0.15550440614E+03  0.00000000000E+00 0.  1.
          2    1    1    2  501    0 -0.42662265576E+02 -0.44805756878E+02 -0.79387883524E+02  0.10064820318E+03  0.00000000000E+00 0.  1.
          1    1    1    2  502    0  0.10442277183E+03  0.39512127104E+02  0.97247933594E+02  0.14806243296E+03  0.00000000000E+00 0.  1.
         22    1    1    2    0    0 -0.66824740777E+02 -0.29760951347E+02  0.90247696298E+02  0.11617188512E+03  0.00000000000E+00 0.  1.
         22    1    1    2    0    0  0.50642345258E+01  0.35054581121E+02 -0.15551679013E+02  0.38682358370E+02  0.00000000000E+00 0.  1.
</event>
<event>
 6    1  0.8017648E-006  0.7451824E+02  0.7818608E-02  0.1400375E+00
          2   -1    0    0  502    0  0.00000000000E+00  0.00000000000E+00  0.13372777284E+03  0.13372777284E+03  0.00000000000E+00 0. -1.
          1   -1    0    0  501    0 -0.00000000000E+00 -0.00000000000E+00 -0.42991035226E+03  0.42991035226E+03  0.00000000000E+00 0.  1.
          2    1    1    2  501    0  0.56332979835E+02 -0.65275188734E+02 -0.13870522022E+03  0.16331990999E+03  0.00000000000E+00 0. -1.
          1    1    1    2  502    0 -0.93450919959E+02  0.84235919501E+02 -0.22125097311E+03  0.25452064293E+03  0.00000000000E+00 0.  1.
         22    1    1    2    0    0 -0.16719483668E+02 -0.13861378363E+02 -0.30305027453E+02  0.37283691250E+02  0.00000000000E+00 0.  1.
         22    1    1    2    0    0  0.53837423792E+02 -0.50993524037E+01  0.94078641366E+02  0.10851388094E+03  0.00000000000E+00 0. -1.
</event>
<event>
 6    1  0.8017648E-006  0.2549946E+02  0.7818608E-02  0.1704733E+00
          2   -1    0    0  502    0  0.00000000000E+00  0.00000000000E+00  0.13830661475E+03  0.13830661475E+03  0.00000000000E+00 0. -1.
          1   -1    0    0  501    0 -0.00000000000E+00 -0.00000000000E+00 -0.13849093754E+03  0.13849093754E+03  0.00000000000E+00 0. -1.
          2    1    1    2  501    0 -0.39691796394E+01  0.29601808228E+02  0.42115735065E+02  0.51630965296E+02  0.00000000000E+00 0. -1.
          1    1    1    2  502    0 -0.17143186578E+02 -0.43869506583E+02 -0.77180906261E+02  0.90417447128E+02  0.00000000000E+00 0. -1.
         22    1    1    2    0    0  0.17025430988E+02  0.48946952107E+01  0.83350701957E+02  0.85212457177E+02  0.00000000000E+00 0. -1.
         22    1    1    2    0    0  0.40869352303E+01  0.93730031442E+01 -0.48469853557E+02  0.49536682684E+02  0.00000000000E+00 0. -1.
</event>
<event>
 6    1  0.8017648E-006  0.4405721E+02  0.7818608E-02  0.1592116E+00
          2   -1    0    0  502    0  0.00000000000E+00  0.00000000000E+00  0.23788981010E+03  0.23788981010E+03  0.00000000000E+00 0.  1.
          1   -1    0    0  501    0 -0.00000000000E+00 -0.00000000000E+00 -0.69338601712E+02  0.69338601712E+02  0.00000000000E+00 0.  1.
          2    1    1    2  501    0  0.48742642835E+02 -0.59006441737E+01  0.10384495087E+03  0.11486703902E+03  0.00000000000E+00 0.  1.
          1    1    1    2  502    0 -0.31639795078E+02 -0.33361239043E+02  0.27448392676E+02  0.53548698990E+02  0.00000000000E+00 0.  1.
         22    1    1    2    0    0  0.36866668039E+01 -0.94913845321E+01 -0.42138544184E+02  0.43351295233E+02  0.00000000000E+00 0. -1.
         22    1    1    2    0    0 -0.20789514562E+02  0.48753267749E+02  0.79396409024E+02  0.95461378566E+02  0.00000000000E+00 0.  1.
</event>
<event>
 6    1  0.8017648E-006  0.8170506E+02  0.7818608E-02  0.1433272E+00
          2   -1    0    0  502    0  0.00000000000E+00  0.00000000000E+00  0.24568158028E+03  0.24568158028E+03  0.00000000000E+00 0. -1.
          1   -1    0    0  501    0 -0.00000000000E+00 -0.00000000000E+00 -0.56145297222E+03  0.56145297222E+03  0.00000000000E+00 0.  1.
          2    1    1    2  501    0 -0.45718465370E+02 -0.14533320291E+02  0.11241336871E+03  0.12222176950E+03  0.00000000000E+00 0. -1.
          1    1    1    2  502    0  0.74609905199E+02  0.36506560359E+02 -0.51767072284E+03  0.52429223167E+03  0.00000000000E+00 0.  1.
         22    1    1    2    0    0  0.15691864634E+01 -0.13636170104E+02 -0.32146895666E+02  0.34954690418E+02  0.00000000000E+00 0.  1.
         22    1    1    2    0    0 -0.30460626293E+02 -0.83370699644E+01  0.12163285786E+03  0.12566586092E+03  0.00000000000E+00 0. -1.
</event>
<event>
 6    1  0.8017648E-006  0.4324288E+02  0.7818608E-02  0.1581389E+00
          2   -1    0    0  502    0  0.00000000000E+00  0.00000000000E+00  0.37965183533E+02  0.37965183533E+02  0.00000000000E+00 0.  1.
          1   -1    0    0  501    0 -0.00000000000E+00 -0.00000000000E+00 -0.48925735039E+03  0.48925735039E+03  0.00000000000E+00 0.  1.
          2    1    1    2  501    0 -0.17561523814E+02  0.10932725636E+02 -0.61391756227E+01  0.21578254930E+02  0.00000000000E+00 0.  1.
          1    1    1    2  502    0  0.61256665311E+02 -0.89785828366E+01 -0.29945392734E+03  0.30578693333E+03  0.00000000000E+00 0.  1.
         22    1    1    2    0    0 -0.10373355193E+02  0.65708333581E+01  0.23865668899E+02  0.26839383394E+02  0.00000000000E+00 0.  1.
         22    1    1    2    0    0 -0.33321786304E+02 -0.85249761577E+01 -0.16956473279E+03  0.17301796227E+03  0.00000000000E+00 0.  1.
</event>
<event>
 6    1  0.8017648E-006  0.4081586E+02  0.7818608E-02  0.1549101E+00
          2   -1    0    0  502    0  0.00000000000E+00  0.00000000000E+00  0.19954795169E+03  0.19954795169E+03  0.00000000000E+00 0.  1.
          1   -1    0    0  501    0 -0.00000000000E+00 -0.00000000000E+00 -0.12532614569E+03  0.12532614569E+03  0.00000000000E+00 0.  1.
          2    1    1    2  501    0  0.88597814144E+01  0.52535295969E+02  0.12354749065E+03  0.13454529161E+03  0.00000000000E+00 0.  1.
          1    1    1    2  502    0 -0.27628684954E+02 -0.50888012198E+02 -0.13527299724E+02  0.59463617915E+02  0.00000000000E+00 0.  1.
         22    1    1    2    0    0 -0.53902027837E+01 -0.12744144823E+02 -0.78965140487E+02  0.80168328693E+02  0.00000000000E+00 0.  1.
         22    1    1    2    0    0  0.24159106324E+02  0.11096861052E+02  0.43166755560E+02  0.50696859165E+02  0.00000000000E+00 0. -1.
</event>
<event>
 6    1  0.8017648E-006  0.4534627E+02  0.7818608E-02  0.1565501E+00
          2   -1    0    0  502    0  0.00000000000E+00  0.00000000000E+00  0.24218877591E+03  0.24218877591E+03  0.00000000000E+00 0.  1.
          1   -1    0    0  501    0 -0.00000000000E+00 -0.00000000000E+00 -0.26364508559E+03  0.26364508559E+03  0.00000000000E+00 0.  1.
          2    1    1    2  501    0 -0.27608732262E+02  0.12584123363E+02  0.17332454473E+03  0.17596022295E+03  0.00000000000E+00 0.  1.
          1    1    1    2  502    0  0.31488453752E+02 -0.13485807378E+02 -0.20012336244E+03  0.20303386396E+03  0.00000000000E+00 0.  1.
         22    1    1    2    0    0 -0.51785911961E+01  0.13815310269E+02  0.64556030254E+02  0.66220553054E+02  0.00000000000E+00 0. -1.
         22    1    1    2    0    0  0.12988697057E+01 -0.12913626254E+02 -0.59213522220E+02  0.60619221533E+02  0.00000000000E+00 0.  1.
</event>
<event>
 6    1  0.8017648E-006  0.6783589E+02  0.7818608E-02  0.1457560E+00
          2   -1    0    0  502    0  0.00000000000E+00  0.00000000000E+00  0.12541442811E+03  0.12541442811E+03  0.00000000000E+00 0. -1.
          1   -1    0    0  501    0 -0.00000000000E+00 -0.00000000000E+00 -0.20284338382E+03  0.20284338382E+03  0.00000000000E+00 0. -1.
          2    1    1    2  501    0 -0.17069329487E+02 -0.46825369216E+02  0.67069873307E+02  0.83560427936E+02  0.00000000000E+00 0. -1.
          1    1    1    2  502    0  0.33531563497E+02  0.55201103682E+02 -0.86635298442E+02  0.10806110556E+03  0.00000000000E+00 0. -1.
         22    1    1    2    0    0 -0.23043607267E+01 -0.17287270364E+02  0.36684790016E+02  0.40619374854E+02  0.00000000000E+00 0. -1.
         22    1    1    2    0    0 -0.14157873283E+02  0.89115358979E+01 -0.94548320592E+02  0.96016903589E+02  0.00000000000E+00 0. -1.
</event>
<event>
 6    1  0.8017648E-006  0.1432808E+03  0.7818608E-02  0.1324304E+00
          2   -1    0    0  502    0  0.00000000000E+00  0.00000000000E+00  0.58839126053E+03  0.58839126053E+03  0.00000000000E+00 0.  1.
          1   -1    0    0  501    0 -0.00000000000E+00 -0.00000000000E+00 -0.62892126977E+02  0.62892126977E+02  0.00000000000E+00 0.  1.
          2    1    1    2  501    0  0.24792613772E+02  0.47086870178E+01  0.39860857023E+02  0.47177678553E+02  0.00000000000E+00 0.  1.
          1    1    1    2  502    0 -0.13580147595E+03 -0.18026404533E+02  0.38917299553E+03  0.41258043165E+03  0.00000000000E+00 0.  1.
         22    1    1    2    0    0 -0.14897469907E+02 -0.27238310838E+01 -0.15936755002E+02  0.21984859003E+02  0.00000000000E+00 0.  1.
         22    1    1    2    0    0  0.12590633208E+03  0.16041548599E+02  0.11240203600E+03  0.16954041830E+03  0.00000000000E+00 0.  1.
</event>
<event>
 6    1  0.8017648E-006  0.6537244E+02  0.7818608E-02  0.1446594E+00
          2   -1    0    0  502    0  0.00000000000E+00  0.00000000000E+00  0.32952341193E+03  0.32952341193E+03  0.00000000000E+00 0. -1.
          1   -1    0    0  501    0 -0.00000000000E+00 -0.00000000000E+00 -0.83781701040E+02  0.83781701040E+02  0.00000000000E+00 0. -1.
          2    1    1    2  501    0 -0.27545272722E+02  0.18907876534E+02  0.20426433624E+03  0.20697866776E+03  0.00000000000E+00 0. -1.
          1    1    1    2  502    0  0.54584500780E+02  0.61711629348E+01 -0.23825386764E+02  0.59876539912E+02  0.00000000000E+00 0. -1.
         22    1    1    2    0    0 -0.29661681609E+02 -0.32760243029E+01  0.10057017404E+03  0.10490427826E+03  0.00000000000E+00 0. -1.
         22    1    1    2    0    0  0.26224535506E+01 -0.21803015166E+02 -0.35267412629E+02  0.41545627044E+02  0.00000000000E+00 0. -1.
</event>
<event>
 6    1  0.8017648E-006  0.5507709E+02  0.7818608E-02  0.1492200E+00
          2   -1    0    0  502    0  0.00000000000E+00  0.00000000000E+00  0.18403390690E+03  0.18403390690E+03  0.00000000000E+00 0.  1.
          1   -1    0    0  501    0 -0.00000000000E+00 -0.00000000000E+00 -0.30674532464E+03  0.30674532464E+03  0.00000000000E+00 0.  1.
          2    1    1    2  501    0  0.38628395713E+02  0.18372219801E+02  0.13094647987E+03  0.13775584200E+03  0.00000000000E+00 0.  1.
          1    1    1    2  502    0 -0.36403829742E+02 -0.28310920508E+02 -0.22229585199E+03  0.22702905729E+03  0.00000000000E+00 0.  1.
         22    1    1    2    0    0 -0.14234458574E+02  0.12724197975E+02 -0.76684198080E+02  0.79025257103E+02  0.00000000000E+00 0. -1.
         22    1    1    2    0    0  0.12009892603E+02 -0.27854972680E+01  0.45322152471E+02  0.46969075145E+02  0.00000000000E+00 0.  1.
</event>
<event>
 6    1  0.8017648E-006  0.9383585E+02  0.7818608E-02  0.1313656E+00
          2   -1    0    0  502    0  0.00000000000E+00  0.00000000000E+00  0.91577922472E+02  0.91577922472E+02  0.00000000000E+00 0.  1.
          1   -1    0    0  501    0 -0.00000000000E+00 -0.00000000000E+00 -0.49556660418E+03  0.49556660418E+03  0.00000000000E+00 0.  1.
          2    1    1    2  501    0  0.64848589569E+01 -0.24241838987E+02  0.20117220651E+02  0.32162442691E+02  0.00000000000E+00 0.  1.
          1    1    1    2  502    0  0.67462665554E+02  0.10907452137E+03 -0.35306321691E+03  0.37563559149E+03  0.00000000000E+00 0.  1.
         22    1    1    2    0    0 -0.61776051010E+02 -0.20955845831E+02 -0.90419378423E+02  0.11149480682E+03  0.00000000000E+00 0.  1.
         22    1    1    2    0    0 -0.12171473501E+02 -0.63876836553E+02  0.19376692978E+02  0.67851685653E+02  0.00000000000E+00 0.  1.
</event>
<event>
 6    1  0.8017648E-006  0.1567374E+03  0.7818608E-02  0.1257828E+00
          2   -1    0    0  502    0  0.00000000000E+00  0.00000000000E+00  0.52073789420E+03  0.52073789420E+03  0.00000000000E+00 0. -1.
          1   -1    0    0  501    0 -0.00000000000E+00 -0.00000000000E+00 -0.14475348913E+03  0.14475348913E+03  0.00000000000E+00 0. -1.
          2    1    1    2  501    0  0.37000440518E+02 -0.13196746730E+03  0.39928985247E+03  0.42215735373E+03  0.00000000000E+00 0. -1.
          1    1    1    2  502    0 -0.58145852343E+02  0.85814279045E+02 -0.32806164158E+02  0.10872568712E+03  0.00000000000E+00 0. -1.
         22    1    1    2    0    0  0.40087015964E+02 -0.18902959483E+01  0.53420402281E+02  0.66815278549E+02  0.00000000000E+00 0.  1.
         22    1    1    2    0    0 -0.18941604139E+02  0.48043484198E+02 -0.43919685520E+02  0.67793063933E+02  0.00000000000E+00 0.  1.
</event>
<event>
 6    1  0.8017648E-006  0.5981727E+02  0.7818608E-02  0.1426037E+00
          2   -1    0    0  502    0  0.00000000000E+00  0.00000000000E+00  0.76014622079E+02  0.76014622079E+02  0.00000000000E+00 0. -1.
          1   -1    0    0  501    0 -0.00000000000E+00 -0.00000000000E+00 -0.23277715913E+03  0.23277715913E+03  0.00000000000E+00 0.  1.
          2    1    1    2  501    0 -0.12773180260E+02 -0.50680660172E+02  0.26461450066E+02  0.58582350491E+02  0.00000000000E+00 0. -1.
          1    1    1    2  502    0  0.29775037890E+02  0.21580152540E+02 -0.36141394124E+02  0.51560219493E+02  0.00000000000E+00 0.  1.
         22    1    1    2    0    0 -0.91787428776E+01  0.37942862743E+02 -0.16916393856E+03  0.17360975855E+03  0.00000000000E+00 0.  1.
         22    1    1    2    0    0 -0.78231147524E+01 -0.88423551102E+01  0.22081345567E+02  0.25039452677E+02  0.00000000000E+00 0. -1.
</event>
<event>
 6    1  0.8017648E-006  0.3654259E+03  0.7818608E-02  0.1159132E+00
          2   -1    0    0  502    0  0.00000000000E+00  0.00000000000E+00  0.32675775182E+03  0.32675775182E+03  0.00000000000E+00 0.  1.
          1   -1    0    0  501    0 -0.00000000000E+00 -0.00000000000E+00 -0.45743616095E+03  0.45743616095E+03  0.00000000000E+00 0. -1.
          2    1    1    2  501    0 -0.97638129334E+02  0.85134675186E+02  0.23939281841E+03  0.27219485433E+03  0.00000000000E+00 0.  1.
          1    1    1    2  502    0 -0.22025617939E+02 -0.16259176423E+03 -0.20201243189E+03  0.26025032619E+03  0.00000000000E+00 0. -1.
         22    1    1    2    0    0  0.11170355088E+03  0.52399032886E+02 -0.53971312462E+02  0.13467087471E+03  0.00000000000E+00 0. -1.
         22    1    1    2    0    0  0.79601963913E+01  0.25058056159E+02 -0.11408748319E+03  0.11707785754E+03  0.00000000000E+00 0.  1.
</event>
<event>
 6    1  0.8017648E-006  0.6610073E+02  0.7818608E-02  0.1422051E+00
          2   -1    0    0  502    0  0.00000000000E+00  0.00000000000E+00  0.48481228244E+03  0.48481228244E+03  0.00000000000E+00 0.  1.
          1   -1    0    0  501    0 -0.00000000000E+00 -0.00000000000E+00 -0.26121875190E+03  0.26121875190E+03  0.00000000000E+00 0. -1.
          2    1    1    2  501    0 -0.58877959032E+02  0.56527864314E+02  0.39809586458E+03  0.40637707969E+03  0.00000000000E+00 0.  1.
          1    1    1    2  502    0  0.85242181629E+02 -0.62864037971E+02 -0.18017231211E+03  0.20899803551E+03  0.00000000000E+00 0. -1.
         22    1    1    2    0    0 -0.39975171613E+02 -0.63613163147E+01  0.60477523356E+02  0.72773700758E+02  0.00000000000E+00 0. -1.
         22    1    1    2    0    0  0.13610949016E+02  0.12697489972E+02 -0.54807545283E+02  0.57882218380E+02  0.00000000000E+00 0. -1.
</event>
<event>
 6    1  0.8017648E-006  0.8181619E+02  0.7818608E-02  0.1382309E+00
          2   -1    0    0  502    0  0.00000000000E+00  0.00000000000E+00  0.42746471811E+03  0.42746471811E+03  0.00000000000E+00 0. -1.
          1   -1    0    0  501    0 -0.00000000000E+00 -0.00000000000E+00 -0.32220833257E+03  0.32220833257E+03  0.00000000000E+00 0. -1.
          2    1    1    2  501    0  0.51290927385E+02 -0.63899833292E+00  0.34738865806E+03  0.35115530368E+03  0.00000000000E+00 0. -1.
          1    1    1    2  502    0 -0.69021028139E+02 -0.98035419361E+01 -0.26076642920E+03  0.26992432709E+03  0.00000000000E+00 0. -1.
         22    1    1    2    0    0 -0.11909404737E+02  0.38306880620E+01 -0.51060102001E+02  0.52570353894E+02  0.00000000000E+00 0. -1.
         22    1    1    2    0    0  0.29639505492E+02  0.66118522071E+01  0.69694258665E+02  0.76023066014E+02  0.00000000000E+00 0. -1.
</event>
<event>
 6    1  0.8017648E-006  0.1538988E+03  0.7818608E-02  0.1259396E+00
          2   -1    0    0  502    0  0.00000000000E+00  0.00000000000E+00  0.10703989389E+04  0.10703989389E+04  0.00000000000E+00 0. -1.
          1   -1    0    0  501    0 -0.00000000000E+00 -0.00000000000E+00 -0.41807808167E+02  0.41807808167E+02  0.00000000000E+00 0.  1.
          2    1    1    2  501    0 -0.35427505516E+00  0.13008597857E+03  0.41084050871E+03  0.43094362849E+03  0.00000000000E+00 0. -1.
          1    1    1    2  502    0 -0.11583914161E+02 -0.13792666844E+03  0.47087120373E+03  0.49079287223E+03  0.00000000000E+00 0.  1.
         22    1    1    2    0    0  0.27858361954E+02 -0.30223252381E+02  0.34774033689E+01  0.41250765441E+02  0.00000000000E+00 0.  1.
         22    1    1    2    0    0 -0.15920172738E+02  0.38063942244E+02  0.14340201494E+03  0.14921948093E+03  0.00000000000E+00 0. -1.
</event>
<event>
 6    1  0.8017648E-006  0.9127509E+02  0.7818608E-02  0.1352127E+00
          2   -1    0    0  502    0  0.00000000000E+00  0.00000000000E+00  0.36179850641E+03  0.36179850641E+03  0.00000000000E+00 0. -1.
          1   -1    0    0  501    0 -0.00000000000E+00 -0.00000000000E+00 -0.42663277260E+02  0.42663277260E+02  0.00000000000E+00 0. -1.
          2    1    1    2  501    0 -0.77261717906E+01 -0.36194387178E+02  0.20553815105E+03  0.20884362315E+03  0.00000000000E+00 0. -1.
          1    1    1    2  502    0 -0.17774327400E+02  0.31783745228E+02  0.27318091519E+02  0.45523744348E+02  0.00000000000E+00 0. -1.
         22    1    1    2    0    0  0.47645777705E+02 -0.24132082433E+02  0.98424272714E+02  0.11198131538E+03  0.00000000000E+00 0. -1.
         22    1    1    2    0    0 -0.22145278515E+02  0.28542724382E+02 -0.12145286139E+02  0.38113100780E+02  0.00000000000E+00 0.  1.
</event>
<event>
 6    1  0.8017648E-006  0.3650893E+02  0.7818608E-02  0.1636389E+00
          2   -1    0    0  502    0  0.00000000000E+00  0.00000000000E+00  0.33068478984E+03  0.33068478984E+03  0.00000000000E+00 0.  1.
          1   -1    0    0  501    0 -0.00000000000E+00 -0.00000000000E+00 -0.72559389962E+02  0.72559389962E+02  0.00000000000E+00 0.  1.
          2    1    1    2  501    0 -0.36600908988E+01 -0.22814766678E+02  0.25181811000E+03  0.25287599801E+03  0.00000000000E+00 0.  1.
          1    1    1    2  502    0  0.27304809427E+01  0.24201915858E+02 -0.13305524851E+02  0.27752932259E+02  0.00000000000E+00 0.  1.
         22    1    1    2    0    0  0.42460303775E+01 -0.11459561502E+02  0.70033352171E+02  0.71091636218E+02  0.00000000000E+00 0. -1.
         22    1    1    2    0    0 -0.33164204214E+01  0.10072412322E+02 -0.50420537437E+02  0.51523613323E+02  0.00000000000E+00 0.  1.
</event>
<event>
 6    1  0.8017648E-006  0.7386669E+02  0.7818608E-02  0.1433648E+00
          2   -1    0    0  502    0  0.00000000000E+00  0.00000000000E+00  0.19286386357E+03  0.19286386357E+03  0.00000000000E+00 0.  1.
          1   -1    0    0  501    0 -0.00000000000E+00 -0.00000000000E+00 -0.37881570822E+03  0.37881570822E+03  0.00000000000E+00 0.  1.
          2    1    1    2  501    0  0.21376942018E+02  0.20462732272E+02  0.11656997836E+03  0.12026743914E+03  0.00000000000E+00 0.  1.
          1    1    1    2  502    0 -0.40797681003E+02 -0.45092955087E+02 -0.31546689831E+03  0.32127432095E+03  0.00000000000E+00 0.  1.
         22    1    1    2    0    0  0.70021838936E+01  0.38303322117E+02  0.64517724656E+02  0.75357228315E+02  0.00000000000E+00 0.  1.
         22    1    1    2    0    0  0.12418555092E+02 -0.13673099302E+02 -0.51572649348E+02  0.54780583384E+02  0.00000000000E+00 0.  1.
</event>
<event>
 6    1  0.8017648E-006  0.6435899E+02  0.7818608E-02  0.1486202E+00
          2   -1    0    0  502    0  0.00000000000E+00  0.00000000000E+00  0.32728530695E+03  0.32728530695E+03  0.00000000000E+00 0. -1.
          1   -1    0    0  501    0 -0.00000000000E+00 -0.00000000000E+00 -0.64966331559E+02  0.64966331559E+02  0.00000000000E+00 0. -1.
          2    1    1    2  501    0  0.17429972048E+01 -0.43947348017E+02  0.19358776312E+03  0.19852110585E+03  0.00000000000E+00 0. -1.
          1    1    1    2  502    0  0.70659114776E+01  0.48992224579E+02  0.27267787286E+01  0.49574191838E+02  0.00000000000E+00 0. -1.
         22    1    1    2    0    0  0.50404079379E+01  0.11993992719E+02 -0.36800585852E+02  0.39032610630E+02  0.00000000000E+00 0.  1.
         22    1    1    2    0    0 -0.13849316620E+02 -0.17038869280E+02  0.10280501939E+03  0.10512373018E+03  0.00000000000E+00 0.  1.
</event>
<event>
 6    1  0.8017648E-006  0.4415991E+02  0.7818608E-02  0.1480559E+00
          2   -1    0    0  502    0  0.00000000000E+00  0.00000000000E+00  0.27531240255E+03  0.27531240255E+03  0.00000000000E+00 0. -1.
          1   -1    0    0  501    0 -0.00000000000E+00 -0.00000000000E+00 -0.75077120811E+02  0.75077120811E+02  0.00000000000E+00 0. -1.
          2    1    1    2  501    0 -0.69973161120E+02  0.31999107552E+02  0.74434876300E+02  0.10705483161E+03  0.00000000000E+00 0. -1.
          1    1    1    2  502    0  0.72595343305E+02 -0.21011612872E+02  0.23273736857E+02  0.79077421381E+02  0.00000000000E+00 0. -1.
         22    1    1    2    0    0  0.21615476365E+02 -0.13511438923E+02 -0.24236056730E+02  0.35173487830E+02  0.00000000000E+00 0. -1.
         22    1    1    2    0    0 -0.24237658550E+02  0.25239442440E+01  0.12676272531E+03  0.12908378254E+03  0.00000000000E+00 0. -1.
</event>
<event>
 6    1  0.8017648E-006  0.9989905E+02  0.7818608E-02  0.1316837E+00
          2   -1    0    0  502    0  0.00000000000E+00  0.00000000000E+00  0.17922080461E+03  0.17922080461E+03  0.00000000000E+00 0. -1.
          1   -1    0    0  501    0 -0.00000000000E+00 -0.00000000000E+00 -0.13234871283E+03  0.13234871283E+03  0.00000000000E+00 0. -1.
          2    1    1    2  501    0 -0.37608525394E+01 -0.32087410949E+02  0.12327501646E+02  0.34579086889E+02  0.00000000000E+00 0. -1.
          1    1    1    2  502    0  0.76960011673E+02  0.37062408038E+02 -0.61287584583E+02  0.10513150579E+03  0.00000000000E+00 0. -1.
         22    1    1    2    0    0 -0.33028399200E+02 -0.38931213289E+02 -0.11498079940E+02  0.52332784793E+02  0.00000000000E+00 0. -1.
         22    1    1    2    0    0 -0.40170759933E+02  0.33956216199E+02  0.10733025465E+03  0.11952613997E+03  0.00000000000E+00 0. -1.
</event>
<event>
 6    1  0.8017648E-006  0.6990081E+02  0.7818608E-02  0.1409601E+00
          2   -1    0    0  502    0  0.00000000000E+00  0.00000000000E+00  0.26295487386E+03  0.26295487386E+03  0.00000000000E+00 0.  1.
          1   -1    0    0  501    0 -0.00000000000E+00 -0.00000000000E+00 -0.93055253470E+02  0.93055253470E+02  0.00000000000E+00 0.  1.
          2    1    1    2  501    0 -0.29429594078E+02  0.41784966924E+02  0.13429152996E+03  0.14368820232E+03  0.00000000000E+00 0.  1.
          1    1    1    2  502    0  0.17662487249E+02 -0.38569297439E+02 -0.48745658454E+02  0.64619605221E+02  0.00000000000E+00 0.  1.
         22    1    1    2    0    0 -0.83155154743E+01 -0.27516333336E+02 -0.22367301036E+02  0.36422418282E+02  0.00000000000E+00 0.  1.
         22    1    1    2    0    0  0.20082622303E+02  0.24300663851E+02  0.10672104992E+03  0.11127990150E+03  0.00000000000E+00 0.  1.
</event>
<event>
 6    1  0.8017648E-006  0.1749470E+03  0.7818608E-02  0.1174869E+00
          2   -1    0    0  502    0  0.00000000000E+00  0.00000000000E+00  0.26281580382E+03  0.26281580382E+03  0.00000000000E+00 0.  1.
          1   -1    0    0  501    0 -0.00000000000E+00 -0.00000000000E+00 -0.24509789871E+03  0.24509789871E+03  0.00000000000E+00 0.  1.
          2    1    1    2  501    0  0.84693764138E+02  0.22045317513E+02  0.64213730318E+02  0.10854691552E+03  0.00000000000E+00 0.  1.
          1    1    1    2  502    0 -0.13622091524E+03  0.21356838161E+02 -0.16263574962E+03  0.21321969736E+03  0.00000000000E+00 0.  1.
         22    1    1    2    0    0 -0.22822852934E+02 -0.14226950408E+02 -0.16329031276E+02  0.31463089428E+02  0.00000000000E+00 0.  1.
         22    1    1    2    0    0  0.74350004040E+02 -0.29175205267E+02  0.13246895569E+03  0.15468400022E+03  0.00000000000E+00 0.  1.
</event>
<event>
 6    1  0.8017648E-006  0.1025534E+03  0.7818608E-02  0.1352960E+00
          2   -1    0    0  502    0  0.00000000000E+00  0.00000000000E+00  0.71859279636E+02  0.71859279636E+02  0.00000000000E+00 0. -1.
          1   -1    0    0  501    0 -0.00000000000E+00 -0.00000000000E+00 -0.27831659339E+03  0.27831659339E+03  0.00000000000E+00 0. -1.
          2    1    1    2  501    0 -0.27970630455E+02  0.16662227634E+02 -0.20219264599E+02  0.38324987394E+02  0.00000000000E+00 0. -1.
          1    1    1    2  502    0  0.87749817595E+02 -0.23670509918E+02 -0.19278199976E+02  0.92908409318E+02  0.00000000000E+00 0. -1.
         22    1    1    2    0    0 -0.83748023228E+02 -0.48186179052E+00 -0.46296898532E+02  0.95694129387E+02  0.00000000000E+00 0. -1.
         22    1    1    2    0    0  0.23968836088E+02  0.74901440746E+01 -0.12066295065E+03  0.12324834693E+03  0.00000000000E+00 0. -1.
</event>
<event>
 6    1  0.8017648E-006  0.1872590E+03  0.7818608E-02  0.1224167E+00
          2   -1    0    0  502    0  0.00000000000E+00  0.00000000000E+00  0.32945163084E+03  0.32945163084E+03  0.00000000000E+00 0. -1.
          1   -1    0    0  501    0 -0.00000000000E+00 -0.00000000000E+00 -0.92809277307E+03  0.92809277307E+03  0.00000000000E+00 0. -1.
          2    1    1    2  501    0 -0.28695600159E+03 -0.24156583572E+03 -0.52002834483E+03  0.64119207673E+03  0.00000000000E+00 0. -1.
          1    1    1    2  502    0  0.37229737439E+03  0.21582901144E+03  0.22562216544E+02  0.43092522643E+03  0.00000000000E+00 0. -1.
         22    1    1    2    0    0 -0.93915838556E+02  0.41143438626E+01 -0.13805488907E+02  0.95014230939E+02  0.00000000000E+00 0.  1.
         22    1    1    2    0    0  0.85744657507E+01  0.21622480422E+02 -0.87369525042E+02  0.90412869817E+02  0.00000000000E+00 0. -1.
</event>
<event>
 6    1  0.8017648E-006  0.1191618E+03  0.7818608E-02  0.1337022E+00
          2   -1    0    0  502    0  0.00000000000E+00  0.00000000000E+00  0.52635217894E+02  0.52635217894E+02  0.00000000000E+00 0. -1.
          1   -1    0    0  501    0 -0.00000000000E+00 -0.00000000000E+00 -0.33512269448E+03  0.33512269448E+03  0.00000000000E+00 0. -1.
          2    1    1    2  501    0  0.29043406665E+02  0.22215847944E+02 -0.60724785725E+01  0.37066674609E+02  0.00000000000E+00 0. -1.
          1    1    1    2  502    0  0.35610687943E+02 -0.47247241833E+02 -0.14839002632E+03  0.15974987596E+03  0.00000000000E+00 0. -1.
         22    1    1    2    0    0  0.17827948365E+02  0.11199889819E+02 -0.10081893812E+03  0.10299384234E+03  0.00000000000E+00 0. -1.
         22    1    1    2    0    0 -0.82482042973E+02  0.13831504071E+02 -0.27206033563E+02  0.87947519465E+02  0.00000000000E+00 0. -1.
</event>
<event>
 6    1  0.8017648E-006  0.6985105E+02  0.7818608E-02  0.1446702E+00
          2   -1    0    0  502    0  0.00000000000E+00  0.00000000000E+00  0.13579017128E+03  0.13579017128E+03  0.00000000000E+00 0. -1.
          1   -1    0    0  501    0 -0.00000000000E+00 -0.00000000000E+00 -0.33856787781E+03  0.33856787781E+03  0.00000000000E+00 0.  1.
          2    1    1    2  501    0 -0.51462855346E+02 -0.10802665335E+02  0.80962276818E+02  0.96540216109E+02  0.00000000000E+00 0. -1.
          1    1    1    2  502    0  0.77083798660E+02 -0.68181448325E+01 -0.22080300651E+03  0.23397086742E+03  0.00000000000E+00 0.  1.
         22    1    1    2    0    0 -0.15864361178E+02  0.25272915286E+01  0.38034815693E+02  0.41288162502E+02  0.00000000000E+00 0.  1.
         22    1    1    2    0    0 -0.97565821362E+01  0.15093518639E+02 -0.10097179253E+03  0.10255880306E+03  0.00000000000E+00 0.  1.
</event>
<event>
 6    1  0.8017648E-006  0.2774198E+02  0.7818608E-02  0.1655932E+00
          2   -1    0    0  502    0  0.00000000000E+00  0.00000000000E+00  0.12788945066E+03  0.12788945066E+03  0.00000000000E+00 0. -1.
          1   -1    0    0  501    0 -0.00000000000E+00 -0.00000000000E+00 -0.77211735338E+02  0.77211735338E+02  0.00000000000E+00 0. -1.
          2    1    1    2  501    0  0.46812035366E+02  0.86012069793E+01  0.17069313269E+02  0.50563908790E+02  0.00000000000E+00 0. -1.
          1    1    1    2  502    0 -0.10838665004E+02  0.17298184302E+02  0.38309813237E+01  0.20769695644E+02  0.00000000000E+00 0. -1.
         22    1    1    2    0    0 -0.17798708719E+02 -0.19222801127E+02  0.77744678838E+02  0.82039900066E+02  0.00000000000E+00 0. -1.
         22    1    1    2    0    0 -0.18174661643E+02 -0.66765901544E+01 -0.47967258112E+02  0.51727681494E+02  0.00000000000E+00 0. -1.
</event>
<event>
 6    1  0.8017648E-006  0.1744805E+03  0.7818608E-02  0.1305797E+00
          2   -1    0    0  502    0  0.00000000000E+00  0.00000000000E+00  0.42055193141E+03  0.42055193141E+03  0.00000000000E+00 0.  1.
          1   -1    0    0  501    0 -0.00000000000E+00 -0.00000000000E+00 -0.51293772552E+03  0.51293772552E+03  0.00000000000E+00 0.  1.
          2    1    1    2  501    0 -0.89952083311E+02  0.58865968456E+02  0.31707794836E+03  0.33480592120E+03  0.00000000000E+00 0.  1.
          1    1    1    2  502    0  0.12682478441E+03 -0.10161205155E+03 -0.42798249855E+03  0.45779750330E+03  0.00000000000E+00 0.  1.
         22    1    1    2    0    0  0.77297170733E+01  0.87874668930E+01 -0.50575004214E+02  0.51911454918E+02  0.00000000000E+00 0.  1.
         22    1    1    2    0    0 -0.44602418172E+02  0.33958616204E+02  0.69093760288E+02  0.88974777505E+02  0.00000000000E+00 0.  1.
</event>
<event>
 6    1  0.8017648E-006  0.4565900E+02  0.7818608E-02  0.1563875E+00
          2   -1    0    0  502    0  0.00000000000E+00  0.00000000000E+00  0.10497366829E+03  0.10497366829E+03  0.00000000000E+00 0. -1.
          1   -1    0    0  501    0 -0.00000000000E+00 -0.00000000000E+00 -0.13038586790E+03  0.13038586790E+03  0.00000000000E+00 0.  1.
          2    1    1    2  501    0 -0.23229667508E+02 -0.13880003928E+02  0.44869226774E+02  0.52397704844E+02  0.00000000000E+00 0. -1.
          1    1    1    2  502    0  0.30963031038E+02  0.10324223078E+02 -0.40420465198E+02  0.51952987210E+02  0.00000000000E+00 0.  1.
         22    1    1    2    0    0  0.11169676538E+02  0.66065410262E+01 -0.78067518387E+02  0.79138773591E+02  0.00000000000E+00 0.  1.
         22    1    1    2    0    0 -0.18903040068E+02 -0.30507601754E+01  0.48206557203E+02  0.51870070550E+02  0.00000000000E+00 0. -1.
</event>
<event>
 6    1  0.8017648E-006  0.1099727E+03  0.7818608E-02  0.1262568E+00
          2   -1    0    0  502    0  0.00000000000E+00  0.00000000000E+00  0.53638835137E+03  0.53638835137E+03  0.00000000000E+00 0.  1.
          1   -1    0    0  501    0 -0.00000000000E+00 -0.00000000000E+00 -0.61229280566E+03  0.61229280566E+03  0.00000000000E+00 0. -1.
          2    1    1    2  501    0 -0.52637771986E+02  0.78820526969E+02  0.45952128514E+03  0.46919422631E+03  0.00000000000E+00 0.  1.
          1    1    1    2  502    0  0.36061458447E+02 -0.86065688177E+02 -0.54292008371E+03  0.55088106590E+03  0.00000000000E+00 0. -1.
         22    1    1    2    0    0  0.61425206137E+01  0.13830056779E+02  0.66563466304E+02  0.68261966543E+02  0.00000000000E+00 0. -1.
         22    1    1    2    0    0  0.10433792925E+02 -0.65848955717E+01 -0.59069122017E+02  0.60343898286E+02  0.00000000000E+00 0. -1.
</event>
<event>
 6    1  0.8017648E-006  0.1413249E+03  0.7818608E-02  0.1323304E+00
          2   -1    0    0  502    0  0.00000000000E+00  0.00000000000E+00  0.54036486345E+03  0.54036486345E+03  0.00000000000E+00 0.  1.
          1   -1    0    0  501    0 -0.00000000000E+00 -0.00000000000E+00 -0.33049131582E+03  0.33049131582E+03  0.00000000000E+00 0. -1.
          2    1    1    2  501    0 -0.27272125083E+02 -0.25533052326E+01  0.39390907220E+03  0.39486028585E+03  0.00000000000E+00 0.  1.
          1    1    1    2  502    0  0.53178499434E+02  0.68568293624E+02 -0.28761647956E+03  0.30042104288E+03  0.00000000000E+00 0. -1.
         22    1    1    2    0    0  0.13741037790E+02 -0.83224513230E+01 -0.24683694354E+02  0.29451045525E+02  0.00000000000E+00 0. -1.
         22    1    1    2    0    0 -0.39647412141E+02 -0.57692537069E+02  0.12826464934E+03  0.14612380502E+03  0.00000000000E+00 0.  1.
</event>
<event>
 6    1  0.8017648E-006  0.1579577E+03  0.7818608E-02  0.1319871E+00
          2   -1    0    0  502    0  0.00000000000E+00  0.00000000000E+00  0.88397663944E+02  0.88397663944E+02  0.00000000000E+00 0.  1.
          1   -1    0    0  501    0 -0.00000000000E+00 -0.00000000000E+00 -0.83017345819E+03  0.83017345819E+03  0.00000000000E+00 0. -1.
          2    1    1    2  501    0  0.28023083236E+02  0.44173573236E+02 -0.31265197955E+02  0.60943501456E+02  0.00000000000E+00 0.  1.
          1    1    1    2  502    0 -0.94845758424E+02 -0.86639842882E+02 -0.70166214260E+03  0.71332457032E+03  0.00000000000E+00 0. -1.
         22    1    1    2    0    0  0.77277770214E+02  0.48814842717E+02  0.35682855183E+02  0.98122417381E+02  0.00000000000E+00 0.  1.
         22    1    1    2    0    0 -0.10455095026E+02 -0.63485730713E+01 -0.44531308872E+02  0.46180632974E+02  0.00000000000E+00 0.  1.
</event>
<event>
 6    1  0.8017648E-006  0.7085301E+02  0.7818608E-02  0.1453322E+00
          2   -1    0    0  502    0  0.00000000000E+00  0.00000000000E+00  0.13865619728E+03  0.13865619728E+03  0.00000000000E+00 0.  1.
          1   -1    0    0  501    0 -0.00000000000E+00 -0.00000000000E+00 -0.20340303811E+03  0.20340303811E+03  0.00000000000E+00 0.  1.
          2    1    1    2  501    0 -0.32869874800E+02  0.14711401248E+01  0.42282385925E+02  0.53576049520E+02  0.00000000000E+00 0.  1.
          1    1    1    2  502    0  0.30548569051E+02  0.22362288801E+02 -0.15116221409E+03  0.15583100462E+03  0.00000000000E+00 0.  1.
         22    1    1    2    0    0 -0.78805127112E+01 -0.35662088424E+02  0.83045372452E+02  0.90721667297E+02  0.00000000000E+00 0.  1.
         22    1    1    2    0    0  0.10201818461E+02  0.11828659498E+02 -0.38912385107E+02  0.41930513950E+02  0.00000000000E+00 0.  1.
</event>
<event>
 6    1  0.8017648E-006  0.4445652E+02  0.7818608E-02  0.1553752E+00
          2   -1    0    0  502    0  0.00000000000E+00  0.00000000000E+00  0.33732233285E+03  0.33732233285E+03  0.00000000000E+00 0.  1.
          1   -1    0    0  501    0 -0.00000000000E+00 -0.00000000000E+00 -0.15616188240E+03  0.15616188240E+03  0.00000000000E+00 0.  1.
          2    1    1    2  501    0 -0.14091979034E+02 -0.20726954668E+02  0.27788680450E+03  0.27901481437E+03  0.00000000000E+00 0.  1.
          1    1    1    2  502    0  0.23428623196E+02  0.20123238695E+02 -0.88386355839E+02  0.93626881925E+02  0.00000000000E+00 0.  1.
         22    1    1    2    0    0  0.15995348602E+01  0.12265279072E+02 -0.62840126848E+02  0.64045898579E+02  0.00000000000E+00 0.  1.
         22    1    1    2    0    0 -0.10936179022E+02 -0.11661563099E+02  0.54500128635E+02  0.56796620381E+02  0.00000000000E+00 0. -1.
</event>
<event>
 6    1  0.8017648E-006  0.1084521E+03  0.7818608E-02  0.1330202E+00
          2   -1    0    0  502    0  0.00000000000E+00  0.00000000000E+00  0.37048598525E+03  0.37048598525E+03  0.00000000000E+00 0.  1.
          1   -1    0    0  501    0 -0.00000000000E+00 -0.00000000000E+00 -0.29874543781E+03  0.29874543781E+03  0.00000000000E+00 0.  1.
          2    1    1    2  501    0  0.65587737768E+02 -0.24843840659E+03  0.10457004847E+03  0.27741356897E+03  0.00000000000E+00 0.  1.
          1    1    1    2  502    0 -0.11121666495E+03  0.22237586506E+03 -0.36167277978E+01  0.24866292977E+03  0.00000000000E+00 0.  1.
         22    1    1    2    0    0  0.10683379013E+01  0.13453445628E+02 -0.76079773105E+02  0.77267512066E+02  0.00000000000E+00 0.  1.
         22    1    1    2    0    0  0.44560589276E+02  0.12609095900E+02  0.46866999871E+02  0.65887412249E+02  0.00000000000E+00 0.  1.
</event>
<event>
 6    1  0.8017648E-006  0.9767855E+02  0.7818608E-02  0.1379374E+00
          2   -1    0    0  502    0  0.00000000000E+00  0.00000000000E+00  0.73376654923E+03  0.73376654923E+03  0.00000000000E+00 0.  1.
          1   -1    0    0  501    0 -0.00000000000E+00 -0.00000000000E+00 -0.21023232522E+02  0.21023232522E+02  0.00000000000E+00 0.  1.
          2    1    1    2  501    0  0.29838992972E+02  0.29576267967E+02  0.11752973903E+03  0.12481330332E+03  0.00000000000E+00 0.  1.
          1    1    1    2  502    0 -0.35319499012E+02 -0.67660842584E+02  0.25656088946E+03  0.26767320866E+03  0.00000000000E+00 0.  1.
         22    1    1    2    0    0  0.63146763862E+01  0.56785670403E+02  0.33879904823E+03  0.34358300683E+03  0.00000000000E+00 0.  1.
         22    1    1    2    0    0 -0.83417034595E+00 -0.18701095785E+02 -0.14636001309E+00  0.18720262952E+02  0.00000000000E+00 0.  1.
</event>
<event>
 6    1  0.8017648E-006  0.2838119E+02  0.7818608E-02  0.1703603E+00
          2   -1    0    0  502    0  0.00000000000E+00  0.00000000000E+00  0.89089024441E+02  0.89089024441E+02  0.00000000000E+00 0. -1.
          1   -1    0    0  501    0 -0.00000000000E+00 -0.00000000000E+00 -0.55629830056E+03  0.55629830056E+03  0.00000000000E+00 0. -1.
          2    1    1    2  501    0  0.10349207407E+02 -0.19575032065E+02  0.32212933235E+02  0.39089142251E+02  0.00000000000E+00 0. -1.
          1    1    1    2  502    0  0.21078580072E+02 -0.17698775314E+02 -0.47337599233E+03  0.47417547733E+03  0.00000000000E+00 0. -1.
         22    1    1    2    0    0 -0.27588422169E+02  0.27220167980E+02 -0.73699846371E+02  0.83268997458E+02  0.00000000000E+00 0. -1.
         22    1    1    2    0    0 -0.38393653095E+01  0.10053639398E+02  0.47653629351E+02  0.48853707960E+02  0.00000000000E+00 0. -1.
</event>
<event>
 6    1  0.8017648E-006  0.4348630E+02  0.7818608E-02  0.1560372E+00
          2   -1    0    0  502    0  0.00000000000E+00  0.00000000000E+00  0.12343415185E+03  0.12343415185E+03  0.00000000000E+00 0.  1.
          1   -1    0    0  501    0 -0.00000000000E+00 -0.00000000000E+00 -0.16990714974E+03  0.16990714974E+03  0.00000000000E+00 0.  1.
          2    1    1    2  501    0  0.49312064677E+02 -0.29346975404E+02 -0.37647671802E+02  0.68631420502E+02  0.00000000000E+00 0.  1.
          1    1    1    2  502    0  0.31463581743E+01  0.30276772473E+02 -0.68177686547E+02  0.74664445782E+02  0.00000000000E+00 0.  1.
         22    1    1    2    0    0 -0.41304717296E+02  0.10120988179E+02  0.98813092865E+02  0.10757574724E+03  0.00000000000E+00 0.  1.
         22    1    1    2    0    0 -0.11153705555E+02 -0.11050785248E+02 -0.39460732408E+02  0.42469688065E+02  0.00000000000E+00 0.  1.
</event>
<event>
 6    1  0.8017648E-006  0.9756415E+02  0.7818608E-02  0.1394504E+00
          2   -1    0    0  502    0  0.00000000000E+00  0.00000000000E+00  0.16652900177E+03  0.16652900177E+03  0.00000000000E+00 0.  1.
          1   -1    0    0  501    0 -0.00000000000E+00 -0.00000000000E+00 -0.11703519960E+03  0.11703519960E+03  0.00000000000E+00 0.  1.
          2    1    1    2  501    0  0.40044750434E+02  0.26302998197E+02  0.28351336075E+02  0.55670710511E+02  0.00000000000E+00 0.  1.
          1    1    1    2  502    0 -0.74759604569E+02 -0.51362296283E+02 -0.15004885450E+02  0.91936013304E+02  0.00000000000E+00 0.  1.
         22    1    1    2    0    0  0.12066213153E+02 -0.84218829591E+01 -0.43890469188E+02  0.46291412789E+02  0.00000000000E+00 0.  1.
         22    1    1    2    0    0  0.22648640981E+02  0.33481181045E+02  0.80037820732E+02  0.89666064763E+02  0.00000000000E+00 0.  1.
</event>
<event>
 6    1  0.8017648E-006  0.9180682E+02  0.7818608E-02  0.1341247E+00
          2   -1    0    0  502    0  0.00000000000E+00  0.00000000000E+00  0.78272067878E+03  0.78272067878E+03  0.00000000000E+00 0. -1.
          1   -1    0    0  501    0 -0.00000000000E+00 -0.00000000000E+00 -0.13893132428E+02  0.13893132428E+02  0.00000000000E+00 0.  1.
          2    1    1    2  501    0 -0.13014559972E+01 -0.23511258669E+02  0.14254592064E+03  0.14447772341E+03  0.00000000000E+00 0. -1.
          1    1    1    2  502    0  0.41095006939E+02  0.16626643453E+02  0.10791945233E+03  0.11666984640E+03  0.00000000000E+00 0.  1.
         22    1    1    2    0    0  0.40492721028E+02 -0.13815505161E+02  0.96885974847E+02  0.10591232582E+03  0.00000000000E+00 0.  1.
         22    1    1    2    0    0 -0.80286271970E+02  0.20700120377E+02  0.42147619854E+03  0.42955391557E+03  0.00000000000E+00 0.  1.
</event>
<event>
 6    1  0.8017648E-006  0.2598069E+03  0.7818608E-02  0.1211089E+00
          2   -1    0    0  502    0  0.00000000000E+00  0.00000000000E+00  0.11542487743E+04  0.11542487743E+04  0.00000000000E+00 0.  1.
          1   -1    0    0  501    0 -0.00000000000E+00 -0.00000000000E+00 -0.10193602595E+03  0.10193602595E+03  0.00000000000E+00 0.  1.
          2    1    1    2  501    0 -0.11725960330E+03 -0.13064638118E+03  0.73168475015E+03  0.75244990868E+03  0.00000000000E+00 0.  1.
          1    1    1    2  502    0  0.16257787799E+03  0.17694040109E+03  0.16744931471E+03  0.29288008629E+03  0.00000000000E+00 0.  1.
         22    1    1    2    0    0 -0.66530866842E+02 -0.37469449506E+02  0.16729022813E+03  0.18389218667E+03  0.00000000000E+00 0. -1.
         22    1    1    2    0    0  0.21212592154E+02 -0.88245704109E+01 -0.14111544646E+02  0.26962618588E+02  0.00000000000E+00 0. -1.
</event>
<event>
 6    1  0.8017648E-006  0.1264369E+03  0.7818608E-02  0.1344040E+00
          2   -1    0    0  502    0  0.00000000000E+00  0.00000000000E+00  0.91017406891E+02  0.91017406891E+02  0.00000000000E+00 0.  1.
          1   -1    0    0  501    0 -0.00000000000E+00 -0.00000000000E+00 -0.18803285536E+03  0.18803285536E+03  0.00000000000E+00 0.  1.
          2    1    1    2  501    0  0.45740606627E+02 -0.15758617367E+02 -0.64048323820E+02  0.80266586448E+02  0.00000000000E+00 0.  1.
          1    1    1    2  502    0 -0.63796216306E+02 -0.12285338586E+02  0.75426528472E+01  0.65404727437E+02  0.00000000000E+00 0.  1.
         22    1    1    2    0    0  0.33532411676E+02  0.26021009465E+02  0.35777267650E+02  0.55511516344E+02  0.00000000000E+00 0.  1.
         22    1    1    2    0    0 -0.15476801996E+02  0.20229464881E+01 -0.76287045147E+02  0.77867432023E+02  0.00000000000E+00 0. -1.
</event>
<event>
 6    1  0.8017648E-006  0.8618168E+02  0.7818608E-02  0.1373046E+00
          2   -1    0    0  502    0  0.00000000000E+00  0.00000000000E+00  0.12990129908E+04  0.12990129908E+04  0.00000000000E+00 0. -1.
          1   -1    0    0  501    0 -0.00000000000E+00 -0.00000000000E+00 -0.29832878954E+02  0.29832878954E+02  0.00000000000E+00 0. -1.
          2    1    1    2  501    0  0.10828513826E+03  0.47861787114E+02  0.32016370443E+03  0.34135204624E+03  0.00000000000E+00 0. -1.
          1    1    1    2  502    0 -0.20921202879E+02 -0.82856943444E+02  0.57879109595E+03  0.58506589591E+03  0.00000000000E+00 0. -1.
         22    1    1    2    0    0 -0.69831076084E+02  0.59629312908E+02  0.35837490488E+03  0.36995216798E+03  0.00000000000E+00 0. -1.
         22    1    1    2    0    0 -0.17532859299E+02 -0.24634156578E+02  0.11850406545E+02  0.32475759588E+02  0.00000000000E+00 0. -1.
</event>
<event>
 6    1  0.8017648E-006  0.5246255E+02  0.7818608E-02  0.1513372E+00
          2   -1    0    0  502    0  0.00000000000E+00  0.00000000000E+00  0.93304459217E+02  0.93304459217E+02  0.00000000000E+00 0.  1.
          1   -1    0    0  501    0 -0.00000000000E+00 -0.00000000000E+00 -0.16658685941E+03  0.16658685941E+03  0.00000000000E+00 0. -1.
          2    1    1    2  501    0  0.29364679203E+01  0.22508237003E+02  0.27461783714E+02  0.35628543917E+02  0.00000000000E+00 0.  1.
          1    1    1    2  502    0 -0.36857913066E+02 -0.50491204557E+02 -0.58821455366E+02  0.85836071116E+02  0.00000000000E+00 0. -1.
         22    1    1    2    0    0 -0.13169800785E+02  0.99941336110E+01  0.39410798786E+02  0.42738009082E+02  0.00000000000E+00 0. -1.
         22    1    1    2    0    0  0.47091245930E+02  0.17988833943E+02 -0.81333527326E+02  0.95688694511E+02  0.00000000000E+00 0. -1.
</event>
<event>
 6    1  0.8017648E-006  0.4889997E+02  0.7818608E-02  0.1481376E+00
          2   -1    0    0  502    0  0.00000000000E+00  0.00000000000E+00  0.17046387315E+03  0.17046387315E+03  0.00000000000E+00 0.  1.
          1   -1    0    0  501    0 -0.00000000000E+00 -0.00000000000E+00 -0.62680739108E+02  0.62680739108E+02  0.00000000000E+00 0. -1.
          2    1    1    2  501    0  0.28644753087E+02  0.36850643446E+01  0.59860308673E+02  0.66463208869E+02  0.00000000000E+00 0.  1.
          1    1    1    2  502    0  0.82365499996E+00 -0.25815385039E+02 -0.90754968209E+01  0.27376580407E+02  0.00000000000E+00 0. -1.
         22    1    1    2    0    0  0.21786359526E+01  0.19674530717E+02  0.90801647142E+02  0.92934238778E+02  0.00000000000E+00 0.  1.
         22    1    1    2    0    0 -0.31647044040E+02  0.24557899773E+01 -0.33803324957E+02  0.46370584200E+02  0.00000000000E+00 0. -1.
</event>
<event>
 6    1  0.8017648E-006  0.9399075E+02  0.7818608E-02  0.1368922E+00
          2   -1    0    0  502    0  0.00000000000E+00  0.00000000000E+00  0.15884684541E+03  0.15884684541E+03  0.00000000000E+00 0. -1.
          1   -1    0    0  501    0 -0.00000000000E+00 -0.00000000000E+00 -0.24851831766E+03  0.24851831766E+03  0.00000000000E+00 0. -1.
          2    1    1    2  501    0  0.93701496571E+02  0.38483646072E+02  0.61660005457E+02  0.11858717362E+03  0.00000000000E+00 0. -1.
          1    1    1    2  502    0 -0.15174521563E+02 -0.79291745824E+02 -0.13171921564E+02  0.81798206448E+02  0.00000000000E+00 0. -1.
         22    1    1    2    0    0 -0.90003238828E+02  0.62965743325E+02 -0.60482307057E+02  0.12539289174E+03  0.00000000000E+00 0. -1.
         22    1    1    2    0    0  0.11476263821E+02 -0.22157643573E+02 -0.77677249087E+02  0.81586891261E+02  0.00000000000E+00 0. -1.
</event>
<event>
 6    1  0.8017648E-006  0.1162152E+03  0.7818608E-02  0.1366589E+00
          2   -1    0    0  502    0  0.00000000000E+00  0.00000000000E+00  0.39573517169E+03  0.39573517169E+03  0.00000000000E+00 0. -1.
          1   -1    0    0  501    0 -0.00000000000E+00 -0.00000000000E+00 -0.29039777960E+03  0.29039777960E+03  0.00000000000E+00 0.  1.
          2    1    1    2  501    0 -0.69242171796E+02 -0.60073846618E+02  0.31562677822E+03  0.32866945178E+03  0.00000000000E+00 0. -1.
          1    1    1    2  502    0  0.84010048527E+02  0.67093682302E+02 -0.20191190939E+03  0.22875241990E+03  0.00000000000E+00 0.  1.
         22    1    1    2    0    0 -0.27260014295E+01  0.13448855924E+02 -0.65461456435E+02  0.66884266371E+02  0.00000000000E+00 0. -1.
         22    1    1    2    0    0 -0.12041875301E+02 -0.20468691609E+02  0.57083979691E+02  0.61826813231E+02  0.00000000000E+00 0. -1.
</event>
<event>
 6    1  0.8017648E-006  0.9455242E+02  0.7818608E-02  0.1388530E+00
          2   -1    0    0  502    0  0.00000000000E+00  0.00000000000E+00  0.32887928725E+03  0.32887928725E+03  0.00000000000E+00 0.  1.
          1   -1    0    0  501    0 -0.00000000000E+00 -0.00000000000E+00 -0.63479286127E+02  0.63479286127E+02  0.00000000000E+00 0.  1.
          2    1    1    2  501    0  0.22208121408E+02  0.18065454369E+01  0.87608790736E+02  0.90397812347E+02  0.00000000000E+00 0.  1.
          1    1    1    2  502    0 -0.67319575663E+02  0.40944390719E+02  0.43352549736E+01  0.78912374407E+02  0.00000000000E+00 0.  1.
         22    1    1    2    0    0 -0.17249481650E+02 -0.43562147445E+01 -0.13452977315E+02  0.22304793716E+02  0.00000000000E+00 0.  1.
         22    1    1    2    0    0  0.62360935905E+02 -0.38394721411E+02  0.18690893273E+03  0.20074359291E+03  0.00000000000E+00 0.  1.
</event>
<event>
 6    1  0.8017648E-006  0.5276340E+02  0.7818608E-02  0.1432450E+00
          2   -1    0    0  502    0  0.00000000000E+00  0.00000000000E+00  0.35770082142E+03  0.35770082142E+03  0.00000000000E+00 0.  1.
          1   -1    0    0  501    0 -0.00000000000E+00 -0.00000000000E+00 -0.80571962505E+02  0.80571962505E+02  0.00000000000E+00 0.  1.
          2    1    1    2  501    0 -0.20665701413E+02 -0.15874813639E+02  0.21516781904E+03  0.21674010075E+03  0.00000000000E+00 0.  1.
          1    1    1    2  502    0  0.35694814661E+02  0.18470960236E+02 -0.44635879995E+02  0.60063782337E+02  0.00000000000E+00 0.  1.
         22    1    1    2    0    0  0.66413317985E+01  0.86734710414E+01 -0.25179900986E+02  0.27447473502E+02  0.00000000000E+00 0.  1.
         22    1    1    2    0    0 -0.21670445047E+02 -0.11269617639E+02  0.13177682086E+03  0.13402142734E+03  0.00000000000E+00 0.  1.
</event>
<event>
 6    1  0.8017648E-006  0.6749302E+02  0.7818608E-02  0.1409728E+00
          2   -1    0    0  502    0  0.00000000000E+00  0.00000000000E+00  0.27453345644E+03  0.27453345644E+03  0.00000000000E+00 0. -1.
          1   -1    0    0  501    0 -0.00000000000E+00 -0.00000000000E+00 -0.78349232317E+02  0.78349232317E+02  0.00000000000E+00 0. -1.
          2    1    1    2  501    0 -0.48170544626E+02 -0.28851638084E+02  0.17296030610E+03  0.18184632489E+03  0.00000000000E+00 0. -1.
          1    1    1    2  502    0  0.39949612168E+02  0.11334082527E+02 -0.75645705102E+01  0.42209663184E+02  0.00000000000E+00 0. -1.
         22    1    1    2    0    0 -0.10682003664E+02 -0.11881025051E+02  0.72596328669E+02  0.74333645779E+02  0.00000000000E+00 0. -1.
         22    1    1    2    0    0  0.18902936123E+02  0.29398580608E+02 -0.41807840137E+02  0.54493054904E+02  0.00000000000E+00 0. -1.
</event>
<event>
 6    1  0.8017648E-006  0.7308453E+02  0.7818608E-02  0.1396046E+00
          2   -1    0    0  502    0  0.00000000000E+00  0.00000000000E+00  0.48455895006E+03  0.48455895006E+03  0.00000000000E+00 0.  1.
          1   -1    0    0  501    0 -0.00000000000E+00 -0.00000000000E+00 -0.23698357042E+03  0.23698357042E+03  0.00000000000E+00 0.  1.
          2    1    1    2  501    0 -0.13224946401E+03 -0.39517418078E+02  0.39279934443E+03  0.41634465536E+03  0.00000000000E+00 0.  1.
          1    1    1    2  502    0  0.12483561131E+03  0.62614899851E+02 -0.10091319690E+03  0.17230214405E+03  0.00000000000E+00 0.  1.
         22    1    1    2    0    0 -0.30704876165E+01 -0.35861862875E+02  0.35998245820E+02  0.50905547883E+02  0.00000000000E+00 0. -1.
         22    1    1    2    0    0  0.10484340311E+02  0.12764381102E+02 -0.80309013709E+02  0.81990173189E+02  0.00000000000E+00 0.  1.
</event>
<event>
 6    1  0.8017648E-006  0.8516425E+02  0.7818608E-02  0.1343498E+00
          2   -1    0    0  502    0  0.00000000000E+00  0.00000000000E+00  0.84058590075E+02  0.84058590075E+02  0.00000000000E+00 0. -1.
          1   -1    0    0  501    0 -0.00000000000E+00 -0.00000000000E+00 -0.48854985375E+03  0.48854985375E+03  0.00000000000E+00 0. -1.
          2    1    1    2  501    0  0.42546337720E+02 -0.99594184026E+02 -0.13328115542E+02  0.10911842653E+03  0.00000000000E+00 0. -1.
          1    1    1    2  502    0  0.43874128357E+02  0.85637836219E+02 -0.16515342445E+03  0.19113982248E+03  0.00000000000E+00 0. -1.
         22    1    1    2    0    0 -0.54604005911E+02  0.41184296562E+02 -0.21957730125E+03  0.22998246665E+03  0.00000000000E+00 0. -1.
         22    1    1    2    0    0 -0.31816460165E+02 -0.27227948756E+02 -0.64324224378E+01  0.42367728159E+02  0.00000000000E+00 0. -1.
</event>
<event>
 6    1  0.8017648E-006  0.1776135E+02  0.7818608E-02  0.1819054E+00
          2   -1    0    0  502    0  0.00000000000E+00  0.00000000000E+00  0.10602690794E+03  0.10602690794E+03  0.00000000000E+00 0. -1.
          1   -1    0    0  501    0 -0.00000000000E+00 -0.00000000000E+00 -0.11203999241E+03  0.11203999241E+03  0.00000000000E+00 0. -1.
          2    1    1    2  501    0 -0.19673019434E+02  0.60764876295E+01  0.49910840937E+02  0.53991142224E+02  0.00000000000E+00 0. -1.
          1    1    1    2  502    0  0.23107163916E+02 -0.36088674601E+01 -0.31381463627E+02  0.39137721037E+02  0.00000000000E+00 0. -1.
         22    1    1    2    0    0 -0.64575252577E+00  0.99951687175E+01  0.49143378959E+02  0.50153684706E+02  0.00000000000E+00 0. -1.
         22    1    1    2    0    0 -0.27883919562E+01 -0.12462788887E+02 -0.73685840742E+02  0.74784352390E+02  0.00000000000E+00 0. -1.
</event>
<event>
 6    1  0.8017648E-006  0.1349898E+03  0.7818608E-02  0.1293801E+00
          2   -1    0    0  502    0  0.00000000000E+00  0.00000000000E+00  0.11633908810E+04  0.11633908810E+04  0.00000000000E+00 0. -1.
          1   -1    0    0  501    0 -0.00000000000E+00 -0.00000000000E+00 -0.18261792608E+03  0.18261792608E+03  0.00000000000E+00 0. -1.
          2    1    1    2  501    0 -0.36106056013E+03 -0.88773875352E+02  0.53791490828E+03  0.65390976256E+03  0.00000000000E+00 0. -1.
          1    1    1    2  502    0  0.36093049982E+03  0.14753580845E+03  0.28112243490E+03  0.48069477205E+03  0.00000000000E+00 0. -1.
         22    1    1    2    0    0 -0.78408315515E+00 -0.11145794077E+02 -0.20337981591E+02  0.23205107352E+02  0.00000000000E+00 0. -1.
         22    1    1    2    0    0  0.91414346172E+00 -0.47616139025E+02  0.18207359330E+03  0.18819916507E+03  0.00000000000E+00 0. -1.
</event>
<event>
 6    1  0.8017648E-006  0.1150053E+03  0.7818608E-02  0.1268148E+00
          2   -1    0    0  502    0  0.00000000000E+00  0.00000000000E+00  0.16425023351E+03  0.16425023351E+03  0.00000000000E+00 0. -1.
          1   -1    0    0  501    0 -0.00000000000E+00 -0.00000000000E+00 -0.23297868126E+03  0.23297868126E+03  0.00000000000E+00 0. -1.
          2    1    1    2  501    0  0.10382904351E+02 -0.90828597917E+02  0.55516217007E+01  0.91588533157E+02  0.00000000000E+00 0. -1.
          1    1    1    2  502    0 -0.77713947275E+02  0.82396043089E+02 -0.11132954589E+03  0.15881698053E+03  0.00000000000E+00 0. -1.
         22    1    1    2    0    0 -0.15538204231E+02  0.34284912399E+01 -0.34007819657E+02  0.37546266668E+02  0.00000000000E+00 0. -1.
         22    1    1    2    0    0  0.82869247155E+02  0.50040635879E+01  0.71057296094E+02  0.10927713441E+03  0.00000000000E+00 0.  1.
</event>
<event>
 6    1  0.8017648E-006  0.3193193E+02  0.7818608E-02  0.1599602E+00
          2   -1    0    0  502    0  0.00000000000E+00  0.00000000000E+00  0.21001861405E+04  0.21001861405E+04  0.00000000000E+00 0.  1.
          1   -1    0    0  501    0 -0.00000000000E+00 -0.00000000000E+00 -0.50409697820E+02  0.50409697820E+02  0.00000000000E+00 0.  1.
          2    1    1    2  501    0  0.67385970725E+01  0.46983178712E+02  0.19453565274E+04  0.19459354682E+04  0.00000000000E+00 0.  1.
          1    1    1    2  502    0 -0.80298877944E+01 -0.29796412481E+02 -0.12549630988E+02  0.33313638839E+02  0.00000000000E+00 0.  1.
         22    1    1    2    0    0  0.20447931417E+02 -0.15731124873E+02  0.13942645886E+03  0.14179324250E+03  0.00000000000E+00 0.  1.
         22    1    1    2    0    0 -0.19156640695E+02 -0.14556413577E+01 -0.22456912595E+02  0.29553488758E+02  0.00000000000E+00 0. -1.
</event>
<event>
 6    1  0.8017648E-006  0.1423059E+03  0.7818608E-02  0.1248288E+00
          2   -1    0    0  502    0  0.00000000000E+00  0.00000000000E+00  0.23911116102E+03  0.23911116102E+03  0.00000000000E+00 0.  1.
          1   -1    0    0  501    0 -0.00000000000E+00 -0.00000000000E+00 -0.69900949858E+03  0.69900949858E+03  0.00000000000E+00 0.  1.
          2    1    1    2  501    0  0.64768195528E+02  0.60487102155E+02  0.17073516678E+03  0.19236451298E+03  0.00000000000E+00 0.  1.
          1    1    1    2  502    0 -0.63035061246E+02 -0.10566995837E+03 -0.59729716871E+03  0.60983888594E+03  0.00000000000E+00 0.  1.
         22    1    1    2    0    0  0.46315071917E+01 -0.19322075969E+02 -0.61954375147E+02  0.65062570487E+02  0.00000000000E+00 0.  1.
         22    1    1    2    0    0 -0.63646414740E+01  0.64504932183E+02  0.28618039518E+02  0.70854690196E+02  0.00000000000E+00 0. -1.
</event>
<event>
 6    1  0.8017648E-006  0.9688249E+02  0.7818608E-02  0.1356698E+00
          2   -1    0    0  502    0  0.00000000000E+00  0.00000000000E+00  0.88124192718E+02  0.88124192718E+02  0.00000000000E+00 0.  1.
          1   -1    0    0  501    0 -0.00000000000E+00 -0.00000000000E+00 -0.12232824717E+03  0.12232824717E+03  0.00000000000E+00 0.  1.
          2    1    1    2  501    0 -0.29682240851E+02 -0.36579935099E+01 -0.24907613426E+02  0.38920502888E+02  0.00000000000E+00 0.  1.
          1    1    1    2  502    0  0.33124070700E+02 -0.10448553561E+02 -0.28466603999E+02  0.44907948901E+02  0.00000000000E+00 0.  1.
         22    1    1    2    0    0 -0.30294493629E+02  0.63248887853E+01  0.65539282968E+02  0.72478673927E+02  0.00000000000E+00 0.  1.
         22    1    1    2    0    0  0.26852663779E+02  0.77816582853E+01 -0.46369119994E+02  0.54145314171E+02  0.00000000000E+00 0.  1.
</event>
<event>
 6    1  0.8017648E-006  0.1849511E+03  0.7818608E-02  0.1219847E+00
          2   -1    0    0  502    0  0.00000000000E+00  0.00000000000E+00  0.27427778447E+03  0.27427778447E+03  0.00000000000E+00 0. -1.
          1   -1    0    0  501    0 -0.00000000000E+00 -0.00000000000E+00 -0.14616624413E+03  0.14616624413E+03  0.00000000000E+00 0. -1.
          2    1    1    2  501    0  0.38756322686E+02 -0.45095000293E+02  0.40971035079E+02  0.72209676048E+02  0.00000000000E+00 0. -1.
          1    1    1    2  502    0 -0.10604547838E+03 -0.86534933167E+02  0.53747803634E+01  0.13697746679E+03  0.00000000000E+00 0. -1.
         22    1    1    2    0    0 -0.27457803863E+02  0.45230869145E+02 -0.96441635815E+01  0.53784499698E+02  0.00000000000E+00 0. -1.
         22    1    1    2    0    0  0.94746959558E+02  0.86399064315E+02  0.91409888479E+02  0.15747238606E+03  0.00000000000E+00 0. -1.
</event>
<event>
 6    1  0.9401999E-006  0.1294727E+03  0.7818608E-02  0.1320253E+00
          2   -1    0    0  502    0  0.00000000000E+00  0.00000000000E+00  0.29073237037E+03  0.29073237037E+03  0.00000000000E+00 0.  1.
          1   -1    0    0  501    0 -0.00000000000E+00 -0.00000000000E+00 -0.65574625945E+03  0.65574625945E+03  0.00000000000E+00 0.  1.
          2    1    1    2  501    0  0.89750022754E+02 -0.73897742857E+02  0.22764154685E+03  0.25561028312E+03  0.00000000000E+00 0.  1.
          1    1    1    2  502    0 -0.10837392440E+03  0.61356565043E+02 -0.53442784509E+03  0.54874644160E+03  0.00000000000E+00 0.  1.
         22    1    1    2    0    0  0.94283439465E+01 -0.75112149246E+01  0.39829620790E+02  0.41613828369E+02  0.00000000000E+00 0.  1.
         22    1    1    2    0    0  0.91955577012E+01  0.20052392738E+02 -0.98057211625E+02  0.10050807673E+03  0.00000000000E+00 0.  1.
</event>
<event>
 6    1  0.8017648E-006  0.1890494E+03  0.7818608E-02  0.1289701E+00
          2   -1    0    0  502    0  0.00000000000E+00  0.00000000000E+00  0.92418972105E+03  0.92418972105E+03  0.00000000000E+00 0.  1.
          1   -1    0    0  501    0 -0.00000000000E+00 -0.00000000000E+00 -0.66530839136E+02  0.66530839136E+02  0.00000000000E+00 0.  1.
          2    1    1    2  501    0  0.59981681013E+02 -0.50541181527E+02  0.67156665728E+03  0.67613163530E+03  0.00000000000E+00 0.  1.
          1    1    1    2  502    0 -0.31098129889E+02  0.10470999082E+03  0.57985997828E+02  0.12366750505E+03  0.00000000000E+00 0.  1.
         22    1    1    2    0    0 -0.34967300173E+02 -0.64965125411E+02  0.14920688771E+03  0.16645081839E+03  0.00000000000E+00 0.  1.
         22    1    1    2    0    0  0.60837490495E+01  0.10796316118E+02 -0.21100660911E+02  0.24470601445E+02  0.00000000000E+00 0.  1.
</event>
<event>
 6    1  0.8017648E-006  0.8323366E+02  0.7818608E-02  0.1361736E+00
          2   -1    0    0  502    0  0.00000000000E+00  0.00000000000E+00  0.29789137901E+03  0.29789137901E+03  0.00000000000E+00 0.  1.
          1   -1    0    0  501    0 -0.00000000000E+00 -0.00000000000E+00 -0.42069881942E+02  0.42069881942E+02  0.00000000000E+00 0. -1.
          2    1    1    2  501    0 -0.31892826897E+02  0.13917885766E+01  0.78750833311E+02  0.84975191851E+02  0.00000000000E+00 0.  1.
          1    1    1    2  502    0  0.33361806325E+02 -0.22959108448E+02  0.41019772494E+01  0.40705736688E+02  0.00000000000E+00 0. -1.
         22    1    1    2    0    0  0.15514130230E+02 -0.37417605594E+02  0.12372723413E+02  0.42353863222E+02  0.00000000000E+00 0. -1.
         22    1    1    2    0    0 -0.16983109657E+02  0.58984925465E+02  0.16059596310E+03  0.17192646919E+03  0.00000000000E+00 0.  1.
</event>
<event>
 6    1  0.8017648E-006  0.3935571E+02  0.7818608E-02  0.1568576E+00
          2   -1    0    0  502    0  0.00000000000E+00  0.00000000000E+00  0.47523806907E+03  0.47523806907E+03  0.00000000000E+00 0. -1.
          1   -1    0    0  501    0 -0.00000000000E+00 -0.00000000000E+00 -0.20368333649E+03  0.20368333649E+03  0.00000000000E+00 0. -1.
          2    1    1    2  501    0  0.24851132976E+02 -0.44045386817E+02  0.39117716671E+03  0.39443269473E+03  0.00000000000E+00 0. -1.
          1    1    1    2  502    0 -0.29929276130E+02  0.26674331656E+02 -0.15049933526E+03  0.15574765312E+03  0.00000000000E+00 0. -1.
         22    1    1    2    0    0  0.17924972342E+02  0.24114626798E+02 -0.43551952870E+02  0.52911175170E+02  0.00000000000E+00 0.  1.
         22    1    1    2    0    0 -0.12846829188E+02 -0.67435716370E+01  0.74428854002E+02  0.75829882544E+02  0.00000000000E+00 0.  1.
</event>
<event>
 6    1  0.8017648E-006  0.2500356E+03  0.7818608E-02  0.1203579E+00
          2   -1    0    0  502    0  0.00000000000E+00  0.00000000000E+00  0.58327907004E+03  0.58327907004E+03  0.00000000000E+00 0. -1.
          1   -1    0    0  501    0 -0.00000000000E+00 -0.00000000000E+00 -0.29822194765E+03  0.29822194765E+03  0.00000000000E+00 0. -1.
          2    1    1    2  501    0 -0.16646335980E+03 -0.16478882748E+03  0.43598229038E+03  0.49492016057E+03  0.00000000000E+00 0. -1.
          1    1    1    2  502    0  0.17381719269E+03  0.14229461026E+03 -0.13448744701E+03  0.26181490788E+03  0.00000000000E+00 0. -1.
         22    1    1    2    0    0 -0.17478880838E+02 -0.60429910176E+01  0.49156242270E+02  0.52520140612E+02  0.00000000000E+00 0.  1.
         22    1    1    2    0    0  0.10125047945E+02  0.28537208236E+02 -0.65593963251E+02  0.72245808631E+02  0.00000000000E+00 0. -1.
</event>
<event>
 6    1  0.8017648E-006  0.9454727E+02  0.7818608E-02  0.1359119E+00
          2   -1    0    0  502    0  0.00000000000E+00  0.00000000000E+00  0.12756941770E+04  0.12756941770E+04  0.00000000000E+00 0.  1.
          1   -1    0    0  501    0 -0.00000000000E+00 -0.00000000000E+00 -0.52542426023E+02  0.52542426023E+02  0.00000000000E+00 0. -1.
          2    1    1    2  501    0 -0.15090688679E+03  0.21034730783E+02  0.76396577176E+03  0.77901158451E+03  0.00000000000E+00 0.  1.
          1    1    1    2  502    0  0.11615570124E+03 -0.60947374610E+02  0.10269816115E+03  0.16659424272E+03  0.00000000000E+00 0. -1.
         22    1    1    2    0    0  0.74639825259E+01 -0.17703978410E+02 -0.12530116273E+01  0.19253880773E+02  0.00000000000E+00 0. -1.
         22    1    1    2    0    0  0.27287203021E+02  0.57616622237E+02  0.35774082969E+03  0.36337689502E+03  0.00000000000E+00 0.  1.
</event>
<event>
 6    1  0.8017648E-006  0.7556548E+02  0.7818608E-02  0.1432541E+00
          2   -1    0    0  502    0  0.00000000000E+00  0.00000000000E+00  0.13166119071E+03  0.13166119071E+03  0.00000000000E+00 0. -1.
          1   -1    0    0  501    0 -0.00000000000E+00 -0.00000000000E+00 -0.19507468183E+03  0.19507468183E+03  0.00000000000E+00 0. -1.
          2    1    1    2  501    0 -0.26410758651E+02 -0.91385834665E+02 -0.54390729287E+02  0.10957759982E+03  0.00000000000E+00 0. -1.
          1    1    1    2  502    0  0.64288388370E+02  0.41089774251E+02 -0.82919266469E+01  0.76747133332E+02  0.00000000000E+00 0. -1.
         22    1    1    2    0    0 -0.54278945526E+02  0.48257453778E+02  0.49260442040E+02  0.87758628764E+02  0.00000000000E+00 0. -1.
         22    1    1    2    0    0  0.16401315807E+02  0.20386066360E+01 -0.49991277219E+02  0.52652510626E+02  0.00000000000E+00 0. -1.
</event>
<event>
 6    1  0.8017648E-006  0.2744300E+03  0.7818608E-02  0.1237871E+00
          2   -1    0    0  502    0  0.00000000000E+00  0.00000000000E+00  0.16224065244E+04  0.16224065244E+04  0.00000000000E+00 0.  1.
          1   -1    0    0  501    0 -0.00000000000E+00 -0.00000000000E+00 -0.34189234660E+03  0.34189234660E+03  0.00000000000E+00 0. -1.
          2    1    1    2  501    0 -0.17308358633E+03 -0.79011747604E+02  0.12344637285E+04  0.12490402240E+04  0.00000000000E+00 0.  1.
          1    1    1    2  502    0  0.23915623979E+03  0.11033708863E+03 -0.26398787229E+03  0.37290692789E+03  0.00000000000E+00 0. -1.
         22    1    1    2    0    0  0.85616369707E+01 -0.71515980926E+01 -0.86707770517E+01  0.14129025358E+02  0.00000000000E+00 0. -1.
         22    1    1    2    0    0 -0.74634290424E+02 -0.24173742931E+02  0.31870909862E+03  0.32822269375E+03  0.00000000000E+00 0. -1.
</event>
<event>
 6    1  0.8017648E-006  0.1092544E+03  0.7818608E-02  0.1306996E+00
          2   -1    0    0  502    0  0.00000000000E+00  0.00000000000E+00  0.17637947551E+03  0.17637947551E+03  0.00000000000E+00 0.  1.
          1   -1    0    0  501    0 -0.00000000000E+00 -0.00000000000E+00 -0.12749402600E+03  0.12749402600E+03  0.00000000000E+00 0.  1.
          2    1    1    2  501    0  0.27600463100E+02 -0.47174818671E+02  0.15733435165E+02  0.56875214830E+02  0.00000000000E+00 0.  1.
          1    1    1    2  502    0 -0.34805560606E+02  0.99395208345E+02  0.26375897904E+02  0.10856575188E+03  0.00000000000E+00 0.  1.
         22    1    1    2    0    0 -0.36452650663E+02 -0.29089766594E+02 -0.46441195618E+02  0.65816372669E+02  0.00000000000E+00 0.  1.
         22    1    1    2    0    0  0.43657748169E+02 -0.23130623081E+02  0.53217312060E+02  0.72616162128E+02  0.00000000000E+00 0. -1.
</event>
<event>
 6    1  0.8017648E-006  0.4215949E+02  0.7818608E-02  0.1579946E+00
          2   -1    0    0  502    0  0.00000000000E+00  0.00000000000E+00  0.11987059824E+03  0.11987059824E+03  0.00000000000E+00 0. -1.
          1   -1    0    0  501    0 -0.00000000000E+00 -0.00000000000E+00 -0.16207475063E+03  0.16207475063E+03  0.00000000000E+00 0.  1.
          2    1    1    2  501    0  0.27308139630E+02 -0.48043296849E+01  0.62070258609E+02  0.67981858445E+02  0.00000000000E+00 0. -1.
          1    1    1    2  502    0 -0.27398125203E+02  0.16158924235E+02 -0.81327501832E+02  0.87326574714E+02  0.00000000000E+00 0.  1.
         22    1    1    2    0    0  0.12525959273E+02 -0.61307762723E+01  0.50279925911E+02  0.52178127822E+02  0.00000000000E+00 0. -1.
         22    1    1    2    0    0 -0.12435973700E+02 -0.52238182778E+01 -0.73226835074E+02  0.74458787891E+02  0.00000000000E+00 0.  1.
</event>
<event>
 6    1  0.8017648E-006  0.1572633E+03  0.7818608E-02  0.1247071E+00
          2   -1    0    0  502    0  0.00000000000E+00  0.00000000000E+00  0.87464678941E+03  0.87464678941E+03  0.00000000000E+00 0. -1.
          1   -1    0    0  501    0 -0.00000000000E+00 -0.00000000000E+00 -0.18564980900E+03  0.18564980900E+03  0.00000000000E+00 0.  1.
          2    1    1    2  501    0 -0.24082117023E+02 -0.29126029091E+03  0.35595559308E+03  0.46056149390E+03  0.00000000000E+00 0. -1.
          1    1    1    2  502    0  0.72786430040E+02  0.33414357362E+03  0.29449599533E+03  0.45130664016E+03  0.00000000000E+00 0.  1.
         22    1    1    2    0    0 -0.71964576848E+02 -0.34399002928E+02 -0.22230053434E+02  0.82803182300E+02  0.00000000000E+00 0.  1.
         22    1    1    2    0    0  0.23260263831E+02 -0.84842797809E+01  0.60775445426E+02  0.65625282046E+02  0.00000000000E+00 0. -1.
</event>
<event>
 6    1  0.8017648E-006  0.1633448E+03  0.7818608E-02  0.1185168E+00
          2   -1    0    0  502    0  0.00000000000E+00  0.00000000000E+00  0.45014024225E+03  0.45014024225E+03  0.00000000000E+00 0.  1.
          1   -1    0    0  501    0 -0.00000000000E+00 -0.00000000000E+00 -0.26600665853E+03  0.26600665853E+03  0.00000000000E+00 0. -1.
          2    1    1    2  501    0  0.24197598856E+02  0.13355775946E+03  0.36902700955E+03  0.39319732028E+03  0.00000000000E+00 0.  1.
          1    1    1    2  502    0 -0.29441630496E+02 -0.12027681392E+03 -0.14825887174E+03  0.19316835823E+03  0.00000000000E+00 0. -1.
         22    1    1    2    0    0  0.12808448565E+02  0.21430103041E+02  0.38949771009E+02  0.46264352721E+02  0.00000000000E+00 0. -1.
         22    1    1    2    0    0 -0.75644169254E+01 -0.34711048578E+02 -0.75584325099E+02  0.83516869538E+02  0.00000000000E+00 0. -1.
</event>
<event>
 6    1  0.8017648E-006  0.3965668E+02  0.7818608E-02  0.1573342E+00
          2   -1    0    0  502    0  0.00000000000E+00  0.00000000000E+00  0.24085907549E+03  0.24085907549E+03  0.00000000000E+00 0. -1.
          1   -1    0    0  501    0 -0.00000000000E+00 -0.00000000000E+00 -0.54072441742E+02  0.54072441742E+02  0.00000000000E+00 0.  1.
          2    1    1    2  501    0  0.19299974480E+02  0.13713595566E+02  0.11133179888E+03  0.11382144421E+03  0.00000000000E+00 0. -1.
          1    1    1    2  502    0 -0.11002181653E+02 -0.37723476408E+02  0.19275631175E+02  0.43768237692E+02  0.00000000000E+00 0.  1.
         22    1    1    2    0    0  0.66166978274E+01  0.14683547357E+02  0.94137775300E+02  0.95505539062E+02  0.00000000000E+00 0. -1.
         22    1    1    2    0    0 -0.14914490654E+02  0.93263334856E+01 -0.37958571607E+02  0.41836296277E+02  0.00000000000E+00 0.  1.
</event>
<event>
 6    1  0.8017648E-006  0.3261672E+03  0.7818608E-02  0.1179068E+00
          2   -1    0    0  502    0  0.00000000000E+00  0.00000000000E+00  0.19464149956E+04  0.19464149956E+04  0.00000000000E+00 0.  1.
          1   -1    0    0  501    0 -0.00000000000E+00 -0.00000000000E+00 -0.31102191237E+03  0.31102191237E+03  0.00000000000E+00 0.  1.
          2    1    1    2  501    0  0.27799919165E+03 -0.11474558533E+03  0.17797156784E+04  0.18049481976E+04  0.00000000000E+00 0.  1.
          1    1    1    2  502    0 -0.26180155995E+03  0.12365558895E+03 -0.15474547146E+03  0.32829395732E+03  0.00000000000E+00 0.  1.
         22    1    1    2    0    0  0.78030008225E+01 -0.22078708295E+02  0.61740235737E+02  0.66031908126E+02  0.00000000000E+00 0.  1.
         22    1    1    2    0    0 -0.24000632524E+02  0.13168704683E+02 -0.51317359491E+02  0.58162844925E+02  0.00000000000E+00 0. -1.
</event>
<event>
 6    1  0.8017648E-006  0.6444205E+02  0.7818608E-02  0.1435186E+00
          2   -1    0    0  502    0  0.00000000000E+00  0.00000000000E+00  0.56359071060E+03  0.56359071060E+03  0.00000000000E+00 0.  1.
          1   -1    0    0  501    0 -0.00000000000E+00 -0.00000000000E+00 -0.53824991016E+02  0.53824991016E+02  0.00000000000E+00 0.  1.
          2    1    1    2  501    0 -0.11923714738E+02  0.10076963016E+03  0.20070646475E+03  0.22489948495E+03  0.00000000000E+00 0.  1.
          1    1    1    2  502    0 -0.21803902147E+02 -0.10673694586E+03  0.10571931795E+03  0.15180500633E+03  0.00000000000E+00 0.  1.
         22    1    1    2    0    0  0.16522081070E+01 -0.16209621410E+02 -0.13025279841E+02  0.20859998390E+02  0.00000000000E+00 0.  1.
         22    1    1    2    0    0  0.32075408778E+02  0.22176937111E+02  0.21636521672E+03  0.21985121195E+03  0.00000000000E+00 0. -1.
</event>
<event>
 6    1  0.8017648E-006  0.9413619E+02  0.7818608E-02  0.1354736E+00
          2   -1    0    0  502    0  0.00000000000E+00  0.00000000000E+00  0.13558598250E+04  0.13558598250E+04  0.00000000000E+00 0. -1.
          1   -1    0    0  501    0 -0.00000000000E+00 -0.00000000000E+00 -0.22296958993E+02  0.22296958993E+02  0.00000000000E+00 0. -1.
          2    1    1    2  501    0 -0.27929273568E+01 -0.22177342446E+02  0.18248480207E+02  0.28855536575E+02  0.00000000000E+00 0. -1.
          1    1    1    2  502    0  0.60597381078E+02  0.11459032432E+02  0.10314077872E+04  0.10332499095E+04  0.00000000000E+00 0. -1.
         22    1    1    2    0    0 -0.46255590177E+01  0.31163446943E+02  0.56320760892E+01  0.32004320062E+02  0.00000000000E+00 0. -1.
         22    1    1    2    0    0 -0.53178894703E+02 -0.20445136929E+02  0.27827452255E+03  0.28404701788E+03  0.00000000000E+00 0. -1.
</event>
<event>
 6    1  0.8017648E-006  0.5748429E+02  0.7818608E-02  0.1489641E+00
          2   -1    0    0  502    0  0.00000000000E+00  0.00000000000E+00  0.67063423605E+02  0.67063423605E+02  0.00000000000E+00 0. -1.
          1   -1    0    0  501    0 -0.00000000000E+00 -0.00000000000E+00 -0.40497856872E+03  0.40497856872E+03  0.00000000000E+00 0. -1.
          2    1    1    2  501    0 -0.16961858109E+02  0.21360214802E+02  0.22036055405E+01  0.27364562563E+02  0.00000000000E+00 0. -1.
          1    1    1    2  502    0  0.44047963413E+02  0.43204821368E+02 -0.27958712792E+03  0.28631423606E+03  0.00000000000E+00 0. -1.
         22    1    1    2    0    0 -0.15977296454E+02 -0.51170450108E+02 -0.10098188915E+03  0.11432860930E+03  0.00000000000E+00 0. -1.
         22    1    1    2    0    0 -0.11108808850E+02 -0.13394586062E+02  0.40450266424E+02  0.44034584404E+02  0.00000000000E+00 0. -1.
</event>
<event>
 6    1  0.8017648E-006  0.2068232E+03  0.7818608E-02  0.1144570E+00
          2   -1    0    0  502    0  0.00000000000E+00  0.00000000000E+00  0.94814507611E+03  0.94814507611E+03  0.00000000000E+00 0.  1.
          1   -1    0    0  501    0 -0.00000000000E+00 -0.00000000000E+00 -0.50766265840E+02  0.50766265840E+02  0.00000000000E+00 0. -1.
          2    1    1    2  501    0 -0.64494096589E+02  0.20673858991E+02  0.17657306034E+03  0.18911621448E+03  0.00000000000E+00 0.  1.
          1    1    1    2  502    0  0.18376827023E+03  0.91252062446E+01  0.26680967793E+03  0.32410098854E+03  0.00000000000E+00 0. -1.
         22    1    1    2    0    0 -0.13289377992E+03 -0.37653890381E+02  0.44809553734E+03  0.46890103731E+03  0.00000000000E+00 0.  1.
         22    1    1    2    0    0  0.13619606274E+02  0.78548251451E+01  0.59005346586E+01  0.16793101630E+02  0.00000000000E+00 0. -1.
</event>
<event>
 6    1  0.8017648E-006  0.1201604E+03  0.7818608E-02  0.1243499E+00
          2   -1    0    0  502    0  0.00000000000E+00  0.00000000000E+00  0.28874505153E+03  0.28874505153E+03  0.00000000000E+00 0. -1.
          1   -1    0    0  501    0 -0.00000000000E+00 -0.00000000000E+00 -0.10911367850E+03  0.10911367850E+03  0.00000000000E+00 0. -1.
          2    1    1    2  501    0  0.11845478383E+02 -0.68123965697E+02  0.93727320602E+02  0.11647317583E+03  0.00000000000E+00 0. -1.
          1    1    1    2  502    0 -0.40213418994E+01  0.84665458603E+02 -0.47776677654E+02  0.97298622800E+02  0.00000000000E+00 0. -1.
         22    1    1    2    0    0 -0.25278648381E+02  0.21359564787E+02 -0.99178882570E+01  0.34548597357E+02  0.00000000000E+00 0. -1.
         22    1    1    2    0    0  0.17454511897E+02 -0.37901057693E+02  0.14359861834E+03  0.14953833405E+03  0.00000000000E+00 0. -1.
</event>
<event>
 6    1  0.8017648E-006  0.6115535E+02  0.7818608E-02  0.1472316E+00
          2   -1    0    0  502    0  0.00000000000E+00  0.00000000000E+00  0.10003992823E+03  0.10003992823E+03  0.00000000000E+00 0. -1.
          1   -1    0    0  501    0 -0.00000000000E+00 -0.00000000000E+00 -0.30373877873E+03  0.30373877873E+03  0.00000000000E+00 0.  1.
          2    1    1    2  501    0 -0.25042352847E+02  0.60734622318E+02 -0.39037637454E+02  0.76418263015E+02  0.00000000000E+00 0. -1.
          1    1    1    2  502    0  0.56636554894E+01 -0.96169401086E+02 -0.17385400872E+03  0.19876077844E+03  0.00000000000E+00 0.  1.
         22    1    1    2    0    0  0.88090382539E+01  0.43645562432E+02  0.60757652141E+02  0.75326134699E+02  0.00000000000E+00 0. -1.
         22    1    1    2    0    0  0.10569659104E+02 -0.82107836645E+01 -0.51564856470E+02  0.53273530807E+02  0.00000000000E+00 0. -1.
</event>
<event>
 6    1  0.8017648E-006  0.1639108E+03  0.7818608E-02  0.1211153E+00
          2   -1    0    0  502    0  0.00000000000E+00  0.00000000000E+00  0.31421719661E+03  0.31421719661E+03  0.00000000000E+00 0. -1.
          1   -1    0    0  501    0 -0.00000000000E+00 -0.00000000000E+00 -0.21856702574E+03  0.21856702574E+03  0.00000000000E+00 0. -1.
          2    1    1    2  501    0 -0.24282227179E+00 -0.59442872775E+02 -0.10047938121E+03  0.11674596411E+03  0.00000000000E+00 0. -1.
          1    1    1    2  502    0 -0.57528064014E+02  0.13807608782E+03  0.21206541173E+03  0.25951150847E+03  0.00000000000E+00 0. -1.
         22    1    1    2    0    0  0.12400876282E+02 -0.90522641405E+02  0.24505114500E+02  0.94597203849E+02  0.00000000000E+00 0.  1.
         22    1    1    2    0    0  0.45370010004E+02  0.11889426363E+02 -0.40440974151E+02  0.61929545915E+02  0.00000000000E+00 0. -1.
</event>
<event>
 6    1  0.8017648E-006  0.5138959E+02  0.7818608E-02  0.1508847E+00
          2   -1    0    0  502    0  0.00000000000E+00  0.00000000000E+00  0.16728614789E+03  0.16728614789E+03  0.00000000000E+00 0.  1.
          1   -1    0    0  501    0 -0.00000000000E+00 -0.00000000000E+00 -0.10655187410E+03  0.10655187410E+03  0.00000000000E+00 0.  1.
          2    1    1    2  501    0 -0.34918087068E+02  0.12061615995E+02  0.86885436197E+02  0.94413105065E+02  0.00000000000E+00 0.  1.
          1    1    1    2  502    0  0.43975143675E+02  0.11755597376E+01 -0.22622618314E+02  0.49466939073E+02  0.00000000000E+00 0.  1.
         22    1    1    2    0    0  0.33586733291E+01 -0.18397069133E+02 -0.64688553341E+02  0.67337521283E+02  0.00000000000E+00 0.  1.
         22    1    1    2    0    0 -0.12415729935E+02  0.51598934001E+01  0.61160009251E+02  0.62620456572E+02  0.00000000000E+00 0.  1.
</event>
<event>
 6    1  0.8017648E-006  0.5565072E+02  0.7818608E-02  0.1417545E+00
          2   -1    0    0  502    0  0.00000000000E+00  0.00000000000E+00  0.68990078423E+02  0.68990078423E+02  0.00000000000E+00 0.  1.
          1   -1    0    0  501    0 -0.00000000000E+00 -0.00000000000E+00 -0.16113933646E+03  0.16113933646E+03  0.00000000000E+00 0.  1.
          2    1    1    2  501    0 -0.17785625203E+02 -0.12925255736E+02 -0.14281800649E+01  0.22032485062E+02  0.00000000000E+00 0.  1.
          1    1    1    2  502    0  0.41919073478E+02 -0.24032238431E+01 -0.61710120423E+02  0.74639956918E+02  0.00000000000E+00 0.  1.
         22    1    1    2    0    0 -0.46052899777E+02  0.31623924266E+02 -0.66640900749E+02  0.86959483764E+02  0.00000000000E+00 0.  1.
         22    1    1    2    0    0  0.21919451503E+02 -0.16295444687E+02  0.37629943195E+02  0.46497489143E+02  0.00000000000E+00 0.  1.
</event>
<event>
 6    1  0.8017648E-006  0.1998889E+03  0.7818608E-02  0.1152245E+00
          2   -1    0    0  502    0  0.00000000000E+00  0.00000000000E+00  0.74218256196E+03  0.74218256196E+03  0.00000000000E+00 0. -1.
          1   -1    0    0  501    0 -0.00000000000E+00 -0.00000000000E+00 -0.62518528732E+02  0.62518528732E+02  0.00000000000E+00 0.  1.
          2    1    1    2  501    0  0.91066878539E+02 -0.41058348941E+02  0.16827267670E+03  0.19569020954E+03  0.00000000000E+00 0. -1.
          1    1    1    2  502    0 -0.14538605335E+03  0.70888373655E+02  0.14064647365E+03  0.21434480768E+03  0.00000000000E+00 0.  1.
         22    1    1    2    0    0 -0.25584576598E+02 -0.78462177684E+01  0.17841999865E+02  0.32163187842E+02  0.00000000000E+00 0. -1.
         22    1    1    2    0    0  0.79903751408E+02 -0.21983806945E+02  0.35290288301E+03  0.36250288563E+03  0.00000000000E+00 0. -1.
</event>
<event>
 6    1  0.8017648E-006  0.7164387E+02  0.7818608E-02  0.1447807E+00
          2   -1    0    0  502    0  0.00000000000E+00  0.00000000000E+00  0.27753752023E+03  0.27753752023E+03  0.00000000000E+00 0.  1.
          1   -1    0    0  501    0 -0.00000000000E+00 -0.00000000000E+00 -0.72156174255E+02  0.72156174255E+02  0.00000000000E+00 0. -1.
          2    1    1    2  501    0 -0.10463575899E+02 -0.52204171084E+02  0.12405556857E+03  0.13499831848E+03  0.00000000000E+00 0.  1.
          1    1    1    2  502    0  0.34873068656E+02  0.56678591672E+02  0.55794385926E+02  0.86842427259E+02  0.00000000000E+00 0. -1.
         22    1    1    2    0    0 -0.13727836834E+02  0.89482298265E+01 -0.48846823229E+02  0.51522193866E+02  0.00000000000E+00 0. -1.
         22    1    1    2    0    0 -0.10681655923E+02 -0.13422650415E+02  0.74378214699E+02  0.76330754872E+02  0.00000000000E+00 0.  1.
</event>
<event>
 6    1  0.8017648E-006  0.3904750E+02  0.7818608E-02  0.1524914E+00
          2   -1    0    0  502    0  0.00000000000E+00  0.00000000000E+00  0.30550427627E+03  0.30550427627E+03  0.00000000000E+00 0.  1.
          1   -1    0    0  501    0 -0.00000000000E+00 -0.00000000000E+00 -0.14251410348E+03  0.14251410348E+03  0.00000000000E+00 0. -1.
          2    1    1    2  501    0 -0.27861631972E+02  0.19322145221E+02  0.21350608827E+03  0.21618155693E+03  0.00000000000E+00 0.  1.
          1    1    1    2  502    0  0.33191852508E+02 -0.67911439174E+02 -0.56618095837E+02  0.94441894411E+02  0.00000000000E+00 0. -1.
         22    1    1    2    0    0  0.11589917098E+02  0.27694896711E+02  0.65578470556E+02  0.72123985488E+02  0.00000000000E+00 0. -1.
         22    1    1    2    0    0 -0.16920137634E+02  0.20894397242E+02 -0.59476290201E+02  0.65270942920E+02  0.00000000000E+00 0. -1.
</event>
<event>
 6    1  0.8017648E-006  0.4238469E+02  0.7818608E-02  0.1528625E+00
          2   -1    0    0  502    0  0.00000000000E+00  0.00000000000E+00  0.22534755895E+03  0.22534755895E+03  0.00000000000E+00 0.  1.
          1   -1    0    0  501    0 -0.00000000000E+00 -0.00000000000E+00 -0.87236149096E+02  0.87236149096E+02  0.00000000000E+00 0. -1.
          2    1    1    2  501    0  0.17384194076E+02  0.27759807420E+02  0.15321555329E+03  0.15667744855E+03  0.00000000000E+00 0.  1.
          1    1    1    2  502    0 -0.20684451765E+02 -0.13137436255E+02 -0.22886151054E+02  0.33529310853E+02  0.00000000000E+00 0. -1.
         22    1    1    2    0    0  0.20127836379E+01  0.10919034842E+02  0.61705488439E+02  0.62696442669E+02  0.00000000000E+00 0. -1.
         22    1    1    2    0    0  0.12874740517E+01 -0.25541406007E+02 -0.53923480822E+02  0.59680505982E+02  0.00000000000E+00 0. -1.
</event>
<event>
 6    1  0.8017648E-006  0.3979894E+02  0.7818608E-02  0.1607090E+00
          2   -1    0    0  502    0  0.00000000000E+00  0.00000000000E+00  0.86294913288E+03  0.86294913288E+03  0.00000000000E+00 0.  1.
          1   -1    0    0  501    0 -0.00000000000E+00 -0.00000000000E+00 -0.72291108718E+02  0.72291108718E+02  0.00000000000E+00 0.  1.
          2    1    1    2  501    0  0.16119471846E+02  0.40651250297E+02  0.73631973010E+03  0.73761718150E+03  0.00000000000E+00 0.  1.
          1    1    1    2  502    0 -0.46170164230E+02 -0.93660273067E+00 -0.12291278766E+02  0.47787412814E+02  0.00000000000E+00 0.  1.
         22    1    1    2    0    0  0.22450188973E+02 -0.31140368130E+02  0.10394142346E+03  0.11080412006E+03  0.00000000000E+00 0.  1.
         22    1    1    2    0    0  0.76005034112E+01 -0.85742794361E+01 -0.37311850624E+02  0.39031527218E+02  0.00000000000E+00 0. -1.
</event>
<event>
 6    1  0.8017648E-006  0.5478956E+02  0.7818608E-02  0.1504291E+00
          2   -1    0    0  502    0  0.00000000000E+00  0.00000000000E+00  0.50065443553E+03  0.50065443553E+03  0.00000000000E+00 0.  1.
          1   -1    0    0  501    0 -0.00000000000E+00 -0.00000000000E+00 -0.55328458301E+02  0.55328458301E+02  0.00000000000E+00 0. -1.
          2    1    1    2  501    0  0.68901174494E+02  0.49420858977E+02  0.20377416391E+03  0.22071180989E+03  0.00000000000E+00 0.  1.
          1    1    1    2  502    0 -0.68778728412E+02 -0.19614780503E+02  0.10566163685E+02  0.72297281492E+02  0.00000000000E+00 0. -1.
         22    1    1    2    0    0 -0.62091836983E+01  0.10287871472E+02 -0.11789995926E+02  0.16834436895E+02  0.00000000000E+00 0. -1.
         22    1    1    2    0    0  0.60867376156E+01 -0.40093949946E+02  0.24277564557E+03  0.24613936556E+03  0.00000000000E+00 0.  1.
</event>
<event>
 6    1  0.8017648E-006  0.9933803E+02  0.7818608E-02  0.1355849E+00
          2   -1    0    0  502    0  0.00000000000E+00  0.00000000000E+00  0.93230879909E+02  0.93230879909E+02  0.00000000000E+00 0. -1.
          1   -1    0    0  501    0 -0.00000000000E+00 -0.00000000000E+00 -0.18357868868E+03  0.18357868868E+03  0.00000000000E+00 0.  1.
          2    1    1    2  501    0  0.10327345910E+02 -0.33865205513E+02  0.23800601775E+02  0.42661163402E+02  0.00000000000E+00 0. -1.
          1    1    1    2  502    0  0.44092835345E+02  0.43659237450E+02 -0.49215047492E+02  0.79198661877E+02  0.00000000000E+00 0.  1.
         22    1    1    2    0    0 -0.58650510967E+02 -0.35761481546E+02  0.15416625644E+02  0.70401976856E+02  0.00000000000E+00 0. -1.
         22    1    1    2    0    0  0.42303297112E+01  0.25967449609E+02 -0.80349988700E+02  0.84547766457E+02  0.00000000000E+00 0.  1.
</event>
<event>
 6    1  0.8017648E-006  0.1277727E+03  0.7818608E-02  0.1308435E+00
          2   -1    0    0  502    0  0.00000000000E+00  0.00000000000E+00  0.75681325046E+02  0.75681325046E+02  0.00000000000E+00 0.  1.
          1   -1    0    0  501    0 -0.00000000000E+00 -0.00000000000E+00 -0.30042638414E+03  0.30042638414E+03  0.00000000000E+00 0.  1.
          2    1    1    2  501    0  0.13569890093E+02 -0.74546407438E+02 -0.57130157483E+02  0.94895540850E+02  0.00000000000E+00 0.  1.
          1    1    1    2  502    0 -0.21232391596E+02  0.99414916302E+02 -0.79450816100E+02  0.12902159593E+03  0.00000000000E+00 0.  1.
         22    1    1    2    0    0 -0.15016895971E+02  0.24107225831E+02 -0.93724037206E+02  0.97932939566E+02  0.00000000000E+00 0. -1.
         22    1    1    2    0    0  0.22679397474E+02 -0.48975734695E+02  0.55599516975E+01  0.54257632841E+02  0.00000000000E+00 0.  1.
</event>
<event>
 6    1  0.8017648E-006  0.3173525E+03  0.7818608E-02  0.1130791E+00
          2   -1    0    0  502    0  0.00000000000E+00  0.00000000000E+00  0.11367396984E+04  0.11367396984E+04  0.00000000000E+00 0. -1.
          1   -1    0    0  501    0 -0.00000000000E+00 -0.00000000000E+00 -0.11067780265E+03  0.11067780265E+03  0.00000000000E+00 0. -1.
          2    1    1    2  501    0  0.10070654558E+03  0.14673233710E+03  0.11295451711E+03  0.21078640850E+03  0.00000000000E+00 0. -1.
          1    1    1    2  502    0 -0.11002051681E+03 -0.27515068756E+03  0.68064595749E+03  0.74235526161E+03  0.00000000000E+00 0. -1.
         22    1    1    2    0    0  0.17983337223E+02  0.76977504748E+02  0.28949514199E+02  0.84184387075E+02  0.00000000000E+00 0. -1.
         22    1    1    2    0    0 -0.86693659960E+01  0.51440845708E+02  0.20351190700E+03  0.21009144391E+03  0.00000000000E+00 0.  1.
</event>
<event>
 6    1  0.8017648E-006  0.7926820E+02  0.7818608E-02  0.1359210E+00
          2   -1    0    0  502    0  0.00000000000E+00  0.00000000000E+00  0.12577721178E+04  0.12577721178E+04  0.00000000000E+00 0.  1.
          1   -1    0    0  501    0 -0.00000000000E+00 -0.00000000000E+00 -0.17327571580E+03  0.17327571580E+03  0.00000000000E+00 0.  1.
          2    1    1    2  501    0 -0.20330896465E+03 -0.93080785996E+02  0.10560953230E+04  0.10795072483E+04  0.00000000000E+00 0.  1.
          1    1    1    2  502    0  0.18029909679E+03  0.10153116796E+03 -0.38987843021E+02  0.21056209125E+03  0.00000000000E+00 0.  1.
         22    1    1    2    0    0  0.15261957118E+02 -0.24264604773E+02  0.99939685588E+02  0.10396941442E+03  0.00000000000E+00 0. -1.
         22    1    1    2    0    0  0.77479107489E+01  0.15814222806E+02 -0.32550763586E+02  0.37009079616E+02  0.00000000000E+00 0.  1.
</event>
<event>
 6    1  0.8017648E-006  0.1984325E+02  0.7818608E-02  0.1755659E+00
          2   -1    0    0  502    0  0.00000000000E+00  0.00000000000E+00  0.19496746373E+03  0.19496746373E+03  0.00000000000E+00 0. -1.
          1   -1    0    0  501    0 -0.00000000000E+00 -0.00000000000E+00 -0.13789086480E+03  0.13789086480E+03  0.00000000000E+00 0. -1.
          2    1    1    2  501    0  0.20155871094E+02 -0.10900605487E+02  0.12064068167E+03  0.12279762381E+03  0.00000000000E+00 0. -1.
          1    1    1    2  502    0 -0.12492041528E+01  0.24395318298E+02 -0.80195527836E+02  0.83833255638E+02  0.00000000000E+00 0. -1.
         22    1    1    2    0    0 -0.13262745963E+02 -0.45418716452E+00 -0.53269127187E+02  0.54897236977E+02  0.00000000000E+00 0. -1.
         22    1    1    2    0    0 -0.56439209779E+01 -0.13040525647E+02  0.69900572288E+02  0.71330212108E+02  0.00000000000E+00 0. -1.
</event>
<event>
 6    1  0.8017648E-006  0.1737061E+03  0.7818608E-02  0.1203354E+00
          2   -1    0    0  502    0  0.00000000000E+00  0.00000000000E+00  0.35217446642E+03  0.35217446642E+03  0.00000000000E+00 0. -1.
          1   -1    0    0  501    0 -0.00000000000E+00 -0.00000000000E+00 -0.33385349925E+03  0.33385349925E+03  0.00000000000E+00 0. -1.
          2    1    1    2  501    0 -0.56866721314E+01  0.14466596793E+03  0.26950751461E+03  0.30593280463E+03  0.00000000000E+00 0. -1.
          1    1    1    2  502    0  0.44793910558E+02 -0.70520273678E+02  0.56416915873E+01  0.83734294686E+02  0.00000000000E+00 0. -1.
         22    1    1    2    0    0 -0.62624799191E+02 -0.65676035259E+02 -0.25571491501E+03  0.27133986961E+03  0.00000000000E+00 0. -1.
         22    1    1    2    0    0  0.23517560764E+02 -0.84696589900E+01 -0.11133240167E+01  0.25020996744E+02  0.00000000000E+00 0. -1.
</event>
<event>
 6    1  0.8017648E-006  0.5233556E+02  0.7818608E-02  0.1542820E+00
          2   -1    0    0  502    0  0.00000000000E+00  0.00000000000E+00  0.39832556958E+03  0.39832556958E+03  0.00000000000E+00 0. -1.
          1   -1    0    0  501    0 -0.00000000000E+00 -0.00000000000E+00 -0.50256285589E+03  0.50256285589E+03  0.00000000000E+00 0.  1.
          2    1    1    2  501    0  0.49257369330E+01  0.22650125838E+02  0.27075524057E+03  0.27174563728E+03  0.00000000000E+00 0. -1.
          1    1    1    2  502    0  0.43266412261E+00 -0.35374354083E+02 -0.47091290628E+03  0.47223987276E+03  0.00000000000E+00 0.  1.
         22    1    1    2    0    0 -0.12317870613E+02  0.21601558358E+02  0.12409089072E+03  0.12655791725E+03  0.00000000000E+00 0. -1.
         22    1    1    2    0    0  0.69594695579E+01 -0.88773301135E+01 -0.28170511317E+02  0.30344998177E+02  0.00000000000E+00 0.  1.
</event>
<event>
 6    1  0.8017648E-006  0.3795119E+02  0.7818608E-02  0.1600186E+00
          2   -1    0    0  502    0  0.00000000000E+00  0.00000000000E+00  0.27178985637E+03  0.27178985637E+03  0.00000000000E+00 0.  1.
          1   -1    0    0  501    0 -0.00000000000E+00 -0.00000000000E+00 -0.12668454486E+03  0.12668454486E+03  0.00000000000E+00 0. -1.
          2    1    1    2  501    0 -0.91017477138E+01 -0.22244410885E+02  0.20843609433E+03  0.20981720865E+03  0.00000000000E+00 0.  1.
          1    1    1    2  502    0  0.14044104223E+02  0.22941194468E+02 -0.53729216126E+02  0.60086304034E+02  0.00000000000E+00 0. -1.
         22    1    1    2    0    0  0.43799973540E+01 -0.11736088181E+02  0.58053740107E+02  0.59389871889E+02  0.00000000000E+00 0.  1.
         22    1    1    2    0    0 -0.93223538629E+01  0.11039304598E+02 -0.67655306795E+02  0.69181016653E+02  0.00000000000E+00 0. -1.
</event>
<event>
 6    1  0.8017648E-006  0.5125400E+02  0.7818608E-02  0.1456370E+00
          2   -1    0    0  502    0  0.00000000000E+00  0.00000000000E+00  0.22100842875E+03  0.22100842875E+03  0.00000000000E+00 0.  1.
          1   -1    0    0  501    0 -0.00000000000E+00 -0.00000000000E+00 -0.17797949972E+03  0.17797949972E+03  0.00000000000E+00 0. -1.
          2    1    1    2  501    0 -0.25449800963E+02  0.62623994691E+02  0.13893406522E+03  0.15450608907E+03  0.00000000000E+00 0.  1.
          1    1    1    2  502    0  0.51533140877E+02 -0.29623250628E+02 -0.94217781680E+02  0.11140104116E+03  0.00000000000E+00 0. -1.
         22    1    1    2    0    0  0.82563514340E-01 -0.34031374189E+02 -0.60100457846E+02  0.69066679949E+02  0.00000000000E+00 0. -1.
         22    1    1    2    0    0 -0.26165903428E+02  0.10306301254E+01  0.58413103327E+02  0.64014118294E+02  0.00000000000E+00 0.  1.
</event>
<event>
 6    1  0.8017648E-006  0.7157558E+02  0.7818608E-02  0.1438477E+00
          2   -1    0    0  502    0  0.00000000000E+00  0.00000000000E+00  0.14383039326E+03  0.14383039326E+03  0.00000000000E+00 0. -1.
          1   -1    0    0  501    0 -0.00000000000E+00 -0.00000000000E+00 -0.26877215395E+03  0.26877215395E+03  0.00000000000E+00 0.  1.
          2    1    1    2  501    0 -0.49335908932E+02 -0.17139796880E+01  0.90977582345E+02  0.10350792301E+03  0.00000000000E+00 0. -1.
          1    1    1    2  502    0  0.73996739144E+02 -0.16463724996E+01 -0.13638658524E+03  0.15517579895E+03  0.00000000000E+00 0.  1.
         22    1    1    2    0    0 -0.78269189047E+01  0.17182110576E+02 -0.11268265057E+03  0.11425351339E+03  0.00000000000E+00 0.  1.
         22    1    1    2    0    0 -0.16833911308E+02 -0.13821758389E+02  0.33149892767E+02  0.39665311865E+02  0.00000000000E+00 0. -1.
</event>
<event>
 6    1  0.8017648E-006  0.5070767E+02  0.7818608E-02  0.1442432E+00
          2   -1    0    0  502    0  0.00000000000E+00  0.00000000000E+00  0.22264094663E+03  0.22264094663E+03  0.00000000000E+00 0.  1.
          1   -1    0    0  501    0 -0.00000000000E+00 -0.00000000000E+00 -0.30440007720E+03  0.30440007720E+03  0.00000000000E+00 0. -1.
          2    1    1    2  501    0  0.14716011810E+02  0.30287635892E+02  0.14779360106E+03  0.15158116771E+03  0.00000000000E+00 0.  1.
          1    1    1    2  502    0 -0.28790979948E+02 -0.24048552393E+02 -0.24608832011E+03  0.24893114448E+03  0.00000000000E+00 0. -1.
         22    1    1    2    0    0  0.15197629675E+02  0.61015295317E+01  0.69875191953E+02  0.71768649568E+02  0.00000000000E+00 0.  1.
         22    1    1    2    0    0 -0.11226615368E+01 -0.12340613031E+02 -0.53339603472E+02  0.54760062066E+02  0.00000000000E+00 0.  1.
</event>
<event>
 6    1  0.8017648E-006  0.6492674E+02  0.7818608E-02  0.1492118E+00
          2   -1    0    0  502    0  0.00000000000E+00  0.00000000000E+00  0.56741957789E+03  0.56741957789E+03  0.00000000000E+00 0.  1.
          1   -1    0    0  501    0 -0.00000000000E+00 -0.00000000000E+00 -0.58563545392E+02  0.58563545392E+02  0.00000000000E+00 0.  1.
          2    1    1    2  501    0  0.73192824023E+00 -0.47094279181E+02  0.37300573856E+03  0.37596766862E+03  0.00000000000E+00 0.  1.
          1    1    1    2  502    0 -0.26933714570E+01  0.64505408963E+02  0.95500243637E+02  0.11527575014E+03  0.00000000000E+00 0.  1.
         22    1    1    2    0    0  0.11043063769E+02 -0.37677149879E+01 -0.45688056502E+02  0.47154463634E+02  0.00000000000E+00 0.  1.
         22    1    1    2    0    0 -0.90816205522E+01 -0.13643414793E+02  0.86038106803E+02  0.87585240888E+02  0.00000000000E+00 0. -1.
</event>
<event>
 6    1  0.8017648E-006  0.1975027E+03  0.7818608E-02  0.1228867E+00
          2   -1    0    0  502    0  0.00000000000E+00  0.00000000000E+00  0.68708263729E+02  0.68708263729E+02  0.00000000000E+00 0. -1.
          1   -1    0    0  501    0 -0.00000000000E+00 -0.00000000000E+00 -0.66632502355E+03  0.66632502355E+03  0.00000000000E+00 0. -1.
          2    1    1    2  501    0 -0.33479288832E+02 -0.77671538992E+02 -0.21648972867E+03  0.23242532858E+03  0.00000000000E+00 0. -1.
          1    1    1    2  502    0  0.12453146926E+03  0.10776604279E+03 -0.16232948987E+03  0.23124115139E+03  0.00000000000E+00 0. -1.
         22    1    1    2    0    0  0.34395934904E+01  0.35840091804E+02 -0.98114503477E+02  0.10451219439E+03  0.00000000000E+00 0.  1.
         22    1    1    2    0    0 -0.94491773923E+02 -0.65934595598E+02 -0.12068303781E+03  0.16685461291E+03  0.00000000000E+00 0. -1.
</event>
<event>
 6    1  0.8017648E-006  0.3490711E+02  0.7818608E-02  0.1562917E+00
          2   -1    0    0  502    0  0.00000000000E+00  0.00000000000E+00  0.47693953435E+03  0.47693953435E+03  0.00000000000E+00 0. -1.
          1   -1    0    0  501    0 -0.00000000000E+00 -0.00000000000E+00 -0.51902975386E+02  0.51902975386E+02  0.00000000000E+00 0. -1.
          2    1    1    2  501    0 -0.11027240188E+02  0.66844467101E+02  0.26553460225E+03  0.27404088709E+03  0.00000000000E+00 0. -1.
          1    1    1    2  502    0  0.15723746242E+01 -0.58978967999E+02  0.10393994554E+03  0.11951779494E+03  0.00000000000E+00 0. -1.
         22    1    1    2    0    0 -0.19267050773E+01 -0.18301620701E+02 -0.37063087699E+02  0.41380357449E+02  0.00000000000E+00 0. -1.
         22    1    1    2    0    0  0.11381570641E+02  0.10436121599E+02  0.92625098878E+02  0.93903470258E+02  0.00000000000E+00 0.  1.
</event>
<event>
 6    1  0.8017648E-006  0.2026843E+02  0.7818608E-02  0.1775150E+00
          2   -1    0    0  502    0  0.00000000000E+00  0.00000000000E+00  0.14253290552E+03  0.14253290552E+03  0.00000000000E+00 0. -1.
          1   -1    0    0  501    0 -0.00000000000E+00 -0.00000000000E+00 -0.34754631966E+03  0.34754631966E+03  0.00000000000E+00 0.  1.
          2    1    1    2  501    0 -0.17011686558E+02 -0.11157853970E+02  0.58262054425E+02  0.61711928917E+02  0.00000000000E+00 0. -1.
          1    1    1    2  502    0  0.32822118271E+02 -0.61593851018E+01 -0.29566920479E+03  0.29754916927E+03  0.00000000000E+00 0.  1.
         22    1    1    2    0    0 -0.13776140488E+02 -0.23827297429E+01 -0.46977311149E+02  0.49013541094E+02  0.00000000000E+00 0.  1.
         22    1    1    2    0    0 -0.20342912242E+01  0.19699968815E+02  0.79371047374E+02  0.81804585894E+02  0.00000000000E+00 0. -1.
</event>
<event>
 6    1  0.8017648E-006  0.3296655E+02  0.7818608E-02  0.1629621E+00
          2   -1    0    0  502    0  0.00000000000E+00  0.00000000000E+00  0.13610630580E+03  0.13610630580E+03  0.00000000000E+00 0.  1.
          1   -1    0    0  501    0 -0.00000000000E+00 -0.00000000000E+00 -0.78530451266E+02  0.78530451266E+02  0.00000000000E+00 0.  1.
          2    1    1    2  501    0 -0.79565523475E+01 -0.19229339884E+02  0.60031299927E+02  0.63536062268E+02  0.00000000000E+00 0.  1.
          1    1    1    2  502    0  0.13000112662E+02  0.18054487898E+02 -0.69023144996E+01  0.23293977933E+02  0.00000000000E+00 0.  1.
         22    1    1    2    0    0 -0.92646362620E+01  0.12517361236E+02 -0.60125732774E+02  0.62109754137E+02  0.00000000000E+00 0. -1.
         22    1    1    2    0    0  0.42210759473E+01 -0.11342509250E+02  0.64572601878E+02  0.65696962727E+02  0.00000000000E+00 0.  1.
</event>
<event>
 6    1  0.8017648E-006  0.1354500E+03  0.7818608E-02  0.1336667E+00
          2   -1    0    0  502    0  0.00000000000E+00  0.00000000000E+00  0.52295077297E+03  0.52295077297E+03  0.00000000000E+00 0.  1.
          1   -1    0    0  501    0 -0.00000000000E+00 -0.00000000000E+00 -0.49070213387E+02  0.49070213387E+02  0.00000000000E+00 0. -1.
          2    1    1    2  501    0 -0.21028549547E+02 -0.29140650959E+02  0.62329114457E+02  0.71946479715E+02  0.00000000000E+00 0.  1.
          1    1    1    2  502    0  0.90769239239E+02  0.85941560175E+02  0.14898981182E+03  0.19448128594E+03  0.00000000000E+00 0. -1.
         22    1    1    2    0    0 -0.84162960919E+02 -0.57030551798E+02  0.27060885664E+03  0.28907618566E+03  0.00000000000E+00 0.  1.
         22    1    1    2    0    0  0.14422271227E+02  0.22964258238E+00 -0.80472233260E+01  0.16517035034E+02  0.00000000000E+00 0.  1.
</event>
<event>
 6    1  0.8017648E-006  0.2755044E+02  0.7818608E-02  0.1630080E+00
          2   -1    0    0  502    0  0.00000000000E+00  0.00000000000E+00  0.50670223929E+03  0.50670223929E+03  0.00000000000E+00 0. -1.
          1   -1    0    0  501    0 -0.00000000000E+00 -0.00000000000E+00 -0.10299674825E+03  0.10299674825E+03  0.00000000000E+00 0. -1.
          2    1    1    2  501    0 -0.30828421007E+02 -0.18955357268E+01  0.43102040716E+03  0.43212564837E+03  0.00000000000E+00 0. -1.
          1    1    1    2  502    0  0.16250574621E+02  0.29631420789E+02 -0.28661315024E+02  0.44312224638E+02  0.00000000000E+00 0. -1.
         22    1    1    2    0    0  0.17444296229E+02 -0.90174404322E+01 -0.63102701807E+02  0.66087583389E+02  0.00000000000E+00 0. -1.
         22    1    1    2    0    0 -0.28664498421E+01 -0.18718444630E+02  0.64449100706E+02  0.67173531141E+02  0.00000000000E+00 0.  1.
</event>
<event>
 6    1  0.8017648E-006  0.1408187E+03  0.7818608E-02  0.1276954E+00
          2   -1    0    0  502    0  0.00000000000E+00  0.00000000000E+00  0.79783383978E+02  0.79783383978E+02  0.00000000000E+00 0. -1.
          1   -1    0    0  501    0 -0.00000000000E+00 -0.00000000000E+00 -0.32728969588E+03  0.32728969588E+03  0.00000000000E+00 0. -1.
          2    1    1    2  501    0  0.36619457451E+02  0.38198173102E+02  0.28780443440E+02  0.60236193579E+02  0.00000000000E+00 0. -1.
          1    1    1    2  502    0 -0.67159371933E+02  0.16891452333E+02 -0.91434326898E+02  0.11469933974E+03  0.00000000000E+00 0. -1.
         22    1    1    2    0    0 -0.35321051512E+02 -0.14465775098E+02 -0.13451144020E+03  0.13982189698E+03  0.00000000000E+00 0. -1.
         22    1    1    2    0    0  0.65860965994E+02 -0.40623850337E+02 -0.50340988246E+02  0.92315649570E+02  0.00000000000E+00 0.  1.
</event>
<event>
 6    1  0.8017648E-006  0.8618595E+02  0.7818608E-02  0.1375020E+00
          2   -1    0    0  502    0  0.00000000000E+00  0.00000000000E+00  0.66628408767E+03  0.66628408767E+03  0.00000000000E+00 0. -1.
          1   -1    0    0  501    0 -0.00000000000E+00 -0.00000000000E+00 -0.56561569845E+02  0.56561569845E+02  0.00000000000E+00 0. -1.
          2    1    1    2  501    0  0.54052914903E+02  0.54892074087E+02  0.30350360576E+03  0.31312824228E+03  0.00000000000E+00 0. -1.
          1    1    1    2  502    0 -0.52124511642E+01  0.82539090966E+02  0.81125164147E+02  0.11584974511E+03  0.00000000000E+00 0. -1.
         22    1    1    2    0    0 -0.18922984960E+01 -0.29204707548E+02 -0.99241531001E+01  0.30902824326E+02  0.00000000000E+00 0. -1.
         22    1    1    2    0    0 -0.46948165242E+02 -0.10822645750E+03  0.23501790102E+03  0.26296484579E+03  0.00000000000E+00 0. -1.
</event>
<event>
 6    1  0.8017648E-006  0.7373684E+02  0.7818608E-02  0.1350777E+00
          2   -1    0    0  502    0  0.00000000000E+00  0.00000000000E+00  0.20445878810E+03  0.20445878810E+03  0.00000000000E+00 0.  1.
          1   -1    0    0  501    0 -0.00000000000E+00 -0.00000000000E+00 -0.65277427863E+02  0.65277427863E+02  0.00000000000E+00 0.  1.
          2    1    1    2  501    0 -0.15592084057E+02  0.28986624446E+02  0.88922924403E+02  0.94818900893E+02  0.00000000000E+00 0.  1.
          1    1    1    2  502    0  0.85424915725E+01 -0.29208919716E+02 -0.98441296330E+01  0.31985028396E+02  0.00000000000E+00 0.  1.
         22    1    1    2    0    0  0.36753103453E+02 -0.21867383733E+02 -0.25414043061E+02  0.49747830802E+02  0.00000000000E+00 0.  1.
         22    1    1    2    0    0 -0.29703510969E+02  0.22089679003E+02  0.85516608528E+02  0.93184455874E+02  0.00000000000E+00 0.  1.
</event>
<event>
 6    1  0.8017648E-006  0.2069657E+02  0.7818608E-02  0.1739656E+00
          2   -1    0    0  502    0  0.00000000000E+00  0.00000000000E+00  0.17065242952E+03  0.17065242952E+03  0.00000000000E+00 0.  1.
          1   -1    0    0  501    0 -0.00000000000E+00 -0.00000000000E+00 -0.54943806859E+02  0.54943806859E+02  0.00000000000E+00 0.  1.
          2    1    1    2  501    0 -0.17802029926E+02  0.98671490165E+01  0.41835905537E+02  0.46524358043E+02  0.00000000000E+00 0.  1.
          1    1    1    2  502    0  0.28422361651E+02  0.15189131852E+02 -0.21357976071E+00  0.32227100158E+02  0.00000000000E+00 0.  1.
         22    1    1    2    0    0 -0.18691090745E+02 -0.39838716363E+01 -0.32605160478E+02  0.37793181875E+02  0.00000000000E+00 0.  1.
         22    1    1    2    0    0  0.80707590197E+01 -0.21072409233E+02  0.10669145736E+03  0.10905159630E+03  0.00000000000E+00 0.  1.
</event>
<event>
 6    1  0.8017648E-006  0.4467923E+02  0.7818608E-02  0.1585849E+00
          2   -1    0    0  502    0  0.00000000000E+00  0.00000000000E+00  0.11050276189E+03  0.11050276189E+03  0.00000000000E+00 0.  1.
          1   -1    0    0  501    0 -0.00000000000E+00 -0.00000000000E+00 -0.99338824247E+02  0.99338824247E+02  0.00000000000E+00 0.  1.
          2    1    1    2  501    0 -0.14746390664E+02 -0.16021446152E+02  0.37322981591E+02  0.43210504849E+02  0.00000000000E+00 0.  1.
          1    1    1    2  502    0  0.94090637190E+01  0.38443810877E+02 -0.16766625300E+02  0.42983447963E+02  0.00000000000E+00 0.  1.
         22    1    1    2    0    0  0.10537941402E+02  0.14254616355E+00 -0.63722706556E+02  0.64588326029E+02  0.00000000000E+00 0.  1.
         22    1    1    2    0    0 -0.52006144567E+01 -0.22564910889E+02  0.54330287907E+02  0.59059307295E+02  0.00000000000E+00 0.  1.
</event>
<event>
 6    1  0.8017648E-006  0.6999651E+02  0.7818608E-02  0.1382884E+00
          2   -1    0    0  502    0  0.00000000000E+00  0.00000000000E+00  0.21214718555E+03  0.21214718555E+03  0.00000000000E+00 0. -1.
          1   -1    0    0  501    0 -0.00000000000E+00 -0.00000000000E+00 -0.92904855176E+02  0.92904855176E+02  0.00000000000E+00 0. -1.
          2    1    1    2  501    0  0.20808782184E+02  0.23079937202E+02  0.11840466286E+03  0.12241467683E+03  0.00000000000E+00 0. -1.
          1    1    1    2  502    0 -0.48233059859E+02  0.56727674359E+01 -0.93437685208E+01  0.49456186305E+02  0.00000000000E+00 0. -1.
         22    1    1    2    0    0  0.33153881513E+02  0.18949493085E+02  0.55345256472E+02  0.67241063061E+02  0.00000000000E+00 0. -1.
         22    1    1    2    0    0 -0.57296038385E+01 -0.47702197723E+02 -0.45163820435E+02  0.65940114529E+02  0.00000000000E+00 0. -1.
</event>
<event>
 6    1  0.8017648E-006  0.3756010E+02  0.7818608E-02  0.1551807E+00
          2   -1    0    0  502    0  0.00000000000E+00  0.00000000000E+00  0.36142946596E+03  0.36142946596E+03  0.00000000000E+00 0. -1.
          1   -1    0    0  501    0 -0.00000000000E+00 -0.00000000000E+00 -0.36393140685E+03  0.36393140685E+03  0.00000000000E+00 0.  1.
          2    1    1    2  501    0 -0.59607376620E+02  0.21914037764E+02  0.23373886676E+03  0.24221296876E+03  0.00000000000E+00 0. -1.
          1    1    1    2  502    0  0.53110513546E+02 -0.42590669618E+00 -0.32598581843E+03  0.33028421377E+03  0.00000000000E+00 0.  1.
         22    1    1    2    0    0  0.14895473389E+02 -0.23932351097E+01 -0.28792031075E+02  0.32505134290E+02  0.00000000000E+00 0. -1.
         22    1    1    2    0    0 -0.83986103145E+01 -0.19094895958E+02  0.11853704186E+03  0.12035855599E+03  0.00000000000E+00 0. -1.
</event>
<event>
 6    1  0.8017648E-006  0.3557917E+02  0.7818608E-02  0.1553567E+00
          2   -1    0    0  502    0  0.00000000000E+00  0.00000000000E+00  0.12472788160E+03  0.12472788160E+03  0.00000000000E+00 0. -1.
          1   -1    0    0  501    0 -0.00000000000E+00 -0.00000000000E+00 -0.17471533906E+03  0.17471533906E+03  0.00000000000E+00 0.  1.
          2    1    1    2  501    0  0.39184235864E+02  0.96495169847E+01  0.45442053084E+02  0.60774153279E+02  0.00000000000E+00 0. -1.
          1    1    1    2  502    0 -0.31638933519E+02 -0.38443050684E+02 -0.95269615202E+02  0.10749506891E+03  0.00000000000E+00 0.  1.
         22    1    1    2    0    0  0.11188862592E+02  0.20493803829E+02  0.61720452462E+02  0.65989399858E+02  0.00000000000E+00 0. -1.
         22    1    1    2    0    0 -0.18734164937E+02  0.82997298701E+01 -0.61880347801E+02  0.65184598609E+02  0.00000000000E+00 0.  1.
</event>
<event>
 6    1  0.8017648E-006  0.4802601E+02  0.7818608E-02  0.1471763E+00
          2   -1    0    0  502    0  0.00000000000E+00  0.00000000000E+00  0.61141784780E+02  0.61141784780E+02  0.00000000000E+00 0. -1.
          1   -1    0    0  501    0 -0.00000000000E+00 -0.00000000000E+00 -0.17929926603E+03  0.17929926603E+03  0.00000000000E+00 0.  1.
          2    1    1    2  501    0  0.18656052832E+02 -0.33466977628E+02  0.74682854481E+01  0.39036677451E+02  0.00000000000E+00 0. -1.
          1    1    1    2  502    0  0.20830491012E+02  0.89658743727E+01 -0.10971666347E+02  0.25192731521E+02  0.00000000000E+00 0.  1.
         22    1    1    2    0    0 -0.52717674051E+01 -0.16894869822E+02  0.22669410119E+02  0.28759873313E+02  0.00000000000E+00 0. -1.
         22    1    1    2    0    0 -0.34214776438E+02  0.41395973077E+02 -0.13732351047E+03  0.14745176853E+03  0.00000000000E+00 0.  1.
</event>
<event>
 6    1  0.8017648E-006  0.7838295E+02  0.7818608E-02  0.1445130E+00
          2   -1    0    0  502    0  0.00000000000E+00  0.00000000000E+00  0.18650948322E+03  0.18650948322E+03  0.00000000000E+00 0. -1.
          1   -1    0    0  501    0 -0.00000000000E+00 -0.00000000000E+00 -0.72723238722E+02  0.72723238722E+02  0.00000000000E+00 0. -1.
          2    1    1    2  501    0  0.20097404059E+02 -0.13753313822E+02  0.34410698500E+02  0.42156321735E+02  0.00000000000E+00 0. -1.
          1    1    1    2  502    0 -0.63608173054E+02  0.18135636758E+02 -0.44705800273E+00  0.66144545207E+02  0.00000000000E+00 0. -1.
         22    1    1    2    0    0 -0.12596653696E+02  0.32891912388E+01 -0.27029245941E+02  0.30001243299E+02  0.00000000000E+00 0. -1.
         22    1    1    2    0    0  0.56107422690E+02 -0.76715141749E+01  0.10685184995E+03  0.12093061171E+03  0.00000000000E+00 0. -1.
</event>
<event>
 6    1  0.8017648E-006  0.4925445E+02  0.7818608E-02  0.1450215E+00
          2   -1    0    0  502    0  0.00000000000E+00  0.00000000000E+00  0.83466255582E+02  0.83466255582E+02  0.00000000000E+00 0.  1.
          1   -1    0    0  501    0 -0.00000000000E+00 -0.00000000000E+00 -0.17527414891E+03  0.17527414891E+03  0.00000000000E+00 0. -1.
          2    1    1    2  501    0 -0.12802654619E+02  0.15747073231E+02  0.37337502570E+02  0.42496674915E+02  0.00000000000E+00 0.  1.
          1    1    1    2  502    0  0.14206591006E+02 -0.26624909766E+02 -0.79672195604E+02  0.85196078551E+02  0.00000000000E+00 0. -1.
         22    1    1    2    0    0 -0.78814325261E+01  0.26654515750E+02  0.35099632184E+02  0.44772361652E+02  0.00000000000E+00 0.  1.
         22    1    1    2    0    0  0.64774961395E+01 -0.15776679215E+02 -0.84572832479E+02  0.86275289375E+02  0.00000000000E+00 0.  1.
</event>
<event>
 6    1  0.8017648E-006  0.6572275E+02  0.7818608E-02  0.1426112E+00
          2   -1    0    0  502    0  0.00000000000E+00  0.00000000000E+00  0.65105051140E+02  0.65105051140E+02  0.00000000000E+00 0.  1.
          1   -1    0    0  501    0 -0.00000000000E+00 -0.00000000000E+00 -0.59467084287E+03  0.59467084287E+03  0.00000000000E+00 0.  1.
          2    1    1    2  501    0  0.39209675697E+02 -0.14271212435E+02  0.18534990680E+02  0.45657551973E+02  0.00000000000E+00 0.  1.
          1    1    1    2  502    0 -0.33289670553E+02  0.17865341467E+02 -0.46152612168E+03  0.46306990140E+03  0.00000000000E+00 0.  1.
         22    1    1    2    0    0  0.20584845486E+02  0.91228644053E+01  0.26176493322E+02  0.34527834008E+02  0.00000000000E+00 0. -1.
         22    1    1    2    0    0 -0.26504850630E+02 -0.12716993436E+02 -0.11275115405E+03  0.11652060663E+03  0.00000000000E+00 0.  1.
</event>
<event>
 6    1  0.8017648E-006  0.7591347E+02  0.7818608E-02  0.1341607E+00
          2   -1    0    0  502    0  0.00000000000E+00  0.00000000000E+00  0.16963669937E+03  0.16963669937E+03  0.00000000000E+00 0.  1.
          1   -1    0    0  501    0 -0.00000000000E+00 -0.00000000000E+00 -0.20289455838E+03  0.20289455838E+03  0.00000000000E+00 0. -1.
          2    1    1    2  501    0 -0.22129864782E+02 -0.53822347352E+02  0.10464169578E+03  0.11973495933E+03  0.00000000000E+00 0.  1.
          1    1    1    2  502    0  0.85089604661E+01  0.50535751507E+02 -0.11681120739E+03  0.12755831121E+03  0.00000000000E+00 0. -1.
         22    1    1    2    0    0  0.12892530308E+02  0.19590948753E+02 -0.69921449547E+02  0.73749791305E+02  0.00000000000E+00 0. -1.
         22    1    1    2    0    0  0.72837400744E+00 -0.16304352908E+02  0.48833102139E+02  0.51488195899E+02  0.00000000000E+00 0. -1.
</event>
<event>
 6    1  0.8017648E-006  0.5661384E+02  0.7818608E-02  0.1486806E+00
          2   -1    0    0  502    0  0.00000000000E+00  0.00000000000E+00  0.19244289876E+03  0.19244289876E+03  0.00000000000E+00 0.  1.
          1   -1    0    0  501    0 -0.00000000000E+00 -0.00000000000E+00 -0.11789006561E+03  0.11789006561E+03  0.00000000000E+00 0. -1.
          2    1    1    2  501    0 -0.39116603571E+01 -0.50166826700E+02  0.10770927576E+03  0.11888355510E+03  0.00000000000E+00 0.  1.
          1    1    1    2  502    0 -0.88108680749E+01  0.43406830434E+02  0.25796324197E+02  0.51256557304E+02  0.00000000000E+00 0. -1.
         22    1    1    2    0    0  0.95493419729E+01  0.16371202615E+02 -0.98020145712E+02  0.99835640793E+02  0.00000000000E+00 0. -1.
         22    1    1    2    0    0  0.31731864591E+01 -0.96112063483E+01  0.39067378903E+02  0.40357211178E+02  0.00000000000E+00 0.  1.
</event>
<event>
 6    1  0.8017648E-006  0.1123775E+03  0.7818608E-02  0.1304484E+00
          2   -1    0    0  502    0  0.00000000000E+00  0.00000000000E+00  0.45710118216E+03  0.45710118216E+03  0.00000000000E+00 0. -1.
          1   -1    0    0  501    0 -0.00000000000E+00 -0.00000000000E+00 -0.24787793773E+02  0.24787793773E+02  0.00000000000E+00 0. -1.
          2    1    1    2  501    0  0.15531038391E+02  0.16356762901E+02  0.92286374811E+01  0.24370568230E+02  0.00000000000E+00 0. -1.
          1    1    1    2  502    0  0.37537657355E+02 -0.14995897595E+02  0.13408490976E+03  0.14004540581E+03  0.00000000000E+00 0. -1.
         22    1    1    2    0    0  0.21081024552E+02  0.39607390189E+02  0.76166184554E+02  0.88399336102E+02  0.00000000000E+00 0. -1.
         22    1    1    2    0    0 -0.74149720299E+02 -0.40968255495E+02  0.21283365659E+03  0.22907366579E+03  0.00000000000E+00 0. -1.
</event>
<event>
 6    1  0.8017648E-006  0.6753203E+02  0.7818608E-02  0.1466889E+00
          2   -1    0    0  502    0  0.00000000000E+00  0.00000000000E+00  0.22465388127E+03  0.22465388127E+03  0.00000000000E+00 0. -1.
          1   -1    0    0  501    0 -0.00000000000E+00 -0.00000000000E+00 -0.45134682980E+03  0.45134682980E+03  0.00000000000E+00 0. -1.
          2    1    1    2  501    0  0.46027334608E+02  0.92608113358E+02  0.15699504564E+03  0.18799527267E+03  0.00000000000E+00 0. -1.
          1    1    1    2  502    0  0.60472483216E+01 -0.96215417430E+02 -0.33032328471E+03  0.34410383344E+03  0.00000000000E+00 0. -1.
         22    1    1    2    0    0 -0.49516484297E+01 -0.95386597570E+01  0.38418903707E+02  0.39893821754E+02  0.00000000000E+00 0.  1.
         22    1    1    2    0    0 -0.47122934500E+02  0.13145963828E+02 -0.91783613164E+02  0.10400778320E+03  0.00000000000E+00 0. -1.
</event>
<event>
 6    1  0.8017648E-006  0.5297148E+02  0.7818608E-02  0.1487921E+00
          2   -1    0    0  502    0  0.00000000000E+00  0.00000000000E+00  0.32454370562E+03  0.32454370562E+03  0.00000000000E+00 0.  1.
          1   -1    0    0  501    0 -0.00000000000E+00 -0.00000000000E+00 -0.90888767931E+02  0.90888767931E+02  0.00000000000E+00 0.  1.
          2    1    1    2  501    0  0.42197815110E+02  0.69585029197E+02  0.10838881709E+03  0.13553917352E+03  0.00000000000E+00 0.  1.
          1    1    1    2  502    0 -0.74761361090E+02 -0.75682539822E+02  0.47025289510E+01  0.10648578180E+03  0.00000000000E+00 0.  1.
         22    1    1    2    0    0  0.84055479011E+01 -0.89169880255E+01 -0.23531961199E+02  0.26531473929E+02  0.00000000000E+00 0.  1.
         22    1    1    2    0    0  0.24157998079E+02  0.15014498651E+02  0.14409555285E+03  0.14687604431E+03  0.00000000000E+00 0.  1.
</event>
<event>
 6    1  0.8017648E-006  0.3904645E+02  0.7818608E-02  0.1573251E+00
          2   -1    0    0  502    0  0.00000000000E+00  0.00000000000E+00  0.56466160525E+03  0.56466160525E+03  0.00000000000E+00 0. -1.
          1   -1    0    0  501    0 -0.00000000000E+00 -0.00000000000E+00 -0.32428132205E+02  0.32428132205E+02  0.00000000000E+00 0. -1.
          2    1    1    2  501    0 -0.36453329822E+02 -0.35534141091E+01  0.23527081329E+03  0.23810465681E+03  0.00000000000E+00 0. -1.
          1    1    1    2  502    0  0.11611156517E+02 -0.34362530745E+02  0.18430953303E+03  0.18784463378E+03  0.00000000000E+00 0. -1.
         22    1    1    2    0    0 -0.17978447959E+02  0.41400389547E+01 -0.20303094915E+02  0.27433194795E+02  0.00000000000E+00 0. -1.
         22    1    1    2    0    0  0.42820621265E+02  0.33775905899E+02  0.13295622164E+03  0.14370725207E+03  0.00000000000E+00 0. -1.
</event>
<event>
 6    1  0.8017648E-006  0.3790140E+02  0.7818608E-02  0.1596371E+00
          2   -1    0    0  502    0  0.00000000000E+00  0.00000000000E+00  0.15005795906E+03  0.15005795906E+03  0.00000000000E+00 0.  1.
          1   -1    0    0  501    0 -0.00000000000E+00 -0.00000000000E+00 -0.94176592977E+02  0.94176592977E+02  0.00000000000E+00 0. -1.
          2    1    1    2  501    0 -0.21076911730E+02  0.65036240245E+01  0.65348248309E+02  0.68970478399E+02  0.00000000000E+00 0.  1.
          1    1    1    2  502    0  0.24741093317E+02  0.67909360047E+01  0.32487470516E+02  0.41396548779E+02  0.00000000000E+00 0. -1.
         22    1    1    2    0    0 -0.18617360544E+02 -0.10628422581E+02  0.42743689827E+02  0.47818328079E+02  0.00000000000E+00 0.  1.
         22    1    1    2    0    0  0.14953178958E+02 -0.26661374481E+01 -0.84698042573E+02  0.86049196775E+02  0.00000000000E+00 0. -1.
</event>
<event>
 6    1  0.8017648E-006  0.4660416E+02  0.7818608E-02  0.1542905E+00
          2   -1    0    0  502    0  0.00000000000E+00  0.00000000000E+00  0.10866426699E+03  0.10866426699E+03  0.00000000000E+00 0.  1.
          1   -1    0    0  501    0 -0.00000000000E+00 -0.00000000000E+00 -0.12017054023E+03  0.12017054023E+03  0.00000000000E+00 0. -1.
          2    1    1    2  501    0  0.72360102717E+01  0.27566370936E+02  0.37261903914E+02  0.46911769680E+02  0.00000000000E+00 0.  1.
          1    1    1    2  502    0 -0.32491174655E+02 -0.29884632766E+02 -0.41554989804E+01  0.44340003133E+02  0.00000000000E+00 0. -1.
         22    1    1    2    0    0  0.13447294097E+02 -0.85903960789E+01 -0.88976720859E+02  0.90396247036E+02  0.00000000000E+00 0. -1.
         22    1    1    2    0    0  0.11807870286E+02  0.10908657909E+02  0.44364042688E+02  0.47186787364E+02  0.00000000000E+00 0.  1.
</event>
<event>
 6    1  0.8017648E-006  0.8823121E+02  0.7818608E-02  0.1313641E+00
          2   -1    0    0  502    0  0.00000000000E+00  0.00000000000E+00  0.16072291590E+03  0.16072291590E+03  0.00000000000E+00 0. -1.
          1   -1    0    0  501    0 -0.00000000000E+00 -0.00000000000E+00 -0.10377266059E+04  0.10377266059E+04  0.00000000000E+00 0. -1.
          2    1    1    2  501    0  0.92822178581E+02  0.61427210231E+02 -0.40892989361E+03  0.42380764137E+03  0.00000000000E+00 0. -1.
          1    1    1    2  502    0 -0.61756690783E+02 -0.53113853332E+02  0.13531578758E+03  0.15794091503E+03  0.00000000000E+00 0. -1.
         22    1    1    2    0    0  0.37621889623E+02  0.29674976700E+02 -0.26790364420E+03  0.27215505396E+03  0.00000000000E+00 0. -1.
         22    1    1    2    0    0 -0.68687377421E+02 -0.37988333599E+02 -0.33548593977E+03  0.34454591144E+03  0.00000000000E+00 0.  1.
</event>
<event>
 6    1  0.8017648E-006  0.8483242E+02  0.7818608E-02  0.1353602E+00
          2   -1    0    0  502    0  0.00000000000E+00  0.00000000000E+00  0.29205709063E+02  0.29205709063E+02  0.00000000000E+00 0. -1.
          1   -1    0    0  501    0 -0.00000000000E+00 -0.00000000000E+00 -0.84119909999E+03  0.84119909999E+03  0.00000000000E+00 0. -1.
          2    1    1    2  501    0 -0.31274966030E+02 -0.69671198639E+01 -0.40223096466E+02  0.51425302611E+02  0.00000000000E+00 0. -1.
          1    1    1    2  502    0  0.29893279966E+02 -0.17767108806E+02 -0.62114391755E+03  0.62211658446E+03  0.00000000000E+00 0. -1.
         22    1    1    2    0    0  0.43388303302E+02  0.12033108267E+02 -0.56368286319E+01  0.45377465718E+02  0.00000000000E+00 0. -1.
         22    1    1    2    0    0 -0.42006617239E+02  0.12701120403E+02 -0.14498954828E+03  0.15148545627E+03  0.00000000000E+00 0. -1.
</event>
<event>
 6    1  0.8017648E-006  0.5328754E+02  0.7818608E-02  0.1514714E+00
          2   -1    0    0  502    0  0.00000000000E+00  0.00000000000E+00  0.86592169536E+02  0.86592169536E+02  0.00000000000E+00 0. -1.
          1   -1    0    0  501    0 -0.00000000000E+00 -0.00000000000E+00 -0.21272604218E+03  0.21272604218E+03  0.00000000000E+00 0.  1.
          2    1    1    2  501    0 -0.47750682672E+02  0.13573212017E+02 -0.29468363931E+01  0.49729705658E+02  0.00000000000E+00 0. -1.
          1    1    1    2  502    0  0.65111245919E+02 -0.46870554623E+02 -0.80581388293E+02  0.11370876560E+03  0.00000000000E+00 0.  1.
         22    1    1    2    0    0 -0.32521933797E+02  0.30105408639E+02 -0.82186960909E+02  0.93374023961E+02  0.00000000000E+00 0.  1.
         22    1    1    2    0    0  0.15161370550E+02  0.31919339670E+01  0.39581312953E+02  0.42505716492E+02  0.00000000000E+00 0.  1.
</event>
<event>
 6    1  0.8017648E-006  0.6182051E+02  0.7818608E-02  0.1391241E+00
          2   -1    0    0  502    0  0.00000000000E+00  0.00000000000E+00  0.31885855075E+03  0.31885855075E+03  0.00000000000E+00 0. -1.
          1   -1    0    0  501    0 -0.00000000000E+00 -0.00000000000E+00 -0.10167953195E+03  0.10167953195E+03  0.00000000000E+00 0. -1.
          2    1    1    2  501    0 -0.29089507682E+02  0.49002132714E+01  0.20154763860E+03  0.20369502245E+03  0.00000000000E+00 0. -1.
          1    1    1    2  502    0  0.46220033242E+02 -0.87761085729E+01 -0.53881754428E+02  0.71530098664E+02  0.00000000000E+00 0. -1.
         22    1    1    2    0    0  0.10773547235E+02 -0.27275412829E+01 -0.35112359047E+02  0.36829153660E+02  0.00000000000E+00 0. -1.
         22    1    1    2    0    0 -0.27904072795E+02  0.66034365844E+01  0.10462549368E+03  0.10848380792E+03  0.00000000000E+00 0.  1.
</event>
<event>
 6    1  0.8017648E-006  0.5488608E+02  0.7818608E-02  0.1459729E+00
          2   -1    0    0  502    0  0.00000000000E+00  0.00000000000E+00  0.13330881569E+03  0.13330881569E+03  0.00000000000E+00 0. -1.
          1   -1    0    0  501    0 -0.00000000000E+00 -0.00000000000E+00 -0.18715274542E+03  0.18715274542E+03  0.00000000000E+00 0. -1.
          2    1    1    2  501    0 -0.23551020465E+02 -0.42761251769E+02  0.93534132387E+02  0.10550738903E+03  0.00000000000E+00 0. -1.
          1    1    1    2  502    0  0.20592790945E+02  0.22186912004E+02 -0.27941550140E+02  0.41195294967E+02  0.00000000000E+00 0. -1.
         22    1    1    2    0    0 -0.95644811420E-01  0.30602334447E+02 -0.14391370046E+03  0.14713145551E+03  0.00000000000E+00 0. -1.
         22    1    1    2    0    0  0.30538743310E+01 -0.10027994683E+02  0.24477188483E+02  0.26627421614E+02  0.00000000000E+00 0. -1.
</event>
<event>
 6    1  0.8017648E-006  0.5939191E+02  0.7818608E-02  0.1485964E+00
          2   -1    0    0  502    0  0.00000000000E+00  0.00000000000E+00  0.78064473894E+03  0.78064473894E+03  0.00000000000E+00 0. -1.
          1   -1    0    0  501    0 -0.00000000000E+00 -0.00000000000E+00 -0.43034133274E+02  0.43034133274E+02  0.00000000000E+00 0. -1.
          2    1    1    2  501    0 -0.67991539779E+02 -0.36471298821E+02  0.47835160777E+03  0.48453407081E+03  0.00000000000E+00 0. -1.
          1    1    1    2  502    0  0.46577281173E+02  0.67812216054E+02  0.68175566931E+02  0.10684497037E+03  0.00000000000E+00 0. -1.
         22    1    1    2    0    0  0.84978362013E+01  0.75345639568E+01 -0.16877320345E+02  0.20342733743E+02  0.00000000000E+00 0. -1.
         22    1    1    2    0    0  0.12916422404E+02 -0.38875481190E+02  0.20796075131E+03  0.21195709729E+03  0.00000000000E+00 0.  1.
</event>
<event>
 6    1  0.8017648E-006  0.2478812E+02  0.7818608E-02  0.1688754E+00
          2   -1    0    0  502    0  0.00000000000E+00  0.00000000000E+00  0.12386676475E+04  0.12386676475E+04  0.00000000000E+00 0.  1.
          1   -1    0    0  501    0 -0.00000000000E+00 -0.00000000000E+00 -0.99052209797E+02  0.99052209797E+02  0.00000000000E+00 0.  1.
          2    1    1    2  501    0 -0.10130159710E+02 -0.28516016283E+02  0.11364166650E+04  0.11368195195E+04  0.00000000000E+00 0.  1.
          1    1    1    2  502    0 -0.14136670365E+02  0.21110658309E+02 -0.54342674393E+02  0.59988595612E+02  0.00000000000E+00 0.  1.
         22    1    1    2    0    0  0.17504238735E+02 -0.47138960274E+01  0.97209851740E+02  0.98885663596E+02  0.00000000000E+00 0.  1.
         22    1    1    2    0    0  0.67625913398E+01  0.12119254001E+02 -0.39668404640E+02  0.42026078640E+02  0.00000000000E+00 0. -1.
</event>
<event>
 6    1  0.8017648E-006  0.2646181E+03  0.7818608E-02  0.1169035E+00
          2   -1    0    0  502    0  0.00000000000E+00  0.00000000000E+00  0.15105623077E+03  0.15105623077E+03  0.00000000000E+00 0. -1.
          1   -1    0    0  501    0 -0.00000000000E+00 -0.00000000000E+00 -0.72572840325E+03  0.72572840325E+03  0.00000000000E+00 0. -1.
          2    1    1    2  501    0 -0.85855516610E+02 -0.13660329152E+03 -0.88044159267E+02  0.18380261959E+03  0.00000000000E+00 0. -1.
          1    1    1    2  502    0  0.12230684511E+03  0.22134707838E+03 -0.47677521544E+03  0.53969259725E+03  0.00000000000E+00 0. -1.
         22    1    1    2    0    0  0.14365243128E+02 -0.63508515801E+02  0.42132017829E+02  0.77555133394E+02  0.00000000000E+00 0. -1.
         22    1    1    2    0    0 -0.50816571624E+02 -0.21235271060E+02 -0.51984815598E+02  0.75734283791E+02  0.00000000000E+00 0.  1.
</event>
<event>
 6    1  0.8017648E-006  0.1194168E+03  0.7818608E-02  0.1256162E+00
          2   -1    0    0  502    0  0.00000000000E+00  0.00000000000E+00  0.46505820453E+03  0.46505820453E+03  0.00000000000E+00 0. -1.
          1   -1    0    0  501    0 -0.00000000000E+00 -0.00000000000E+00 -0.18605123905E+03  0.18605123905E+03  0.00000000000E+00 0. -1.
          2    1    1    2  501    0  0.12228796487E+03 -0.47055547317E+01  0.32386740268E+03  0.34621753728E+03  0.00000000000E+00 0. -1.
          1    1    1    2  502    0  0.20776474470E+01  0.38083667540E+02  0.76752791964E+02  0.85706904194E+02  0.00000000000E+00 0. -1.
         22    1    1    2    0    0  0.11003523825E+02 -0.29717574834E+01  0.18674607176E+02  0.21878067380E+02  0.00000000000E+00 0. -1.
         22    1    1    2    0    0 -0.13536913614E+03 -0.30406355325E+02 -0.14028783635E+03  0.19730693473E+03  0.00000000000E+00 0. -1.
</event>
<event>
 6    1  0.8017648E-006  0.4546398E+02  0.7818608E-02  0.1505655E+00
          2   -1    0    0  502    0  0.00000000000E+00  0.00000000000E+00  0.11220550222E+03  0.11220550222E+03  0.00000000000E+00 0. -1.
          1   -1    0    0  501    0 -0.00000000000E+00 -0.00000000000E+00 -0.18918994247E+03  0.18918994247E+03  0.00000000000E+00 0.  1.
          2    1    1    2  501    0  0.25478291542E+02  0.21803371728E+02  0.66322607693E+02  0.74318360112E+02  0.00000000000E+00 0. -1.
          1    1    1    2  502    0 -0.33109850500E+02 -0.34933915062E+01 -0.86276549571E+02  0.92477613454E+02  0.00000000000E+00 0.  1.
         22    1    1    2    0    0  0.15973521571E+00 -0.28206351127E+02 -0.92668227114E+02  0.96866010942E+02  0.00000000000E+00 0.  1.
         22    1    1    2    0    0  0.74718237422E+01  0.98963709052E+01  0.35637728742E+02  0.37733460178E+02  0.00000000000E+00 0.  1.
</event>
<event>
 6    1  0.8017648E-006  0.1449999E+03  0.7818608E-02  0.1263944E+00
          2   -1    0    0  502    0  0.00000000000E+00  0.00000000000E+00  0.15996519390E+03  0.15996519390E+03  0.00000000000E+00 0.  1.
          1   -1    0    0  501    0 -0.00000000000E+00 -0.00000000000E+00 -0.47432852166E+03  0.47432852166E+03  0.00000000000E+00 0.  1.
          2    1    1    2  501    0 -0.11298406733E+01  0.11473248680E+03  0.86851854921E+02  0.14390296999E+03  0.00000000000E+00 0.  1.
          1    1    1    2  502    0 -0.46947451748E+02 -0.11085659261E+03 -0.30464951220E+03  0.32757376670E+03  0.00000000000E+00 0.  1.
         22    1    1    2    0    0  0.71646970382E+01 -0.22505283337E+02 -0.11262912737E+03  0.11507884685E+03  0.00000000000E+00 0.  1.
         22    1    1    2    0    0  0.40912595383E+02  0.18629389144E+02  0.16063456880E+02  0.47738132010E+02  0.00000000000E+00 0. -1.
</event>
<event>
 6    1  0.8017648E-006  0.3395284E+02  0.7818608E-02  0.1590276E+00
          2   -1    0    0  502    0  0.00000000000E+00  0.00000000000E+00  0.17972467334E+03  0.17972467334E+03  0.00000000000E+00 0.  1.
          1   -1    0    0  501    0 -0.00000000000E+00 -0.00000000000E+00 -0.24491273786E+03  0.24491273786E+03  0.00000000000E+00 0.  1.
          2    1    1    2  501    0 -0.98786946727E+01  0.17608327816E+02  0.13633409224E+03  0.13782099449E+03  0.00000000000E+00 0.  1.
          1    1    1    2  502    0 -0.93659662380E+01 -0.24975301578E+02 -0.13864557074E+03  0.14118810608E+03  0.00000000000E+00 0.  1.
         22    1    1    2    0    0  0.22356365757E+02 -0.42165815957E+01 -0.10210414088E+03  0.10460804097E+03  0.00000000000E+00 0. -1.
         22    1    1    2    0    0 -0.31117048468E+01  0.11583555358E+02  0.39227554870E+02  0.41020269659E+02  0.00000000000E+00 0.  1.
</event>
<event>
 6    1  0.8017648E-006  0.3784962E+02  0.7818608E-02  0.1525444E+00
          2   -1    0    0  502    0  0.00000000000E+00  0.00000000000E+00  0.15517881993E+03  0.15517881993E+03  0.00000000000E+00 0. -1.
          1   -1    0    0  501    0 -0.00000000000E+00 -0.00000000000E+00 -0.15537091311E+03  0.15537091311E+03  0.00000000000E+00 0.  1.
          2    1    1    2  501    0  0.19652589385E+02  0.16132587898E+02  0.10386371344E+03  0.10693061129E+03  0.00000000000E+00 0. -1.
          1    1    1    2  502    0 -0.19077719294E+02 -0.11306502505E+02 -0.73879229624E+02  0.77135834358E+02  0.00000000000E+00 0.  1.
         22    1    1    2    0    0 -0.12882610230E+02 -0.63158350414E+01 -0.76856948246E+02  0.78184665455E+02  0.00000000000E+00 0.  1.
         22    1    1    2    0    0  0.12307740138E+02  0.14897496492E+01  0.46680371245E+02  0.48298621936E+02  0.00000000000E+00 0. -1.
</event>
<event>
 6    1  0.8017648E-006  0.1064931E+03  0.7818608E-02  0.1357120E+00
          2   -1    0    0  502    0  0.00000000000E+00  0.00000000000E+00  0.54314734762E+03  0.54314734762E+03  0.00000000000E+00 0. -1.
          1   -1    0    0  501    0 -0.00000000000E+00 -0.00000000000E+00 -0.54948408073E+02  0.54948408073E+02  0.00000000000E+00 0.  1.
          2    1    1    2  501    0  0.45451170633E+02 -0.26362694955E+02  0.22494752688E+03  0.23100257671E+03  0.00000000000E+00 0. -1.
          1    1    1    2  502    0 -0.10729831696E+03  0.34319887815E+02  0.89372270845E+02  0.14379911793E+03  0.00000000000E+00 0.  1.
         22    1    1    2    0    0  0.50213502273E+02  0.94073826484E+01  0.19009488869E+03  0.19683993844E+03  0.00000000000E+00 0.  1.
         22    1    1    2    0    0  0.11633644057E+02 -0.17364575509E+02 -0.16215746867E+02  0.26454122611E+02  0.00000000000E+00 0.  1.
</event>
<event>
 6    1  0.8017648E-006  0.7480953E+02  0.7818608E-02  0.1412552E+00
          2   -1    0    0  502    0  0.00000000000E+00  0.00000000000E+00  0.20920377705E+03  0.20920377705E+03  0.00000000000E+00 0.  1.
          1   -1    0    0  501    0 -0.00000000000E+00 -0.00000000000E+00 -0.19753036503E+03  0.19753036503E+03  0.00000000000E+00 0.  1.
          2    1    1    2  501    0 -0.68893433286E+02 -0.12624761818E+03  0.40053249914E+02  0.14929510733E+03  0.00000000000E+00 0.  1.
          1    1    1    2  502    0  0.88636319753E+02  0.79326457454E+02 -0.20196577625E+02  0.12065233433E+03  0.00000000000E+00 0.  1.
         22    1    1    2    0    0  0.63320304575E+01  0.12743222402E+02 -0.64435925761E+02  0.65988429710E+02  0.00000000000E+00 0.  1.
         22    1    1    2    0    0 -0.26074916925E+02  0.34177938321E+02  0.56252665491E+02  0.70798270709E+02  0.00000000000E+00 0.  1.
</event>
<event>
 6    1  0.8017648E-006  0.1246624E+03  0.7818608E-02  0.1320186E+00
          2   -1    0    0  502    0  0.00000000000E+00  0.00000000000E+00  0.95582470770E+03  0.95582470770E+03  0.00000000000E+00 0. -1.
          1   -1    0    0  501    0 -0.00000000000E+00 -0.00000000000E+00 -0.23391616918E+02  0.23391616918E+02  0.00000000000E+00 0.  1.
          2    1    1    2  501    0 -0.24212250869E+02  0.10968399461E+02  0.19428182325E+03  0.19609172784E+03  0.00000000000E+00 0. -1.
          1    1    1    2  502    0  0.10909666124E+03  0.25568630508E+01  0.24213686388E+03  0.26559156592E+03  0.00000000000E+00 0.  1.
         22    1    1    2    0    0 -0.10232734585E+03  0.40241463356E+01  0.47225019042E+03  0.48322595317E+03  0.00000000000E+00 0. -1.
         22    1    1    2    0    0  0.17442935484E+02 -0.17549408847E+02  0.23764213226E+02  0.34307077687E+02  0.00000000000E+00 0.  1.
</event>
<event>
 6    1  0.8017648E-006  0.3499901E+02  0.7818608E-02  0.1551729E+00
          2   -1    0    0  502    0  0.00000000000E+00  0.00000000000E+00  0.92120037249E+03  0.92120037249E+03  0.00000000000E+00 0. -1.
          1   -1    0    0  501    0 -0.00000000000E+00 -0.00000000000E+00 -0.10966111561E+03  0.10966111561E+03  0.00000000000E+00 0.  1.
          2    1    1    2  501    0 -0.40463355976E+02  0.81035334254E+02  0.82501266359E+03  0.82996982093E+03  0.00000000000E+00 0. -1.
          1    1    1    2  502    0  0.12444452256E+02 -0.71421255847E+02 -0.11020512389E+02  0.73330156634E+02  0.00000000000E+00 0.  1.
         22    1    1    2    0    0  0.13908232001E+02 -0.42094599894E+01  0.60808452920E+02  0.62520607941E+02  0.00000000000E+00 0. -1.
         22    1    1    2    0    0  0.14110671720E+02 -0.54046184173E+01 -0.63261347237E+02  0.65040902599E+02  0.00000000000E+00 0. -1.
</event>
<event>
 6    1  0.8017648E-006  0.2316852E+03  0.7818608E-02  0.1260140E+00
          2   -1    0    0  502    0  0.00000000000E+00  0.00000000000E+00  0.26909560645E+03  0.26909560645E+03  0.00000000000E+00 0. -1.
          1   -1    0    0  501    0 -0.00000000000E+00 -0.00000000000E+00 -0.21854502605E+03  0.21854502605E+03  0.00000000000E+00 0.  1.
          2    1    1    2  501    0  0.31593035772E+02 -0.14369519973E+02  0.34327110851E+01  0.34876733203E+02  0.00000000000E+00 0. -1.
          1    1    1    2  502    0 -0.14982980641E+03  0.16225186311E+03 -0.89103010023E+01  0.22102948092E+03  0.00000000000E+00 0.  1.
         22    1    1    2    0    0 -0.48303862611E+01  0.10845399111E+02 -0.14610731536E+02  0.18826279221E+02  0.00000000000E+00 0.  1.
         22    1    1    2    0    0  0.12306715690E+03 -0.15872774225E+03  0.70638901853E+02  0.21290813916E+03  0.00000000000E+00 0. -1.
</event>
<event>
 6    1  0.8017648E-006  0.1230655E+03  0.7818608E-02  0.1306649E+00
          2   -1    0    0  502    0  0.00000000000E+00  0.00000000000E+00  0.14908472342E+03  0.14908472342E+03  0.00000000000E+00 0.  1.
          1   -1    0    0  501    0 -0.00000000000E+00 -0.00000000000E+00 -0.23600059230E+03  0.23600059230E+03  0.00000000000E+00 0.  1.
          2    1    1    2  501    0  0.47521768380E+02 -0.12990911368E+02  0.13645346398E+02  0.51120228154E+02  0.00000000000E+00 0.  1.
          1    1    1    2  502    0 -0.12337959377E+03 -0.73087232642E+01  0.40095859744E+02  0.12993698305E+03  0.00000000000E+00 0.  1.
         22    1    1    2    0    0  0.48169289325E+02  0.37954693484E+02 -0.18118783292E+01  0.61352441635E+02  0.00000000000E+00 0. -1.
         22    1    1    2    0    0  0.27688536064E+02 -0.17655058852E+02 -0.13884519669E+03  0.14267566288E+03  0.00000000000E+00 0.  1.
</event>
<event>
 6    1  0.8017648E-006  0.7129320E+02  0.7818608E-02  0.1404924E+00
          2   -1    0    0  502    0  0.00000000000E+00  0.00000000000E+00  0.80037841849E+03  0.80037841849E+03  0.00000000000E+00 0.  1.
          1   -1    0    0  501    0 -0.00000000000E+00 -0.00000000000E+00 -0.40445218596E+02  0.40445218596E+02  0.00000000000E+00 0.  1.
          2    1    1    2  501    0 -0.16220555660E+02  0.47896222152E+02  0.21628699851E+03  0.22211983308E+03  0.00000000000E+00 0.  1.
          1    1    1    2  502    0  0.43321983625E+02 -0.57053001423E+02  0.45557319438E+03  0.46117109046E+03  0.00000000000E+00 0.  1.
         22    1    1    2    0    0 -0.29512445467E+02 -0.12299566735E+02 -0.26138938414E+02  0.41297795107E+02  0.00000000000E+00 0. -1.
         22    1    1    2    0    0  0.24110175014E+01  0.21456346005E+02  0.11421194542E+03  0.11623491845E+03  0.00000000000E+00 0. -1.
</event>
<event>
 6    1  0.8017648E-006  0.1573491E+03  0.7818608E-02  0.1294965E+00
          2   -1    0    0  502    0  0.00000000000E+00  0.00000000000E+00  0.61375215625E+03  0.61375215625E+03  0.00000000000E+00 0. -1.
          1   -1    0    0  501    0 -0.00000000000E+00 -0.00000000000E+00 -0.13234374181E+03  0.13234374181E+03  0.00000000000E+00 0. -1.
          2    1    1    2  501    0  0.13837427838E+03  0.11684561850E+02  0.44693758984E+03  0.46801408004E+03  0.00000000000E+00 0. -1.
          1    1    1    2  502    0 -0.13706913914E+03 -0.28908942939E+02 -0.20078045273E+02  0.14151609021E+03  0.00000000000E+00 0. -1.
         22    1    1    2    0    0 -0.17969177026E+02  0.75267626486E+01 -0.37639650226E+02  0.42382623185E+02  0.00000000000E+00 0. -1.
         22    1    1    2    0    0  0.16664037782E+02  0.96976184402E+01  0.92188520105E+02  0.94183104630E+02  0.00000000000E+00 0. -1.
</event>
<event>
 6    1  0.8017648E-006  0.1267519E+03  0.7818608E-02  0.1235408E+00
          2   -1    0    0  502    0  0.00000000000E+00  0.00000000000E+00  0.81084389684E+02  0.81084389684E+02  0.00000000000E+00 0.  1.
          1   -1    0    0  501    0 -0.00000000000E+00 -0.00000000000E+00 -0.42092891966E+03  0.42092891966E+03  0.00000000000E+00 0.  1.
          2    1    1    2  501    0 -0.62003210322E+02 -0.74549951459E+02  0.62169332902E+01  0.97163489091E+02  0.00000000000E+00 0.  1.
          1    1    1    2  502    0  0.59286368154E+02  0.19997842624E+02 -0.16433419382E+03  0.17584229985E+03  0.00000000000E+00 0.  1.
         22    1    1    2    0    0  0.21061248316E+02  0.60284789059E+02 -0.19530258467E+03  0.20547732613E+03  0.00000000000E+00 0.  1.
         22    1    1    2    0    0 -0.18344406148E+02 -0.57326802241E+01  0.13575315221E+02  0.23530194279E+02  0.00000000000E+00 0.  1.
</event>
<event>
 6    1  0.8017648E-006  0.7491429E+02  0.7818608E-02  0.1424554E+00
          2   -1    0    0  502    0  0.00000000000E+00  0.00000000000E+00  0.49149384760E+03  0.49149384760E+03  0.00000000000E+00 0. -1.
          1   -1    0    0  501    0 -0.00000000000E+00 -0.00000000000E+00 -0.32791961545E+02  0.32791961545E+02  0.00000000000E+00 0. -1.
          2    1    1    2  501    0 -0.22163359486E+01 -0.21599960400E+02  0.70595154990E+02  0.73858962505E+02  0.00000000000E+00 0. -1.
          1    1    1    2  502    0  0.10734324740E+02  0.88115884530E+02  0.15433101312E+03  0.17803846900E+03  0.00000000000E+00 0. -1.
         22    1    1    2    0    0 -0.26784084945E+01 -0.20150752970E+02 -0.11053704887E+02  0.23138952203E+02  0.00000000000E+00 0. -1.
         22    1    1    2    0    0 -0.58395802973E+01 -0.46365171160E+02  0.24482942283E+03  0.24924942543E+03  0.00000000000E+00 0. -1.
</event>
<event>
 6    1  0.8017648E-006  0.6195673E+02  0.7818608E-02  0.1460609E+00
          2   -1    0    0  502    0  0.00000000000E+00  0.00000000000E+00  0.56359305306E+03  0.56359305306E+03  0.00000000000E+00 0. -1.
          1   -1    0    0  501    0 -0.00000000000E+00 -0.00000000000E+00 -0.63940768987E+02  0.63940768987E+02  0.00000000000E+00 0. -1.
          2    1    1    2  501    0 -0.36451719114E+02  0.41128643016E+02  0.39577125301E+03  0.39956873978E+03  0.00000000000E+00 0. -1.
          1    1    1    2  502    0 -0.12197030110E+02 -0.64431882089E+02  0.17026286325E+02  0.67750493718E+02  0.00000000000E+00 0. -1.
         22    1    1    2    0    0  0.68952554920E+02  0.28685204743E+02  0.40541677774E+01  0.74791256691E+02  0.00000000000E+00 0.  1.
         22    1    1    2    0    0 -0.20303805695E+02 -0.53819656692E+01  0.82800576968E+02  0.85423331861E+02  0.00000000000E+00 0.  1.
</event>
<event>
 6    1  0.8017648E-006  0.2886917E+02  0.7818608E-02  0.1616321E+00
          2   -1    0    0  502    0  0.00000000000E+00  0.00000000000E+00  0.48250647979E+03  0.48250647979E+03  0.00000000000E+00 0.  1.
          1   -1    0    0  501    0 -0.00000000000E+00 -0.00000000000E+00 -0.73544838307E+02  0.73544838307E+02  0.00000000000E+00 0.  1.
          2    1    1    2  501    0 -0.35989677195E+02 -0.45312171206E+02  0.35430501408E+03  0.35899929349E+03  0.00000000000E+00 0.  1.
          1    1    1    2  502    0  0.19042268365E+02  0.48662518793E+02  0.38576282891E+02  0.64952123302E+02  0.00000000000E+00 0.  1.
         22    1    1    2    0    0  0.71989839826E+01 -0.11828465431E+02  0.72709217727E+02  0.74016000346E+02  0.00000000000E+00 0.  1.
         22    1    1    2    0    0  0.97484248471E+01  0.84781178441E+01 -0.56628873215E+02  0.58083900960E+02  0.00000000000E+00 0.  1.
</event>
<event>
 6    1  0.8017648E-006  0.9754481E+02  0.7818608E-02  0.1402847E+00
          2   -1    0    0  502    0  0.00000000000E+00  0.00000000000E+00  0.90182924071E+02  0.90182924071E+02  0.00000000000E+00 0.  1.
          1   -1    0    0  501    0 -0.00000000000E+00 -0.00000000000E+00 -0.18630695752E+03  0.18630695752E+03  0.00000000000E+00 0. -1.
          2    1    1    2  501    0 -0.18730403023E+02 -0.35601812291E+02  0.38419267179E+01  0.40411352819E+02  0.00000000000E+00 0.  1.
          1    1    1    2  502    0  0.62648620529E+02  0.15031026518E+02 -0.82728695794E+02  0.10485618017E+03  0.00000000000E+00 0. -1.
         22    1    1    2    0    0 -0.47217141594E+01 -0.12002541521E+02 -0.62038828660E+02  0.63365383681E+02  0.00000000000E+00 0. -1.
         22    1    1    2    0    0 -0.39196503347E+02  0.32573327294E+02  0.44801564286E+02  0.67856964920E+02  0.00000000000E+00 0.  1.
</event>
<event>
 6    1  0.8017648E-006  0.5293955E+02  0.7818608E-02  0.1439069E+00
          2   -1    0    0  502    0  0.00000000000E+00  0.00000000000E+00  0.92100777250E+02  0.92100777250E+02  0.00000000000E+00 0.  1.
          1   -1    0    0  501    0 -0.00000000000E+00 -0.00000000000E+00 -0.35102344321E+03  0.35102344321E+03  0.00000000000E+00 0.  1.
          2    1    1    2  501    0 -0.32305963077E+02  0.97843812589E+01  0.56453072160E+02  0.65775061560E+02  0.00000000000E+00 0.  1.
          1    1    1    2  502    0 -0.11644763024E+02 -0.28333379950E+02  0.49216795185E+01  0.31025857838E+02  0.00000000000E+00 0.  1.
         22    1    1    2    0    0  0.54757282294E+02  0.17454322521E+02 -0.32800672378E+03  0.33300363989E+03  0.00000000000E+00 0.  1.
         22    1    1    2    0    0 -0.10806556193E+02  0.10946761698E+01  0.77093061359E+01  0.13319661173E+02  0.00000000000E+00 0. -1.
</event>
<event>
 6    1  0.8017648E-006  0.6810447E+02  0.7818608E-02  0.1408754E+00
          2   -1    0    0  502    0  0.00000000000E+00  0.00000000000E+00  0.29210140200E+03  0.29210140200E+03  0.00000000000E+00 0. -1.
          1   -1    0    0  501    0 -0.00000000000E+00 -0.00000000000E+00 -0.50761278220E+02  0.50761278220E+02  0.00000000000E+00 0. -1.
          2    1    1    2  501    0  0.29961804769E+02  0.41678280675E+02  0.12759013016E+03  0.13752828851E+03  0.00000000000E+00 0. -1.
          1    1    1    2  502    0 -0.32399473404E+02 -0.30937609948E+02  0.30291917926E+02  0.54078293961E+02  0.00000000000E+00 0. -1.
         22    1    1    2    0    0  0.23352510402E+01  0.23799292011E+02  0.10688063132E+03  0.10952318955E+03  0.00000000000E+00 0. -1.
         22    1    1    2    0    0  0.10241759418E+00 -0.34539962738E+02 -0.23422555625E+02  0.41732908206E+02  0.00000000000E+00 0.  1.
</event>
<event>
 6    1  0.8017648E-006  0.1390835E+03  0.7818608E-02  0.1312657E+00
          2   -1    0    0  502    0  0.00000000000E+00  0.00000000000E+00  0.42726750253E+03  0.42726750253E+03  0.00000000000E+00 0.  1.
          1   -1    0    0  501    0 -0.00000000000E+00 -0.00000000000E+00 -0.39001380201E+03  0.39001380201E+03  0.00000000000E+00 0. -1.
          2    1    1    2  501    0  0.13335401715E+03 -0.26389752425E+02  0.37355272703E+03  0.39751899678E+03  0.00000000000E+00 0.  1.
          1    1    1    2  502    0 -0.97645733818E+02  0.35789338071E+02 -0.22198008971E+03  0.24513409856E+03  0.00000000000E+00 0. -1.
         22    1    1    2    0    0 -0.25922314609E+02  0.84976383233E+01 -0.13954533659E+03  0.14218676878E+03  0.00000000000E+00 0. -1.
         22    1    1    2    0    0 -0.97859687251E+01 -0.17897223970E+02  0.25226399785E+02  0.32441440409E+02  0.00000000000E+00 0.  1.
</event>
<event>
 6    1  0.8017648E-006  0.4706555E+02  0.7818608E-02  0.1510085E+00
          2   -1    0    0  502    0  0.00000000000E+00  0.00000000000E+00  0.26157201137E+03  0.26157201137E+03  0.00000000000E+00 0. -1.
          1   -1    0    0  501    0 -0.00000000000E+00 -0.00000000000E+00 -0.10356385458E+03  0.10356385458E+03  0.00000000000E+00 0. -1.
          2    1    1    2  501    0  0.20261919166E+02 -0.60225149570E+02  0.13662995793E+03  0.15068297652E+03  0.00000000000E+00 0. -1.
          1    1    1    2  502    0 -0.42021644247E+02  0.58209964977E+02 -0.25400993488E+02  0.76153982680E+02  0.00000000000E+00 0. -1.
         22    1    1    2    0    0 -0.38441465606E+01 -0.14965661192E+02  0.86620312891E+02  0.87987653015E+02  0.00000000000E+00 0. -1.
         22    1    1    2    0    0  0.25603871642E+02  0.16980845785E+02 -0.39841120536E+02  0.50311253733E+02  0.00000000000E+00 0. -1.
</event>
<event>
 6    1  0.8017648E-006  0.7273489E+02  0.7818608E-02  0.1435431E+00
          2   -1    0    0  502    0  0.00000000000E+00  0.00000000000E+00  0.19445862163E+03  0.19445862163E+03  0.00000000000E+00 0. -1.
          1   -1    0    0  501    0 -0.00000000000E+00 -0.00000000000E+00 -0.18805001913E+03  0.18805001913E+03  0.00000000000E+00 0. -1.
          2    1    1    2  501    0  0.63403633075E+02 -0.80300133355E+02  0.73554840588E+02  0.12600970866E+03  0.00000000000E+00 0. -1.
          1    1    1    2  502    0 -0.89957163148E+02  0.30057173331E+02 -0.76948328573E+02  0.12213423001E+03  0.00000000000E+00 0. -1.
         22    1    1    2    0    0  0.13344243916E+02  0.70839436399E+00  0.60682286490E+02  0.62136225842E+02  0.00000000000E+00 0.  1.
         22    1    1    2    0    0  0.13209286157E+02  0.49534565659E+02 -0.50880195998E+02  0.72228476244E+02  0.00000000000E+00 0. -1.
</event>
<event>
 6    1  0.8017648E-006  0.2635094E+03  0.7818608E-02  0.1223639E+00
          2   -1    0    0  502    0  0.00000000000E+00  0.00000000000E+00  0.11989279859E+04  0.11989279859E+04  0.00000000000E+00 0.  1.
          1   -1    0    0  501    0 -0.00000000000E+00 -0.00000000000E+00 -0.73613078268E+02  0.73613078268E+02  0.00000000000E+00 0. -1.
          2    1    1    2  501    0 -0.47147576005E+02  0.65110785051E+01  0.83546580356E+03  0.83682040904E+03  0.00000000000E+00 0.  1.
          1    1    1    2  502    0  0.11446600877E+03  0.78543248831E+02  0.57709099556E+02  0.15033911425E+03  0.00000000000E+00 0. -1.
         22    1    1    2    0    0 -0.76595633600E+02 -0.99179304358E+02  0.23674610162E+03  0.26786590326E+03  0.00000000000E+00 0.  1.
         22    1    1    2    0    0  0.92772008321E+01  0.14124977022E+02 -0.46060970911E+01  0.17515637629E+02  0.00000000000E+00 0. -1.
</event>
<event>
 6    1  0.8017648E-006  0.1565289E+03  0.7818608E-02  0.1224440E+00
          2   -1    0    0  502    0  0.00000000000E+00  0.00000000000E+00  0.91753122653E+02  0.91753122653E+02  0.00000000000E+00 0. -1.
          1   -1    0    0  501    0 -0.00000000000E+00 -0.00000000000E+00 -0.58265702191E+03  0.58265702191E+03  0.00000000000E+00 0. -1.
          2    1    1    2  501    0 -0.16301019570E+02  0.12562254765E+03 -0.19696308712E+03  0.23418199206E+03  0.00000000000E+00 0. -1.
          1    1    1    2  502    0 -0.26949564786E+02 -0.13956830344E+03 -0.28095213298E+02  0.14489627799E+03  0.00000000000E+00 0. -1.
         22    1    1    2    0    0 -0.35806922575E+02  0.20016103604E+02 -0.46048964351E+02  0.61670797186E+02  0.00000000000E+00 0.  1.
         22    1    1    2    0    0  0.79057506931E+02 -0.60703478165E+01 -0.21979663449E+03  0.23366107733E+03  0.00000000000E+00 0. -1.
</event>
<event>
 6    1  0.8017648E-006  0.6642803E+02  0.7818608E-02  0.1416220E+00
          2   -1    0    0  502    0  0.00000000000E+00  0.00000000000E+00  0.50324594401E+02  0.50324594401E+02  0.00000000000E+00 0. -1.
          1   -1    0    0  501    0 -0.00000000000E+00 -0.00000000000E+00 -0.35666960971E+03  0.35666960971E+03  0.00000000000E+00 0. -1.
          2    1    1    2  501    0 -0.23688190750E+02  0.11309146264E+02  0.23556893433E+02  0.35269737714E+02  0.00000000000E+00 0. -1.
          1    1    1    2  502    0  0.37230581032E+02 -0.12358320469E+02 -0.13845710193E+03  0.14390696065E+03  0.00000000000E+00 0. -1.
         22    1    1    2    0    0 -0.16208524071E+02 -0.31985437026E+02 -0.24528574027E+01  0.35941632459E+02  0.00000000000E+00 0. -1.
         22    1    1    2    0    0  0.26661337894E+01  0.33034611232E+02 -0.18899194941E+03  0.19187587329E+03  0.00000000000E+00 0. -1.
</event>
<event>
 6    1  0.8017648E-006  0.4999143E+02  0.7818608E-02  0.1462269E+00
          2   -1    0    0  502    0  0.00000000000E+00  0.00000000000E+00  0.23999799551E+03  0.23999799551E+03  0.00000000000E+00 0.  1.
          1   -1    0    0  501    0 -0.00000000000E+00 -0.00000000000E+00 -0.80175470425E+02  0.80175470425E+02  0.00000000000E+00 0. -1.
          2    1    1    2  501    0  0.14504402157E+02 -0.30362072172E+02  0.12108251325E+03  0.12567103136E+03  0.00000000000E+00 0.  1.
          1    1    1    2  502    0  0.37413891388E+02  0.88420461656E+01 -0.25555878880E+02  0.46163665306E+02  0.00000000000E+00 0. -1.
         22    1    1    2    0    0  0.17099561735E+02 -0.14880984995E+02  0.66522067504E+02  0.70278191432E+02  0.00000000000E+00 0.  1.
         22    1    1    2    0    0 -0.69017855279E+02  0.36401011001E+02 -0.22261767866E+01  0.78060577838E+02  0.00000000000E+00 0. -1.
</event>
<event>
 6    1  0.8017648E-006  0.4299268E+02  0.7818608E-02  0.1587404E+00
          2   -1    0    0  502    0  0.00000000000E+00  0.00000000000E+00  0.18675486461E+03  0.18675486461E+03  0.00000000000E+00 0. -1.
          1   -1    0    0  501    0 -0.00000000000E+00 -0.00000000000E+00 -0.13304583731E+03  0.13304583731E+03  0.00000000000E+00 0.  1.
          2    1    1    2  501    0 -0.21969035013E+02  0.94041245693E+00  0.70989434637E+02  0.74317041821E+02  0.00000000000E+00 0. -1.
          1    1    1    2  502    0  0.48756661220E+02 -0.14753273960E+02 -0.88055981141E+02  0.10172869271E+03  0.00000000000E+00 0.  1.
         22    1    1    2    0    0 -0.18647661766E+02  0.55407422490E+01  0.10542957682E+03  0.10720928497E+03  0.00000000000E+00 0. -1.
         22    1    1    2    0    0 -0.81399644413E+01  0.82721192541E+01 -0.34654003022E+02  0.36545682419E+02  0.00000000000E+00 0.  1.
</event>
<event>
 6    1  0.8017648E-006  0.3792259E+03  0.7818608E-02  0.1190340E+00
          2   -1    0    0  502    0  0.00000000000E+00  0.00000000000E+00  0.44007964620E+03  0.44007964620E+03  0.00000000000E+00 0. -1.
          1   -1    0    0  501    0 -0.00000000000E+00 -0.00000000000E+00 -0.71341767127E+03  0.71341767127E+03  0.00000000000E+00 0.  1.
          2    1    1    2  501    0  0.14957934468E+02 -0.23388111666E+02  0.67285176055E+01  0.28566002871E+02  0.00000000000E+00 0. -1.
          1    1    1    2  502    0 -0.11191723063E+03  0.35068670043E+03 -0.55791947493E+03  0.66841661326E+03  0.00000000000E+00 0.  1.
         22    1    1    2    0    0  0.91264076782E+02 -0.33739033405E+03  0.27458367844E+03  0.44447448260E+03  0.00000000000E+00 0. -1.
         22    1    1    2    0    0  0.56952193832E+01  0.10091745287E+02  0.32692538114E+01  0.12040218738E+02  0.00000000000E+00 0. -1.
</event>
<event>
 6    1  0.8017648E-006  0.3884981E+03  0.7818608E-02  0.1150540E+00
          2   -1    0    0  502    0  0.00000000000E+00  0.00000000000E+00  0.12848210616E+03  0.12848210616E+03  0.00000000000E+00 0.  1.
          1   -1    0    0  501    0 -0.00000000000E+00 -0.00000000000E+00 -0.76935363677E+03  0.76935363677E+03  0.00000000000E+00 0.  1.
          2    1    1    2  501    0  0.11793156001E+02 -0.80579711139E+02 -0.29160162653E+03  0.30276009805E+03  0.00000000000E+00 0.  1.
          1    1    1    2  502    0 -0.15149249517E+03  0.13586461007E+02 -0.36382629423E+03  0.39434013287E+03  0.00000000000E+00 0.  1.
         22    1    1    2    0    0  0.13982991640E+03  0.40219457402E+02  0.52166872972E+02  0.15456840851E+03  0.00000000000E+00 0.  1.
         22    1    1    2    0    0 -0.13057723002E+00  0.26773792729E+02 -0.37610482818E+02  0.46167103497E+02  0.00000000000E+00 0. -1.
</event>
<event>
 6    1  0.8017648E-006  0.3429537E+02  0.7818608E-02  0.1590690E+00
          2   -1    0    0  502    0  0.00000000000E+00  0.00000000000E+00  0.18035854589E+03  0.18035854589E+03  0.00000000000E+00 0. -1.
          1   -1    0    0  501    0 -0.00000000000E+00 -0.00000000000E+00 -0.15106674184E+03  0.15106674184E+03  0.00000000000E+00 0. -1.
          2    1    1    2  501    0  0.39889534666E+01  0.28066490436E+02  0.10202837583E+03  0.10589348002E+03  0.00000000000E+00 0. -1.
          1    1    1    2  502    0 -0.43648849154E+02 -0.13875444422E+02  0.30995773652E+02  0.55303598207E+02  0.00000000000E+00 0. -1.
         22    1    1    2    0    0  0.18183452730E+02  0.10339984426E+02  0.27757346470E+02  0.34756632664E+02  0.00000000000E+00 0. -1.
         22    1    1    2    0    0  0.21476442957E+02 -0.24531030441E+02 -0.13148969190E+03  0.13547157685E+03  0.00000000000E+00 0. -1.
</event>
<event>
 6    1  0.8017648E-006  0.8030245E+02  0.7818608E-02  0.1402139E+00
          2   -1    0    0  502    0  0.00000000000E+00  0.00000000000E+00  0.37984424125E+03  0.37984424125E+03  0.00000000000E+00 0. -1.
          1   -1    0    0  501    0 -0.00000000000E+00 -0.00000000000E+00 -0.26748621599E+03  0.26748621599E+03  0.00000000000E+00 0. -1.
          2    1    1    2  501    0 -0.20612791571E+02  0.53531813015E+02  0.32393428982E+03  0.32897411190E+03  0.00000000000E+00 0. -1.
          1    1    1    2  502    0  0.31890045042E+01 -0.66826436003E+02 -0.17942590383E+03  0.19149307367E+03  0.00000000000E+00 0. -1.
         22    1    1    2    0    0  0.23004854041E+02 -0.41572961003E+01 -0.75906996722E+02  0.79425301836E+02  0.00000000000E+00 0. -1.
         22    1    1    2    0    0 -0.55810669749E+01  0.17451919089E+02  0.43756635997E+02  0.47437969836E+02  0.00000000000E+00 0.  1.
</event>
<event>
 6    1  0.8017648E-006  0.5813404E+02  0.7818608E-02  0.1481154E+00
          2   -1    0    0  502    0  0.00000000000E+00  0.00000000000E+00  0.17215009202E+03  0.17215009202E+03  0.00000000000E+00 0. -1.
          1   -1    0    0  501    0 -0.00000000000E+00 -0.00000000000E+00 -0.25795100580E+03  0.25795100580E+03  0.00000000000E+00 0. -1.
          2    1    1    2  501    0  0.43334811726E+02  0.62106276757E+02  0.10243966286E+03  0.12739301412E+03  0.00000000000E+00 0. -1.
          1    1    1    2  502    0  0.23567305716E+02 -0.58882196080E+02 -0.14376510680E+03  0.15713350008E+03  0.00000000000E+00 0. -1.
         22    1    1    2    0    0 -0.50235829790E+02 -0.24805307416E+01 -0.86666955758E+02  0.10020455502E+03  0.00000000000E+00 0. -1.
         22    1    1    2    0    0 -0.16666287652E+02 -0.74354993576E+00  0.42191485920E+02  0.45370028595E+02  0.00000000000E+00 0. -1.
</event>
<event>
 6    1  0.8017648E-006  0.1172843E+03  0.7818608E-02  0.1381193E+00
          2   -1    0    0  502    0  0.00000000000E+00  0.00000000000E+00  0.20197558607E+03  0.20197558607E+03  0.00000000000E+00 0. -1.
          1   -1    0    0  501    0 -0.00000000000E+00 -0.00000000000E+00 -0.14143406444E+03  0.14143406444E+03  0.00000000000E+00 0. -1.
          2    1    1    2  501    0  0.41955399375E+02  0.18815663238E+02  0.68753648482E+02  0.82712447065E+02  0.00000000000E+00 0. -1.
          1    1    1    2  502    0 -0.10551021901E+03  0.37474816344E+01 -0.44325309592E+02  0.11450407419E+03  0.00000000000E+00 0. -1.
         22    1    1    2    0    0  0.70213681557E+02 -0.14447409041E+02  0.76279923586E+02  0.10467719641E+03  0.00000000000E+00 0. -1.
         22    1    1    2    0    0 -0.66588619193E+01 -0.81157358314E+01 -0.40166740849E+02  0.41515932852E+02  0.00000000000E+00 0. -1.
</event>
<event>
 6    1  0.8017648E-006  0.7756870E+02  0.7818608E-02  0.1443795E+00
          2   -1    0    0  502    0  0.00000000000E+00  0.00000000000E+00  0.29031680121E+03  0.29031680121E+03  0.00000000000E+00 0. -1.
          1   -1    0    0  501    0 -0.00000000000E+00 -0.00000000000E+00 -0.53551475041E+02  0.53551475041E+02  0.00000000000E+00 0. -1.
          2    1    1    2  501    0  0.20817775126E+02  0.21841415948E+02  0.13440145519E+03  0.13774679078E+03  0.00000000000E+00 0. -1.
          1    1    1    2  502    0 -0.47641186956E+02 -0.24607425312E+01  0.24378026578E+02  0.53572624803E+02  0.00000000000E+00 0. -1.
         22    1    1    2    0    0  0.33346356684E+02 -0.31430785844E+02  0.10921875177E+03  0.11844243134E+03  0.00000000000E+00 0.  1.
         22    1    1    2    0    0 -0.65229448538E+01  0.12050112427E+02 -0.31232907371E+02  0.34106429334E+02  0.00000000000E+00 0. -1.
</event>
<event>
 6    1  0.8017648E-006  0.1475848E+03  0.7818608E-02  0.1235073E+00
          2   -1    0    0  502    0  0.00000000000E+00  0.00000000000E+00  0.11070148808E+04  0.11070148808E+04  0.00000000000E+00 0. -1.
          1   -1    0    0  501    0 -0.00000000000E+00 -0.00000000000E+00 -0.39839861710E+02  0.39839861710E+02  0.00000000000E+00 0. -1.
          2    1    1    2  501    0 -0.26285657176E+02  0.28697255119E+02  0.19252275410E+03  0.19641659571E+03  0.00000000000E+00 0. -1.
          1    1    1    2  502    0  0.74896628525E+02  0.11150349267E+03  0.60142471331E+03  0.61624201384E+03  0.00000000000E+00 0. -1.
         22    1    1    2    0    0  0.12563617017E+02 -0.74895194020E+02  0.43182770315E+02  0.87360667419E+02  0.00000000000E+00 0. -1.
         22    1    1    2    0    0 -0.61174588366E+02 -0.65305553768E+02  0.23004478137E+03  0.24683546554E+03  0.00000000000E+00 0. -1.
</event>
<event>
 6    1  0.8017648E-006  0.7361305E+02  0.7818608E-02  0.1351060E+00
          2   -1    0    0  502    0  0.00000000000E+00  0.00000000000E+00  0.99695806132E+03  0.99695806132E+03  0.00000000000E+00 0. -1.
          1   -1    0    0  501    0 -0.00000000000E+00 -0.00000000000E+00 -0.15203504943E+02  0.15203504943E+02  0.00000000000E+00 0. -1.
          2    1    1    2  501    0  0.14705677130E+02 -0.51762266607E+02  0.27289982998E+03  0.27815446498E+03  0.00000000000E+00 0. -1.
          1    1    1    2  502    0  0.16503684478E+02  0.49510351509E+02  0.35552872599E+03  0.35933872810E+03  0.00000000000E+00 0. -1.
         22    1    1    2    0    0 -0.69944182494E+02  0.50924868480E+01  0.12738407428E+03  0.14541260079E+03  0.00000000000E+00 0. -1.
         22    1    1    2    0    0  0.38734820886E+02 -0.28405717492E+01  0.22594192612E+03  0.22925577239E+03  0.00000000000E+00 0. -1.
</event>
<event>
 6    1  0.8017648E-006  0.5153002E+02  0.7818608E-02  0.1471223E+00
          2   -1    0    0  502    0  0.00000000000E+00  0.00000000000E+00  0.34772864630E+03  0.34772864630E+03  0.00000000000E+00 0. -1.
          1   -1    0    0  501    0 -0.00000000000E+00 -0.00000000000E+00 -0.30522310141E+02  0.30522310141E+02  0.00000000000E+00 0. -1.
          2    1    1    2  501    0 -0.20996076272E+02  0.11033486286E+02  0.96568286712E+02  0.99438458540E+02  0.00000000000E+00 0. -1.
          1    1    1    2  502    0  0.32109154046E+02 -0.17474943429E+02  0.83744847135E+02  0.91375986140E+02  0.00000000000E+00 0. -1.
         22    1    1    2    0    0  0.10852553526E+02 -0.29393249977E+02 -0.11369073576E+02  0.33331620066E+02  0.00000000000E+00 0. -1.
         22    1    1    2    0    0 -0.21965631300E+02  0.35834707120E+02  0.14826227589E+03  0.15410489170E+03  0.00000000000E+00 0. -1.
</event>
<event>
 6    1  0.8017648E-006  0.4536642E+02  0.7818608E-02  0.1495357E+00
          2   -1    0    0  502    0  0.00000000000E+00  0.00000000000E+00  0.35616679474E+03  0.35616679474E+03  0.00000000000E+00 0.  1.
          1   -1    0    0  501    0 -0.00000000000E+00 -0.00000000000E+00 -0.11577242387E+03  0.11577242387E+03  0.00000000000E+00 0.  1.
          2    1    1    2  501    0 -0.43986266389E+02 -0.42618418875E+02  0.26943639397E+03  0.27630977480E+03  0.00000000000E+00 0.  1.
          1    1    1    2  502    0  0.34114031413E+02  0.49093326624E+02 -0.39003953617E+02  0.71380881586E+02  0.00000000000E+00 0.  1.
         22    1    1    2    0    0 -0.20785748345E+01  0.20268099515E+02 -0.51925189686E+02  0.55779401711E+02  0.00000000000E+00 0.  1.
         22    1    1    2    0    0  0.11950809810E+02 -0.26743007264E+02  0.61887120208E+02  0.68469160505E+02  0.00000000000E+00 0. -1.
</event>
<event>
 6    1  0.8017648E-006  0.5821552E+02  0.7818608E-02  0.1494944E+00
          2   -1    0    0  502    0  0.00000000000E+00  0.00000000000E+00  0.18453610255E+03  0.18453610255E+03  0.00000000000E+00 0. -1.
          1   -1    0    0  501    0 -0.00000000000E+00 -0.00000000000E+00 -0.94802057648E+02  0.94802057648E+02  0.00000000000E+00 0.  1.
          2    1    1    2  501    0  0.34887563450E+02 -0.12136539206E+02  0.84134782377E+02  0.91886338881E+02  0.00000000000E+00 0. -1.
          1    1    1    2  502    0 -0.39134312543E+02  0.15342310278E+02 -0.33244237629E+02  0.53591606045E+02  0.00000000000E+00 0.  1.
         22    1    1    2    0    0  0.12588986830E+02 -0.16345926201E+02  0.83791211343E+02  0.86293910510E+02  0.00000000000E+00 0. -1.
         22    1    1    2    0    0 -0.83422377359E+01  0.13140155130E+02 -0.44947711191E+02  0.47566304760E+02  0.00000000000E+00 0.  1.
</event>
<event>
 6    1  0.8017648E-006  0.5920460E+02  0.7818608E-02  0.1465982E+00
          2   -1    0    0  502    0  0.00000000000E+00  0.00000000000E+00  0.10310451291E+03  0.10310451291E+03  0.00000000000E+00 0.  1.
          1   -1    0    0  501    0 -0.00000000000E+00 -0.00000000000E+00 -0.21936252209E+03  0.21936252209E+03  0.00000000000E+00 0. -1.
          2    1    1    2  501    0 -0.12471039538E-01 -0.39838437659E+02 -0.13709769015E+02  0.42131449501E+02  0.00000000000E+00 0.  1.
          1    1    1    2  502    0  0.63276943054E+02 -0.10077267647E+01 -0.12177048713E+03  0.13723351840E+03  0.00000000000E+00 0. -1.
         22    1    1    2    0    0 -0.42784599218E+02  0.49602529131E+02 -0.42095007826E+02  0.77864770663E+02  0.00000000000E+00 0.  1.
         22    1    1    2    0    0 -0.20479872796E+02 -0.87563647072E+01  0.61317254792E+02  0.65237296448E+02  0.00000000000E+00 0.  1.
</event>
<event>
 6    1  0.8017648E-006  0.5769125E+02  0.7818608E-02  0.1417839E+00
          2   -1    0    0  502    0  0.00000000000E+00  0.00000000000E+00  0.40386651384E+03  0.40386651384E+03  0.00000000000E+00 0.  1.
          1   -1    0    0  501    0 -0.00000000000E+00 -0.00000000000E+00 -0.70328854476E+02  0.70328854476E+02  0.00000000000E+00 0. -1.
          2    1    1    2  501    0 -0.68479877097E+01  0.32521367436E+02  0.15896543539E+03  0.16240241354E+03  0.00000000000E+00 0.  1.
          1    1    1    2  502    0  0.58017555888E+02 -0.60579861999E+02  0.15002152469E+03  0.17187906894E+03  0.00000000000E+00 0. -1.
         22    1    1    2    0    0 -0.55080620984E+02  0.12521223750E+02 -0.42682072406E+02  0.70798412108E+02  0.00000000000E+00 0. -1.
         22    1    1    2    0    0  0.39110528053E+01  0.15537270813E+02  0.67232771699E+02  0.69115473729E+02  0.00000000000E+00 0.  1.
</event>
<event>
 6    1  0.8017648E-006  0.1086089E+03  0.7818608E-02  0.1390249E+00
          2   -1    0    0  502    0  0.00000000000E+00  0.00000000000E+00  0.52173565492E+03  0.52173565492E+03  0.00000000000E+00 0. -1.
          1   -1    0    0  501    0 -0.00000000000E+00 -0.00000000000E+00 -0.22492355024E+02  0.22492355024E+02  0.00000000000E+00 0. -1.
          2    1    1    2  501    0  0.25496922642E+02 -0.17979898579E+02  0.69266970785E+02  0.75968961154E+02  0.00000000000E+00 0. -1.
          1    1    1    2  502    0  0.38308542473E+02  0.23310422505E+02  0.99016174254E+02  0.10869739182E+03  0.00000000000E+00 0. -1.
         22    1    1    2    0    0 -0.75199060483E+02 -0.60862939415E+01  0.33788624076E+03  0.34620666280E+03  0.00000000000E+00 0. -1.
         22    1    1    2    0    0  0.11393595369E+02  0.75577001506E+00 -0.69260858963E+01  0.13354994181E+02  0.00000000000E+00 0. -1.
</event>
<event>
 6    1  0.8017648E-006  0.7283039E+02  0.7818608E-02  0.1432982E+00
          2   -1    0    0  502    0  0.00000000000E+00  0.00000000000E+00  0.95744081350E+02  0.95744081350E+02  0.00000000000E+00 0. -1.
          1   -1    0    0  501    0 -0.00000000000E+00 -0.00000000000E+00 -0.72300147700E+03  0.72300147700E+03  0.00000000000E+00 0. -1.
          2    1    1    2  501    0 -0.19625215913E+02  0.28444229554E+02  0.50442885997E+02  0.61144975609E+02  0.00000000000E+00 0. -1.
          1    1    1    2  502    0 -0.54793638113E+02  0.41383295817E+02 -0.53686647149E+03  0.54123980652E+03  0.00000000000E+00 0. -1.
         22    1    1    2    0    0  0.85411172402E+02 -0.53762926342E+02 -0.15991767249E+03  0.18910098518E+03  0.00000000000E+00 0. -1.
         22    1    1    2    0    0 -0.10992318376E+02 -0.16064599030E+02  0.19083862344E+02  0.27259791035E+02  0.00000000000E+00 0. -1.
</event>
<event>
 6    1  0.8017648E-006  0.9678128E+02  0.7818608E-02  0.1412436E+00
          2   -1    0    0  502    0  0.00000000000E+00  0.00000000000E+00  0.12634884427E+03  0.12634884427E+03  0.00000000000E+00 0.  1.
          1   -1    0    0  501    0 -0.00000000000E+00 -0.00000000000E+00 -0.17103696213E+03  0.17103696213E+03  0.00000000000E+00 0. -1.
          2    1    1    2  501    0 -0.22591673885E+02  0.30617839374E+02  0.16561376318E+02  0.41498373491E+02  0.00000000000E+00 0.  1.
          1    1    1    2  502    0  0.66780151765E+02 -0.40219508256E+02 -0.86604552437E+02  0.11652272747E+03  0.00000000000E+00 0. -1.
         22    1    1    2    0    0  0.89309522461E+01 -0.70274331180E+01 -0.46842736007E+02  0.48201541893E+02  0.00000000000E+00 0. -1.
         22    1    1    2    0    0 -0.53119430126E+02  0.16629102000E+02  0.72197794265E+02  0.91163163542E+02  0.00000000000E+00 0.  1.
</event>
<event>
 6    1  0.8017648E-006  0.5529513E+02  0.7818608E-02  0.1482173E+00
          2   -1    0    0  502    0  0.00000000000E+00  0.00000000000E+00  0.84657433820E+02  0.84657433820E+02  0.00000000000E+00 0.  1.
          1   -1    0    0  501    0 -0.00000000000E+00 -0.00000000000E+00 -0.41356810675E+03  0.41356810675E+03  0.00000000000E+00 0.  1.
          2    1    1    2  501    0  0.56072302614E+02  0.26021172683E+02  0.24919174482E+02  0.66649604688E+02  0.00000000000E+00 0.  1.
          1    1    1    2  502    0 -0.65603482256E+02 -0.82763429384E+02 -0.20274958978E+03  0.22860664531E+03  0.00000000000E+00 0.  1.
         22    1    1    2    0    0 -0.11127917683E+02  0.14807634831E+02  0.19027858182E+02  0.26554773361E+02  0.00000000000E+00 0.  1.
         22    1    1    2    0    0  0.20659097325E+02  0.41934621871E+02 -0.17010811582E+03  0.17641451721E+03  0.00000000000E+00 0. -1.
</event>
<event>
 6    1  0.8017648E-006  0.4219995E+02  0.7818608E-02  0.1565176E+00
          2   -1    0    0  502    0  0.00000000000E+00  0.00000000000E+00  0.16040778128E+03  0.16040778128E+03  0.00000000000E+00 0. -1.
          1   -1    0    0  501    0 -0.00000000000E+00 -0.00000000000E+00 -0.65352881315E+02  0.65352881315E+02  0.00000000000E+00 0. -1.
          2    1    1    2  501    0 -0.21512301322E+02 -0.74946000542E+01  0.66757876916E+02  0.70537665602E+02  0.00000000000E+00 0. -1.
          1    1    1    2  502    0  0.19687831771E+02  0.20948577009E+02  0.83028996025E+01  0.29923097105E+02  0.00000000000E+00 0. -1.
         22    1    1    2    0    0  0.15216131111E+02  0.54707590490E+01 -0.49482405290E+02  0.52057355713E+02  0.00000000000E+00 0. -1.
         22    1    1    2    0    0 -0.13391661559E+02 -0.18924736004E+02  0.69476528741E+02  0.73242544181E+02  0.00000000000E+00 0.  1.
</event>
<event>
 6    1  0.8017648E-006  0.9729247E+02  0.7818608E-02  0.1292886E+00
          2   -1    0    0  502    0  0.00000000000E+00  0.00000000000E+00  0.82790693390E+02  0.82790693390E+02  0.00000000000E+00 0.  1.
          1   -1    0    0  501    0 -0.00000000000E+00 -0.00000000000E+00 -0.53934033542E+03  0.53934033542E+03  0.00000000000E+00 0.  1.
          2    1    1    2  501    0 -0.47001883136E+02 -0.10401521858E+03 -0.51834089464E+02  0.12535994395E+03  0.00000000000E+00 0.  1.
          1    1    1    2  502    0 -0.28790218521E+02  0.67765894967E+02 -0.91874215576E+01  0.74199069523E+02  0.00000000000E+00 0.  1.
         22    1    1    2    0    0  0.63983986639E+02  0.56957154390E+02 -0.38833730262E+03  0.39767314291E+03  0.00000000000E+00 0.  1.
         22    1    1    2    0    0  0.11808115018E+02 -0.20707830772E+02 -0.71908283869E+01  0.24898872434E+02  0.00000000000E+00 0. -1.
</event>
<event>
 6    1  0.8017648E-006  0.7839211E+02  0.7818608E-02  0.1377155E+00
          2   -1    0    0  502    0  0.00000000000E+00  0.00000000000E+00  0.34836986268E+03  0.34836986268E+03  0.00000000000E+00 0. -1.
          1   -1    0    0  501    0 -0.00000000000E+00 -0.00000000000E+00 -0.68268255765E+02  0.68268255765E+02  0.00000000000E+00 0.  1.
          2    1    1    2  501    0  0.35713050744E+02 -0.45489081050E+01  0.20088888247E+03  0.20408933745E+03  0.00000000000E+00 0. -1.
          1    1    1    2  502    0 -0.48448417884E+02 -0.21510189216E+02 -0.10445618540E+02  0.54028218389E+02  0.00000000000E+00 0.  1.
         22    1    1    2    0    0 -0.28411596327E+02  0.24556056907E+02 -0.19170533525E+02  0.42163112934E+02  0.00000000000E+00 0. -1.
         22    1    1    2    0    0  0.41146963467E+02  0.15030404142E+01  0.10882887651E+03  0.11635744968E+03  0.00000000000E+00 0. -1.
</event>
<event>
 6    1  0.8017648E-006  0.6853948E+02  0.7818608E-02  0.1446908E+00
          2   -1    0    0  502    0  0.00000000000E+00  0.00000000000E+00  0.15946871182E+03  0.15946871182E+03  0.00000000000E+00 0.  1.
          1   -1    0    0  501    0 -0.00000000000E+00 -0.00000000000E+00 -0.12479839396E+03  0.12479839396E+03  0.00000000000E+00 0.  1.
          2    1    1    2  501    0  0.61818007617E+02  0.21271472825E+02  0.78419149693E+02  0.10209556631E+03  0.00000000000E+00 0.  1.
          1    1    1    2  502    0  0.19420444492E+02 -0.16840750382E+02 -0.15771724782E+02  0.30158114004E+02  0.00000000000E+00 0.  1.
         22    1    1    2    0    0 -0.81827002355E+02  0.14526158981E+02  0.32041684504E+02  0.89069282893E+02  0.00000000000E+00 0.  1.
         22    1    1    2    0    0  0.58855024615E+00 -0.18956881425E+02 -0.60018791553E+02  0.62944142572E+02  0.00000000000E+00 0.  1.
</event>
<event>
 6    1  0.8017648E-006  0.4145759E+02  0.7818608E-02  0.1516786E+00
          2   -1    0    0  502    0  0.00000000000E+00  0.00000000000E+00  0.33577233165E+03  0.33577233165E+03  0.00000000000E+00 0. -1.
          1   -1    0    0  501    0 -0.00000000000E+00 -0.00000000000E+00 -0.11292144071E+03  0.11292144071E+03  0.00000000000E+00 0. -1.
          2    1    1    2  501    0 -0.22663851849E+02  0.19253490247E+02  0.26027564021E+03  0.26196899808E+03  0.00000000000E+00 0. -1.
          1    1    1    2  502    0  0.22477193083E+02  0.23087077043E+01  0.33084787986E+02  0.40064417333E+02  0.00000000000E+00 0. -1.
         22    1    1    2    0    0 -0.62741532898E+01 -0.31376686518E+02 -0.10523955168E+03  0.10999647582E+03  0.00000000000E+00 0. -1.
         22    1    1    2    0    0  0.64608120551E+01  0.98144885672E+01  0.34730014420E+02  0.36663881135E+02  0.00000000000E+00 0. -1.
</event>
<event>
 6    1  0.8017648E-006  0.2396943E+02  0.7818608E-02  0.1750516E+00
          2   -1    0    0  502    0  0.00000000000E+00  0.00000000000E+00  0.12347651239E+03  0.12347651239E+03  0.00000000000E+00 0. -1.
          1   -1    0    0  501    0 -0.00000000000E+00 -0.00000000000E+00 -0.75325315663E+02  0.75325315663E+02  0.00000000000E+00 0.  1.
          2    1    1    2  501    0 -0.56110560556E+01  0.24032293442E+02  0.29088719834E+02  0.38146935653E+02  0.00000000000E+00 0. -1.
          1    1    1    2  502    0  0.18523988782E+02 -0.11810100576E+02 -0.21086661915E+02  0.30451008961E+02  0.00000000000E+00 0.  1.
         22    1    1    2    0    0 -0.10417782578E+02 -0.22965732074E+02  0.82589471836E+02  0.86353783367E+02  0.00000000000E+00 0. -1.
         22    1    1    2    0    0 -0.24951501483E+01  0.10743539208E+02 -0.42440333027E+02  0.43850100073E+02  0.00000000000E+00 0.  1.
</event>
<event>
 6    1  0.8017648E-006  0.2455599E+02  0.7818608E-02  0.1714079E+00
          2   -1    0    0  502    0  0.00000000000E+00  0.00000000000E+00  0.16085825090E+03  0.16085825090E+03  0.00000000000E+00 0. -1.
          1   -1    0    0  501    0 -0.00000000000E+00 -0.00000000000E+00 -0.98864594437E+02  0.98864594437E+02  0.00000000000E+00 0.  1.
          2    1    1    2  501    0  0.24426018175E+02 -0.17896599827E+02  0.85988691002E+02  0.91164541514E+02  0.00000000000E+00 0. -1.
          1    1    1    2  502    0 -0.35839303082E+02  0.16771791536E+02 -0.13939836385E+02  0.41953160491E+02  0.00000000000E+00 0.  1.
         22    1    1    2    0    0 -0.13880983866E+01 -0.10227433948E+02  0.56730922897E+02  0.57662161206E+02  0.00000000000E+00 0.  1.
         22    1    1    2    0    0  0.12801383293E+02  0.11352242239E+02 -0.66786121055E+02  0.68942982121E+02  0.00000000000E+00 0.  1.
</event>
<event>
 6    1  0.8017648E-006  0.6013704E+02  0.7818608E-02  0.1397557E+00
          2   -1    0    0  502    0  0.00000000000E+00  0.00000000000E+00  0.86268225854E+03  0.86268225854E+03  0.00000000000E+00 0. -1.
          1   -1    0    0  501    0 -0.00000000000E+00 -0.00000000000E+00 -0.41078732971E+02  0.41078732971E+02  0.00000000000E+00 0. -1.
          2    1    1    2  501    0 -0.11082227305E+03 -0.21479674656E+02  0.22544794146E+03  0.25213037686E+03  0.00000000000E+00 0. -1.
          1    1    1    2  502    0  0.81049143938E+02  0.52003304418E+02  0.43447348610E+03  0.44501743508E+03  0.00000000000E+00 0. -1.
         22    1    1    2    0    0  0.39614945685E+02  0.79686537532E+01  0.29706234738E+00  0.40409548504E+02  0.00000000000E+00 0. -1.
         22    1    1    2    0    0 -0.98418165736E+01 -0.38492283516E+02  0.16138503567E+03  0.16620363107E+03  0.00000000000E+00 0.  1.
</event>
<event>
 6    1  0.8017648E-006  0.4726617E+02  0.7818608E-02  0.1566108E+00
          2   -1    0    0  502    0  0.00000000000E+00  0.00000000000E+00  0.19930952023E+03  0.19930952023E+03  0.00000000000E+00 0.  1.
          1   -1    0    0  501    0 -0.00000000000E+00 -0.00000000000E+00 -0.16265750180E+03  0.16265750180E+03  0.00000000000E+00 0.  1.
          2    1    1    2  501    0 -0.95552961848E+01 -0.19364201495E+02  0.74379351888E+02  0.77450396849E+02  0.00000000000E+00 0.  1.
          1    1    1    2  502    0 -0.20965439212E+01  0.53449631617E+02 -0.12141805084E+03  0.13267856529E+03  0.00000000000E+00 0.  1.
         22    1    1    2    0    0  0.58555920092E+01 -0.97503131086E+01 -0.31746004872E+02  0.33721882937E+02  0.00000000000E+00 0. -1.
         22    1    1    2    0    0  0.57962480968E+01 -0.24335117014E+02  0.11543672225E+03  0.11811617695E+03  0.00000000000E+00 0.  1.
</event>
<event>
 6    1  0.8017648E-006  0.7920009E+02  0.7818608E-02  0.1373506E+00
          2   -1    0    0  502    0  0.00000000000E+00  0.00000000000E+00  0.60646831612E+03  0.60646831612E+03  0.00000000000E+00 0. -1.
          1   -1    0    0  501    0 -0.00000000000E+00 -0.00000000000E+00 -0.18107400264E+03  0.18107400264E+03  0.00000000000E+00 0. -1.
          2    1    1    2  501    0 -0.39861587267E+02 -0.54580965392E+02  0.52539398129E+03  0.52972338395E+03  0.00000000000E+00 0. -1.
          1    1    1    2  502    0  0.47120009457E+02  0.21717770891E+02 -0.11842705750E+03  0.12929394732E+03  0.00000000000E+00 0. -1.
         22    1    1    2    0    0  0.30301518837E+01  0.38545306281E+02 -0.47676810559E+02  0.61384042892E+02  0.00000000000E+00 0. -1.
         22    1    1    2    0    0 -0.10288574074E+02 -0.56821117793E+01  0.66104200248E+02  0.67140944595E+02  0.00000000000E+00 0.  1.
</event>
<event>
 6    1  0.8017648E-006  0.4980032E+02  0.7818608E-02  0.1546653E+00
          2   -1    0    0  502    0  0.00000000000E+00  0.00000000000E+00  0.10334694244E+04  0.10334694244E+04  0.00000000000E+00 0. -1.
          1   -1    0    0  501    0 -0.00000000000E+00 -0.00000000000E+00 -0.16149766482E+03  0.16149766482E+03  0.00000000000E+00 0.  1.
          2    1    1    2  501    0  0.51479923300E+02  0.52426975833E+01  0.96053578927E+03  0.96192862045E+03  0.00000000000E+00 0. -1.
          1    1    1    2  502    0 -0.35127010065E+02  0.21495647687E+02 -0.98650618137E+02  0.10690142265E+03  0.00000000000E+00 0.  1.
         22    1    1    2    0    0 -0.28263711027E+02 -0.30392910229E+02  0.60967123083E+02  0.73753348739E+02  0.00000000000E+00 0. -1.
         22    1    1    2    0    0  0.11910797792E+02  0.36545649593E+01 -0.50880534623E+02  0.52383697394E+02  0.00000000000E+00 0. -1.
</event>
<event>
 6    1  0.8017648E-006  0.6380393E+02  0.7818608E-02  0.1455583E+00
          2   -1    0    0  502    0  0.00000000000E+00  0.00000000000E+00  0.13815685826E+03  0.13815685826E+03  0.00000000000E+00 0. -1.
          1   -1    0    0  501    0 -0.00000000000E+00 -0.00000000000E+00 -0.17813346872E+03  0.17813346872E+03  0.00000000000E+00 0. -1.
          2    1    1    2  501    0 -0.26325573092E+02  0.43662494424E+02  0.75809762539E+02  0.91359560607E+02  0.00000000000E+00 0. -1.
          1    1    1    2  502    0  0.78160080901E+01 -0.65809975936E+02 -0.25467695517E+02  0.70997510027E+02  0.00000000000E+00 0. -1.
         22    1    1    2    0    0  0.17380433828E+02  0.11231961623E+02 -0.12026873776E+03  0.12203608370E+03  0.00000000000E+00 0. -1.
         22    1    1    2    0    0  0.11291311738E+01  0.10915519888E+02  0.29950060284E+02  0.31897172644E+02  0.00000000000E+00 0. -1.
</event>
<event>
 6    1  0.8017648E-006  0.9631316E+02  0.7818608E-02  0.1417685E+00
          2   -1    0    0  502    0  0.00000000000E+00  0.00000000000E+00  0.28441583284E+03  0.28441583284E+03  0.00000000000E+00 0. -1.
          1   -1    0    0  501    0 -0.00000000000E+00 -0.00000000000E+00 -0.10248654535E+03  0.10248654535E+03  0.00000000000E+00 0. -1.
          2    1    1    2  501    0  0.51799520168E+02  0.11064550972E+02  0.10912939799E+03  0.12130474056E+03  0.00000000000E+00 0. -1.
          1    1    1    2  502    0 -0.67844903676E+02 -0.40396231113E+02 -0.45351000312E+02  0.91057672231E+02  0.00000000000E+00 0. -1.
         22    1    1    2    0    0  0.26082564708E+02  0.32832890813E+02  0.14219602359E+03  0.14824981628E+03  0.00000000000E+00 0. -1.
         22    1    1    2    0    0 -0.10037181200E+02 -0.35012106724E+01 -0.24045133776E+02  0.26290149123E+02  0.00000000000E+00 0.  1.
</event>
<event>
 6    1  0.8017648E-006  0.5325899E+02  0.7818608E-02  0.1460410E+00
          2   -1    0    0  502    0  0.00000000000E+00  0.00000000000E+00  0.17193208482E+03  0.17193208482E+03  0.00000000000E+00 0. -1.
          1   -1    0    0  501    0 -0.00000000000E+00 -0.00000000000E+00 -0.29801327926E+03  0.29801327926E+03  0.00000000000E+00 0. -1.
          2    1    1    2  501    0 -0.17094438775E+02 -0.56350869792E+02  0.97287461366E+02  0.11372110843E+03  0.00000000000E+00 0. -1.
          1    1    1    2  502    0  0.75435779697E+02  0.74475749157E+02 -0.17637005781E+03  0.20577558496E+03  0.00000000000E+00 0. -1.
         22    1    1    2    0    0 -0.32936996454E+02 -0.29061084483E+02 -0.89524442039E+02  0.99719697599E+02  0.00000000000E+00 0. -1.
         22    1    1    2    0    0 -0.25404344468E+02  0.10936205118E+02  0.42525844045E+02  0.50728973102E+02  0.00000000000E+00 0. -1.
</event>
<event>
 6    1  0.8017648E-006  0.9073791E+02  0.7818608E-02  0.1403888E+00
          2   -1    0    0  502    0  0.00000000000E+00  0.00000000000E+00  0.22679851710E+03  0.22679851710E+03  0.00000000000E+00 0.  1.
          1   -1    0    0  501    0 -0.00000000000E+00 -0.00000000000E+00 -0.13429849948E+03  0.13429849948E+03  0.00000000000E+00 0.  1.
          2    1    1    2  501    0  0.11186839415E+02 -0.44644646032E+02  0.83351599644E+02  0.95214384200E+02  0.00000000000E+00 0.  1.
          1    1    1    2  502    0  0.73996188570E+01  0.77607303355E+02 -0.75348863411E+02  0.10842093484E+03  0.00000000000E+00 0.  1.
         22    1    1    2    0    0 -0.11200563457E+02  0.11091359898E+02 -0.30368747731E+02  0.34215957167E+02  0.00000000000E+00 0. -1.
         22    1    1    2    0    0 -0.73858948147E+01 -0.44054017222E+02  0.11486602911E+03  0.12324574037E+03  0.00000000000E+00 0.  1.
</event>
<event>
 6    1  0.8017648E-006  0.4911445E+02  0.7818608E-02  0.1548265E+00
          2   -1    0    0  502    0  0.00000000000E+00  0.00000000000E+00  0.82463535518E+03  0.82463535518E+03  0.00000000000E+00 0.  1.
          1   -1    0    0  501    0 -0.00000000000E+00 -0.00000000000E+00 -0.46303391771E+02  0.46303391771E+02  0.00000000000E+00 0.  1.
          2    1    1    2  501    0  0.37180424113E+02 -0.48456071447E+02  0.65149299836E+03  0.65434967847E+03  0.00000000000E+00 0.  1.
          1    1    1    2  502    0 -0.20803999302E+02  0.20861323199E+02 -0.71949840269E+01  0.30327693412E+02  0.00000000000E+00 0.  1.
         22    1    1    2    0    0 -0.10393875342E+02 -0.73340985720E+01 -0.22456190852E+02  0.25808954920E+02  0.00000000000E+00 0. -1.
         22    1    1    2    0    0 -0.59825494697E+01  0.34928846820E+02  0.15649013993E+03  0.16045242016E+03  0.00000000000E+00 0.  1.
</event>
<event>
 6    1  0.8017648E-006  0.9690012E+02  0.7818608E-02  0.1379256E+00
          2   -1    0    0  502    0  0.00000000000E+00  0.00000000000E+00  0.62347574326E+02  0.62347574326E+02  0.00000000000E+00 0. -1.
          1   -1    0    0  501    0 -0.00000000000E+00 -0.00000000000E+00 -0.42898390033E+03  0.42898390033E+03  0.00000000000E+00 0. -1.
          2    1    1    2  501    0 -0.17840351696E+02  0.39652805105E+02 -0.15657672674E+02  0.46214562802E+02  0.00000000000E+00 0. -1.
          1    1    1    2  502    0  0.33009628409E+02 -0.93055320609E+02 -0.27354397973E+03  0.29081822004E+03  0.00000000000E+00 0. -1.
         22    1    1    2    0    0  0.81238653844E+01  0.17409571721E+02 -0.10273606880E+03  0.10451693743E+03  0.00000000000E+00 0. -1.
         22    1    1    2    0    0 -0.23293142097E+02  0.35992943782E+02  0.25301395200E+02  0.49781754388E+02  0.00000000000E+00 0. -1.
</event>
<event>
 6    1  0.8017648E-006  0.4174779E+03  0.7818608E-02  0.1168025E+00
          2   -1    0    0  502    0  0.00000000000E+00  0.00000000000E+00  0.14327842666E+04  0.14327842666E+04  0.00000000000E+00 0. -1.
          1   -1    0    0  501    0 -0.00000000000E+00 -0.00000000000E+00 -0.28098157361E+03  0.28098157361E+03  0.00000000000E+00 0.  1.
          2    1    1    2  501    0  0.16693447200E+03 -0.17830255771E+03  0.94308157860E+03  0.97419802090E+03  0.00000000000E+00 0. -1.
          1    1    1    2  502    0 -0.23701892374E+03  0.31040803280E+03 -0.72618785888E+02  0.39724627764E+03  0.00000000000E+00 0.  1.
         22    1    1    2    0    0  0.58515024880E+02 -0.14060211414E+03  0.28853892395E+03  0.32626319632E+03  0.00000000000E+00 0.  1.
         22    1    1    2    0    0  0.11569426859E+02  0.84966390573E+01 -0.71990236771E+01  0.16058345339E+02  0.00000000000E+00 0.  1.
</event>
<event>
 6    1  0.8017648E-006  0.9080865E+02  0.7818608E-02  0.1432672E+00
          2   -1    0    0  502    0  0.00000000000E+00  0.00000000000E+00  0.12764276560E+03  0.12764276560E+03  0.00000000000E+00 0.  1.
          1   -1    0    0  501    0 -0.00000000000E+00 -0.00000000000E+00 -0.34368185703E+03  0.34368185703E+03  0.00000000000E+00 0.  1.
          2    1    1    2  501    0 -0.19450930204E+02  0.77884464237E+02  0.73870972962E+02  0.10909284624E+03  0.00000000000E+00 0.  1.
          1    1    1    2  502    0  0.26722973014E+02 -0.42242476688E+02 -0.19142215512E+03  0.19784080871E+03  0.00000000000E+00 0.  1.
         22    1    1    2    0    0 -0.86449937257E+01  0.52013720974E+01  0.28898975341E+02  0.30609491404E+02  0.00000000000E+00 0. -1.
         22    1    1    2    0    0  0.13729509151E+01 -0.40843359647E+02 -0.12738688462E+03  0.13378147627E+03  0.00000000000E+00 0.  1.
</event>
<event>
 6    1  0.8017648E-006  0.2882708E+02  0.7818608E-02  0.1624579E+00
          2   -1    0    0  502    0  0.00000000000E+00  0.00000000000E+00  0.37552704992E+02  0.37552704992E+02  0.00000000000E+00 0.  1.
          1   -1    0    0  501    0 -0.00000000000E+00 -0.00000000000E+00 -0.43695453008E+03  0.43695453008E+03  0.00000000000E+00 0. -1.
          2    1    1    2  501    0  0.41038821815E+01  0.27584897727E+02  0.62348265278E+01  0.28576939889E+02  0.00000000000E+00 0.  1.
          1    1    1    2  502    0  0.13227263445E+02  0.21969868451E+02 -0.18186546237E+03  0.18366459109E+03  0.00000000000E+00 0. -1.
         22    1    1    2    0    0 -0.22429594614E+02 -0.10336749117E+02  0.89043821042E+01  0.26253059203E+02  0.00000000000E+00 0. -1.
         22    1    1    2    0    0  0.50984489877E+01 -0.39218017061E+02 -0.23267557135E+03  0.23601264489E+03  0.00000000000E+00 0.  1.
</event>
<event>
 6    1  0.8017648E-006  0.4767456E+02  0.7818608E-02  0.1460697E+00
          2   -1    0    0  502    0  0.00000000000E+00  0.00000000000E+00  0.13499508683E+03  0.13499508683E+03  0.00000000000E+00 0.  1.
          1   -1    0    0  501    0 -0.00000000000E+00 -0.00000000000E+00 -0.26316887675E+03  0.26316887675E+03  0.00000000000E+00 0. -1.
          2    1    1    2  501    0 -0.24587105081E+02  0.98713920496E+01  0.60041334315E+02  0.65627219533E+02  0.00000000000E+00 0.  1.
          1    1    1    2  502    0  0.18917825849E+02 -0.23182116395E+02 -0.20329706893E+03  0.20548720858E+03  0.00000000000E+00 0. -1.
         22    1    1    2    0    0  0.15344989697E+02 -0.22357677544E+01 -0.53688400592E+02  0.55883018211E+02  0.00000000000E+00 0. -1.
         22    1    1    2    0    0 -0.96757104648E+01  0.15546492100E+02  0.68770345279E+02  0.71166517263E+02  0.00000000000E+00 0.  1.
</event>
<event>
 6    1  0.8017648E-006  0.3547288E+02  0.7818608E-02  0.1599718E+00
          2   -1    0    0  502    0  0.00000000000E+00  0.00000000000E+00  0.12745893859E+03  0.12745893859E+03  0.00000000000E+00 0.  1.
          1   -1    0    0  501    0 -0.00000000000E+00 -0.00000000000E+00 -0.10265470614E+03  0.10265470614E+03  0.00000000000E+00 0.  1.
          2    1    1    2  501    0  0.28796792399E+02 -0.12697360210E+00  0.49796370829E+02  0.57523472797E+02  0.00000000000E+00 0.  1.
          1    1    1    2  502    0  0.24724879129E+02 -0.15615081247E+02 -0.74305849236E+01  0.30172238939E+02  0.00000000000E+00 0.  1.
         22    1    1    2    0    0 -0.35932783096E+02  0.13049550816E+02 -0.73972611421E+02  0.83267057820E+02  0.00000000000E+00 0.  1.
         22    1    1    2    0    0 -0.17588888432E+02  0.26925040329E+01  0.56411057960E+02  0.59150875179E+02  0.00000000000E+00 0. -1.
</event>
<event>
 6    1  0.8017648E-006  0.2143345E+03  0.7818608E-02  0.1260399E+00
          2   -1    0    0  502    0  0.00000000000E+00  0.00000000000E+00  0.22940635622E+04  0.22940635622E+04  0.00000000000E+00 0. -1.
          1   -1    0    0  501    0 -0.00000000000E+00 -0.00000000000E+00 -0.75475014058E+02  0.75475014058E+02  0.00000000000E+00 0.  1.
          2    1    1    2  501    0  0.56807340785E+01  0.10679803276E+03  0.21365743204E+04  0.21392493817E+04  0.00000000000E+00 0. -1.
          1    1    1    2  502    0 -0.26294264175E+02 -0.70571555187E+02  0.45564180366E+01  0.75448616126E+02  0.00000000000E+00 0.  1.
         22    1    1    2    0    0  0.32061979277E+02 -0.26659708609E+02  0.11076006397E+03  0.11834906991E+03  0.00000000000E+00 0.  1.
         22    1    1    2    0    0 -0.11448449180E+02 -0.95667689606E+01 -0.33302254247E+02  0.36491508531E+02  0.00000000000E+00 0.  1.
</event>
<event>
 6    1  0.8017648E-006  0.6065190E+02  0.7818608E-02  0.1420815E+00
          2   -1    0    0  502    0  0.00000000000E+00  0.00000000000E+00  0.46022401810E+03  0.46022401810E+03  0.00000000000E+00 0.  1.
          1   -1    0    0  501    0 -0.00000000000E+00 -0.00000000000E+00 -0.69386918166E+02  0.69386918166E+02  0.00000000000E+00 0.  1.
          2    1    1    2  501    0  0.34053252461E+02  0.64816262999E+02  0.15746019320E+03  0.17365046616E+03  0.00000000000E+00 0.  1.
          1    1    1    2  502    0 -0.76481791642E+02 -0.28883684841E+02 -0.50377302305E+01  0.81909159614E+02  0.00000000000E+00 0.  1.
         22    1    1    2    0    0  0.33798160522E+02  0.22429858287E+02  0.15438708549E+02  0.43402395315E+02  0.00000000000E+00 0.  1.
         22    1    1    2    0    0  0.86303786584E+01 -0.58362436444E+02  0.22297592841E+03  0.23064891518E+03  0.00000000000E+00 0.  1.
</event>
<event>
 6    1  0.8017648E-006  0.1442110E+03  0.7818608E-02  0.1209197E+00
          2   -1    0    0  502    0  0.00000000000E+00  0.00000000000E+00  0.24110896615E+03  0.24110896615E+03  0.00000000000E+00 0. -1.
          1   -1    0    0  501    0 -0.00000000000E+00 -0.00000000000E+00 -0.27684087161E+03  0.27684087161E+03  0.00000000000E+00 0. -1.
          2    1    1    2  501    0  0.29718210939E+02  0.67475928402E+02  0.13012429126E+03  0.14956103822E+03  0.00000000000E+00 0. -1.
          1    1    1    2  502    0 -0.25454971592E+02 -0.11993575593E+03 -0.19414651802E+03  0.22962014631E+03  0.00000000000E+00 0. -1.
         22    1    1    2    0    0 -0.19350755087E+02 -0.91633369818E+01 -0.40115251645E+02  0.45471440285E+02  0.00000000000E+00 0. -1.
         22    1    1    2    0    0  0.15087515740E+02  0.61623164509E+02  0.68405572938E+02  0.93297212951E+02  0.00000000000E+00 0. -1.
</event>
<event>
 6    1  0.8017648E-006  0.1859847E+03  0.7818608E-02  0.1220132E+00
          2   -1    0    0  502    0  0.00000000000E+00  0.00000000000E+00  0.34220207865E+02  0.34220207865E+02  0.00000000000E+00 0. -1.
          1   -1    0    0  501    0 -0.00000000000E+00 -0.00000000000E+00 -0.12591957971E+04  0.12591957971E+04  0.00000000000E+00 0.  1.
          2    1    1    2  501    0  0.44423309555E+02  0.36384937470E+02 -0.20012822748E+03  0.20820326976E+03  0.00000000000E+00 0. -1.
          1    1    1    2  502    0  0.76871760050E+02  0.23390794058E+02 -0.74808350306E+03  0.75238641953E+03  0.00000000000E+00 0.  1.
         22    1    1    2    0    0 -0.93512856055E+02 -0.16144412208E+02 -0.65460170662E+02  0.11528369458E+03  0.00000000000E+00 0.  1.
         22    1    1    2    0    0 -0.27782213551E+02 -0.43631319321E+02 -0.21130368805E+03  0.21754262111E+03  0.00000000000E+00 0.  1.
</event>
<event>
 6    1  0.8017648E-006  0.1237819E+03  0.7818608E-02  0.1369818E+00
          2   -1    0    0  502    0  0.00000000000E+00  0.00000000000E+00  0.30069077957E+03  0.30069077957E+03  0.00000000000E+00 0. -1.
          1   -1    0    0  501    0 -0.00000000000E+00 -0.00000000000E+00 -0.18095600987E+03  0.18095600987E+03  0.00000000000E+00 0.  1.
          2    1    1    2  501    0 -0.28693880254E+02 -0.16951393934E+02  0.47243008009E+02  0.57815139246E+02  0.00000000000E+00 0. -1.
          1    1    1    2  502    0  0.12148872191E+03  0.21999119085E+02 -0.12331051346E+03  0.17449628512E+03  0.00000000000E+00 0.  1.
         22    1    1    2    0    0 -0.57190593324E+01 -0.91187607065E+01 -0.16575539900E+02  0.19763804276E+02  0.00000000000E+00 0. -1.
         22    1    1    2    0    0 -0.87075782327E+02  0.40710355548E+01  0.21237781505E+03  0.22957156079E+03  0.00000000000E+00 0. -1.
</event>
<event>
 6    1  0.8017648E-006  0.1122646E+03  0.7818608E-02  0.1360888E+00
          2   -1    0    0  502    0  0.00000000000E+00  0.00000000000E+00  0.31811155347E+03  0.31811155347E+03  0.00000000000E+00 0. -1.
          1   -1    0    0  501    0 -0.00000000000E+00 -0.00000000000E+00 -0.10460440161E+03  0.10460440161E+03  0.00000000000E+00 0.  1.
          2    1    1    2  501    0 -0.89105547634E+02  0.52381405447E+01  0.16081552487E+03  0.18392626179E+03  0.00000000000E+00 0. -1.
          1    1    1    2  502    0  0.10762670808E+03  0.17107740474E+02  0.26944343595E+02  0.11225943492E+03  0.00000000000E+00 0.  1.
         22    1    1    2    0    0 -0.10633096080E+01 -0.16710329454E+02 -0.47842707090E+02  0.50688167845E+02  0.00000000000E+00 0.  1.
         22    1    1    2    0    0 -0.17457850842E+02 -0.56355515646E+01  0.73589990478E+02  0.75842090531E+02  0.00000000000E+00 0. -1.
</event>
<event>
 6    1  0.8017648E-006  0.5270326E+02  0.7818608E-02  0.1467620E+00
          2   -1    0    0  502    0  0.00000000000E+00  0.00000000000E+00  0.61321377484E+03  0.61321377484E+03  0.00000000000E+00 0. -1.
          1   -1    0    0  501    0 -0.00000000000E+00 -0.00000000000E+00 -0.86505239826E+02  0.86505239826E+02  0.00000000000E+00 0.  1.
          2    1    1    2  501    0 -0.17756149823E+01 -0.12411118723E+03  0.34395739140E+03  0.36566846556E+03  0.00000000000E+00 0. -1.
          1    1    1    2  502    0 -0.32351769757E+02  0.12813887580E+03  0.15406874979E+03  0.20298617726E+03  0.00000000000E+00 0.  1.
         22    1    1    2    0    0  0.12827521283E+02  0.18266320613E+01  0.76923068112E+02  0.78006668271E+02  0.00000000000E+00 0.  1.
         22    1    1    2    0    0  0.21299863456E+02 -0.58543206288E+01 -0.48240674287E+02  0.53057703577E+02  0.00000000000E+00 0.  1.
</event>
<event>
 6    1  0.8017648E-006  0.6522562E+02  0.7818608E-02  0.1431912E+00
          2   -1    0    0  502    0  0.00000000000E+00  0.00000000000E+00  0.18152374915E+03  0.18152374915E+03  0.00000000000E+00 0.  1.
          1   -1    0    0  501    0 -0.00000000000E+00 -0.00000000000E+00 -0.56074841904E+02  0.56074841904E+02  0.00000000000E+00 0.  1.
          2    1    1    2  501    0 -0.15245307696E+02  0.14672235469E+02  0.16590665232E+02  0.26887619331E+02  0.00000000000E+00 0.  1.
          1    1    1    2  502    0 -0.27925712015E+02  0.73928763411E+01 -0.13557696406E+02  0.31910987825E+02  0.00000000000E+00 0.  1.
         22    1    1    2    0    0  0.15486382687E+02 -0.22773335706E+02 -0.19796053411E+02  0.33916612428E+02  0.00000000000E+00 0.  1.
         22    1    1    2    0    0  0.27684637024E+02  0.70822389534E+00  0.14221199183E+03  0.14488337147E+03  0.00000000000E+00 0.  1.
</event>
<event>
 6    1  0.8017648E-006  0.4484393E+03  0.7818608E-02  0.1161426E+00
          2   -1    0    0  502    0  0.00000000000E+00  0.00000000000E+00  0.84774385450E+03  0.84774385450E+03  0.00000000000E+00 0.  1.
          1   -1    0    0  501    0 -0.00000000000E+00 -0.00000000000E+00 -0.28522742689E+03  0.28522742689E+03  0.00000000000E+00 0.  1.
          2    1    1    2  501    0 -0.36780074490E+03 -0.81010615084E+02  0.38204162865E+03  0.53646613474E+03  0.00000000000E+00 0.  1.
          1    1    1    2  502    0  0.42554325301E+03  0.50054757550E+02  0.12678763889E+03  0.44684185605E+03  0.00000000000E+00 0.  1.
         22    1    1    2    0    0  0.13233406490E+02  0.26047498485E+01 -0.32070146779E+02  0.34790833326E+02  0.00000000000E+00 0.  1.
         22    1    1    2    0    0 -0.70975914604E+02  0.28351107686E+02  0.85757306852E+02  0.11487245727E+03  0.00000000000E+00 0.  1.
</event>
<event>
 6    1  0.8017648E-006  0.1709617E+03  0.7818608E-02  0.1178783E+00
          2   -1    0    0  502    0  0.00000000000E+00  0.00000000000E+00  0.63977576571E+02  0.63977576571E+02  0.00000000000E+00 0.  1.
          1   -1    0    0  501    0 -0.00000000000E+00 -0.00000000000E+00 -0.44912476536E+03  0.44912476536E+03  0.00000000000E+00 0. -1.
          2    1    1    2  501    0 -0.81435405940E+02 -0.61929832074E+02 -0.13152718657E+03  0.16663262060E+03  0.00000000000E+00 0.  1.
          1    1    1    2  502    0  0.99364202744E+02  0.18700608275E+02 -0.12389764515E+03  0.15991742873E+03  0.00000000000E+00 0. -1.
         22    1    1    2    0    0  0.29757150858E+02  0.61791459546E+02 -0.11396438674E+03  0.13300960095E+03  0.00000000000E+00 0.  1.
         22    1    1    2    0    0 -0.47685947662E+02 -0.18562235747E+02 -0.15757970329E+02  0.53542691652E+02  0.00000000000E+00 0.  1.
</event>
<event>
 6    1  0.8017648E-006  0.5010522E+02  0.7818608E-02  0.1495083E+00
          2   -1    0    0  502    0  0.00000000000E+00  0.00000000000E+00  0.10093878329E+03  0.10093878329E+03  0.00000000000E+00 0.  1.
          1   -1    0    0  501    0 -0.00000000000E+00 -0.00000000000E+00 -0.25717075626E+03  0.25717075626E+03  0.00000000000E+00 0. -1.
          2    1    1    2  501    0  0.19008923099E+02 -0.15999801896E+02  0.40344278224E+02  0.47381363462E+02  0.00000000000E+00 0.  1.
          1    1    1    2  502    0 -0.87718754396E+02  0.15670388101E+02 -0.39501996323E+02  0.97470757921E+02  0.00000000000E+00 0. -1.
         22    1    1    2    0    0  0.23163933409E+02  0.75560698319E+01  0.19218761896E+02  0.31032608835E+02  0.00000000000E+00 0. -1.
         22    1    1    2    0    0  0.45545897888E+02 -0.72266560378E+01 -0.17629301677E+03  0.18222480933E+03  0.00000000000E+00 0. -1.
</event>
<event>
 6    1  0.8017648E-006  0.4858761E+02  0.7818608E-02  0.1477717E+00
          2   -1    0    0  502    0  0.00000000000E+00  0.00000000000E+00  0.26063724932E+03  0.26063724932E+03  0.00000000000E+00 0.  1.
          1   -1    0    0  501    0 -0.00000000000E+00 -0.00000000000E+00 -0.20415312259E+03  0.20415312259E+03  0.00000000000E+00 0.  1.
          2    1    1    2  501    0 -0.31576102223E+02 -0.27802044663E+02  0.93834107420E+02  0.10283405873E+03  0.00000000000E+00 0.  1.
          1    1    1    2  502    0  0.12998217216E+02 -0.45497653011E+02 -0.16177589262E+03  0.16855393651E+03  0.00000000000E+00 0.  1.
         22    1    1    2    0    0 -0.11660230015E+02  0.57588402599E+02 -0.55643392138E+01  0.59019886045E+02  0.00000000000E+00 0.  1.
         22    1    1    2    0    0  0.30238115021E+02  0.15711295075E+02  0.12999025114E+03  0.13438249062E+03  0.00000000000E+00 0.  1.
</event>
<event>
 6    1  0.8017648E-006  0.1054780E+03  0.7818608E-02  0.1301725E+00
          2   -1    0    0  502    0  0.00000000000E+00  0.00000000000E+00  0.67870351060E+03  0.67870351060E+03  0.00000000000E+00 0. -1.
          1   -1    0    0  501    0 -0.00000000000E+00 -0.00000000000E+00 -0.97028548009E+02  0.97028548009E+02  0.00000000000E+00 0.  1.
          2    1    1    2  501    0  0.12158090727E+02  0.12974418819E+03  0.17095639222E+03  0.21495920911E+03  0.00000000000E+00 0. -1.
          1    1    1    2  502    0  0.11484381683E+03 -0.32151600910E+02  0.19417476882E+02  0.12082990571E+03  0.00000000000E+00 0.  1.
         22    1    1    2    0    0 -0.51265139074E+02 -0.25096790621E+02  0.31532186929E+02  0.65209218645E+02  0.00000000000E+00 0. -1.
         22    1    1    2    0    0 -0.75736768483E+02 -0.72495796662E+02  0.35976890656E+03  0.37473372515E+03  0.00000000000E+00 0. -1.
</event>
<event>
 6    1  0.8017648E-006  0.1853426E+03  0.7818608E-02  0.1274659E+00
          2   -1    0    0  502    0  0.00000000000E+00  0.00000000000E+00  0.17556000994E+03  0.17556000994E+03  0.00000000000E+00 0. -1.
          1   -1    0    0  501    0 -0.00000000000E+00 -0.00000000000E+00 -0.23293855508E+03  0.23293855508E+03  0.00000000000E+00 0. -1.
          2    1    1    2  501    0  0.18465345629E+02 -0.43641511778E+02 -0.37945973974E+02  0.60707886476E+02  0.00000000000E+00 0. -1.
          1    1    1    2  502    0 -0.12088397245E+02  0.16690015360E+03  0.59596896253E+01  0.16744344872E+03  0.00000000000E+00 0. -1.
         22    1    1    2    0    0 -0.17490658800E+02 -0.25548486464E+00 -0.51260536279E+02  0.54163003954E+02  0.00000000000E+00 0. -1.
         22    1    1    2    0    0  0.11113710416E+02 -0.12300315696E+03  0.25868275479E+02  0.12618422587E+03  0.00000000000E+00 0. -1.
</event>
<event>
 6    1  0.8017648E-006  0.1114615E+03  0.7818608E-02  0.1282345E+00
          2   -1    0    0  502    0  0.00000000000E+00  0.00000000000E+00  0.39455778060E+03  0.39455778060E+03  0.00000000000E+00 0. -1.
          1   -1    0    0  501    0 -0.00000000000E+00 -0.00000000000E+00 -0.12199921351E+03  0.12199921351E+03  0.00000000000E+00 0. -1.
          2    1    1    2  501    0 -0.28071291068E+02  0.11685586430E+03  0.24716070894E+03  0.27483032302E+03  0.00000000000E+00 0. -1.
          1    1    1    2  502    0 -0.13423092055E+02 -0.79591705269E+02  0.56703031480E+02  0.98642043404E+02  0.00000000000E+00 0. -1.
         22    1    1    2    0    0  0.51510790969E+02 -0.46594725294E+02 -0.72064153035E+02  0.10008832182E+03  0.00000000000E+00 0. -1.
         22    1    1    2    0    0 -0.10016407846E+02  0.93305662588E+01  0.40758979705E+02  0.42996305881E+02  0.00000000000E+00 0. -1.
</event>
<event>
 6    1  0.8017648E-006  0.7660832E+02  0.7818608E-02  0.1349465E+00
          2   -1    0    0  502    0  0.00000000000E+00  0.00000000000E+00  0.57384794573E+02  0.57384794573E+02  0.00000000000E+00 0. -1.
          1   -1    0    0  501    0 -0.00000000000E+00 -0.00000000000E+00 -0.62644925906E+03  0.62644925906E+03  0.00000000000E+00 0. -1.
          2    1    1    2  501    0  0.34435218440E+02 -0.30367862145E+02  0.44376895472E+01  0.46126829598E+02  0.00000000000E+00 0. -1.
          1    1    1    2  502    0 -0.10289799408E+03 -0.77490829004E+01 -0.39588367417E+03  0.40911114498E+03  0.00000000000E+00 0. -1.
         22    1    1    2    0    0  0.40913897320E+02  0.49132406407E+02 -0.18687990231E+03  0.19751465323E+03  0.00000000000E+00 0. -1.
         22    1    1    2    0    0  0.27548878321E+02 -0.11015461362E+02  0.92614224455E+01  0.31081425827E+02  0.00000000000E+00 0. -1.
</event>
<event>
 6    1  0.8017648E-006  0.1717362E+03  0.7818608E-02  0.1308100E+00
          2   -1    0    0  502    0  0.00000000000E+00  0.00000000000E+00  0.46854012530E+03  0.46854012530E+03  0.00000000000E+00 0. -1.
          1   -1    0    0  501    0 -0.00000000000E+00 -0.00000000000E+00 -0.97356287580E+02  0.97356287580E+02  0.00000000000E+00 0. -1.
          2    1    1    2  501    0  0.61232636282E+02  0.69414803292E+02  0.13701612970E+03  0.16535195935E+03  0.00000000000E+00 0. -1.
          1    1    1    2  502    0 -0.11929444722E+03 -0.11610383297E+03  0.74322656042E+02  0.18230502563E+03  0.00000000000E+00 0. -1.
         22    1    1    2    0    0  0.51622185114E+02  0.56539421940E+02  0.17960400350E+03  0.19524127202E+03  0.00000000000E+00 0. -1.
         22    1    1    2    0    0  0.64396258232E+01 -0.98503922580E+01 -0.19758951523E+02  0.22998155875E+02  0.00000000000E+00 0. -1.
</event>
<event>
 6    1  0.8017648E-006  0.1663570E+03  0.7818608E-02  0.1182581E+00
          2   -1    0    0  502    0  0.00000000000E+00  0.00000000000E+00  0.35125572313E+02  0.35125572313E+02  0.00000000000E+00 0.  1.
          1   -1    0    0  501    0 -0.00000000000E+00 -0.00000000000E+00 -0.77289652521E+03  0.77289652521E+03  0.00000000000E+00 0.  1.
          2    1    1    2  501    0 -0.15011400197E+02  0.55873367637E+02 -0.18509660505E+03  0.19392763740E+03  0.00000000000E+00 0.  1.
          1    1    1    2  502    0  0.43589928830E+02 -0.11846743591E+03 -0.22924135331E+03  0.26169870717E+03  0.00000000000E+00 0.  1.
         22    1    1    2    0    0 -0.43914914270E+02  0.90639606044E+02 -0.18841100600E+03  0.21364167445E+03  0.00000000000E+00 0.  1.
         22    1    1    2    0    0  0.15336385638E+02 -0.28045537769E+02 -0.13502198854E+03  0.13875407851E+03  0.00000000000E+00 0.  1.
</event>
<event>
 6    1  0.8017648E-006  0.1168816E+03  0.7818608E-02  0.1328639E+00
          2   -1    0    0  502    0  0.00000000000E+00  0.00000000000E+00  0.16969948509E+03  0.16969948509E+03  0.00000000000E+00 0. -1.
          1   -1    0    0  501    0 -0.00000000000E+00 -0.00000000000E+00 -0.40173388578E+03  0.40173388578E+03  0.00000000000E+00 0. -1.
          2    1    1    2  501    0  0.46701956654E+02  0.11953789698E+03  0.41285974017E+02  0.13481436578E+03  0.00000000000E+00 0. -1.
          1    1    1    2  502    0 -0.61474289609E+01 -0.18589956081E+03 -0.19786854780E+03  0.27156656606E+03  0.00000000000E+00 0. -1.
         22    1    1    2    0    0  0.17460965915E+02  0.56425137256E+01 -0.78896140704E+02  0.81002001888E+02  0.00000000000E+00 0.  1.
         22    1    1    2    0    0 -0.58015493608E+02  0.60719150100E+02  0.34443137947E+01  0.84050437149E+02  0.00000000000E+00 0. -1.
</event>
<event>
 6    1  0.8017648E-006  0.1071410E+03  0.7818608E-02  0.1348707E+00
          2   -1    0    0  502    0  0.00000000000E+00  0.00000000000E+00  0.16090176924E+03  0.16090176924E+03  0.00000000000E+00 0. -1.
          1   -1    0    0  501    0 -0.00000000000E+00 -0.00000000000E+00 -0.41817419073E+03  0.41817419073E+03  0.00000000000E+00 0. -1.
          2    1    1    2  501    0 -0.81124487718E+02 -0.22191491633E+02  0.68823767531E+02  0.10867546083E+03  0.00000000000E+00 0. -1.
          1    1    1    2  502    0  0.85654156848E+02  0.34044502088E+02 -0.32896704090E+03  0.34163573687E+03  0.00000000000E+00 0. -1.
         22    1    1    2    0    0  0.16708376494E+02 -0.13853815992E+01 -0.59623232679E+02  0.61935603673E+02  0.00000000000E+00 0.  1.
         22    1    1    2    0    0 -0.21238045623E+02 -0.10467628856E+02  0.62494084549E+02  0.66829158602E+02  0.00000000000E+00 0. -1.
</event>
<event>
 6    1  0.8017648E-006  0.2658583E+03  0.7818608E-02  0.1221506E+00
          2   -1    0    0  502    0  0.00000000000E+00  0.00000000000E+00  0.15248704005E+04  0.15248704005E+04  0.00000000000E+00 0. -1.
          1   -1    0    0  501    0 -0.00000000000E+00 -0.00000000000E+00 -0.42060884922E+02  0.42060884922E+02  0.00000000000E+00 0. -1.
          2    1    1    2  501    0  0.72730243418E+02 -0.79829732132E+02  0.14764354765E+03  0.18292373165E+03  0.00000000000E+00 0. -1.
          1    1    1    2  502    0 -0.14726775795E+03  0.14342991803E+03  0.66057706082E+03  0.69182511316E+03  0.00000000000E+00 0. -1.
         22    1    1    2    0    0  0.88465999523E+02 -0.73701072361E+02  0.65894084541E+03  0.66892534627E+03  0.00000000000E+00 0. -1.
         22    1    1    2    0    0 -0.13928484988E+02  0.10100886467E+02  0.15648061672E+02  0.23257094306E+02  0.00000000000E+00 0. -1.
</event>
<event>
 6    1  0.8017648E-006  0.5357921E+02  0.7818608E-02  0.1429796E+00
          2   -1    0    0  502    0  0.00000000000E+00  0.00000000000E+00  0.87638566315E+03  0.87638566315E+03  0.00000000000E+00 0.  1.
          1   -1    0    0  501    0 -0.00000000000E+00 -0.00000000000E+00 -0.11023729278E+03  0.11023729278E+03  0.00000000000E+00 0. -1.
          2    1    1    2  501    0 -0.10715914354E+03 -0.69269973071E+02  0.72173762188E+03  0.73293015087E+03  0.00000000000E+00 0.  1.
          1    1    1    2  502    0  0.82732914592E+02  0.87553084488E+02 -0.92699043957E+00  0.12046218108E+03  0.00000000000E+00 0. -1.
         22    1    1    2    0    0  0.20308422120E+02  0.26809938234E+01 -0.40171437034E+02  0.45092838570E+02  0.00000000000E+00 0.  1.
         22    1    1    2    0    0  0.41178068328E+01 -0.20964105240E+02  0.85509175966E+02  0.88137785405E+02  0.00000000000E+00 0. -1.
</event>
<event>
 6    1  0.8017648E-006  0.1583825E+03  0.7818608E-02  0.1312718E+00
          2   -1    0    0  502    0  0.00000000000E+00  0.00000000000E+00  0.44366230711E+03  0.44366230711E+03  0.00000000000E+00 0. -1.
          1   -1    0    0  501    0 -0.00000000000E+00 -0.00000000000E+00 -0.87892580285E+02  0.87892580285E+02  0.00000000000E+00 0. -1.
          2    1    1    2  501    0  0.24517760148E+02 -0.67846918414E+02  0.95152054211E+02  0.11940786541E+03  0.00000000000E+00 0. -1.
          1    1    1    2  502    0  0.82026323827E+01  0.14761672877E+03  0.58834145606E+02  0.15912082981E+03  0.00000000000E+00 0. -1.
         22    1    1    2    0    0 -0.20909196662E+02 -0.72636972543E+02  0.21858514114E+03  0.23128507996E+03  0.00000000000E+00 0. -1.
         22    1    1    2    0    0 -0.11811195869E+02 -0.71328378142E+01 -0.16801614128E+02  0.21741112217E+02  0.00000000000E+00 0.  1.
</event>
<event>
 6    1  0.8017648E-006  0.9634033E+02  0.7818608E-02  0.1330954E+00
          2   -1    0    0  502    0  0.00000000000E+00  0.00000000000E+00  0.11064799491E+03  0.11064799491E+03  0.00000000000E+00 0. -1.
          1   -1    0    0  501    0 -0.00000000000E+00 -0.00000000000E+00 -0.65787945697E+03  0.65787945697E+03  0.00000000000E+00 0. -1.
          2    1    1    2  501    0  0.16345923339E+03 -0.62164525020E+02 -0.14592687801E+03  0.22776743156E+03  0.00000000000E+00 0. -1.
          1    1    1    2  502    0 -0.13089191907E+03  0.12197448145E+03 -0.96526750760E+02  0.20329260246E+03  0.00000000000E+00 0. -1.
         22    1    1    2    0    0  0.76773642719E+01 -0.23751719512E+02  0.28555093576E+01  0.25124490754E+02  0.00000000000E+00 0.  1.
         22    1    1    2    0    0 -0.40244678592E+02 -0.36058236922E+02 -0.30763334264E+03  0.31234292710E+03  0.00000000000E+00 0. -1.
</event>
<event>
 6    1  0.8017648E-006  0.7540137E+02  0.7818608E-02  0.1434246E+00
          2   -1    0    0  502    0  0.00000000000E+00  0.00000000000E+00  0.22227236651E+04  0.22227236651E+04  0.00000000000E+00 0.  1.
          1   -1    0    0  501    0 -0.00000000000E+00 -0.00000000000E+00 -0.74220654025E+02  0.74220654025E+02  0.00000000000E+00 0.  1.
          2    1    1    2  501    0  0.66556790956E+02 -0.25847452951E+02  0.20305582098E+03  0.21524303399E+03  0.00000000000E+00 0.  1.
          1    1    1    2  502    0 -0.63720105329E+02  0.35054889581E+02  0.19576481722E+04  0.19589985868E+04  0.00000000000E+00 0.  1.
         22    1    1    2    0    0 -0.14609867522E+02 -0.90960262043E+01 -0.65703484876E+02  0.67920054818E+02  0.00000000000E+00 0.  1.
         22    1    1    2    0    0  0.11773181895E+02 -0.11141042513E+00  0.53502502793E+02  0.54782643505E+02  0.00000000000E+00 0. -1.
</event>
<event>
 6    1  0.8017648E-006  0.1148587E+03  0.7818608E-02  0.1335979E+00
          2   -1    0    0  502    0  0.00000000000E+00  0.00000000000E+00  0.45268620942E+02  0.45268620942E+02  0.00000000000E+00 0. -1.
          1   -1    0    0  501    0 -0.00000000000E+00 -0.00000000000E+00 -0.30986844356E+03  0.30986844356E+03  0.00000000000E+00 0. -1.
          2    1    1    2  501    0  0.10375609735E+02  0.21477892255E+02  0.38011571194E+01  0.24153714591E+02  0.00000000000E+00 0. -1.
          1    1    1    2  502    0 -0.22476112780E+02  0.48433398577E+02 -0.77104221947E+02  0.93787156826E+02  0.00000000000E+00 0. -1.
         22    1    1    2    0    0 -0.18363449256E+02  0.15360941453E+02 -0.11883195920E+03  0.12121967380E+03  0.00000000000E+00 0. -1.
         22    1    1    2    0    0  0.30463952301E+02 -0.85272232285E+02 -0.72464798590E+02  0.11597651928E+03  0.00000000000E+00 0. -1.
</event>
<event>
 6    1  0.8017648E-006  0.5739953E+02  0.7818608E-02  0.1525371E+00
          2   -1    0    0  502    0  0.00000000000E+00  0.00000000000E+00  0.95178597303E+02  0.95178597303E+02  0.00000000000E+00 0.  1.
          1   -1    0    0  501    0 -0.00000000000E+00 -0.00000000000E+00 -0.84634136841E+03  0.84634136841E+03  0.00000000000E+00 0.  1.
          2    1    1    2  501    0 -0.14439321109E+02 -0.15416313395E+02  0.77397814616E+02  0.80228289401E+02  0.00000000000E+00 0.  1.
          1    1    1    2  502    0 -0.22882688784E+02  0.54437632703E+02 -0.51859664975E+03  0.52194785030E+03  0.00000000000E+00 0.  1.
         22    1    1    2    0    0  0.47651499970E+02 -0.36043384547E+02 -0.31946056126E+03  0.32499975572E+03  0.00000000000E+00 0.  1.
         22    1    1    2    0    0 -0.10329490077E+02 -0.29779347609E+01  0.94966252868E+01  0.14344070291E+02  0.00000000000E+00 0.  1.
</event>
<event>
 6    1  0.8017648E-006  0.8924264E+02  0.7818608E-02  0.1357992E+00
          2   -1    0    0  502    0  0.00000000000E+00  0.00000000000E+00  0.20359144690E+03  0.20359144690E+03  0.00000000000E+00 0. -1.
          1   -1    0    0  501    0 -0.00000000000E+00 -0.00000000000E+00 -0.21438235367E+03  0.21438235367E+03  0.00000000000E+00 0.  1.
          2    1    1    2  501    0 -0.75615547409E+02  0.28388963159E+02  0.15197401344E+03  0.17210387852E+03  0.00000000000E+00 0. -1.
          1    1    1    2  502    0  0.58913685507E+02 -0.27592318781E+00 -0.41397045374E+02  0.72004262647E+02  0.00000000000E+00 0.  1.
         22    1    1    2    0    0 -0.11502037767E+02 -0.73924826281E+01  0.22211548525E+02  0.26082533621E+02  0.00000000000E+00 0.  1.
         22    1    1    2    0    0  0.28203899670E+02 -0.20720557343E+02 -0.14357942336E+03  0.14778312578E+03  0.00000000000E+00 0.  1.
</event>
<event>
 6    1  0.8017648E-006  0.1634098E+03  0.7818608E-02  0.1318177E+00
          2   -1    0    0  502    0  0.00000000000E+00  0.00000000000E+00  0.94505132523E+03  0.94505132523E+03  0.00000000000E+00 0.  1.
          1   -1    0    0  501    0 -0.00000000000E+00 -0.00000000000E+00 -0.57401518041E+02  0.57401518041E+02  0.00000000000E+00 0.  1.
          2    1    1    2  501    0  0.44288112169E+01  0.60212497715E+02  0.23271743117E+03  0.24042163384E+03  0.00000000000E+00 0.  1.
          1    1    1    2  502    0 -0.62031073313E+02 -0.14387404378E+03  0.10612249721E+03  0.18923419073E+03  0.00000000000E+00 0.  1.
         22    1    1    2    0    0  0.99310925406E+01 -0.55727273436E+01 -0.30106318495E+01  0.11779040421E+02  0.00000000000E+00 0. -1.
         22    1    1    2    0    0  0.47671169556E+02  0.89234273405E+02  0.55182051066E+03  0.56101797827E+03  0.00000000000E+00 0.  1.
</event>
<event>
 6    1  0.8017648E-006  0.5186790E+02  0.7818608E-02  0.1470388E+00
          2   -1    0    0  502    0  0.00000000000E+00  0.00000000000E+00  0.13131503822E+03  0.13131503822E+03  0.00000000000E+00 0. -1.
          1   -1    0    0  501    0 -0.00000000000E+00 -0.00000000000E+00 -0.14621402753E+03  0.14621402753E+03  0.00000000000E+00 0. -1.
          2    1    1    2  501    0  0.50968328914E+02  0.71715000301E+01  0.57010095805E+02  0.76807239168E+02  0.00000000000E+00 0. -1.
          1    1    1    2  502    0 -0.57947696556E+02  0.13734323010E+02 -0.46586978083E+02  0.75610275040E+02  0.00000000000E+00 0. -1.
         22    1    1    2    0    0  0.28353336910E+02 -0.31541391598E+02  0.38307267164E+02  0.57150833900E+02  0.00000000000E+00 0. -1.
         22    1    1    2    0    0 -0.21373969267E+02  0.10635568558E+02 -0.63629374197E+02  0.67960717635E+02  0.00000000000E+00 0. -1.
</event>
<event>
 6    1  0.8017648E-006  0.6824286E+02  0.7818608E-02  0.1414701E+00
          2   -1    0    0  502    0  0.00000000000E+00  0.00000000000E+00  0.49059499994E+02  0.49059499994E+02  0.00000000000E+00 0. -1.
          1   -1    0    0  501    0 -0.00000000000E+00 -0.00000000000E+00 -0.22533164820E+03  0.22533164820E+03  0.00000000000E+00 0. -1.
          2    1    1    2  501    0  0.20204803669E+02  0.23160444138E+02 -0.47656306409E+01  0.31102274827E+02  0.00000000000E+00 0. -1.
          1    1    1    2  502    0 -0.21918097511E+02 -0.34104872354E+02 -0.85392711097E+02  0.94527564367E+02  0.00000000000E+00 0. -1.
         22    1    1    2    0    0 -0.15796270161E+02  0.36882717074E+02  0.15061289100E+02  0.42856731083E+02  0.00000000000E+00 0.  1.
         22    1    1    2    0    0  0.17509564003E+02 -0.25938288858E+02 -0.10117509557E+03  0.10590457792E+03  0.00000000000E+00 0. -1.
</event>
<event>
 6    1  0.8017648E-006  0.9324534E+02  0.7818608E-02  0.1296150E+00
          2   -1    0    0  502    0  0.00000000000E+00  0.00000000000E+00  0.14292880292E+03  0.14292880292E+03  0.00000000000E+00 0. -1.
          1   -1    0    0  501    0 -0.00000000000E+00 -0.00000000000E+00 -0.22350379197E+03  0.22350379197E+03  0.00000000000E+00 0. -1.
          2    1    1    2  501    0 -0.33305353133E+02  0.51935478743E+02  0.63976756369E+02  0.88879501884E+02  0.00000000000E+00 0. -1.
          1    1    1    2  502    0  0.45210452474E+02 -0.59428036967E+02 -0.13748089182E+03  0.15645022277E+03  0.00000000000E+00 0. -1.
         22    1    1    2    0    0  0.40880497032E+01 -0.14891552894E+02 -0.59728207082E+02  0.61692213603E+02  0.00000000000E+00 0. -1.
         22    1    1    2    0    0 -0.15993149044E+02  0.22384111118E+02  0.52657353480E+02  0.59410656640E+02  0.00000000000E+00 0. -1.
</event>
<event>
 6    1  0.8017648E-006  0.7133873E+02  0.7818608E-02  0.1360647E+00
          2   -1    0    0  502    0  0.00000000000E+00  0.00000000000E+00  0.40067745263E+02  0.40067745263E+02  0.00000000000E+00 0.  1.
          1   -1    0    0  501    0 -0.00000000000E+00 -0.00000000000E+00 -0.76952068861E+03  0.76952068861E+03  0.00000000000E+00 0.  1.
          2    1    1    2  501    0 -0.15751196875E+02 -0.24308973804E+02 -0.16587391063E+01  0.29013407691E+02  0.00000000000E+00 0.  1.
          1    1    1    2  502    0  0.99279759614E+02 -0.14916365896E+02 -0.45375097820E+03  0.46472456236E+03  0.00000000000E+00 0.  1.
         22    1    1    2    0    0 -0.43548803488E+02  0.48952283989E+02 -0.26596824199E+03  0.27391956874E+03  0.00000000000E+00 0. -1.
         22    1    1    2    0    0 -0.39979759251E+02 -0.97269442892E+01 -0.80749840505E+01  0.41930895082E+02  0.00000000000E+00 0.  1.
</event>
<event>
 6    1  0.8017648E-006  0.5730381E+02  0.7818608E-02  0.1495422E+00
          2   -1    0    0  502    0  0.00000000000E+00  0.00000000000E+00  0.13174147118E+03  0.13174147118E+03  0.00000000000E+00 0. -1.
          1   -1    0    0  501    0 -0.00000000000E+00 -0.00000000000E+00 -0.23797914460E+03  0.23797914460E+03  0.00000000000E+00 0. -1.
          2    1    1    2  501    0 -0.33504518785E+02  0.29953764049E+02  0.54862763037E+02  0.70920402761E+02  0.00000000000E+00 0. -1.
          1    1    1    2  502    0  0.38845469380E+02 -0.26112713335E+02 -0.16709367055E+03  0.17352561490E+03  0.00000000000E+00 0. -1.
         22    1    1    2    0    0  0.10206228094E+02  0.75301327611E+00 -0.58186171871E+02  0.59079308712E+02  0.00000000000E+00 0.  1.
         22    1    1    2    0    0 -0.15547178689E+02 -0.45940639900E+01  0.64179405965E+02  0.66195289404E+02  0.00000000000E+00 0. -1.
</event>
<event>
 6    1  0.8017648E-006  0.5152085E+02  0.7818608E-02  0.1539567E+00
          2   -1    0    0  502    0  0.00000000000E+00  0.00000000000E+00  0.14867444206E+03  0.14867444206E+03  0.00000000000E+00 0. -1.
          1   -1    0    0  501    0 -0.00000000000E+00 -0.00000000000E+00 -0.80057065860E+02  0.80057065860E+02  0.00000000000E+00 0.  1.
          2    1    1    2  501    0 -0.15964305331E+02 -0.13537073770E+02  0.54048284484E+02  0.57959714170E+02  0.00000000000E+00 0. -1.
          1    1    1    2  502    0  0.28975176520E+02  0.33662956603E+02 -0.21229877513E+01  0.44466420799E+02  0.00000000000E+00 0.  1.
         22    1    1    2    0    0 -0.68398652131E+01 -0.30805632919E+02  0.67238873672E+02  0.74275412542E+02  0.00000000000E+00 0. -1.
         22    1    1    2    0    0 -0.61710059766E+01  0.10679750087E+02 -0.50546794200E+02  0.52029960413E+02  0.00000000000E+00 0.  1.
</event>
<event>
 6    1  0.8017648E-006  0.1842204E+02  0.7818608E-02  0.1805567E+00
          2   -1    0    0  502    0  0.00000000000E+00  0.00000000000E+00  0.48341780217E+03  0.48341780217E+03  0.00000000000E+00 0.  1.
          1   -1    0    0  501    0 -0.00000000000E+00 -0.00000000000E+00 -0.10955147753E+04  0.10955147753E+04  0.00000000000E+00 0. -1.
          2    1    1    2  501    0  0.24178812634E+02 -0.21336844249E+02  0.43099577261E+03  0.43220045339E+03  0.00000000000E+00 0.  1.
          1    1    1    2  502    0 -0.32382142420E+02  0.17338309332E+02 -0.10202248640E+04  0.10208858865E+04  0.00000000000E+00 0. -1.
         22    1    1    2    0    0  0.16237306675E+02 -0.70845494122E+01 -0.72359444811E+02  0.74496511474E+02  0.00000000000E+00 0. -1.
         22    1    1    2    0    0 -0.80339768883E+01  0.11083084330E+02  0.49491563141E+02  0.51349726047E+02  0.00000000000E+00 0. -1.
</event>
<event>
 6    1  0.8017648E-006  0.7156218E+02  0.7818608E-02  0.1408328E+00
          2   -1    0    0  502    0  0.00000000000E+00  0.00000000000E+00  0.15096458758E+03  0.15096458758E+03  0.00000000000E+00 0. -1.
          1   -1    0    0  501    0 -0.00000000000E+00 -0.00000000000E+00 -0.14008385897E+03  0.14008385897E+03  0.00000000000E+00 0. -1.
          2    1    1    2  501    0  0.35016446949E+02  0.22918980131E+02  0.63827006119E+02  0.76323770330E+02  0.00000000000E+00 0. -1.
          1    1    1    2  502    0 -0.63018885178E+02  0.41257336269E+01 -0.53565105277E+02  0.82810760595E+02  0.00000000000E+00 0. -1.
         22    1    1    2    0    0  0.30870314714E+02  0.27879010363E+01  0.58798788411E+02  0.66468385277E+02  0.00000000000E+00 0. -1.
         22    1    1    2    0    0 -0.28678764851E+01 -0.29832614794E+02 -0.58179960650E+02  0.65445530346E+02  0.00000000000E+00 0.  1.
</event>
<event>
 6    1  0.8017648E-006  0.1465050E+03  0.7818608E-02  0.1325128E+00
          2   -1    0    0  502    0  0.00000000000E+00  0.00000000000E+00  0.10495144011E+04  0.10495144011E+04  0.00000000000E+00 0. -1.
          1   -1    0    0  501    0 -0.00000000000E+00 -0.00000000000E+00 -0.33344966410E+02  0.33344966410E+02  0.00000000000E+00 0.  1.
          2    1    1    2  501    0  0.31966236996E+02 -0.21143938182E+02  0.29936918071E+03  0.30181254577E+03  0.00000000000E+00 0. -1.
          1    1    1    2  502    0 -0.73890926872E+02  0.10582208708E+03  0.17975005842E+03  0.22128774636E+03  0.00000000000E+00 0.  1.
         22    1    1    2    0    0 -0.49477003874E+01  0.13054851074E+02  0.23183504610E+01  0.14152159714E+02  0.00000000000E+00 0. -1.
         22    1    1    2    0    0  0.46872390264E+02 -0.97732999970E+02  0.53473184510E+03  0.54560691566E+03  0.00000000000E+00 0. -1.
</event>
<event>
 6    1  0.8017648E-006  0.7842797E+02  0.7818608E-02  0.1367020E+00
          2   -1    0    0  502    0  0.00000000000E+00  0.00000000000E+00  0.50567436244E+02  0.50567436244E+02  0.00000000000E+00 0.  1.
          1   -1    0    0  501    0 -0.00000000000E+00 -0.00000000000E+00 -0.55213427848E+03  0.55213427848E+03  0.00000000000E+00 0.  1.
          2    1    1    2  501    0  0.17308403580E+02  0.25708896315E+02  0.97191673298E+01  0.32480615724E+02  0.00000000000E+00 0.  1.
          1    1    1    2  502    0 -0.41519756920E+02 -0.39607071728E+02 -0.37862835719E+03  0.38295175050E+03  0.00000000000E+00 0.  1.
         22    1    1    2    0    0  0.27653263822E+02 -0.34646791826E+02 -0.13130241742E+03  0.13858364985E+03  0.00000000000E+00 0. -1.
         22    1    1    2    0    0 -0.34419104825E+01  0.48544967238E+02 -0.13552349615E+01  0.48685698657E+02  0.00000000000E+00 0.  1.
</event>
<event>
 6    1  0.8017648E-006  0.4175537E+02  0.7818608E-02  0.1530548E+00
          2   -1    0    0  502    0  0.00000000000E+00  0.00000000000E+00  0.22509771571E+03  0.22509771571E+03  0.00000000000E+00 0. -1.
          1   -1    0    0  501    0 -0.00000000000E+00 -0.00000000000E+00 -0.12816683752E+03  0.12816683752E+03  0.00000000000E+00 0.  1.
          2    1    1    2  501    0 -0.38938495732E+02 -0.18592177870E+01  0.14691142252E+03  0.15199549075E+03  0.00000000000E+00 0. -1.
          1    1    1    2  502    0 -0.24194690127E+02 -0.44757695564E+02 -0.14147203750E+02  0.52808879144E+02  0.00000000000E+00 0.  1.
         22    1    1    2    0    0  0.11829995741E+01  0.26050466404E+02 -0.70060325928E+02  0.74756107155E+02  0.00000000000E+00 0. -1.
         22    1    1    2    0    0  0.61950186285E+02  0.20566446947E+02  0.34226985345E+02  0.73704076187E+02  0.00000000000E+00 0. -1.
</event>
<event>
 6    1  0.8017648E-006  0.6147530E+02  0.7818608E-02  0.1455459E+00
          2   -1    0    0  502    0  0.00000000000E+00  0.00000000000E+00  0.20043109958E+03  0.20043109958E+03  0.00000000000E+00 0.  1.
          1   -1    0    0  501    0 -0.00000000000E+00 -0.00000000000E+00 -0.51519111941E+02  0.51519111941E+02  0.00000000000E+00 0. -1.
          2    1    1    2  501    0 -0.91200677030E+01 -0.18722684270E+02  0.35400681616E+02  0.41072165758E+02  0.00000000000E+00 0.  1.
          1    1    1    2  502    0 -0.73979601480E+01  0.35520934025E+02 -0.26840727438E+01  0.36382287103E+02  0.00000000000E+00 0. -1.
         22    1    1    2    0    0  0.16428000007E+02 -0.39975942068E+02  0.13681142000E+03  0.14347585083E+03  0.00000000000E+00 0.  1.
         22    1    1    2    0    0  0.90027844266E-01  0.23177692313E+02 -0.20616041231E+02  0.31019907834E+02  0.00000000000E+00 0. -1.
</event>
<event>
 6    1  0.8017648E-006  0.1553182E+03  0.7818608E-02  0.1318167E+00
          2   -1    0    0  502    0  0.00000000000E+00  0.00000000000E+00  0.47803972322E+03  0.47803972322E+03  0.00000000000E+00 0.  1.
          1   -1    0    0  501    0 -0.00000000000E+00 -0.00000000000E+00 -0.11242480675E+03  0.11242480675E+03  0.00000000000E+00 0. -1.
          2    1    1    2  501    0 -0.35156189980E+02  0.92071052779E+02  0.22062405158E+03  0.24163610779E+03  0.00000000000E+00 0.  1.
          1    1    1    2  502    0  0.33909635933E+02 -0.13707259475E+03 -0.14702426722E+02  0.14196802806E+03  0.00000000000E+00 0. -1.
         22    1    1    2    0    0 -0.43432407418E+01  0.57030532565E+02  0.17645043520E+03  0.18548881763E+03  0.00000000000E+00 0.  1.
         22    1    1    2    0    0  0.55897947881E+01 -0.12028990596E+02 -0.16757143577E+02  0.21371576484E+02  0.00000000000E+00 0. -1.
</event>
<event>
 6    1  0.8017648E-006  0.4049338E+02  0.7818608E-02  0.1532555E+00
          2   -1    0    0  502    0  0.00000000000E+00  0.00000000000E+00  0.18230421686E+03  0.18230421686E+03  0.00000000000E+00 0. -1.
          1   -1    0    0  501    0 -0.00000000000E+00 -0.00000000000E+00 -0.13119094997E+03  0.13119094997E+03  0.00000000000E+00 0. -1.
          2    1    1    2  501    0 -0.10184717086E+02 -0.26774903955E+02  0.10922352205E+03  0.11291767671E+03  0.00000000000E+00 0. -1.
          1    1    1    2  502    0  0.31876121745E+00  0.52515797095E+02  0.80987133121E+01  0.53137554616E+02  0.00000000000E+00 0. -1.
         22    1    1    2    0    0 -0.94258434834E+01 -0.56599479130E+01  0.38008321503E+02  0.39566577300E+02  0.00000000000E+00 0. -1.
         22    1    1    2    0    0  0.19291799352E+02 -0.20080945227E+02 -0.10421728997E+03  0.10787335822E+03  0.00000000000E+00 0. -1.
</event>
<event>
 6    1  0.8017648E-006  0.3605658E+02  0.7818608E-02  0.1592098E+00
          2   -1    0    0  502    0  0.00000000000E+00  0.00000000000E+00  0.17615854869E+03  0.17615854869E+03  0.00000000000E+00 0.  1.
          1   -1    0    0  501    0 -0.00000000000E+00 -0.00000000000E+00 -0.21620942739E+03  0.21620942739E+03  0.00000000000E+00 0.  1.
          2    1    1    2  501    0 -0.47230406921E+01  0.31797304739E+02  0.11223127645E+03  0.11674431513E+03  0.00000000000E+00 0.  1.
          1    1    1    2  502    0 -0.10739432503E+02  0.20583328113E+02 -0.13442401017E+03  0.13641416098E+03  0.00000000000E+00 0.  1.
         22    1    1    2    0    0  0.21782118169E+02 -0.68594860345E+02 -0.59946162821E+02  0.93665671271E+02  0.00000000000E+00 0. -1.
         22    1    1    2    0    0 -0.63196449743E+01  0.16214227493E+02  0.42088017840E+02  0.45543828687E+02  0.00000000000E+00 0.  1.
</event>
<event>
 6    1  0.8017648E-006  0.2649440E+02  0.7818608E-02  0.1663181E+00
          2   -1    0    0  502    0  0.00000000000E+00  0.00000000000E+00  0.41503025069E+03  0.41503025069E+03  0.00000000000E+00 0.  1.
          1   -1    0    0  501    0 -0.00000000000E+00 -0.00000000000E+00 -0.11349121861E+03  0.11349121861E+03  0.00000000000E+00 0.  1.
          2    1    1    2  501    0 -0.15503538580E+02 -0.29624196147E+02  0.30880436707E+03  0.31060922367E+03  0.00000000000E+00 0.  1.
          1    1    1    2  502    0 -0.26616590784E+02  0.34617779096E+02 -0.62693921932E+02  0.76402626799E+02  0.00000000000E+00 0.  1.
         22    1    1    2    0    0  0.18785367980E+02  0.11487194216E+01  0.94080315653E+02  0.95944334902E+02  0.00000000000E+00 0. -1.
         22    1    1    2    0    0  0.23334761384E+02 -0.61423023707E+01 -0.38651728712E+02  0.45565283930E+02  0.00000000000E+00 0. -1.
</event>
<event>
 6    1  0.8017648E-006  0.4523321E+02  0.7818608E-02  0.1533432E+00
          2   -1    0    0  502    0  0.00000000000E+00  0.00000000000E+00  0.44405024634E+03  0.44405024634E+03  0.00000000000E+00 0. -1.
          1   -1    0    0  501    0 -0.00000000000E+00 -0.00000000000E+00 -0.31587452648E+02  0.31587452648E+02  0.00000000000E+00 0. -1.
          2    1    1    2  501    0 -0.26335001122E+02  0.30183644034E+02  0.14098873299E+03  0.14656878072E+03  0.00000000000E+00 0. -1.
          1    1    1    2  502    0  0.94429534314E+01  0.40336578362E+02  0.93156659472E+02  0.10195279362E+03  0.00000000000E+00 0. -1.
         22    1    1    2    0    0  0.18059511091E+02 -0.50805868427E+02  0.19434220756E+03  0.20168360332E+03  0.00000000000E+00 0. -1.
         22    1    1    2    0    0 -0.11674633996E+01 -0.19714353969E+02 -0.16024806330E+02  0.25432521329E+02  0.00000000000E+00 0. -1.
</event>
<event>
 6    1  0.8017648E-006  0.5050634E+02  0.7818608E-02  0.1477187E+00
          2   -1    0    0  502    0  0.00000000000E+00  0.00000000000E+00  0.10971497845E+03  0.10971497845E+03  0.00000000000E+00 0. -1.
          1   -1    0    0  501    0 -0.00000000000E+00 -0.00000000000E+00 -0.22167334883E+03  0.22167334883E+03  0.00000000000E+00 0. -1.
          2    1    1    2  501    0 -0.13200703516E+02  0.34112183733E+02  0.60374893446E+02  0.70590561770E+02  0.00000000000E+00 0. -1.
          1    1    1    2  502    0  0.15527538574E+02 -0.65581216710E+02 -0.37590882470E+02  0.77169131680E+02  0.00000000000E+00 0. -1.
         22    1    1    2    0    0  0.95034664442E+01  0.29052238251E+02 -0.15611589369E+03  0.15908023348E+03  0.00000000000E+00 0. -1.
         22    1    1    2    0    0 -0.11830301502E+02  0.24167947259E+01  0.21373512333E+02  0.24548400352E+02  0.00000000000E+00 0. -1.
</event>
<event>
 6    1  0.8017648E-006  0.7157647E+02  0.7818608E-02  0.1398422E+00
          2   -1    0    0  502    0  0.00000000000E+00  0.00000000000E+00  0.37399671536E+02  0.37399671536E+02  0.00000000000E+00 0. -1.
          1   -1    0    0  501    0 -0.00000000000E+00 -0.00000000000E+00 -0.38511449860E+03  0.38511449860E+03  0.00000000000E+00 0. -1.
          2    1    1    2  501    0 -0.56232105553E+02 -0.16241332311E+02 -0.25620383614E+02  0.63892367515E+02  0.00000000000E+00 0. -1.
          1    1    1    2  502    0  0.21354266829E+02 -0.14207799641E+02 -0.69258013745E+02  0.73854849200E+02  0.00000000000E+00 0. -1.
         22    1    1    2    0    0 -0.10053462510E+02  0.33538241271E+02 -0.81215594767E+01  0.35942251798E+02  0.00000000000E+00 0.  1.
         22    1    1    2    0    0  0.44931301235E+02 -0.30891093184E+01 -0.24471487023E+03  0.24882470162E+03  0.00000000000E+00 0. -1.
</event>
<event>
 6    1  0.8017648E-006  0.1598031E+03  0.7818608E-02  0.1244042E+00
          2   -1    0    0  502    0  0.00000000000E+00  0.00000000000E+00  0.75718559813E+02  0.75718559813E+02  0.00000000000E+00 0. -1.
          1   -1    0    0  501    0 -0.00000000000E+00 -0.00000000000E+00 -0.57043972007E+03  0.57043972007E+03  0.00000000000E+00 0.  1.
          2    1    1    2  501    0  0.37721099937E+02  0.50703208547E+02 -0.38435529233E+02  0.73966118222E+02  0.00000000000E+00 0. -1.
          1    1    1    2  502    0 -0.98343398446E+02 -0.12999562371E+03 -0.12706344680E+03  0.20667705658E+03  0.00000000000E+00 0.  1.
         22    1    1    2    0    0 -0.17983555401E+02  0.46495440290E+02 -0.22723695688E+03  0.23264107291E+03  0.00000000000E+00 0. -1.
         22    1    1    2    0    0  0.78605853910E+02  0.32796974874E+02 -0.10198522734E+03  0.13287403217E+03  0.00000000000E+00 0. -1.
</event>
<event>
 6    1  0.8017648E-006  0.4896907E+02  0.7818608E-02  0.1494422E+00
          2   -1    0    0  502    0  0.00000000000E+00  0.00000000000E+00  0.16732296783E+03  0.16732296783E+03  0.00000000000E+00 0.  1.
          1   -1    0    0  501    0 -0.00000000000E+00 -0.00000000000E+00 -0.52113386188E+02  0.52113386188E+02  0.00000000000E+00 0.  1.
          2    1    1    2  501    0 -0.17371404038E+02  0.14065448531E+02  0.35851126683E+02  0.42248145582E+02  0.00000000000E+00 0.  1.
          1    1    1    2  502    0  0.30659445699E+02 -0.16113158748E+01  0.30334316223E+02  0.43159804102E+02  0.00000000000E+00 0.  1.
         22    1    1    2    0    0  0.25202730810E+02 -0.76582713641E+01 -0.33634511543E+02  0.42721272538E+02  0.00000000000E+00 0.  1.
         22    1    1    2    0    0 -0.38490772472E+02 -0.47958612921E+01  0.82658650278E+02  0.91307131796E+02  0.00000000000E+00 0.  1.
</event>
<event>
 6    1  0.8017648E-006  0.2305954E+02  0.7818608E-02  0.1694506E+00
          2   -1    0    0  502    0  0.00000000000E+00  0.00000000000E+00  0.41099447615E+03  0.41099447615E+03  0.00000000000E+00 0. -1.
          1   -1    0    0  501    0 -0.00000000000E+00 -0.00000000000E+00 -0.93151115758E+02  0.93151115758E+02  0.00000000000E+00 0.  1.
          2    1    1    2  501    0 -0.42610036718E+02 -0.54020781754E+01  0.33243886040E+03  0.33520201906E+03  0.00000000000E+00 0. -1.
          1    1    1    2  502    0  0.35505141091E+02 -0.13041071842E+02 -0.82269054446E+01  0.38708740252E+02  0.00000000000E+00 0.  1.
         22    1    1    2    0    0 -0.21786500276E+01  0.11672541860E+02  0.60872127647E+02  0.62019437870E+02  0.00000000000E+00 0. -1.
         22    1    1    2    0    0  0.92835456545E+01  0.67706081568E+01 -0.67240722208E+02  0.68215394728E+02  0.00000000000E+00 0.  1.
</event>
<event>
 6    1  0.8017648E-006  0.1668933E+03  0.7818608E-02  0.1196657E+00
          2   -1    0    0  502    0  0.00000000000E+00  0.00000000000E+00  0.20818114158E+03  0.20818114158E+03  0.00000000000E+00 0. -1.
          1   -1    0    0  501    0 -0.00000000000E+00 -0.00000000000E+00 -0.58605552841E+03  0.58605552841E+03  0.00000000000E+00 0. -1.
          2    1    1    2  501    0 -0.70496420483E+02 -0.12434870334E+03 -0.37069242085E+01  0.14298981296E+03  0.00000000000E+00 0. -1.
          1    1    1    2  502    0  0.15723004532E+03  0.60175214328E+02 -0.44116277707E+03  0.47219375201E+03  0.00000000000E+00 0. -1.
         22    1    1    2    0    0  0.97253467423E+01 -0.43837124361E+01 -0.26286263591E+02  0.28368414787E+02  0.00000000000E+00 0.  1.
         22    1    1    2    0    0 -0.96458971576E+02  0.68557201451E+02  0.93281578039E+02  0.15068469023E+03  0.00000000000E+00 0. -1.
</event>
<event>
 6    1  0.8017648E-006  0.7903432E+02  0.7818608E-02  0.1407419E+00
          2   -1    0    0  502    0  0.00000000000E+00  0.00000000000E+00  0.26757375753E+03  0.26757375753E+03  0.00000000000E+00 0. -1.
          1   -1    0    0  501    0 -0.00000000000E+00 -0.00000000000E+00 -0.96080650533E+02  0.96080650533E+02  0.00000000000E+00 0.  1.
          2    1    1    2  501    0 -0.28457106499E+02 -0.49500644525E+02  0.13930694286E+03  0.15055412664E+03  0.00000000000E+00 0. -1.
          1    1    1    2  502    0  0.54294818579E+02  0.49374969297E+02 -0.19653002765E+02  0.75974044484E+02  0.00000000000E+00 0.  1.
         22    1    1    2    0    0 -0.11065549404E+02 -0.16934590650E+02  0.90297491287E+02  0.92535742699E+02  0.00000000000E+00 0.  1.
         22    1    1    2    0    0 -0.14772162676E+02  0.17060265878E+02 -0.38458324388E+02  0.44590494241E+02  0.00000000000E+00 0.  1.
</event>
<event>
 6    1  0.8017648E-006  0.6849604E+02  0.7818608E-02  0.1457238E+00
          2   -1    0    0  502    0  0.00000000000E+00  0.00000000000E+00  0.24873013259E+03  0.24873013259E+03  0.00000000000E+00 0. -1.
          1   -1    0    0  501    0 -0.00000000000E+00 -0.00000000000E+00 -0.84406577021E+02  0.84406577021E+02  0.00000000000E+00 0.  1.
          2    1    1    2  501    0  0.29519048164E+02  0.31639223908E+01  0.13608017910E+03  0.13928101002E+03  0.00000000000E+00 0. -1.
          1    1    1    2  502    0 -0.30263428515E+02  0.34720828989E+02 -0.20141820470E+02  0.50270309358E+02  0.00000000000E+00 0.  1.
         22    1    1    2    0    0 -0.14633031572E+02 -0.32399293106E+02  0.91135317116E+02  0.97823748817E+02  0.00000000000E+00 0. -1.
         22    1    1    2    0    0  0.15377411923E+02 -0.54854582738E+01 -0.42750120175E+02  0.45761641414E+02  0.00000000000E+00 0.  1.
</event>
<event>
 6    1  0.8017648E-006  0.8650132E+02  0.7818608E-02  0.1360430E+00
          2   -1    0    0  502    0  0.00000000000E+00  0.00000000000E+00  0.57072055871E+02  0.57072055871E+02  0.00000000000E+00 0.  1.
          1   -1    0    0  501    0 -0.00000000000E+00 -0.00000000000E+00 -0.18601939878E+03  0.18601939878E+03  0.00000000000E+00 0.  1.
          2    1    1    2  501    0 -0.23601399482E+02 -0.26058663168E+02 -0.21865234328E+02  0.41402517506E+02  0.00000000000E+00 0.  1.
          1    1    1    2  502    0 -0.11182695273E+02  0.28622082255E+02 -0.15188164424E+01  0.30766590152E+02  0.00000000000E+00 0.  1.
         22    1    1    2    0    0 -0.21321475300E+02  0.30099670499E+02 -0.99026481869E+02  0.10567326807E+03  0.00000000000E+00 0.  1.
         22    1    1    2    0    0  0.56105570055E+02 -0.32663089586E+02 -0.65368102742E+01  0.65249078929E+02  0.00000000000E+00 0.  1.
</event>
<event>
 6    1  0.8017648E-006  0.1130430E+03  0.7818608E-02  0.1377736E+00
          2   -1    0    0  502    0  0.00000000000E+00  0.00000000000E+00  0.22971487395E+03  0.22971487395E+03  0.00000000000E+00 0.  1.
          1   -1    0    0  501    0 -0.00000000000E+00 -0.00000000000E+00 -0.90350668748E+02  0.90350668748E+02  0.00000000000E+00 0.  1.
          2    1    1    2  501    0  0.41236553647E+02 -0.30570434692E+02  0.55498983770E+02  0.75598558409E+02  0.00000000000E+00 0.  1.
          1    1    1    2  502    0 -0.90386328014E+02  0.53661017163E+01  0.31472749469E+02  0.95859362081E+02  0.00000000000E+00 0.  1.
         22    1    1    2    0    0  0.16387407595E+01 -0.12296166531E+02 -0.37914758831E+02  0.39892481996E+02  0.00000000000E+00 0.  1.
         22    1    1    2    0    0  0.47511033608E+02  0.37500499506E+02  0.90307230794E+02  0.10871514021E+03  0.00000000000E+00 0.  1.
</event>
<event>
 6    1  0.8017648E-006  0.1765678E+03  0.7818608E-02  0.1175086E+00
          2   -1    0    0  502    0  0.00000000000E+00  0.00000000000E+00  0.49005057226E+03  0.49005057226E+03  0.00000000000E+00 0.  1.
          1   -1    0    0  501    0 -0.00000000000E+00 -0.00000000000E+00 -0.22255476060E+03  0.22255476060E+03  0.00000000000E+00 0.  1.
          2    1    1    2  501    0  0.12246068559E+03  0.73388790231E+02  0.39327085045E+03  0.41838319261E+03  0.00000000000E+00 0.  1.
          1    1    1    2  502    0 -0.45584421298E+02 -0.51268665113E+02 -0.12448274152E+03  0.14213503588E+03  0.00000000000E+00 0.  1.
         22    1    1    2    0    0 -0.83745206077E+02 -0.39418821752E+02 -0.46219566612E+02  0.10345700260E+03  0.00000000000E+00 0.  1.
         22    1    1    2    0    0  0.68689417898E+01  0.17298696634E+02  0.44927269344E+02  0.48630101760E+02  0.00000000000E+00 0.  1.
</event>
<event>
 6    1  0.8017648E-006  0.5753814E+02  0.7818608E-02  0.1460958E+00
          2   -1    0    0  502    0  0.00000000000E+00  0.00000000000E+00  0.24060020556E+03  0.24060020556E+03  0.00000000000E+00 0. -1.
          1   -1    0    0  501    0 -0.00000000000E+00 -0.00000000000E+00 -0.10367959861E+03  0.10367959861E+03  0.00000000000E+00 0. -1.
          2    1    1    2  501    0 -0.41009821233E+02 -0.79528741472E+02  0.90057385240E+02  0.12695258483E+03  0.00000000000E+00 0. -1.
          1    1    1    2  502    0  0.81120472326E+00  0.77989021225E+02 -0.52135659693E+01  0.78167299780E+02  0.00000000000E+00 0. -1.
         22    1    1    2    0    0  0.45842253589E+01  0.16918109295E+02 -0.37582048328E+02  0.41468637556E+02  0.00000000000E+00 0. -1.
         22    1    1    2    0    0  0.35614391151E+02 -0.15378389048E+02  0.89658836002E+02  0.97691282006E+02  0.00000000000E+00 0. -1.
</event>
<event>
 6    1  0.8017648E-006  0.2151948E+03  0.7818608E-02  0.1267321E+00
          2   -1    0    0  502    0  0.00000000000E+00  0.00000000000E+00  0.12812357257E+03  0.12812357257E+03  0.00000000000E+00 0.  1.
          1   -1    0    0  501    0 -0.00000000000E+00 -0.00000000000E+00 -0.43917768689E+03  0.43917768689E+03  0.00000000000E+00 0.  1.
          2    1    1    2  501    0  0.97028290727E+02  0.34427843397E+02 -0.41449691467E+02  0.11098577623E+03  0.00000000000E+00 0.  1.
          1    1    1    2  502    0 -0.19840073523E+03 -0.17707316125E+02 -0.20285636834E+03  0.28430108505E+03  0.00000000000E+00 0.  1.
         22    1    1    2    0    0  0.10810854275E+03 -0.27695028322E+02 -0.80158113853E+01  0.11188710758E+03  0.00000000000E+00 0.  1.
         22    1    1    2    0    0 -0.67360982517E+01  0.10974501050E+02 -0.58732243128E+02  0.60127290607E+02  0.00000000000E+00 0.  1.
</event>
<event>
 6    1  0.8017648E-006  0.4330290E+02  0.7818608E-02  0.1554534E+00
          2   -1    0    0  502    0  0.00000000000E+00  0.00000000000E+00  0.21130004011E+03  0.21130004011E+03  0.00000000000E+00 0. -1.
          1   -1    0    0  501    0 -0.00000000000E+00 -0.00000000000E+00 -0.76031946342E+02  0.76031946342E+02  0.00000000000E+00 0.  1.
          2    1    1    2  501    0  0.80350715243E+01  0.29194028964E+02  0.11978823562E+03  0.12355595936E+03  0.00000000000E+00 0. -1.
          1    1    1    2  502    0 -0.10497696384E+02 -0.26522763065E+02 -0.13586873904E+02  0.31595280224E+02  0.00000000000E+00 0.  1.
         22    1    1    2    0    0 -0.85030259253E+01  0.10485379571E+02  0.78609892244E+02  0.79760640627E+02  0.00000000000E+00 0. -1.
         22    1    1    2    0    0  0.10965650785E+02 -0.13156645469E+02 -0.49543160186E+02  0.52420106242E+02  0.00000000000E+00 0.  1.
</event>
<event>
 6    1  0.8017648E-006  0.6863363E+02  0.7818608E-02  0.1413251E+00
          2   -1    0    0  502    0  0.00000000000E+00  0.00000000000E+00  0.73504832685E+02  0.73504832685E+02  0.00000000000E+00 0.  1.
          1   -1    0    0  501    0 -0.00000000000E+00 -0.00000000000E+00 -0.45734907990E+03  0.45734907990E+03  0.00000000000E+00 0. -1.
          2    1    1    2  501    0 -0.86844116330E+02  0.24190766221E+02 -0.33517978479E+02  0.96179772264E+02  0.00000000000E+00 0.  1.
          1    1    1    2  502    0  0.10739604979E+03  0.37033393598E+02 -0.14396895790E+03  0.18339150633E+03  0.00000000000E+00 0. -1.
         22    1    1    2    0    0 -0.16772143697E+02 -0.14185855288E+02  0.13920879441E+02  0.26006425722E+02  0.00000000000E+00 0.  1.
         22    1    1    2    0    0 -0.37797897658E+01 -0.47038304532E+02 -0.22027819027E+03  0.22527620827E+03  0.00000000000E+00 0. -1.
</event>
<event>
 6    1  0.8017648E-006  0.3035813E+02  0.7818608E-02  0.1600562E+00
          2   -1    0    0  502    0  0.00000000000E+00  0.00000000000E+00  0.35770485285E+03  0.35770485285E+03  0.00000000000E+00 0.  1.
          1   -1    0    0  501    0 -0.00000000000E+00 -0.00000000000E+00 -0.11073687775E+03  0.11073687775E+03  0.00000000000E+00 0. -1.
          2    1    1    2  501    0  0.17241303874E+02  0.18728412616E+02  0.24279927189E+03  0.24413009325E+03  0.00000000000E+00 0.  1.
          1    1    1    2  502    0 -0.33688434177E+02  0.13783921238E+02 -0.67723011056E+02  0.76885065575E+02  0.00000000000E+00 0. -1.
         22    1    1    2    0    0 -0.48790808359E+01 -0.21689695864E+02 -0.33029384550E+02  0.39814426785E+02  0.00000000000E+00 0.  1.
         22    1    1    2    0    0  0.21326211138E+02 -0.10822637989E+02  0.10492109881E+03  0.10761214500E+03  0.00000000000E+00 0. -1.
</event>
<event>
 6    1  0.8017648E-006  0.6402331E+02  0.7818608E-02  0.1454682E+00
          2   -1    0    0  502    0  0.00000000000E+00  0.00000000000E+00  0.25484822537E+03  0.25484822537E+03  0.00000000000E+00 0. -1.
          1   -1    0    0  501    0 -0.00000000000E+00 -0.00000000000E+00 -0.11272510157E+03  0.11272510157E+03  0.00000000000E+00 0.  1.
          2    1    1    2  501    0  0.37743659937E+02  0.75080539117E+02  0.12060864844E+03  0.14699699758E+03  0.00000000000E+00 0. -1.
          1    1    1    2  502    0  0.36764897571E+01 -0.66681729544E+02 -0.37445974401E+02  0.76564813268E+02  0.00000000000E+00 0.  1.
         22    1    1    2    0    0  0.17931512838E+02 -0.50411702158E+01 -0.31010854135E+02  0.36174930877E+02  0.00000000000E+00 0.  1.
         22    1    1    2    0    0 -0.59351662532E+02 -0.33576393568E+01  0.89971303892E+02  0.10783658522E+03  0.00000000000E+00 0. -1.
</event>
<event>
 6    1  0.8017648E-006  0.1940324E+03  0.7818608E-02  0.1232134E+00
          2   -1    0    0  502    0  0.00000000000E+00  0.00000000000E+00  0.36204112558E+03  0.36204112558E+03  0.00000000000E+00 0. -1.
          1   -1    0    0  501    0 -0.00000000000E+00 -0.00000000000E+00 -0.36334073465E+03  0.36334073465E+03  0.00000000000E+00 0.  1.
          2    1    1    2  501    0  0.30042548550E+02 -0.12537879944E+03  0.19712953734E+03  0.23554713449E+03  0.00000000000E+00 0. -1.
          1    1    1    2  502    0 -0.27886176606E+02  0.16653797639E+03 -0.28451359260E+03  0.33084818391E+03  0.00000000000E+00 0.  1.
         22    1    1    2    0    0 -0.33836513247E+02 -0.57170131682E+02  0.10066696528E+03  0.12061165567E+03  0.00000000000E+00 0. -1.
         22    1    1    2    0    0  0.31680141303E+02  0.16010954733E+02 -0.14582519090E+02  0.38374886156E+02  0.00000000000E+00 0. -1.
</event>
<event>
 6    1  0.8017648E-006  0.8534511E+02  0.7818608E-02  0.1316721E+00
          2   -1    0    0  502    0  0.00000000000E+00  0.00000000000E+00  0.18447071132E+03  0.18447071132E+03  0.00000000000E+00 0. -1.
          1   -1    0    0  501    0 -0.00000000000E+00 -0.00000000000E+00 -0.46857526072E+03  0.46857526072E+03  0.00000000000E+00 0. -1.
          2    1    1    2  501    0 -0.54179863134E+02 -0.33814323696E+02  0.14196466554E+03  0.15566898316E+03  0.00000000000E+00 0. -1.
          1    1    1    2  502    0  0.44371355392E+02  0.16684390791E+02 -0.33699719352E+03  0.34031499308E+03  0.00000000000E+00 0. -1.
         22    1    1    2    0    0  0.27410798870E+02  0.19002154447E+02 -0.11828882065E+03  0.12290109381E+03  0.00000000000E+00 0. -1.
         22    1    1    2    0    0 -0.17602291128E+02 -0.18722215426E+01  0.29216799234E+02  0.34160901978E+02  0.00000000000E+00 0. -1.
</event>
<event>
 6    1  0.8017648E-006  0.5630439E+02  0.7818608E-02  0.1435105E+00
          2   -1    0    0  502    0  0.00000000000E+00  0.00000000000E+00  0.92016041930E+02  0.92016041930E+02  0.00000000000E+00 0. -1.
          1   -1    0    0  501    0 -0.00000000000E+00 -0.00000000000E+00 -0.73318616518E+03  0.73318616518E+03  0.00000000000E+00 0. -1.
          2    1    1    2  501    0  0.18790550695E+02  0.38571705408E+02  0.56408465926E+02  0.70871547758E+02  0.00000000000E+00 0. -1.
          1    1    1    2  502    0 -0.37353858080E+02 -0.73530474844E+01 -0.56276259907E+03  0.56404886396E+03  0.00000000000E+00 0. -1.
         22    1    1    2    0    0  0.10414919838E+02  0.87609685949E+01  0.23301445507E+02  0.26984856655E+02  0.00000000000E+00 0. -1.
         22    1    1    2    0    0  0.81483875480E+01 -0.39979626519E+02 -0.15811743561E+03  0.16329693873E+03  0.00000000000E+00 0.  1.
</event>
<event>
 6    1  0.8017648E-006  0.1010279E+03  0.7818608E-02  0.1363372E+00
          2   -1    0    0  502    0  0.00000000000E+00  0.00000000000E+00  0.63630441607E+02  0.63630441607E+02  0.00000000000E+00 0. -1.
          1   -1    0    0  501    0 -0.00000000000E+00 -0.00000000000E+00 -0.12710462678E+04  0.12710462678E+04  0.00000000000E+00 0. -1.
          2    1    1    2  501    0  0.10483893770E+02  0.28529392910E+02  0.21269757835E+02  0.37097720775E+02  0.00000000000E+00 0. -1.
          1    1    1    2  502    0 -0.25599167256E+02 -0.77207976760E+02 -0.11229422798E+04  0.11258844314E+04  0.00000000000E+00 0. -1.
         22    1    1    2    0    0 -0.20983967232E+02 -0.67382436592E+01 -0.10317975382E+03  0.10550730973E+03  0.00000000000E+00 0. -1.
         22    1    1    2    0    0  0.36099240717E+02  0.55416827509E+02 -0.25635504597E+01  0.66187247583E+02  0.00000000000E+00 0. -1.
</event>
<event>
 6    1  0.8017648E-006  0.2209056E+03  0.7818608E-02  0.1274764E+00
          2   -1    0    0  502    0  0.00000000000E+00  0.00000000000E+00  0.25376637339E+03  0.25376637339E+03  0.00000000000E+00 0.  1.
          1   -1    0    0  501    0 -0.00000000000E+00 -0.00000000000E+00 -0.30852072414E+03  0.30852072414E+03  0.00000000000E+00 0.  1.
          2    1    1    2  501    0 -0.55419957066E+02  0.48473246468E+02  0.56954939300E+02  0.93085403662E+02  0.00000000000E+00 0.  1.
          1    1    1    2  502    0  0.10717936548E+03 -0.18407063250E+03 -0.16481225602E+03  0.26931857320E+03  0.00000000000E+00 0.  1.
         22    1    1    2    0    0  0.10132938576E+02  0.19053854651E+01 -0.29313210916E+02  0.31073642724E+02  0.00000000000E+00 0. -1.
         22    1    1    2    0    0 -0.61892346994E+02  0.13369200057E+03  0.82416176883E+02  0.16880947795E+03  0.00000000000E+00 0. -1.
</event>
<event>
 6    1  0.8017648E-006  0.2016462E+03  0.7818608E-02  0.1279913E+00
          2   -1    0    0  502    0  0.00000000000E+00  0.00000000000E+00  0.14728340735E+04  0.14728340735E+04  0.00000000000E+00 0.  1.
          1   -1    0    0  501    0 -0.00000000000E+00 -0.00000000000E+00 -0.51856349095E+02  0.51856349095E+02  0.00000000000E+00 0.  1.
          2    1    1    2  501    0  0.65719975234E+02  0.62485475610E+02  0.77673436282E+03  0.78201011515E+03  0.00000000000E+00 0.  1.
          1    1    1    2  502    0 -0.16534395578E+03 -0.76139026317E+02  0.19869133061E+03  0.26946988681E+03  0.00000000000E+00 0.  1.
         22    1    1    2    0    0  0.98138876073E+02  0.25849103067E+02  0.44909901369E+03  0.46042300032E+03  0.00000000000E+00 0.  1.
         22    1    1    2    0    0  0.14851044733E+01 -0.12195552361E+02 -0.35469826889E+01  0.12787420337E+02  0.00000000000E+00 0.  1.
</event>
<event>
 6    1  0.8017648E-006  0.1553442E+03  0.7818608E-02  0.1282294E+00
          2   -1    0    0  502    0  0.00000000000E+00  0.00000000000E+00  0.91155790493E+03  0.91155790493E+03  0.00000000000E+00 0. -1.
          1   -1    0    0  501    0 -0.00000000000E+00 -0.00000000000E+00 -0.49514164133E+02  0.49514164133E+02  0.00000000000E+00 0. -1.
          2    1    1    2  501    0  0.42351056483E+02  0.11111614440E+02  0.25669999137E+03  0.26040730699E+03  0.00000000000E+00 0. -1.
          1    1    1    2  502    0 -0.15667828496E+03 -0.32514035915E+02  0.17848881082E+03  0.23971546278E+03  0.00000000000E+00 0. -1.
         22    1    1    2    0    0  0.10722370309E+03 -0.32779480281E+01  0.42120773390E+03  0.43465345109E+03  0.00000000000E+00 0. -1.
         22    1    1    2    0    0  0.71035253804E+01  0.24680369502E+02  0.56472046974E+01  0.26295848199E+02  0.00000000000E+00 0.  1.
</event>
<event>
 6    1  0.8017648E-006  0.5397045E+02  0.7818608E-02  0.1431910E+00
          2   -1    0    0  502    0  0.00000000000E+00  0.00000000000E+00  0.30213915220E+03  0.30213915220E+03  0.00000000000E+00 0. -1.
          1   -1    0    0  501    0 -0.00000000000E+00 -0.00000000000E+00 -0.64407500757E+02  0.64407500757E+02  0.00000000000E+00 0.  1.
          2    1    1    2  501    0 -0.94127738684E+01  0.67872624090E+02  0.83449414277E+02  0.10797730389E+03  0.00000000000E+00 0. -1.
          1    1    1    2  502    0  0.96910004613E+01 -0.79641755419E+02  0.70492808890E+02  0.10679869288E+03  0.00000000000E+00 0.  1.
         22    1    1    2    0    0 -0.26992731669E+02 -0.23171093648E+02 -0.18738144734E+02  0.40207278095E+02  0.00000000000E+00 0.  1.
         22    1    1    2    0    0  0.26714505076E+02  0.34940224977E+02  0.10252757301E+03  0.11156337808E+03  0.00000000000E+00 0. -1.
</event>
<event>
 6    1  0.8017648E-006  0.7681831E+02  0.7818608E-02  0.1434584E+00
          2   -1    0    0  502    0  0.00000000000E+00  0.00000000000E+00  0.31967013173E+03  0.31967013173E+03  0.00000000000E+00 0.  1.
          1   -1    0    0  501    0 -0.00000000000E+00 -0.00000000000E+00 -0.32385476258E+03  0.32385476258E+03  0.00000000000E+00 0.  1.
          2    1    1    2  501    0 -0.13095668798E+02  0.43329408440E+02  0.24979892327E+03  0.25386696565E+03  0.00000000000E+00 0.  1.
          1    1    1    2  502    0  0.28753811756E+02 -0.58117243937E+02 -0.25630924042E+03  0.26438385439E+03  0.00000000000E+00 0.  1.
         22    1    1    2    0    0 -0.12028987303E+02 -0.10839858528E+02 -0.57687562375E+02  0.59917058683E+02  0.00000000000E+00 0.  1.
         22    1    1    2    0    0 -0.36291556547E+01  0.25627694026E+02  0.60013248675E+02  0.65357015602E+02  0.00000000000E+00 0.  1.
</event>
<event>
 6    1  0.8017648E-006  0.7184077E+02  0.7818608E-02  0.1445810E+00
          2   -1    0    0  502    0  0.00000000000E+00  0.00000000000E+00  0.45430082033E+03  0.45430082033E+03  0.00000000000E+00 0. -1.
          1   -1    0    0  501    0 -0.00000000000E+00 -0.00000000000E+00 -0.16827982167E+03  0.16827982167E+03  0.00000000000E+00 0.  1.
          2    1    1    2  501    0  0.20542907583E+02 -0.46395575587E+02  0.36278124291E+03  0.36631242225E+03  0.00000000000E+00 0. -1.
          1    1    1    2  502    0 -0.15314786215E+02  0.72085059365E+02 -0.99029911940E+02  0.12344116785E+03  0.00000000000E+00 0.  1.
         22    1    1    2    0    0  0.88190426225E+01 -0.16584641314E+02  0.75097217657E+02  0.77410709467E+02  0.00000000000E+00 0. -1.
         22    1    1    2    0    0 -0.14047163991E+02 -0.91048424638E+01 -0.52827549975E+02  0.55416342435E+02  0.00000000000E+00 0. -1.
</event>
<event>
 6    1  0.8017648E-006  0.6049867E+02  0.7818608E-02  0.1472630E+00
          2   -1    0    0  502    0  0.00000000000E+00  0.00000000000E+00  0.70565527630E+02  0.70565527630E+02  0.00000000000E+00 0.  1.
          1   -1    0    0  501    0 -0.00000000000E+00 -0.00000000000E+00 -0.23137185524E+03  0.23137185524E+03  0.00000000000E+00 0. -1.
          2    1    1    2  501    0 -0.85619802650E+01  0.27959430460E+02  0.13303821375E+02  0.32125206939E+02  0.00000000000E+00 0.  1.
          1    1    1    2  502    0 -0.11977067113E+02 -0.61711449850E+02 -0.10880264794E+03  0.12565734908E+03  0.00000000000E+00 0. -1.
         22    1    1    2    0    0  0.18272950591E+02  0.51181871711E+01 -0.98470396485E+02  0.10028217961E+03  0.00000000000E+00 0. -1.
         22    1    1    2    0    0  0.22660967869E+01  0.28633832219E+02  0.33162895439E+02  0.43872647243E+02  0.00000000000E+00 0.  1.
</event>
<event>
 6    1  0.8017648E-006  0.6848752E+02  0.7818608E-02  0.1452021E+00
          2   -1    0    0  502    0  0.00000000000E+00  0.00000000000E+00  0.20412862111E+03  0.20412862111E+03  0.00000000000E+00 0.  1.
          1   -1    0    0  501    0 -0.00000000000E+00 -0.00000000000E+00 -0.48894830726E+03  0.48894830726E+03  0.00000000000E+00 0.  1.
          2    1    1    2  501    0  0.70914417924E+02  0.29118095161E+02  0.16527910226E+03  0.18219193116E+03  0.00000000000E+00 0.  1.
          1    1    1    2  502    0 -0.10807846480E+03 -0.96833201179E+00 -0.20189832949E+03  0.22900835720E+03  0.00000000000E+00 0.  1.
         22    1    1    2    0    0  0.36926982329E+02 -0.42618622217E+02 -0.25820053541E+03  0.26428671073E+03  0.00000000000E+00 0.  1.
         22    1    1    2    0    0  0.23706454328E+00  0.14468859068E+02  0.10000076485E+02  0.17589929279E+02  0.00000000000E+00 0.  1.
</event>
<event>
 6    1  0.8017648E-006  0.2779340E+02  0.7818608E-02  0.1688574E+00
          2   -1    0    0  502    0  0.00000000000E+00  0.00000000000E+00  0.38536314762E+03  0.38536314762E+03  0.00000000000E+00 0. -1.
          1   -1    0    0  501    0 -0.00000000000E+00 -0.00000000000E+00 -0.51506649305E+02  0.51506649305E+02  0.00000000000E+00 0.  1.
          2    1    1    2  501    0 -0.22243453689E+02 -0.31908757869E+01  0.25066011024E+03  0.25166534086E+03  0.00000000000E+00 0. -1.
          1    1    1    2  502    0  0.35563076236E+02  0.11675293120E+02  0.23930781175E+02  0.44426649080E+02  0.00000000000E+00 0.  1.
         22    1    1    2    0    0 -0.11380687020E+02 -0.18429966518E+02  0.98192760138E+02  0.10055347754E+03  0.00000000000E+00 0. -1.
         22    1    1    2    0    0 -0.19389355278E+01  0.99455491843E+01 -0.38927153243E+02  0.40224329443E+02  0.00000000000E+00 0.  1.
</event>
<event>
 6    1  0.8017648E-006  0.8933806E+02  0.7818608E-02  0.1306678E+00
          2   -1    0    0  502    0  0.00000000000E+00  0.00000000000E+00  0.67394761935E+02  0.67394761935E+02  0.00000000000E+00 0.  1.
          1   -1    0    0  501    0 -0.00000000000E+00 -0.00000000000E+00 -0.53759293232E+03  0.53759293232E+03  0.00000000000E+00 0.  1.
          2    1    1    2  501    0 -0.47482758613E+02  0.14372774392E+01  0.54285416169E+00  0.47507608049E+02  0.00000000000E+00 0.  1.
          1    1    1    2  502    0  0.58584151860E+02  0.45419109677E+01 -0.42379570672E+03  0.42784989522E+03  0.00000000000E+00 0.  1.
         22    1    1    2    0    0 -0.32680041069E+02 -0.13176426842E+02  0.31923233255E+02  0.47546778335E+02  0.00000000000E+00 0.  1.
         22    1    1    2    0    0  0.21578647822E+02  0.71972384351E+01 -0.78868551075E+02  0.82083412646E+02  0.00000000000E+00 0. -1.
</event>
<event>
 6    1  0.8017648E-006  0.5037085E+02  0.7818608E-02  0.1449310E+00
          2   -1    0    0  502    0  0.00000000000E+00  0.00000000000E+00  0.74783884584E+02  0.74783884584E+02  0.00000000000E+00 0.  1.
          1   -1    0    0  501    0 -0.00000000000E+00 -0.00000000000E+00 -0.28679155832E+03  0.28679155832E+03  0.00000000000E+00 0.  1.
          2    1    1    2  501    0 -0.24285034792E+02  0.16209439421E+02  0.32516786655E+02  0.43701833549E+02  0.00000000000E+00 0.  1.
          1    1    1    2  502    0  0.39405718779E+00 -0.47703407399E+02 -0.93850704802E+01  0.48619439595E+02  0.00000000000E+00 0.  1.
         22    1    1    2    0    0  0.39621305591E+02  0.35024023955E+02 -0.24480869115E+03  0.25045523627E+03  0.00000000000E+00 0.  1.
         22    1    1    2    0    0 -0.15730327986E+02 -0.35300559764E+01  0.96693012450E+01  0.18798933489E+02  0.00000000000E+00 0.  1.
</event>
<event>
 6    1  0.8017648E-006  0.5135248E+02  0.7818608E-02  0.1535825E+00
          2   -1    0    0  502    0  0.00000000000E+00  0.00000000000E+00  0.27297568503E+03  0.27297568503E+03  0.00000000000E+00 0. -1.
          1   -1    0    0  501    0 -0.00000000000E+00 -0.00000000000E+00 -0.13550412825E+03  0.13550412825E+03  0.00000000000E+00 0. -1.
          2    1    1    2  501    0  0.23112967378E+02 -0.34925016170E+02  0.18446445122E+03  0.18915892731E+03  0.00000000000E+00 0. -1.
          1    1    1    2  502    0 -0.53609866407E+02  0.14151256067E+01 -0.63142653363E+02  0.82843316148E+02  0.00000000000E+00 0. -1.
         22    1    1    2    0    0 -0.12519324984E+02 -0.37883525088E+01  0.62007210105E+02  0.63371754101E+02  0.00000000000E+00 0. -1.
         22    1    1    2    0    0  0.43016224012E+02  0.37298243072E+02 -0.45857451176E+02  0.73105815725E+02  0.00000000000E+00 0. -1.
</event>
<event>
 6    1  0.8017648E-006  0.5062093E+02  0.7818608E-02  0.1453634E+00
          2   -1    0    0  502    0  0.00000000000E+00  0.00000000000E+00  0.33168680733E+03  0.33168680733E+03  0.00000000000E+00 0. -1.
          1   -1    0    0  501    0 -0.00000000000E+00 -0.00000000000E+00 -0.17337723528E+03  0.17337723528E+03  0.00000000000E+00 0. -1.
          2    1    1    2  501    0 -0.60203722853E+02 -0.32370104985E+02  0.19712009371E+03  0.20863519187E+03  0.00000000000E+00 0. -1.
          1    1    1    2  502    0  0.80246335909E+02  0.54626033489E+02 -0.11237841983E+03  0.14850046197E+03  0.00000000000E+00 0. -1.
         22    1    1    2    0    0  0.45267576798E+01 -0.30711397121E+02  0.10363789099E+03  0.10818730932E+03  0.00000000000E+00 0. -1.
         22    1    1    2    0    0 -0.24569370736E+02  0.84554686167E+01 -0.30069992828E+02  0.39741079459E+02  0.00000000000E+00 0.  1.
</event>
<event>
 6    1  0.8017648E-006  0.4349658E+02  0.7818608E-02  0.1548866E+00
          2   -1    0    0  502    0  0.00000000000E+00  0.00000000000E+00  0.40938890280E+03  0.40938890280E+03  0.00000000000E+00 0. -1.
          1   -1    0    0  501    0 -0.00000000000E+00 -0.00000000000E+00 -0.77795374233E+02  0.77795374233E+02  0.00000000000E+00 0.  1.
          2    1    1    2  501    0  0.13229494782E+02  0.27982135129E+02  0.32633464827E+03  0.32779921001E+03  0.00000000000E+00 0. -1.
          1    1    1    2  502    0 -0.10600449133E+01 -0.31414061260E+02 -0.15658284162E+02  0.35116218518E+02  0.00000000000E+00 0.  1.
         22    1    1    2    0    0 -0.16548626851E+02 -0.75097472782E+01 -0.49573642531E+02  0.52799615422E+02  0.00000000000E+00 0. -1.
         22    1    1    2    0    0  0.43791769813E+01  0.10941673410E+02  0.70490806984E+02  0.71469233082E+02  0.00000000000E+00 0.  1.
</event>
<event>
 6    1  0.8017648E-006  0.7373755E+02  0.7818608E-02  0.1415560E+00
          2   -1    0    0  502    0  0.00000000000E+00  0.00000000000E+00  0.84273211601E+02  0.84273211601E+02  0.00000000000E+00 0.  1.
          1   -1    0    0  501    0 -0.00000000000E+00 -0.00000000000E+00 -0.22628432896E+03  0.22628432896E+03  0.00000000000E+00 0. -1.
          2    1    1    2  501    0  0.36994025329E+02  0.35892499183E+02  0.30206290224E+02  0.59743195234E+02  0.00000000000E+00 0.  1.
          1    1    1    2  502    0 -0.44495258365E+02 -0.27440620064E+02 -0.81789266423E+02  0.97068531196E+02  0.00000000000E+00 0. -1.
         22    1    1    2    0    0 -0.16217653856E+02 -0.18336490099E+02 -0.11536816955E+03  0.11793665126E+03  0.00000000000E+00 0.  1.
         22    1    1    2    0    0  0.23718886892E+02  0.98846109796E+01  0.24940028388E+02  0.35809162872E+02  0.00000000000E+00 0.  1.
</event>
<event>
 6    1  0.8017648E-006  0.1341778E+03  0.7818608E-02  0.1359093E+00
          2   -1    0    0  502    0  0.00000000000E+00  0.00000000000E+00  0.67829132523E+03  0.67829132523E+03  0.00000000000E+00 0. -1.
          1   -1    0    0  501    0 -0.00000000000E+00 -0.00000000000E+00 -0.19500053898E+03  0.19500053898E+03  0.00000000000E+00 0. -1.
          2    1    1    2  501    0  0.18849717583E+03  0.54118636357E+02  0.31176449233E+03  0.36831659041E+03  0.00000000000E+00 0. -1.
          1    1    1    2  502    0 -0.87767240944E+02 -0.29762910132E+02 -0.13123787254E+03  0.16066206332E+03  0.00000000000E+00 0. -1.
         22    1    1    2    0    0  0.98037946042E+01 -0.24602147110E+01 -0.85467084923E+01  0.13236814991E+02  0.00000000000E+00 0.  1.
         22    1    1    2    0    0 -0.11053372949E+03 -0.21895511514E+02  0.31131087495E+03  0.33107639548E+03  0.00000000000E+00 0. -1.
</event>
<event>
 6    1  0.8017648E-006  0.1648868E+03  0.7818608E-02  0.1216869E+00
          2   -1    0    0  502    0  0.00000000000E+00  0.00000000000E+00  0.79687274775E+03  0.79687274775E+03  0.00000000000E+00 0.  1.
          1   -1    0    0  501    0 -0.00000000000E+00 -0.00000000000E+00 -0.18748585452E+03  0.18748585452E+03  0.00000000000E+00 0. -1.
          2    1    1    2  501    0  0.21326597409E+03 -0.18687511853E+03  0.44413798231E+03  0.52693759874E+03  0.00000000000E+00 0.  1.
          1    1    1    2  502    0 -0.75796423795E+02  0.14262606582E+00  0.17737698869E+03  0.19289301263E+03  0.00000000000E+00 0. -1.
         22    1    1    2    0    0  0.11782721866E+02  0.20512233368E+01  0.21602521743E+02  0.24692286193E+02  0.00000000000E+00 0.  1.
         22    1    1    2    0    0 -0.14925227217E+03  0.18468126912E+03 -0.33730599510E+02  0.23983570471E+03  0.00000000000E+00 0. -1.
</event>
<event>
 6    1  0.8017648E-006  0.6570420E+02  0.7818608E-02  0.1434016E+00
          2   -1    0    0  502    0  0.00000000000E+00  0.00000000000E+00  0.10485527096E+03  0.10485527096E+03  0.00000000000E+00 0. -1.
          1   -1    0    0  501    0 -0.00000000000E+00 -0.00000000000E+00 -0.95976642272E+03  0.95976642272E+03  0.00000000000E+00 0.  1.
          2    1    1    2  501    0  0.19599713985E+02  0.33187236661E+02  0.53114020235E+02  0.65624999893E+02  0.00000000000E+00 0. -1.
          1    1    1    2  502    0 -0.47960727562E+02 -0.66225515723E+02 -0.84593111813E+03  0.84987381825E+03  0.00000000000E+00 0.  1.
         22    1    1    2    0    0  0.30140263880E+01  0.26813236501E+02  0.37481623279E+02  0.46183396263E+02  0.00000000000E+00 0. -1.
         22    1    1    2    0    0  0.25346987189E+02  0.62250425606E+01 -0.99575677149E+02  0.10293947928E+03  0.00000000000E+00 0.  1.
</event>
<event>
 6    1  0.8017648E-006  0.1831377E+03  0.7818608E-02  0.1214379E+00
          2   -1    0    0  502    0  0.00000000000E+00  0.00000000000E+00  0.17041713777E+04  0.17041713777E+04  0.00000000000E+00 0. -1.
          1   -1    0    0  501    0 -0.00000000000E+00 -0.00000000000E+00 -0.38415666290E+03  0.38415666290E+03  0.00000000000E+00 0. -1.
          2    1    1    2  501    0 -0.11977209445E+03  0.62764640307E+03  0.16803776453E+03  0.66069815514E+03  0.00000000000E+00 0. -1.
          1    1    1    2  502    0  0.12389074135E+03 -0.59053954735E+03  0.11530008720E+04  0.13013442602E+04  0.00000000000E+00 0. -1.
         22    1    1    2    0    0 -0.40668414629E+01 -0.55718143433E+02 -0.49323571437E+02  0.74524260522E+02  0.00000000000E+00 0. -1.
         22    1    1    2    0    0 -0.51805436932E-01  0.18611287710E+02  0.48299649743E+02  0.51761364736E+02  0.00000000000E+00 0.  1.
</event>
<event>
 6    1  0.8017648E-006  0.6083863E+02  0.7818608E-02  0.1466632E+00
          2   -1    0    0  502    0  0.00000000000E+00  0.00000000000E+00  0.42667425246E+03  0.42667425246E+03  0.00000000000E+00 0.  1.
          1   -1    0    0  501    0 -0.00000000000E+00 -0.00000000000E+00 -0.36887674675E+02  0.36887674675E+02  0.00000000000E+00 0.  1.
          2    1    1    2  501    0  0.43639718891E+02  0.12791678434E+02  0.68306935457E+02  0.82060279877E+02  0.00000000000E+00 0.  1.
          1    1    1    2  502    0  0.43335413874E+02  0.12107444289E+02  0.39036653933E+02  0.59568520655E+02  0.00000000000E+00 0.  1.
         22    1    1    2    0    0 -0.19534611899E+02 -0.56485235491E+01 -0.89510683860E+01  0.22217752037E+02  0.00000000000E+00 0.  1.
         22    1    1    2    0    0 -0.67440520866E+02 -0.19250599173E+02  0.29139405679E+03  0.29971537457E+03  0.00000000000E+00 0.  1.
</event>
<event>
 6    1  0.8017648E-006  0.5373364E+02  0.7818608E-02  0.1474902E+00
          2   -1    0    0  502    0  0.00000000000E+00  0.00000000000E+00  0.66167347546E+02  0.66167347546E+02  0.00000000000E+00 0.  1.
          1   -1    0    0  501    0 -0.00000000000E+00 -0.00000000000E+00 -0.59516018564E+03  0.59516018564E+03  0.00000000000E+00 0.  1.
          2    1    1    2  501    0 -0.65174247454E+01  0.48810974362E+02 -0.64552594315E+01  0.49665465042E+02  0.00000000000E+00 0.  1.
          1    1    1    2  502    0  0.13480756149E+02 -0.59820274645E+02 -0.46633831547E+03  0.47035265548E+03  0.00000000000E+00 0.  1.
         22    1    1    2    0    0 -0.14568870836E+02  0.36102777356E+02 -0.90275677892E+02  0.98312565571E+02  0.00000000000E+00 0. -1.
         22    1    1    2    0    0  0.76055394330E+01 -0.25093477073E+02  0.34076414694E+02  0.42996847095E+02  0.00000000000E+00 0.  1.
</event>
<event>
 6    1  0.8017648E-006  0.6124068E+02  0.7818608E-02  0.1392743E+00
          2   -1    0    0  502    0  0.00000000000E+00  0.00000000000E+00  0.18805344032E+03  0.18805344032E+03  0.00000000000E+00 0.  1.
          1   -1    0    0  501    0 -0.00000000000E+00 -0.00000000000E+00 -0.63719933184E+02  0.63719933184E+02  0.00000000000E+00 0.  1.
          2    1    1    2  501    0  0.12893363728E+01  0.25231548258E+02  0.76415647090E+02  0.80483815367E+02  0.00000000000E+00 0.  1.
          1    1    1    2  502    0 -0.20944700259E+02 -0.25341183532E+02 -0.12489222302E+02  0.35168689561E+02  0.00000000000E+00 0.  1.
         22    1    1    2    0    0  0.25646706876E+02  0.24917990165E+02  0.90118156621E+02  0.96953297830E+02  0.00000000000E+00 0.  1.
         22    1    1    2    0    0 -0.59913429890E+01 -0.24808354891E+02 -0.29711074276E+02  0.39167570743E+02  0.00000000000E+00 0.  1.
</event>
<event>
 6    1  0.8017648E-006  0.2248169E+03  0.7818608E-02  0.1137752E+00
          2   -1    0    0  502    0  0.00000000000E+00  0.00000000000E+00  0.12209464219E+03  0.12209464219E+03  0.00000000000E+00 0. -1.
          1   -1    0    0  501    0 -0.00000000000E+00 -0.00000000000E+00 -0.29235494828E+04  0.29235494828E+04  0.00000000000E+00 0. -1.
          2    1    1    2  501    0  0.29245145754E+03  0.37734399096E+02 -0.15736676875E+04  0.16010564420E+04  0.00000000000E+00 0. -1.
          1    1    1    2  502    0 -0.14450955349E+03 -0.14753735353E+03 -0.10140840401E+02  0.20676827219E+03  0.00000000000E+00 0. -1.
         22    1    1    2    0    0  0.20546521244E+02  0.27173065054E+02 -0.15143759313E+03  0.15522203327E+03  0.00000000000E+00 0. -1.
         22    1    1    2    0    0 -0.16848842529E+03  0.82629889385E+02 -0.10662087196E+04  0.10825973776E+04  0.00000000000E+00 0. -1.
</event>
<event>
 6    1  0.8017648E-006  0.4555105E+02  0.7818608E-02  0.1580511E+00
          2   -1    0    0  502    0  0.00000000000E+00  0.00000000000E+00  0.49638874591E+03  0.49638874591E+03  0.00000000000E+00 0.  1.
          1   -1    0    0  501    0 -0.00000000000E+00 -0.00000000000E+00 -0.40639494621E+02  0.40639494621E+02  0.00000000000E+00 0.  1.
          2    1    1    2  501    0  0.80071106112E+01  0.39062755036E+02  0.25531537249E+03  0.25841043338E+03  0.00000000000E+00 0.  1.
          1    1    1    2  502    0  0.32398750980E+02  0.16506657388E+02  0.44176157667E+01  0.36628733697E+02  0.00000000000E+00 0.  1.
         22    1    1    2    0    0 -0.29999456791E+02 -0.57689149312E+02  0.21258606984E+03  0.22230799007E+03  0.00000000000E+00 0.  1.
         22    1    1    2    0    0 -0.10406404800E+02  0.21197368878E+01 -0.16569806812E+02  0.19681083383E+02  0.00000000000E+00 0. -1.
</event>
<event>
 6    1  0.8017648E-006  0.8380402E+02  0.7818608E-02  0.1350180E+00
          2   -1    0    0  502    0  0.00000000000E+00  0.00000000000E+00  0.14254253433E+04  0.14254253433E+04  0.00000000000E+00 0. -1.
          1   -1    0    0  501    0 -0.00000000000E+00 -0.00000000000E+00 -0.18201562682E+02  0.18201562682E+02  0.00000000000E+00 0. -1.
          2    1    1    2  501    0 -0.88961054680E+01  0.47012652345E+02  0.17556674607E+03  0.18196981205E+03  0.00000000000E+00 0. -1.
          1    1    1    2  502    0 -0.28521290396E+02 -0.74352713954E+02  0.92094054164E+03  0.92437723431E+03  0.00000000000E+00 0. -1.
         22    1    1    2    0    0  0.43345653436E+02 -0.21191696415E+02  0.41443869270E+02  0.63604465006E+02  0.00000000000E+00 0. -1.
         22    1    1    2    0    0 -0.59282575713E+01  0.48531758024E+02  0.26927262365E+03  0.27367539463E+03  0.00000000000E+00 0. -1.
</event>
<event>
 6    1  0.8017648E-006  0.4736578E+02  0.7818608E-02  0.1489355E+00
          2   -1    0    0  502    0  0.00000000000E+00  0.00000000000E+00  0.19204656301E+03  0.19204656301E+03  0.00000000000E+00 0.  1.
          1   -1    0    0  501    0 -0.00000000000E+00 -0.00000000000E+00 -0.59484711269E+02  0.59484711269E+02  0.00000000000E+00 0.  1.
          2    1    1    2  501    0 -0.20156018209E+02  0.23688641299E+02  0.76561371318E+02  0.82638129061E+02  0.00000000000E+00 0.  1.
          1    1    1    2  502    0  0.31414057016E+02 -0.11685850427E+02  0.39591610293E+01  0.33750215325E+02  0.00000000000E+00 0.  1.
         22    1    1    2    0    0 -0.10423631697E+02 -0.29439786664E+02 -0.34687182645E+02  0.46674980197E+02  0.00000000000E+00 0.  1.
         22    1    1    2    0    0 -0.83440711024E+00  0.17436995792E+02  0.86728502040E+02  0.88467949697E+02  0.00000000000E+00 0.  1.
</event>
<event>
 6    1  0.8017648E-006  0.7794259E+02  0.7818608E-02  0.1346212E+00
          2   -1    0    0  502    0  0.00000000000E+00  0.00000000000E+00  0.98739868848E+02  0.98739868848E+02  0.00000000000E+00 0. -1.
          1   -1    0    0  501    0 -0.00000000000E+00 -0.00000000000E+00 -0.29063554487E+03  0.29063554487E+03  0.00000000000E+00 0. -1.
          2    1    1    2  501    0  0.29059535024E+02  0.90785713149E+02 -0.33125907415E+02  0.10091495444E+03  0.00000000000E+00 0. -1.
          1    1    1    2  502    0 -0.48967797309E+02 -0.34151204794E+02 -0.13611280935E+03  0.14862989885E+03  0.00000000000E+00 0. -1.
         22    1    1    2    0    0  0.36394760098E+02 -0.52870384088E+02  0.39532079758E+02  0.75383296599E+02  0.00000000000E+00 0.  1.
         22    1    1    2    0    0 -0.16486497813E+02 -0.37641242673E+01 -0.62189039017E+02  0.64447263832E+02  0.00000000000E+00 0. -1.
</event>
<event>
 6    1  0.8017648E-006  0.1927999E+03  0.7818608E-02  0.1213172E+00
          2   -1    0    0  502    0  0.00000000000E+00  0.00000000000E+00  0.69449682118E+03  0.69449682118E+03  0.00000000000E+00 0. -1.
          1   -1    0    0  501    0 -0.00000000000E+00 -0.00000000000E+00 -0.65299240503E+02  0.65299240503E+02  0.00000000000E+00 0. -1.
          2    1    1    2  501    0  0.91368702468E+01  0.37894579500E+02 -0.14831482792E+01  0.39008733409E+02  0.00000000000E+00 0. -1.
          1    1    1    2  502    0  0.11431207041E+03 -0.96932822612E+02  0.39487218415E+03  0.42235916393E+03  0.00000000000E+00 0. -1.
         22    1    1    2    0    0 -0.85015465342E+02  0.21416517932E+02  0.22775491132E+03  0.24404629933E+03  0.00000000000E+00 0.  1.
         22    1    1    2    0    0 -0.38433475317E+02  0.37621725180E+02  0.80536334953E+01  0.54381865019E+02  0.00000000000E+00 0. -1.
</event>
<event>
 6    1  0.8017648E-006  0.8616491E+02  0.7818608E-02  0.1381863E+00
          2   -1    0    0  502    0  0.00000000000E+00  0.00000000000E+00  0.30888114451E+03  0.30888114451E+03  0.00000000000E+00 0.  1.
          1   -1    0    0  501    0 -0.00000000000E+00 -0.00000000000E+00 -0.29683280230E+03  0.29683280230E+03  0.00000000000E+00 0.  1.
          2    1    1    2  501    0 -0.16211610672E+03  0.57541015654E+02  0.20878643728E+03  0.27052611137E+03  0.00000000000E+00 0.  1.
          1    1    1    2  502    0  0.11543561842E+03 -0.65250851632E+02 -0.12508664825E+03  0.18229022247E+03  0.00000000000E+00 0.  1.
         22    1    1    2    0    0  0.49370087442E+01 -0.13309743808E+02  0.34285992165E+02  0.37108659290E+02  0.00000000000E+00 0.  1.
         22    1    1    2    0    0  0.41743479557E+02  0.21019579785E+02 -0.10593743897E+03  0.11578895369E+03  0.00000000000E+00 0.  1.
</event>
<event>
 6    1  0.8017648E-006  0.8494102E+02  0.7818608E-02  0.1418934E+00
          2   -1    0    0  502    0  0.00000000000E+00  0.00000000000E+00  0.37227353167E+03  0.37227353167E+03  0.00000000000E+00 0. -1.
          1   -1    0    0  501    0 -0.00000000000E+00 -0.00000000000E+00 -0.14761034253E+03  0.14761034253E+03  0.00000000000E+00 0. -1.
          2    1    1    2  501    0 -0.10574271971E+02 -0.38147659746E+02  0.12894537784E+03  0.13488502378E+03  0.00000000000E+00 0. -1.
          1    1    1    2  502    0  0.21161970565E+02  0.70619931307E+02 -0.11591093035E+03  0.13736938331E+03  0.00000000000E+00 0. -1.
         22    1    1    2    0    0 -0.34486563678E+00 -0.43704873186E+02  0.22387957524E+03  0.22810589445E+03  0.00000000000E+00 0. -1.
         22    1    1    2    0    0 -0.10242832957E+02  0.11232601625E+02 -0.12250833587E+02  0.19523572671E+02  0.00000000000E+00 0. -1.
</event>
<event>
 6    1  0.8017648E-006  0.1526804E+03  0.7818608E-02  0.1312460E+00
          2   -1    0    0  502    0  0.00000000000E+00  0.00000000000E+00  0.37961194613E+03  0.37961194613E+03  0.00000000000E+00 0. -1.
          1   -1    0    0  501    0 -0.00000000000E+00 -0.00000000000E+00 -0.14291087190E+03  0.14291087190E+03  0.00000000000E+00 0. -1.
          2    1    1    2  501    0 -0.20221389133E+02 -0.11682553960E+03  0.19979841485E+03  0.23232846976E+03  0.00000000000E+00 0. -1.
          1    1    1    2  502    0  0.49980279048E+02  0.14797337277E+03  0.13177566845E+02  0.15674117394E+03  0.00000000000E+00 0. -1.
         22    1    1    2    0    0 -0.15158477576E+02 -0.31095940881E+01 -0.50478246005E+02  0.52796802342E+02  0.00000000000E+00 0. -1.
         22    1    1    2    0    0 -0.14600412339E+02 -0.28038239076E+02  0.74203338536E+02  0.80656371979E+02  0.00000000000E+00 0. -1.
</event>
<event>
 6    1  0.8017648E-006  0.3738903E+02  0.7818608E-02  0.1580959E+00
          2   -1    0    0  502    0  0.00000000000E+00  0.00000000000E+00  0.15045136667E+03  0.15045136667E+03  0.00000000000E+00 0.  1.
          1   -1    0    0  501    0 -0.00000000000E+00 -0.00000000000E+00 -0.11457592102E+03  0.11457592102E+03  0.00000000000E+00 0. -1.
          2    1    1    2  501    0 -0.83398002439E+01 -0.23660504402E+02  0.77103028743E+02  0.81081741336E+02  0.00000000000E+00 0.  1.
          1    1    1    2  502    0  0.11323952334E+01  0.37558849051E+02 -0.40540644728E+02  0.55276517039E+02  0.00000000000E+00 0. -1.
         22    1    1    2    0    0  0.16965612107E+02 -0.87693133513E+01 -0.62771946794E+02  0.65612881015E+02  0.00000000000E+00 0. -1.
         22    1    1    2    0    0 -0.97582070968E+01 -0.51290312973E+01  0.62085008421E+02  0.63056148300E+02  0.00000000000E+00 0.  1.
</event>
<event>
 6    1  0.8017648E-006  0.1503323E+03  0.7818608E-02  0.1325865E+00
          2   -1    0    0  502    0  0.00000000000E+00  0.00000000000E+00  0.18322667757E+03  0.18322667757E+03  0.00000000000E+00 0. -1.
          1   -1    0    0  501    0 -0.00000000000E+00 -0.00000000000E+00 -0.27741722652E+03  0.27741722652E+03  0.00000000000E+00 0.  1.
          2    1    1    2  501    0  0.29538264835E+01  0.82986720689E+02  0.56164203179E+02  0.10024938214E+03  0.00000000000E+00 0. -1.
          1    1    1    2  502    0  0.24246863248E+02 -0.14244910514E+03 -0.16095231544E+03  0.21629911183E+03  0.00000000000E+00 0.  1.
         22    1    1    2    0    0 -0.38553706542E+02  0.53651168433E+02  0.62321102130E+02  0.90822662002E+02  0.00000000000E+00 0. -1.
         22    1    1    2    0    0  0.11353016811E+02  0.58112160229E+01 -0.51723538830E+02  0.53272748113E+02  0.00000000000E+00 0.  1.
</event>
<event>
 6    1  0.8017648E-006  0.1138158E+03  0.7818608E-02  0.1331077E+00
          2   -1    0    0  502    0  0.00000000000E+00  0.00000000000E+00  0.55099776644E+03  0.55099776644E+03  0.00000000000E+00 0.  1.
          1   -1    0    0  501    0 -0.00000000000E+00 -0.00000000000E+00 -0.14952909927E+03  0.14952909927E+03  0.00000000000E+00 0. -1.
          2    1    1    2  501    0 -0.10990988584E+03 -0.41538686996E+02  0.12580973420E+03  0.17214451703E+03  0.00000000000E+00 0.  1.
          1    1    1    2  502    0  0.95989427048E+02  0.40485846674E+02  0.36066920072E+03  0.37541356693E+03  0.00000000000E+00 0. -1.
         22    1    1    2    0    0 -0.10907067858E+02 -0.90616601435E+01  0.30900143334E+02  0.33998480435E+02  0.00000000000E+00 0.  1.
         22    1    1    2    0    0  0.24827526654E+02  0.10114500466E+02 -0.11591041108E+03  0.11897030132E+03  0.00000000000E+00 0. -1.
</event>
<event>
 6    1  0.8017648E-006  0.5563011E+03  0.7818608E-02  0.1092626E+00
          2   -1    0    0  502    0  0.00000000000E+00  0.00000000000E+00  0.13555430752E+04  0.13555430752E+04  0.00000000000E+00 0. -1.
          1   -1    0    0  501    0 -0.00000000000E+00 -0.00000000000E+00 -0.23895370442E+03  0.23895370442E+03  0.00000000000E+00 0. -1.
          2    1    1    2  501    0 -0.48762787653E+03  0.63755596692E+02  0.84066837107E+03  0.97394508685E+03  0.00000000000E+00 0. -1.
          1    1    1    2  502    0  0.38511216979E+03 -0.15494761769E+02  0.17283770843E+03  0.42240305919E+03  0.00000000000E+00 0. -1.
         22    1    1    2    0    0  0.34949747274E+02 -0.16595125222E+02 -0.27694886581E+02  0.47580350549E+02  0.00000000000E+00 0.  1.
         22    1    1    2    0    0  0.67565959471E+02 -0.31665709702E+02  0.13077817784E+03  0.15056828301E+03  0.00000000000E+00 0. -1.
</event>
<event>
 6    1  0.8017648E-006  0.4646349E+02  0.7818608E-02  0.1527884E+00
          2   -1    0    0  502    0  0.00000000000E+00  0.00000000000E+00  0.29202122987E+03  0.29202122987E+03  0.00000000000E+00 0.  1.
          1   -1    0    0  501    0 -0.00000000000E+00 -0.00000000000E+00 -0.54588523523E+02  0.54588523523E+02  0.00000000000E+00 0.  1.
          2    1    1    2  501    0 -0.28822460320E+02 -0.22688593697E+00  0.14360638657E+03  0.14647040643E+03  0.00000000000E+00 0.  1.
          1    1    1    2  502    0  0.15594759195E+02 -0.19817606542E+02  0.60437676525E+02  0.65487760590E+02  0.00000000000E+00 0.  1.
         22    1    1    2    0    0  0.19381794010E+02 -0.29420882747E+01 -0.46941728691E+02  0.50870774664E+02  0.00000000000E+00 0.  1.
         22    1    1    2    0    0 -0.61540928846E+01  0.22986580754E+02  0.80330371941E+02  0.83780811706E+02  0.00000000000E+00 0.  1.
</event>
<event>
 6    1  0.8017648E-006  0.1132647E+03  0.7818608E-02  0.1357362E+00
          2   -1    0    0  502    0  0.00000000000E+00  0.00000000000E+00  0.59606444325E+03  0.59606444325E+03  0.00000000000E+00 0.  1.
          1   -1    0    0  501    0 -0.00000000000E+00 -0.00000000000E+00 -0.69391812722E+02  0.69391812722E+02  0.00000000000E+00 0.  1.
          2    1    1    2  501    0  0.16228138096E+02  0.35001022594E+02  0.46066017829E+03  0.46227288900E+03  0.00000000000E+00 0.  1.
          1    1    1    2  502    0  0.39936324828E+02 -0.40421266955E+02  0.29501037789E+02  0.64024214901E+02  0.00000000000E+00 0.  1.
         22    1    1    2    0    0 -0.39972949286E+02  0.11517132819E+02  0.81201529580E+02  0.91236886340E+02  0.00000000000E+00 0.  1.
         22    1    1    2    0    0 -0.16191513638E+02 -0.60968884584E+01 -0.44690115125E+02  0.47922265730E+02  0.00000000000E+00 0.  1.
</event>
<event>
 6    1  0.8017648E-006  0.1116737E+03  0.7818608E-02  0.1317898E+00
          2   -1    0    0  502    0  0.00000000000E+00  0.00000000000E+00  0.82221255852E+03  0.82221255852E+03  0.00000000000E+00 0. -1.
          1   -1    0    0  501    0 -0.00000000000E+00 -0.00000000000E+00 -0.84535017328E+02  0.84535017328E+02  0.00000000000E+00 0. -1.
          2    1    1    2  501    0 -0.11812722435E+03  0.14558190697E+03  0.34100608421E+03  0.38914429488E+03  0.00000000000E+00 0. -1.
          1    1    1    2  502    0  0.15911276381E+03 -0.12547338222E+03  0.22393656780E+03  0.30200666822E+03  0.00000000000E+00 0. -1.
         22    1    1    2    0    0 -0.61280368836E+02 -0.21672516234E+02  0.18198031990E+03  0.19324031256E+03  0.00000000000E+00 0.  1.
         22    1    1    2    0    0  0.20294829382E+02  0.15639914844E+01 -0.92454307223E+01  0.22356300192E+02  0.00000000000E+00 0.  1.
</event>
<event>
 6    1  0.8017648E-006  0.9444730E+02  0.7818608E-02  0.1411410E+00
          2   -1    0    0  502    0  0.00000000000E+00  0.00000000000E+00  0.18116953305E+03  0.18116953305E+03  0.00000000000E+00 0. -1.
          1   -1    0    0  501    0 -0.00000000000E+00 -0.00000000000E+00 -0.88230154412E+02  0.88230154412E+02  0.00000000000E+00 0.  1.
          2    1    1    2  501    0 -0.41049552343E+01 -0.28834342248E+02  0.11561696407E+02  0.31335966144E+02  0.00000000000E+00 0. -1.
          1    1    1    2  502    0  0.49991673966E+02  0.20493776342E+02 -0.33581136099E+02  0.63614896340E+02  0.00000000000E+00 0.  1.
         22    1    1    2    0    0 -0.47555429210E+02 -0.39714173881E+01  0.13923067522E+03  0.14718176492E+03  0.00000000000E+00 0. -1.
         22    1    1    2    0    0  0.16687104790E+01  0.12311983294E+02 -0.24271856888E+02  0.27267060056E+02  0.00000000000E+00 0.  1.
</event>
<event>
 6    1  0.8017648E-006  0.6671037E+02  0.7818608E-02  0.1464299E+00
          2   -1    0    0  502    0  0.00000000000E+00  0.00000000000E+00  0.32259580499E+03  0.32259580499E+03  0.00000000000E+00 0. -1.
          1   -1    0    0  501    0 -0.00000000000E+00 -0.00000000000E+00 -0.10109480234E+03  0.10109480234E+03  0.00000000000E+00 0. -1.
          2    1    1    2  501    0  0.66876295747E+02 -0.14579513308E+01  0.12801095722E+03  0.14443465554E+03  0.00000000000E+00 0. -1.
          1    1    1    2  502    0 -0.69849366321E+02  0.47168417881E+02 -0.40462991065E+02  0.93493568051E+02  0.00000000000E+00 0. -1.
         22    1    1    2    0    0  0.77831471929E+01  0.10928030199E+02 -0.18616973095E+02  0.22947568749E+02  0.00000000000E+00 0. -1.
         22    1    1    2    0    0 -0.48100766186E+01 -0.56638496750E+02  0.15257000959E+03  0.16281481498E+03  0.00000000000E+00 0. -1.
</event>
<event>
 6    1  0.8017648E-006  0.4462601E+02  0.7818608E-02  0.1498061E+00
          2   -1    0    0  502    0  0.00000000000E+00  0.00000000000E+00  0.12911613401E+03  0.12911613401E+03  0.00000000000E+00 0.  1.
          1   -1    0    0  501    0 -0.00000000000E+00 -0.00000000000E+00 -0.18095887230E+03  0.18095887230E+03  0.00000000000E+00 0. -1.
          2    1    1    2  501    0 -0.10069300942E+02 -0.56337354487E+02  0.40151448223E+02  0.69910136079E+02  0.00000000000E+00 0.  1.
          1    1    1    2  502    0  0.12584650744E+02  0.69674502005E+02 -0.90503351607E+02  0.11490764255E+03  0.00000000000E+00 0. -1.
         22    1    1    2    0    0  0.15123928238E+02 -0.23394333444E+02  0.56945255536E+02  0.63393928501E+02  0.00000000000E+00 0.  1.
         22    1    1    2    0    0 -0.17639278041E+02  0.10057185927E+02 -0.58436090447E+02  0.61863299179E+02  0.00000000000E+00 0. -1.
</event>
<event>
 6    1  0.8017648E-006  0.4797020E+02  0.7818608E-02  0.1462312E+00
          2   -1    0    0  502    0  0.00000000000E+00  0.00000000000E+00  0.49335077782E+03  0.49335077782E+03  0.00000000000E+00 0.  1.
          1   -1    0    0  501    0 -0.00000000000E+00 -0.00000000000E+00 -0.45059958310E+03  0.45059958310E+03  0.00000000000E+00 0.  1.
          2    1    1    2  501    0  0.41345054093E+02  0.12780619774E+03  0.40538883126E+03  0.42706433027E+03  0.00000000000E+00 0.  1.
          1    1    1    2  502    0 -0.48839939287E+02 -0.14124452800E+03 -0.36101461140E+03  0.39072612659E+03  0.00000000000E+00 0.  1.
         22    1    1    2    0    0 -0.77169644011E+01  0.14702701552E+02 -0.61844068295E+02  0.64034441950E+02  0.00000000000E+00 0.  1.
         22    1    1    2    0    0  0.15211849594E+02 -0.12643712969E+01  0.60221043158E+02  0.62125462106E+02  0.00000000000E+00 0. -1.
</event>
<event>
 6    1  0.8017648E-006  0.8417140E+02  0.7818608E-02  0.1375361E+00
          2   -1    0    0  502    0  0.00000000000E+00  0.00000000000E+00  0.30677547397E+02  0.30677547397E+02  0.00000000000E+00 0. -1.
          1   -1    0    0  501    0 -0.00000000000E+00 -0.00000000000E+00 -0.43243513318E+03  0.43243513318E+03  0.00000000000E+00 0. -1.
          2    1    1    2  501    0  0.24721010632E+02 -0.11088971753E+02 -0.35901384369E+02  0.44977806314E+02  0.00000000000E+00 0. -1.
          1    1    1    2  502    0 -0.59661873236E+02  0.30091147151E+02 -0.15917186404E+03  0.17262878832E+03  0.00000000000E+00 0. -1.
         22    1    1    2    0    0  0.62255479779E+02 -0.38362906872E+01 -0.36064410220E+02  0.72049313482E+02  0.00000000000E+00 0. -1.
         22    1    1    2    0    0 -0.27314617175E+02 -0.15165884711E+02 -0.17061992715E+03  0.17345677246E+03  0.00000000000E+00 0. -1.
</event>
<event>
 6    1  0.8017648E-006  0.3181305E+03  0.7818608E-02  0.1207983E+00
          2   -1    0    0  502    0  0.00000000000E+00  0.00000000000E+00  0.26466019265E+04  0.26466019265E+04  0.00000000000E+00 0. -1.
          1   -1    0    0  501    0 -0.00000000000E+00 -0.00000000000E+00 -0.54626874830E+02  0.54626874830E+02  0.00000000000E+00 0.  1.
          2    1    1    2  501    0 -0.16578615022E+03  0.12818700895E+03  0.16297576592E+04  0.16431758836E+04  0.00000000000E+00 0. -1.
          1    1    1    2  502    0  0.17867149454E+03 -0.18781161930E+03  0.80456247627E+03  0.84529136132E+03  0.00000000000E+00 0.  1.
         22    1    1    2    0    0 -0.16218705106E+02  0.72575260147E+02  0.17541647413E+03  0.19052861774E+03  0.00000000000E+00 0.  1.
         22    1    1    2    0    0  0.33333607921E+01 -0.12950649798E+02 -0.17761557874E+02  0.22232938683E+02  0.00000000000E+00 0.  1.
</event>
<event>
 6    1  0.8017648E-006  0.5052294E+02  0.7818608E-02  0.1491704E+00
          2   -1    0    0  502    0  0.00000000000E+00  0.00000000000E+00  0.16919012640E+04  0.16919012640E+04  0.00000000000E+00 0. -1.
          1   -1    0    0  501    0 -0.00000000000E+00 -0.00000000000E+00 -0.11687575198E+03  0.11687575198E+03  0.00000000000E+00 0.  1.
          2    1    1    2  501    0 -0.16073325762E+02  0.75998292200E+02  0.15381633142E+04  0.15401235254E+04  0.00000000000E+00 0. -1.
          1    1    1    2  502    0  0.11022371787E+02 -0.10531053004E+03 -0.42974172229E+02  0.11427414360E+03  0.00000000000E+00 0.  1.
         22    1    1    2    0    0  0.15270382039E+02  0.21359958127E+02  0.11444978382E+03  0.11742310418E+03  0.00000000000E+00 0.  1.
         22    1    1    2    0    0 -0.10219428064E+02  0.79522797101E+01 -0.34613413837E+02  0.36956242774E+02  0.00000000000E+00 0.  1.
</event>
<event>
 6    1  0.8017648E-006  0.5828906E+02  0.7818608E-02  0.1454006E+00
          2   -1    0    0  502    0  0.00000000000E+00  0.00000000000E+00  0.72319713970E+02  0.72319713970E+02  0.00000000000E+00 0. -1.
          1   -1    0    0  501    0 -0.00000000000E+00 -0.00000000000E+00 -0.34089909023E+03  0.34089909023E+03  0.00000000000E+00 0. -1.
          2    1    1    2  501    0 -0.14851993839E+02 -0.13930993639E+02  0.18333010272E+02  0.27399882671E+02  0.00000000000E+00 0. -1.
          1    1    1    2  502    0  0.32049065337E+02  0.34498402341E+02 -0.24388493291E+03  0.24838909568E+03  0.00000000000E+00 0. -1.
         22    1    1    2    0    0  0.42166988265E+01 -0.38255524574E+02  0.36591427910E+02  0.53105539315E+02  0.00000000000E+00 0. -1.
         22    1    1    2    0    0 -0.21413770325E+02  0.17688115872E+02 -0.79618881538E+02  0.84324286537E+02  0.00000000000E+00 0.  1.
</event>
<event>
 6    1  0.8017648E-006  0.9845655E+02  0.7818608E-02  0.1356544E+00
          2   -1    0    0  502    0  0.00000000000E+00  0.00000000000E+00  0.55400136450E+03  0.55400136450E+03  0.00000000000E+00 0. -1.
          1   -1    0    0  501    0 -0.00000000000E+00 -0.00000000000E+00 -0.86612944704E+02  0.86612944704E+02  0.00000000000E+00 0.  1.
          2    1    1    2  501    0 -0.16826137603E+01  0.26537141816E+02  0.17002503147E+03  0.17209172674E+03  0.00000000000E+00 0. -1.
          1    1    1    2  502    0  0.70157041962E+02 -0.54953637477E+02 -0.43106822199E+02  0.98995509640E+02  0.00000000000E+00 0.  1.
         22    1    1    2    0    0 -0.16763008126E+02 -0.20790987684E+02  0.58008469851E+01  0.27329717087E+02  0.00000000000E+00 0. -1.
         22    1    1    2    0    0 -0.51711420076E+02  0.49207483345E+02  0.33466936353E+03  0.34219735573E+03  0.00000000000E+00 0. -1.
</event>
<event>
 6    1  0.8017648E-006  0.1222781E+03  0.7818608E-02  0.1276867E+00
          2   -1    0    0  502    0  0.00000000000E+00  0.00000000000E+00  0.17763337903E+03  0.17763337903E+03  0.00000000000E+00 0. -1.
          1   -1    0    0  501    0 -0.00000000000E+00 -0.00000000000E+00 -0.13478273518E+03  0.13478273518E+03  0.00000000000E+00 0. -1.
          2    1    1    2  501    0 -0.45980717839E+02  0.51910753590E+02  0.15085677770E+02  0.70968517140E+02  0.00000000000E+00 0. -1.
          1    1    1    2  502    0  0.87600085968E+02 -0.62675364890E+02  0.53272076831E+01  0.10784412625E+03  0.00000000000E+00 0. -1.
         22    1    1    2    0    0 -0.13073115725E+02  0.61704349584E+02  0.37393852094E+02  0.73325529570E+02  0.00000000000E+00 0.  1.
         22    1    1    2    0    0 -0.28546252404E+02 -0.50939738284E+02 -0.14956093700E+02  0.60277941252E+02  0.00000000000E+00 0. -1.
</event>
<event>
 6    1  0.8017648E-006  0.4225059E+02  0.7818608E-02  0.1516512E+00
          2   -1    0    0  502    0  0.00000000000E+00  0.00000000000E+00  0.24740898573E+03  0.24740898573E+03  0.00000000000E+00 0.  1.
          1   -1    0    0  501    0 -0.00000000000E+00 -0.00000000000E+00 -0.32972898867E+02  0.32972898867E+02  0.00000000000E+00 0.  1.
          2    1    1    2  501    0  0.59999071402E+01 -0.19733973410E+02  0.60782288782E+02  0.64186565742E+02  0.00000000000E+00 0.  1.
          1    1    1    2  502    0 -0.18453097462E+02  0.17541941597E+02  0.18864587111E+02  0.31687681641E+02  0.00000000000E+00 0.  1.
         22    1    1    2    0    0  0.85568367309E+01  0.29109378391E+02 -0.13884272529E+02  0.33366875623E+02  0.00000000000E+00 0.  1.
         22    1    1    2    0    0  0.38963535909E+01 -0.26917346578E+02  0.14867348350E+03  0.15114076159E+03  0.00000000000E+00 0.  1.
</event>
<event>
 6    1  0.8017648E-006  0.3190939E+02  0.7818608E-02  0.1599632E+00
          2   -1    0    0  502    0  0.00000000000E+00  0.00000000000E+00  0.52296745923E+03  0.52296745923E+03  0.00000000000E+00 0.  1.
          1   -1    0    0  501    0 -0.00000000000E+00 -0.00000000000E+00 -0.32881089139E+02  0.32881089139E+02  0.00000000000E+00 0.  1.
          2    1    1    2  501    0  0.22726505555E+02 -0.14959426154E+02  0.26745851654E+03  0.26883886727E+03  0.00000000000E+00 0.  1.
          1    1    1    2  502    0 -0.47728760619E+02  0.22570771854E+02  0.96689098545E+02  0.11016467723E+03  0.00000000000E+00 0.  1.
         22    1    1    2    0    0  0.22578086230E+02  0.10993605941E+02  0.14671626790E+03  0.14884989962E+03  0.00000000000E+00 0.  1.
         22    1    1    2    0    0  0.24241688342E+01 -0.18604951640E+02 -0.20777512892E+02  0.27995104251E+02  0.00000000000E+00 0.  1.
</event>
<event>
 6    1  0.8017648E-006  0.2510882E+03  0.7818608E-02  0.1209556E+00
          2   -1    0    0  502    0  0.00000000000E+00  0.00000000000E+00  0.10078947163E+03  0.10078947163E+03  0.00000000000E+00 0. -1.
          1   -1    0    0  501    0 -0.00000000000E+00 -0.00000000000E+00 -0.12028069771E+04  0.12028069771E+04  0.00000000000E+00 0. -1.
          2    1    1    2  501    0 -0.33071229100E+02  0.16427969145E+03 -0.50928419127E+02  0.17514344718E+03  0.00000000000E+00 0. -1.
          1    1    1    2  502    0  0.17461656456E+02 -0.23002443954E+03 -0.87142081931E+03  0.90143796046E+03  0.00000000000E+00 0. -1.
         22    1    1    2    0    0  0.41469239228E+02  0.70532339473E+02 -0.52634869159E+02  0.97287913767E+02  0.00000000000E+00 0. -1.
         22    1    1    2    0    0 -0.25859666584E+02 -0.47875913755E+01 -0.12703339783E+03  0.12972712728E+03  0.00000000000E+00 0.  1.
</event>
<event>
 6    1  0.8017648E-006  0.9949136E+02  0.7818608E-02  0.1283276E+00
          2   -1    0    0  502    0  0.00000000000E+00  0.00000000000E+00  0.53248902850E+03  0.53248902850E+03  0.00000000000E+00 0. -1.
          1   -1    0    0  501    0 -0.00000000000E+00 -0.00000000000E+00 -0.98677816332E+02  0.98677816332E+02  0.00000000000E+00 0. -1.
          2    1    1    2  501    0  0.98477147213E+02  0.11147829283E+02  0.43218105479E+03  0.44339878974E+03  0.00000000000E+00 0. -1.
          1    1    1    2  502    0 -0.15928274365E+02  0.14273617250E+02 -0.21579957452E+02  0.30383229540E+02  0.00000000000E+00 0. -1.
         22    1    1    2    0    0  0.16932842082E+02 -0.62834484602E+01  0.49526247173E+02  0.52716714850E+02  0.00000000000E+00 0.  1.
         22    1    1    2    0    0 -0.99481714930E+02 -0.19137998072E+02 -0.26316132348E+02  0.10466811070E+03  0.00000000000E+00 0. -1.
</event>
<event>
 6    1  0.8017648E-006  0.3582816E+02  0.7818608E-02  0.1617886E+00
          2   -1    0    0  502    0  0.00000000000E+00  0.00000000000E+00  0.15491502626E+03  0.15491502626E+03  0.00000000000E+00 0.  1.
          1   -1    0    0  501    0 -0.00000000000E+00 -0.00000000000E+00 -0.12896422352E+03  0.12896422352E+03  0.00000000000E+00 0.  1.
          2    1    1    2  501    0  0.34404557308E+02 -0.14919246120E+00  0.83163658327E+02  0.89999388266E+02  0.00000000000E+00 0.  1.
          1    1    1    2  502    0 -0.44371586229E+02  0.20739345251E+02 -0.50162351893E+02  0.70108627524E+02  0.00000000000E+00 0.  1.
         22    1    1    2    0    0  0.74351290806E+01 -0.33434481510E+02 -0.60075776276E+02  0.69153774976E+02  0.00000000000E+00 0.  1.
         22    1    1    2    0    0  0.25318998404E+01  0.12844328719E+02  0.53025272578E+02  0.54617459013E+02  0.00000000000E+00 0. -1.
</event>
<event>
 6    1  0.8017648E-006  0.9298477E+02  0.7818608E-02  0.1324864E+00
          2   -1    0    0  502    0  0.00000000000E+00  0.00000000000E+00  0.15052297976E+03  0.15052297976E+03  0.00000000000E+00 0. -1.
          1   -1    0    0  501    0 -0.00000000000E+00 -0.00000000000E+00 -0.12317136239E+03  0.12317136239E+03  0.00000000000E+00 0. -1.
          2    1    1    2  501    0 -0.27740752946E+02  0.57079645762E+02  0.45756870666E+02  0.78238906865E+02  0.00000000000E+00 0. -1.
          1    1    1    2  502    0  0.43756857972E+02 -0.43968429924E+01 -0.39829656547E+02  0.59332928367E+02  0.00000000000E+00 0. -1.
         22    1    1    2    0    0  0.20833313284E+02 -0.50752112723E+02 -0.37602189040E+02  0.66511115679E+02  0.00000000000E+00 0. -1.
         22    1    1    2    0    0 -0.36849418310E+02 -0.19306900470E+01  0.59026592282E+02  0.69611391239E+02  0.00000000000E+00 0.  1.
</event>
<event>
 6    1  0.8017648E-006  0.9355339E+02  0.7818608E-02  0.1368962E+00
          2   -1    0    0  502    0  0.00000000000E+00  0.00000000000E+00  0.43280705113E+03  0.43280705113E+03  0.00000000000E+00 0.  1.
          1   -1    0    0  501    0 -0.00000000000E+00 -0.00000000000E+00 -0.19297980794E+03  0.19297980794E+03  0.00000000000E+00 0.  1.
          2    1    1    2  501    0  0.66112164520E+02 -0.40328531970E+02  0.37153395497E+03  0.37951902255E+03  0.00000000000E+00 0.  1.
          1    1    1    2  502    0 -0.70940312252E+02  0.27390652964E+02 -0.84033336575E+02  0.11333303767E+03  0.00000000000E+00 0.  1.
         22    1    1    2    0    0 -0.39687465513E+01  0.24974738701E+02 -0.87145776854E+02  0.90740701705E+02  0.00000000000E+00 0.  1.
         22    1    1    2    0    0  0.87968942835E+01 -0.12036859695E+02  0.39472401653E+02  0.42194097130E+02  0.00000000000E+00 0.  1.
</event>
<event>
 6    1  0.8017648E-006  0.1156724E+03  0.7818608E-02  0.1372521E+00
          2   -1    0    0  502    0  0.00000000000E+00  0.00000000000E+00  0.38624600183E+03  0.38624600183E+03  0.00000000000E+00 0.  1.
          1   -1    0    0  501    0 -0.00000000000E+00 -0.00000000000E+00 -0.15988433082E+03  0.15988433082E+03  0.00000000000E+00 0. -1.
          2    1    1    2  501    0  0.10492109716E+03 -0.10596842967E+03  0.18085697244E+03  0.23440774134E+03  0.00000000000E+00 0.  1.
          1    1    1    2  502    0 -0.11841756383E+03  0.50917891578E+01 -0.47212527927E+02  0.12758396660E+03  0.00000000000E+00 0. -1.
         22    1    1    2    0    0  0.21208739397E+02  0.11011827904E+03  0.11385831145E+03  0.15981101681E+03  0.00000000000E+00 0.  1.
         22    1    1    2    0    0 -0.77122727274E+01 -0.92416385262E+01 -0.21141084955E+02  0.24327607904E+02  0.00000000000E+00 0. -1.
</event>
<event>
 6    1  0.8017648E-006  0.2048965E+03  0.7818608E-02  0.1266225E+00
          2   -1    0    0  502    0  0.00000000000E+00  0.00000000000E+00  0.15351001225E+03  0.15351001225E+03  0.00000000000E+00 0. -1.
          1   -1    0    0  501    0 -0.00000000000E+00 -0.00000000000E+00 -0.15744627948E+04  0.15744627948E+04  0.00000000000E+00 0.  1.
          2    1    1    2  501    0  0.12079980283E+02  0.83206417080E+02  0.86179274844E+02  0.12039975573E+03  0.00000000000E+00 0. -1.
          1    1    1    2  502    0 -0.15582091079E+02 -0.16646264496E+03 -0.14344646729E+04  0.14441750280E+04  0.00000000000E+00 0.  1.
         22    1    1    2    0    0  0.70821548650E+01  0.98068914029E+02 -0.99163722631E+01  0.98823090699E+02  0.00000000000E+00 0.  1.
         22    1    1    2    0    0 -0.35800440688E+01 -0.14812686145E+02 -0.62751012244E+02  0.64574932629E+02  0.00000000000E+00 0. -1.
</event>
<event>
 6    1  0.8017648E-006  0.4291490E+02  0.7818608E-02  0.1497530E+00
          2   -1    0    0  502    0  0.00000000000E+00  0.00000000000E+00  0.70979571222E+02  0.70979571222E+02  0.00000000000E+00 0. -1.
          1   -1    0    0  501    0 -0.00000000000E+00 -0.00000000000E+00 -0.52576486062E+03  0.52576486062E+03  0.00000000000E+00 0.  1.
          2    1    1    2  501    0 -0.18708899096E+02 -0.12311574887E+02  0.49427898201E+02  0.54265227376E+02  0.00000000000E+00 0. -1.
          1    1    1    2  502    0  0.40237440196E+02 -0.26257466969E+02 -0.25451336897E+03  0.25900880516E+03  0.00000000000E+00 0.  1.
         22    1    1    2    0    0 -0.11909704151E+02 -0.53142023080E+01  0.12132253554E+02  0.17812169308E+02  0.00000000000E+00 0. -1.
         22    1    1    2    0    0 -0.96188369491E+01  0.43883244164E+02 -0.26183207218E+03  0.26565823000E+03  0.00000000000E+00 0. -1.
</event>
<event>
 6    1  0.8017648E-006  0.2525854E+03  0.7818608E-02  0.1249375E+00
          2   -1    0    0  502    0  0.00000000000E+00  0.00000000000E+00  0.23814908880E+03  0.23814908880E+03  0.00000000000E+00 0. -1.
          1   -1    0    0  501    0 -0.00000000000E+00 -0.00000000000E+00 -0.38805486374E+03  0.38805486374E+03  0.00000000000E+00 0.  1.
          2    1    1    2  501    0 -0.71164743486E+02 -0.93508473867E+02  0.13417464725E+02  0.11827207515E+03  0.00000000000E+00 0. -1.
          1    1    1    2  502    0  0.35558001774E+02  0.19998346367E+03 -0.24504475583E+03  0.31828397634E+03  0.00000000000E+00 0.  1.
         22    1    1    2    0    0  0.42806716483E+02 -0.11523878669E+03  0.10633884099E+03  0.16254335433E+03  0.00000000000E+00 0. -1.
         22    1    1    2    0    0 -0.71999747715E+01  0.87637968791E+01 -0.24617324814E+02  0.27104546730E+02  0.00000000000E+00 0.  1.
</event>
<event>
 6    1  0.8017648E-006  0.9162741E+02  0.7818608E-02  0.1331920E+00
          2   -1    0    0  502    0  0.00000000000E+00  0.00000000000E+00  0.30467235521E+03  0.30467235521E+03  0.00000000000E+00 0.  1.
          1   -1    0    0  501    0 -0.00000000000E+00 -0.00000000000E+00 -0.60923961246E+02  0.60923961246E+02  0.00000000000E+00 0.  1.
          2    1    1    2  501    0 -0.21780559986E+02 -0.73693106468E+01  0.13308733201E+02  0.26567309087E+02  0.00000000000E+00 0.  1.
          1    1    1    2  502    0 -0.62316345082E+02 -0.14788674791E+02  0.38929472446E+01  0.64165308421E+02  0.00000000000E+00 0.  1.
         22    1    1    2    0    0  0.45900148279E+02  0.21360741757E+02  0.59413559439E+01  0.50974548658E+02  0.00000000000E+00 0.  1.
         22    1    1    2    0    0  0.38196756789E+02  0.79724368105E+00  0.22060535758E+03  0.22388915029E+03  0.00000000000E+00 0.  1.
</event>
<event>
 6    1  0.8017648E-006  0.4720156E+02  0.7818608E-02  0.1472969E+00
          2   -1    0    0  502    0  0.00000000000E+00  0.00000000000E+00  0.41696986300E+03  0.41696986300E+03  0.00000000000E+00 0.  1.
          1   -1    0    0  501    0 -0.00000000000E+00 -0.00000000000E+00 -0.56263655824E+02  0.56263655824E+02  0.00000000000E+00 0.  1.
          2    1    1    2  501    0  0.32523002335E+02  0.14208273611E+02  0.29107623683E+03  0.29323198387E+03  0.00000000000E+00 0.  1.
          1    1    1    2  502    0  0.22851823932E+02 -0.87369242524E+01  0.13549202691E+02  0.27966419077E+02  0.00000000000E+00 0.  1.
         22    1    1    2    0    0 -0.68688159282E+02 -0.12120663122E+02 -0.21540827117E+02  0.72999869404E+02  0.00000000000E+00 0.  1.
         22    1    1    2    0    0  0.13313333016E+02  0.66493137634E+01  0.77621594768E+02  0.79035246465E+02  0.00000000000E+00 0. -1.
</event>
<event>
 6    1  0.8017648E-006  0.7174969E+02  0.7818608E-02  0.1393192E+00
          2   -1    0    0  502    0  0.00000000000E+00  0.00000000000E+00  0.72230728293E+02  0.72230728293E+02  0.00000000000E+00 0. -1.
          1   -1    0    0  501    0 -0.00000000000E+00 -0.00000000000E+00 -0.41704672760E+03  0.41704672760E+03  0.00000000000E+00 0.  1.
          2    1    1    2  501    0  0.10353369878E+02 -0.42736815294E+02  0.22171698887E+02  0.49246440286E+02  0.00000000000E+00 0. -1.
          1    1    1    2  502    0 -0.33039971981E+02  0.96912477503E+02 -0.20787812430E+03  0.23172609393E+03  0.00000000000E+00 0.  1.
         22    1    1    2    0    0  0.18333274868E+02 -0.16646939605E+02  0.15791387240E+02  0.29370009815E+02  0.00000000000E+00 0.  1.
         22    1    1    2    0    0  0.43533272346E+01 -0.37528722604E+02 -0.17490096113E+03  0.17893491186E+03  0.00000000000E+00 0. -1.
</event>
<event>
 6    1  0.8017648E-006  0.4353886E+02  0.7818608E-02  0.1567691E+00
          2   -1    0    0  502    0  0.00000000000E+00  0.00000000000E+00  0.41227213396E+03  0.41227213396E+03  0.00000000000E+00 0. -1.
          1   -1    0    0  501    0 -0.00000000000E+00 -0.00000000000E+00 -0.36806512955E+02  0.36806512955E+02  0.00000000000E+00 0. -1.
          2    1    1    2  501    0  0.28943729865E+01  0.20670462441E+02  0.16282323886E+03  0.16415557416E+03  0.00000000000E+00 0. -1.
          1    1    1    2  502    0 -0.12676399389E+02 -0.27856085097E+02  0.12394133825E+03  0.12766404312E+03  0.00000000000E+00 0. -1.
         22    1    1    2    0    0  0.23796027765E+02  0.98510593199E+01  0.12006879954E+03  0.12279988163E+03  0.00000000000E+00 0.  1.
         22    1    1    2    0    0 -0.14014001362E+02 -0.26654366640E+01 -0.31367755647E+02  0.34459148004E+02  0.00000000000E+00 0. -1.
</event>
<event>
 6    1  0.8017648E-006  0.6868036E+02  0.7818608E-02  0.1377098E+00
          2   -1    0    0  502    0  0.00000000000E+00  0.00000000000E+00  0.66067352273E+02  0.66067352273E+02  0.00000000000E+00 0.  1.
          1   -1    0    0  501    0 -0.00000000000E+00 -0.00000000000E+00 -0.18961821756E+03  0.18961821756E+03  0.00000000000E+00 0.  1.
          2    1    1    2  501    0 -0.89921061540E+01 -0.24583470712E+02 -0.11595588786E+02  0.28629751739E+02  0.00000000000E+00 0.  1.
          1    1    1    2  502    0 -0.50418012078E+02 -0.17792082652E+02 -0.13333147081E+02  0.55102694654E+02  0.00000000000E+00 0.  1.
         22    1    1    2    0    0  0.51970028789E+01  0.28772730184E+02  0.23588581977E+02  0.37567273535E+02  0.00000000000E+00 0.  1.
         22    1    1    2    0    0  0.54213115353E+02  0.13602823180E+02 -0.12221071140E+03  0.13438584991E+03  0.00000000000E+00 0.  1.
</event>
<event>
 6    1  0.8017648E-006  0.4229590E+02  0.7818608E-02  0.1554883E+00
          2   -1    0    0  502    0  0.00000000000E+00  0.00000000000E+00  0.15853505692E+03  0.15853505692E+03  0.00000000000E+00 0.  1.
          1   -1    0    0  501    0 -0.00000000000E+00 -0.00000000000E+00 -0.32445585526E+03  0.32445585526E+03  0.00000000000E+00 0. -1.
          2    1    1    2  501    0 -0.55062358072E+01  0.25854779254E+02  0.86920870289E+02  0.90851669962E+02  0.00000000000E+00 0.  1.
          1    1    1    2  502    0  0.30213247612E+02 -0.24692431158E+02 -0.26326011171E+03  0.26613613604E+03  0.00000000000E+00 0. -1.
         22    1    1    2    0    0 -0.11073552169E+02  0.11042365840E+02  0.65822947112E+02  0.67655138515E+02  0.00000000000E+00 0.  1.
         22    1    1    2    0    0 -0.13633459636E+02 -0.12204713936E+02 -0.55404504036E+02  0.58347967671E+02  0.00000000000E+00 0. -1.
</event>
<event>
 6    1  0.8017648E-006  0.4796542E+02  0.7818608E-02  0.1467225E+00
          2   -1    0    0  502    0  0.00000000000E+00  0.00000000000E+00  0.22427406460E+03  0.22427406460E+03  0.00000000000E+00 0. -1.
          1   -1    0    0  501    0 -0.00000000000E+00 -0.00000000000E+00 -0.12551624608E+03  0.12551624608E+03  0.00000000000E+00 0. -1.
          2    1    1    2  501    0  0.38449954512E+02 -0.59494535219E+02  0.48060877222E+02  0.85602842490E+02  0.00000000000E+00 0. -1.
          1    1    1    2  502    0 -0.88811876379E+02  0.51298427716E+02 -0.32773277406E+02  0.10767156442E+03  0.00000000000E+00 0. -1.
         22    1    1    2    0    0  0.26564203032E+02  0.66491938553E+01  0.11430254640E+03  0.11753697620E+03  0.00000000000E+00 0. -1.
         22    1    1    2    0    0  0.23797718835E+02  0.15469136480E+01 -0.30832327689E+02  0.38978927567E+02  0.00000000000E+00 0.  1.
</event>
<event>
 6    1  0.8017648E-006  0.2903114E+02  0.7818608E-02  0.1611345E+00
          2   -1    0    0  502    0  0.00000000000E+00  0.00000000000E+00  0.36248330798E+03  0.36248330798E+03  0.00000000000E+00 0.  1.
          1   -1    0    0  501    0 -0.00000000000E+00 -0.00000000000E+00 -0.10245321598E+03  0.10245321598E+03  0.00000000000E+00 0. -1.
          2    1    1    2  501    0  0.31301873525E+02 -0.29489384215E+02  0.29971494277E+03  0.30278454053E+03  0.00000000000E+00 0.  1.
          1    1    1    2  502    0 -0.18489222328E+02  0.20582939246E+02 -0.24967549784E+02  0.37267777939E+02  0.00000000000E+00 0. -1.
         22    1    1    2    0    0 -0.18385245180E+02 -0.15102389028E+02 -0.64819210760E+02  0.69048022985E+02  0.00000000000E+00 0. -1.
         22    1    1    2    0    0  0.55725939822E+01  0.24008833997E+02  0.50101909775E+02  0.55836182505E+02  0.00000000000E+00 0. -1.
</event>
<event>
 6    1  0.8017648E-006  0.9940895E+02  0.7818608E-02  0.1350116E+00
          2   -1    0    0  502    0  0.00000000000E+00  0.00000000000E+00  0.28998899400E+03  0.28998899400E+03  0.00000000000E+00 0.  1.
          1   -1    0    0  501    0 -0.00000000000E+00 -0.00000000000E+00 -0.35561695859E+03  0.35561695859E+03  0.00000000000E+00 0.  1.
          2    1    1    2  501    0 -0.19879842678E+03  0.71904276420E+02  0.72021337941E+02  0.22333408289E+03  0.00000000000E+00 0.  1.
          1    1    1    2  502    0  0.23553280279E+03 -0.69738079284E+02 -0.16211819055E+03  0.29431515183E+03  0.00000000000E+00 0.  1.
         22    1    1    2    0    0  0.39418395166E+01 -0.11451887440E+02 -0.45175603469E+02  0.46770920170E+02  0.00000000000E+00 0.  1.
         22    1    1    2    0    0 -0.40676215522E+02  0.92856903049E+01  0.69644491486E+02  0.81185797699E+02  0.00000000000E+00 0. -1.
</event>
<event>
 6    1  0.8017648E-006  0.9360240E+02  0.7818608E-02  0.1394181E+00
          2   -1    0    0  502    0  0.00000000000E+00  0.00000000000E+00  0.52459751031E+02  0.52459751031E+02  0.00000000000E+00 0. -1.
          1   -1    0    0  501    0 -0.00000000000E+00 -0.00000000000E+00 -0.59028244422E+03  0.59028244422E+03  0.00000000000E+00 0. -1.
          2    1    1    2  501    0  0.40102076290E+02 -0.95409423555E+00 -0.16534227626E+02  0.43387411789E+02  0.00000000000E+00 0. -1.
          1    1    1    2  502    0 -0.78953571355E+02  0.17397998853E+02 -0.44066798649E+03  0.44802302520E+03  0.00000000000E+00 0. -1.
         22    1    1    2    0    0 -0.86060481798E+01 -0.14369372199E+02 -0.98992809858E+02  0.10039979744E+03  0.00000000000E+00 0. -1.
         22    1    1    2    0    0  0.47457543245E+02 -0.20745324188E+01  0.18372330776E+02  0.50931960828E+02  0.00000000000E+00 0. -1.
</event>
<event>
 6    1  0.8017648E-006  0.1512633E+03  0.7818608E-02  0.1300586E+00
          2   -1    0    0  502    0  0.00000000000E+00  0.00000000000E+00  0.93293664826E+02  0.93293664826E+02  0.00000000000E+00 0.  1.
          1   -1    0    0  501    0 -0.00000000000E+00 -0.00000000000E+00 -0.24224956330E+03  0.24224956330E+03  0.00000000000E+00 0.  1.
          2    1    1    2  501    0  0.23066822270E+02 -0.88554804574E+01 -0.61532186225E+02  0.66307675012E+02  0.00000000000E+00 0.  1.
          1    1    1    2  502    0 -0.26865542870E+02 -0.12502458020E+02 -0.12866157089E+03  0.13202980222E+03  0.00000000000E+00 0.  1.
         22    1    1    2    0    0  0.15645869301E+02  0.55391280675E+01  0.86362520825E+02  0.87942937005E+02  0.00000000000E+00 0.  1.
         22    1    1    2    0    0 -0.11847148701E+02  0.15818810410E+02 -0.45124662183E+02  0.49262813889E+02  0.00000000000E+00 0. -1.
</event>
<event>
 6    1  0.8017648E-006  0.9317219E+02  0.7818608E-02  0.1308243E+00
          2   -1    0    0  502    0  0.00000000000E+00  0.00000000000E+00  0.34546375644E+03  0.34546375644E+03  0.00000000000E+00 0. -1.
          1   -1    0    0  501    0 -0.00000000000E+00 -0.00000000000E+00 -0.67746585583E+02  0.67746585583E+02  0.00000000000E+00 0. -1.
          2    1    1    2  501    0 -0.93737500870E+02 -0.39714650870E+02  0.99519781968E+02  0.14236628662E+03  0.00000000000E+00 0. -1.
          1    1    1    2  502    0  0.48925947791E+02  0.35463952776E+02  0.10871578331E+03  0.12438071335E+03  0.00000000000E+00 0. -1.
         22    1    1    2    0    0  0.73207949282E+02 -0.66159998305E+01  0.32405468364E+01  0.73577689795E+02  0.00000000000E+00 0. -1.
         22    1    1    2    0    0 -0.28396396203E+02  0.10866697925E+02  0.66241058740E+02  0.72885652251E+02  0.00000000000E+00 0. -1.
</event>
<event>
 6    1  0.8017648E-006  0.9101338E+02  0.7818608E-02  0.1399997E+00
          2   -1    0    0  502    0  0.00000000000E+00  0.00000000000E+00  0.42775528055E+03  0.42775528055E+03  0.00000000000E+00 0.  1.
          1   -1    0    0  501    0 -0.00000000000E+00 -0.00000000000E+00 -0.49686098107E+02  0.49686098107E+02  0.00000000000E+00 0.  1.
          2    1    1    2  501    0 -0.14314352267E+02  0.34621707154E+02  0.98133873964E+02  0.10504199401E+03  0.00000000000E+00 0.  1.
          1    1    1    2  502    0  0.28246287120E+02 -0.89437313002E+02  0.17083302470E+03  0.19488665429E+03  0.00000000000E+00 0.  1.
         22    1    1    2    0    0 -0.16133941322E+02  0.39487325581E+01 -0.27278691602E+02  0.31937807798E+02  0.00000000000E+00 0.  1.
         22    1    1    2    0    0  0.22020064684E+01  0.50866873289E+02  0.13638097538E+03  0.14557492256E+03  0.00000000000E+00 0. -1.
</event>
<event>
 6    1  0.8017648E-006  0.1711046E+03  0.7818608E-02  0.1236336E+00
          2   -1    0    0  502    0  0.00000000000E+00  0.00000000000E+00  0.16329321875E+03  0.16329321875E+03  0.00000000000E+00 0.  1.
          1   -1    0    0  501    0 -0.00000000000E+00 -0.00000000000E+00 -0.34243321559E+03  0.34243321559E+03  0.00000000000E+00 0.  1.
          2    1    1    2  501    0 -0.15455116977E+03  0.39018252716E+02  0.30145818505E+02  0.16222594889E+03  0.00000000000E+00 0.  1.
          1    1    1    2  502    0  0.13158079856E+03 -0.48095366322E+02 -0.89428550404E+02  0.16620510353E+03  0.00000000000E+00 0.  1.
         22    1    1    2    0    0 -0.23418088971E+02 -0.10931072865E+01  0.19231561997E+02  0.30322512287E+02  0.00000000000E+00 0. -1.
         22    1    1    2    0    0  0.46388460172E+02  0.10170220893E+02 -0.13908882693E+03  0.14697286963E+03  0.00000000000E+00 0.  1.
</event>
<event>
 6    1  0.8017648E-006  0.2038085E+03  0.7818608E-02  0.1233579E+00
          2   -1    0    0  502    0  0.00000000000E+00  0.00000000000E+00  0.35017597499E+03  0.35017597499E+03  0.00000000000E+00 0.  1.
          1   -1    0    0  501    0 -0.00000000000E+00 -0.00000000000E+00 -0.25408094009E+03  0.25408094009E+03  0.00000000000E+00 0. -1.
          2    1    1    2  501    0 -0.45306737668E+02  0.18811217627E+03  0.16190259983E+03  0.25229217818E+03  0.00000000000E+00 0.  1.
          1    1    1    2  502    0  0.17192820811E+02 -0.18737267540E+03  0.34893500785E+02  0.19136788908E+03  0.00000000000E+00 0. -1.
         22    1    1    2    0    0  0.35038261782E+01  0.15946212079E+02  0.25864060048E+02  0.30586076566E+02  0.00000000000E+00 0.  1.
         22    1    1    2    0    0  0.24610090679E+02 -0.16685712945E+02 -0.12656512576E+03  0.13001077124E+03  0.00000000000E+00 0. -1.
</event>
<event>
 6    1  0.8017648E-006  0.7095771E+02  0.7818608E-02  0.1471718E+00
          2   -1    0    0  502    0  0.00000000000E+00  0.00000000000E+00  0.18862458764E+03  0.18862458764E+03  0.00000000000E+00 0. -1.
          1   -1    0    0  501    0 -0.00000000000E+00 -0.00000000000E+00 -0.76380712671E+02  0.76380712671E+02  0.00000000000E+00 0.  1.
          2    1    1    2  501    0 -0.12107087421E+01 -0.37950295816E+02  0.57512871312E+02  0.68916044102E+02  0.00000000000E+00 0. -1.
          1    1    1    2  502    0  0.10041694233E+02  0.57324444639E+02  0.55445415110E+00  0.58199957008E+02  0.00000000000E+00 0.  1.
         22    1    1    2    0    0  0.15300775566E+01  0.11816628018E+02 -0.38107700413E+02  0.39927066832E+02  0.00000000000E+00 0.  1.
         22    1    1    2    0    0 -0.10361063048E+02 -0.31190776841E+02  0.92284249916E+02  0.97962232365E+02  0.00000000000E+00 0. -1.
</event>
<event>
 6    1  0.8017648E-006  0.1106751E+03  0.7818608E-02  0.1262292E+00
          2   -1    0    0  502    0  0.00000000000E+00  0.00000000000E+00  0.31813757631E+03  0.31813757631E+03  0.00000000000E+00 0.  1.
          1   -1    0    0  501    0 -0.00000000000E+00 -0.00000000000E+00 -0.27066111802E+03  0.27066111802E+03  0.00000000000E+00 0.  1.
          2    1    1    2  501    0 -0.45038294843E+02  0.72307987325E+02  0.20437399745E+03  0.22141730706E+03  0.00000000000E+00 0.  1.
          1    1    1    2  502    0  0.62679653288E+02 -0.64394012136E+02 -0.21167644949E+03  0.22996140329E+03  0.00000000000E+00 0.  1.
         22    1    1    2    0    0  0.49475840243E+01 -0.13595063483E+02 -0.38577842671E+02  0.41201386918E+02  0.00000000000E+00 0.  1.
         22    1    1    2    0    0 -0.22588942468E+02  0.56810882929E+01  0.93356753006E+02  0.96218597048E+02  0.00000000000E+00 0. -1.
</event>
<event>
 6    1  0.8017648E-006  0.1136049E+03  0.7818608E-02  0.1258550E+00
          2   -1    0    0  502    0  0.00000000000E+00  0.00000000000E+00  0.21510852636E+04  0.21510852636E+04  0.00000000000E+00 0.  1.
          1   -1    0    0  501    0 -0.00000000000E+00 -0.00000000000E+00 -0.16620995630E+02  0.16620995630E+02  0.00000000000E+00 0.  1.
          2    1    1    2  501    0  0.75183266875E+02  0.28786280893E+02  0.16844510073E+04  0.16863737336E+04  0.00000000000E+00 0.  1.
          1    1    1    2  502    0 -0.19012605222E+02  0.16434651266E+02  0.12406718977E+03  0.12658690492E+03  0.00000000000E+00 0.  1.
         22    1    1    2    0    0  0.18914727719E+02  0.26599627585E+02  0.11585811338E+03  0.12036780943E+03  0.00000000000E+00 0.  1.
         22    1    1    2    0    0 -0.75085389372E+02 -0.71820559744E+02  0.21008795759E+03  0.23437781129E+03  0.00000000000E+00 0.  1.
</event>
<event>
 6    1  0.8018481E-006  0.3409812E+03  0.7818608E-02  0.1151653E+00
          2   -1    0    0  502    0  0.00000000000E+00  0.00000000000E+00  0.91557053852E+03  0.91557053852E+03  0.00000000000E+00 0. -1.
          1   -1    0    0  501    0 -0.00000000000E+00 -0.00000000000E+00 -0.10804237830E+04  0.10804237830E+04  0.00000000000E+00 0.  1.
          2    1    1    2  501    0 -0.29932129419E+03  0.14107022070E+03  0.78033390285E+03  0.84759367875E+03  0.00000000000E+00 0. -1.
          1    1    1    2  502    0  0.27388799427E+03 -0.17982160100E+03 -0.96143665934E+03  0.10157317025E+04  0.00000000000E+00 0.  1.
         22    1    1    2    0    0  0.12594491810E+02  0.36456512981E+02  0.68610025933E+02  0.78708539696E+02  0.00000000000E+00 0. -1.
         22    1    1    2    0    0  0.12838808118E+02  0.22948673184E+01 -0.52360513936E+02  0.53960400569E+02  0.00000000000E+00 0. -1.
</event>
<event>
 6    1  0.8017648E-006  0.1358799E+03  0.7818608E-02  0.1271348E+00
          2   -1    0    0  502    0  0.00000000000E+00  0.00000000000E+00  0.53876563214E+03  0.53876563214E+03  0.00000000000E+00 0.  1.
          1   -1    0    0  501    0 -0.00000000000E+00 -0.00000000000E+00 -0.49614078884E+02  0.49614078884E+02  0.00000000000E+00 0.  1.
          2    1    1    2  501    0 -0.21248968011E+01  0.42994314448E+02  0.28632207112E+02  0.51699415329E+02  0.00000000000E+00 0.  1.
          1    1    1    2  502    0  0.28084276069E+02 -0.12427296596E+03  0.22990378179E+03  0.26284642952E+03  0.00000000000E+00 0.  1.
         22    1    1    2    0    0 -0.40124703430E+02  0.25071663090E+02  0.13627436402E+02  0.49237050464E+02  0.00000000000E+00 0.  1.
         22    1    1    2    0    0  0.14165324163E+02  0.56206988419E+02  0.21698812796E+03  0.22459681572E+03  0.00000000000E+00 0.  1.
</event>
<event>
 6    1  0.8017648E-006  0.5763453E+02  0.7818608E-02  0.1436984E+00
          2   -1    0    0  502    0  0.00000000000E+00  0.00000000000E+00  0.95467242886E+02  0.95467242886E+02  0.00000000000E+00 0.  1.
          1   -1    0    0  501    0 -0.00000000000E+00 -0.00000000000E+00 -0.56273630543E+03  0.56273630543E+03  0.00000000000E+00 0. -1.
          2    1    1    2  501    0  0.27501877715E+02 -0.37053136773E+02  0.68808223080E+02  0.82848414505E+02  0.00000000000E+00 0.  1.
          1    1    1    2  502    0 -0.37179012384E+02  0.36308049557E+01 -0.33319867224E+03  0.33528617164E+03  0.00000000000E+00 0. -1.
         22    1    1    2    0    0 -0.18937957522E+01  0.36933507097E+02 -0.21776921301E+03  0.22088707645E+03  0.00000000000E+00 0.  1.
         22    1    1    2    0    0  0.11570930421E+02 -0.35111752801E+01  0.14890599627E+02  0.19181885723E+02  0.00000000000E+00 0. -1.
</event>
<event>
 6    1  0.8017648E-006  0.2844422E+03  0.7818608E-02  0.1203883E+00
          2   -1    0    0  502    0  0.00000000000E+00  0.00000000000E+00  0.55183661273E+03  0.55183661273E+03  0.00000000000E+00 0. -1.
          1   -1    0    0  501    0 -0.00000000000E+00 -0.00000000000E+00 -0.32254153835E+03  0.32254153835E+03  0.00000000000E+00 0.  1.
          2    1    1    2  501    0  0.25948783003E+03 -0.19199713140E+02  0.34641109510E+03  0.43324728473E+03  0.00000000000E+00 0. -1.
          1    1    1    2  502    0 -0.29553540797E+03  0.17041609888E+02 -0.86604575127E+02  0.30843467098E+03  0.00000000000E+00 0.  1.
         22    1    1    2    0    0  0.20187329599E+02 -0.31612155520E+01 -0.78897208190E+02  0.81500251658E+02  0.00000000000E+00 0.  1.
         22    1    1    2    0    0  0.15860248337E+02  0.53193188036E+01  0.48385762598E+02  0.51195943707E+02  0.00000000000E+00 0.  1.
</event>
<event>
 6    1  0.8017648E-006  0.2316753E+02  0.7818608E-02  0.1703362E+00
          2   -1    0    0  502    0  0.00000000000E+00  0.00000000000E+00  0.19716808432E+03  0.19716808432E+03  0.00000000000E+00 0.  1.
          1   -1    0    0  501    0 -0.00000000000E+00 -0.00000000000E+00 -0.12835379405E+03  0.12835379405E+03  0.00000000000E+00 0.  1.
          2    1    1    2  501    0 -0.40159963581E+02  0.21978230706E+02  0.12067441606E+03  0.12906657193E+03  0.00000000000E+00 0.  1.
          1    1    1    2  502    0  0.28976573096E+02  0.80664384689E+00 -0.63308595176E+02  0.69629524526E+02  0.00000000000E+00 0.  1.
         22    1    1    2    0    0  0.82462929155E+01 -0.89697260136E+01 -0.56308874934E+02  0.57612036311E+02  0.00000000000E+00 0.  1.
         22    1    1    2    0    0  0.29370975696E+01 -0.13815148539E+02  0.67757344315E+02  0.69213745600E+02  0.00000000000E+00 0. -1.
</event>
<event>
 6    1  0.8017648E-006  0.4528458E+02  0.7818608E-02  0.1523884E+00
          2   -1    0    0  502    0  0.00000000000E+00  0.00000000000E+00  0.59595057951E+03  0.59595057951E+03  0.00000000000E+00 0.  1.
          1   -1    0    0  501    0 -0.00000000000E+00 -0.00000000000E+00 -0.43090617515E+02  0.43090617515E+02  0.00000000000E+00 0. -1.
          2    1    1    2  501    0  0.45717848546E+02  0.12306912107E+02  0.36569023277E+03  0.36874236006E+03  0.00000000000E+00 0.  1.
          1    1    1    2  502    0 -0.56384984175E+01 -0.47449172767E+02  0.14140144357E+02  0.49831318898E+02  0.00000000000E+00 0. -1.
         22    1    1    2    0    0 -0.20271088757E+02  0.30169362668E+00 -0.16876500852E+02  0.26378482509E+02  0.00000000000E+00 0. -1.
         22    1    1    2    0    0 -0.19808261371E+02  0.34840567033E+02  0.18990608572E+03  0.19408903556E+03  0.00000000000E+00 0.  1.
</event>
<event>
 6    1  0.8017648E-006  0.5479994E+02  0.7818608E-02  0.1456856E+00
          2   -1    0    0  502    0  0.00000000000E+00  0.00000000000E+00  0.36803005267E+02  0.36803005267E+02  0.00000000000E+00 0. -1.
          1   -1    0    0  501    0 -0.00000000000E+00 -0.00000000000E+00 -0.61522827002E+03  0.61522827002E+03  0.00000000000E+00 0.  1.
          2    1    1    2  501    0  0.29461254348E+02  0.20165775907E+02 -0.74675856196E+02  0.82771417315E+02  0.00000000000E+00 0. -1.
          1    1    1    2  502    0 -0.30113020907E+02  0.47210296429E+02 -0.37194576188E+03  0.37613728332E+03  0.00000000000E+00 0.  1.
         22    1    1    2    0    0 -0.24034923209E+02 -0.21218133623E+02  0.16353335202E+02  0.35990530704E+02  0.00000000000E+00 0. -1.
         22    1    1    2    0    0  0.24686689768E+02 -0.46157938714E+02 -0.14815698187E+03  0.15713204395E+03  0.00000000000E+00 0.  1.
</event>
<event>
 6    1  0.8017648E-006  0.2573025E+02  0.7818608E-02  0.1694047E+00
          2   -1    0    0  502    0  0.00000000000E+00  0.00000000000E+00  0.11565095193E+03  0.11565095193E+03  0.00000000000E+00 0. -1.
          1   -1    0    0  501    0 -0.00000000000E+00 -0.00000000000E+00 -0.11492927990E+03  0.11492927990E+03  0.00000000000E+00 0.  1.
          2    1    1    2  501    0 -0.14762198088E+02  0.18202998142E+02  0.40971016491E+02  0.47200591374E+02  0.00000000000E+00 0. -1.
          1    1    1    2  502    0  0.33247726521E+02  0.81247122490E+01 -0.40093497320E+02  0.52715375322E+02  0.00000000000E+00 0.  1.
         22    1    1    2    0    0 -0.11828967211E+01 -0.13521131840E+02 -0.62890846879E+02  0.64338782022E+02  0.00000000000E+00 0.  1.
         22    1    1    2    0    0 -0.17302631713E+02 -0.12806578551E+02  0.62734999737E+02  0.66325483114E+02  0.00000000000E+00 0. -1.
</event>
<event>
 6    1  0.8017648E-006  0.4097559E+03  0.7818608E-02  0.1043444E+00
          2   -1    0    0  502    0  0.00000000000E+00  0.00000000000E+00  0.21260132519E+03  0.21260132519E+03  0.00000000000E+00 0. -1.
          1   -1    0    0  501    0 -0.00000000000E+00 -0.00000000000E+00 -0.80737447299E+03  0.80737447299E+03  0.00000000000E+00 0.  1.
          2    1    1    2  501    0  0.16076213194E+03  0.12713066239E+03 -0.15958426263E+03  0.25975720445E+03  0.00000000000E+00 0. -1.
          1    1    1    2  502    0 -0.31752079963E+03 -0.17309503106E+03 -0.42009012133E+03  0.55430772863E+03  0.00000000000E+00 0.  1.
         22    1    1    2    0    0  0.16875831936E+03  0.46315414856E+02  0.12873469094E+02  0.17547140568E+03  0.00000000000E+00 0. -1.
         22    1    1    2    0    0 -0.11999651674E+02 -0.35104618987E+00 -0.27972232935E+02  0.30439459409E+02  0.00000000000E+00 0.  1.
</event>
<event>
 6    1  0.8017648E-006  0.7740175E+02  0.7818608E-02  0.1351369E+00
          2   -1    0    0  502    0  0.00000000000E+00  0.00000000000E+00  0.13870189901E+03  0.13870189901E+03  0.00000000000E+00 0.  1.
          1   -1    0    0  501    0 -0.00000000000E+00 -0.00000000000E+00 -0.21308221072E+03  0.21308221072E+03  0.00000000000E+00 0.  1.
          2    1    1    2  501    0  0.65773640425E+02  0.13508565121E+02  0.89041533352E+02  0.11152151258E+03  0.00000000000E+00 0.  1.
          1    1    1    2  502    0 -0.31334249669E+02  0.20964030026E+02 -0.34209198001E+02  0.50907710468E+02  0.00000000000E+00 0.  1.
         22    1    1    2    0    0  0.20830796297E+02 -0.11096285872E+02  0.18454113226E+02  0.29960038877E+02  0.00000000000E+00 0.  1.
         22    1    1    2    0    0 -0.55270187053E+02 -0.23376309275E+02 -0.14766676029E+03  0.15939484780E+03  0.00000000000E+00 0.  1.
</event>
<event>
 6    1  0.8017648E-006  0.4856079E+03  0.7818608E-02  0.1133560E+00
          2   -1    0    0  502    0  0.00000000000E+00  0.00000000000E+00  0.10832892303E+04  0.10832892303E+04  0.00000000000E+00 0. -1.
          1   -1    0    0  501    0 -0.00000000000E+00 -0.00000000000E+00 -0.28601283112E+03  0.28601283112E+03  0.00000000000E+00 0.  1.
          2    1    1    2  501    0  0.35738342911E+03 -0.18450365285E+03  0.56229896159E+03  0.69133540016E+03  0.00000000000E+00 0. -1.
          1    1    1    2  502    0 -0.43976816361E+03  0.14854687233E+03  0.10402725155E+03  0.47569305237E+03  0.00000000000E+00 0.  1.
         22    1    1    2    0    0  0.82375287728E+02  0.15338174947E+02  0.15152239192E+03  0.17314728670E+03  0.00000000000E+00 0. -1.
         22    1    1    2    0    0  0.94467805703E-02  0.20618605575E+02 -0.20572205923E+02  0.29126322144E+02  0.00000000000E+00 0. -1.
</event>
<event>
 6    1  0.8017648E-006  0.5664293E+02  0.7818608E-02  0.1442750E+00
          2   -1    0    0  502    0  0.00000000000E+00  0.00000000000E+00  0.59480792537E+02  0.59480792537E+02  0.00000000000E+00 0. -1.
          1   -1    0    0  501    0 -0.00000000000E+00 -0.00000000000E+00 -0.46303437539E+03  0.46303437539E+03  0.00000000000E+00 0. -1.
          2    1    1    2  501    0 -0.29590600676E+02 -0.32453541995E+02  0.25563861093E+02  0.50816798703E+02  0.00000000000E+00 0. -1.
          1    1    1    2  502    0  0.41440313337E+02 -0.30319118395E+01 -0.23444603910E+03  0.23809963735E+03  0.00000000000E+00 0. -1.
         22    1    1    2    0    0 -0.12788259040E+02 -0.24328487444E+00  0.15678512530E+02  0.20233993969E+02  0.00000000000E+00 0.  1.
         22    1    1    2    0    0  0.93854637890E+00  0.35728738709E+02 -0.21034991738E+03  0.21336473790E+03  0.00000000000E+00 0. -1.
</event>
<event>
 6    1  0.8017648E-006  0.3103194E+02  0.7818608E-02  0.1653933E+00
          2   -1    0    0  502    0  0.00000000000E+00  0.00000000000E+00  0.25743623208E+03  0.25743623208E+03  0.00000000000E+00 0.  1.
          1   -1    0    0  501    0 -0.00000000000E+00 -0.00000000000E+00 -0.68083893044E+02  0.68083893044E+02  0.00000000000E+00 0. -1.
          2    1    1    2  501    0  0.57695033228E+01 -0.25392599135E+02  0.15179735504E+03  0.15401463650E+03  0.00000000000E+00 0.  1.
          1    1    1    2  502    0  0.32879674622E+02  0.11756581659E+02 -0.58282518162E+01  0.35401394531E+02  0.00000000000E+00 0. -1.
         22    1    1    2    0    0 -0.27058496843E+02  0.21748345207E+02 -0.39174431411E+02  0.52342992339E+02  0.00000000000E+00 0.  1.
         22    1    1    2    0    0 -0.11590681102E+02 -0.81123277309E+01  0.82557667230E+02  0.83761101760E+02  0.00000000000E+00 0. -1.
</event>
<event>
 6    1  0.8017648E-006  0.3030136E+02  0.7818608E-02  0.1601435E+00
          2   -1    0    0  502    0  0.00000000000E+00  0.00000000000E+00  0.38193538701E+03  0.38193538701E+03  0.00000000000E+00 0. -1.
          1   -1    0    0  501    0 -0.00000000000E+00 -0.00000000000E+00 -0.10774446611E+03  0.10774446611E+03  0.00000000000E+00 0. -1.
          2    1    1    2  501    0 -0.49823008204E+02 -0.22696764961E+02  0.30255407710E+03  0.30746779482E+03  0.00000000000E+00 0. -1.
          1    1    1    2  502    0  0.31008642730E+02  0.39732146074E+02  0.35998978034E+01  0.50528592102E+02  0.00000000000E+00 0. -1.
         22    1    1    2    0    0  0.30906420906E+01 -0.14397730555E+02  0.47968208505E+02  0.50177641842E+02  0.00000000000E+00 0.  1.
         22    1    1    2    0    0  0.15723723383E+02 -0.26376505586E+01 -0.79931262500E+02  0.81505824346E+02  0.00000000000E+00 0. -1.
</event>
<event>
 6    1  0.8017648E-006  0.1262853E+03  0.7818608E-02  0.1265393E+00
          2   -1    0    0  502    0  0.00000000000E+00  0.00000000000E+00  0.44442464456E+03  0.44442464456E+03  0.00000000000E+00 0. -1.
          1   -1    0    0  501    0 -0.00000000000E+00 -0.00000000000E+00 -0.39788477852E+03  0.39788477852E+03  0.00000000000E+00 0. -1.
          2    1    1    2  501    0 -0.58373719786E+02  0.85667613926E+02  0.39193206032E+03  0.40540988042E+03  0.00000000000E+00 0. -1.
          1    1    1    2  502    0 -0.47588995935E+01 -0.58547804326E+02 -0.26407949660E+03  0.27053368190E+03  0.00000000000E+00 0. -1.
         22    1    1    2    0    0  0.51078704309E+02 -0.42035359513E+02 -0.11205978154E+03  0.13012839860E+03  0.00000000000E+00 0. -1.
         22    1    1    2    0    0  0.12053915070E+02  0.14915549913E+02  0.30747083861E+02  0.36237462158E+02  0.00000000000E+00 0.  1.
</event>
<event>
 6    1  0.8017648E-006  0.2377093E+02  0.7818608E-02  0.1724232E+00
          2   -1    0    0  502    0  0.00000000000E+00  0.00000000000E+00  0.11651715466E+03  0.11651715466E+03  0.00000000000E+00 0.  1.
          1   -1    0    0  501    0 -0.00000000000E+00 -0.00000000000E+00 -0.10746722442E+03  0.10746722442E+03  0.00000000000E+00 0.  1.
          2    1    1    2  501    0 -0.22742574622E+02  0.16043584420E+02  0.19955684144E+02  0.34246906884E+02  0.00000000000E+00 0.  1.
          1    1    1    2  502    0  0.26806812479E+02 -0.34159094567E+02 -0.42357344279E+02  0.60659653406E+02  0.00000000000E+00 0.  1.
         22    1    1    2    0    0 -0.97219235481E+01  0.28227998062E+01 -0.47445444685E+02  0.48513443679E+02  0.00000000000E+00 0.  1.
         22    1    1    2    0    0  0.56576856919E+01  0.15292710341E+02  0.78897035061E+02  0.80564375120E+02  0.00000000000E+00 0.  1.
</event>
<event>
 6    1  0.8017648E-006  0.5717294E+02  0.7818608E-02  0.1422889E+00
          2   -1    0    0  502    0  0.00000000000E+00  0.00000000000E+00  0.37904744053E+03  0.37904744053E+03  0.00000000000E+00 0.  1.
          1   -1    0    0  501    0 -0.00000000000E+00 -0.00000000000E+00 -0.16103011720E+03  0.16103011720E+03  0.00000000000E+00 0. -1.
          2    1    1    2  501    0 -0.28513978134E+02  0.13099971797E+03  0.25083024661E+03  0.28441129667E+03  0.00000000000E+00 0.  1.
          1    1    1    2  502    0  0.28814747555E+01 -0.12095095477E+03 -0.32366099629E+02  0.12523977308E+03  0.00000000000E+00 0. -1.
         22    1    1    2    0    0  0.15710223593E+02  0.11678371449E+02  0.61231628139E+02  0.64284584229E+02  0.00000000000E+00 0. -1.
         22    1    1    2    0    0  0.99222797858E+01 -0.21727134647E+02 -0.61678451798E+02  0.66141903755E+02  0.00000000000E+00 0. -1.
</event>
<event>
 6    1  0.8017648E-006  0.6603670E+02  0.7818608E-02  0.1387679E+00
          2   -1    0    0  502    0  0.00000000000E+00  0.00000000000E+00  0.23010952454E+03  0.23010952454E+03  0.00000000000E+00 0.  1.
          1   -1    0    0  501    0 -0.00000000000E+00 -0.00000000000E+00 -0.13039756691E+03  0.13039756691E+03  0.00000000000E+00 0.  1.
          2    1    1    2  501    0 -0.38528290718E+02 -0.87999464862E+02 -0.21822890519E+01  0.96089007629E+02  0.00000000000E+00 0.  1.
          1    1    1    2  502    0  0.44449928459E+02  0.10403932182E+03  0.33735926002E+02  0.11805968544E+03  0.00000000000E+00 0.  1.
         22    1    1    2    0    0  0.17695689312E+02 -0.41946196339E+02  0.92896802801E+02  0.10345258227E+03  0.00000000000E+00 0.  1.
         22    1    1    2    0    0 -0.23617327053E+02  0.25906339386E+02 -0.24738482123E+02  0.42905816101E+02  0.00000000000E+00 0. -1.
</event>
<event>
 6    1  0.8017648E-006  0.5969271E+02  0.7818608E-02  0.1468989E+00
          2   -1    0    0  502    0  0.00000000000E+00  0.00000000000E+00  0.20014959538E+03  0.20014959538E+03  0.00000000000E+00 0.  1.
          1   -1    0    0  501    0 -0.00000000000E+00 -0.00000000000E+00 -0.88763608762E+02  0.88763608762E+02  0.00000000000E+00 0.  1.
          2    1    1    2  501    0 -0.15371904217E+02 -0.29444247792E+02  0.32767942945E+02  0.46658303143E+02  0.00000000000E+00 0.  1.
          1    1    1    2  502    0  0.50131176378E+02  0.20549936677E+02  0.97565886201E+02  0.11159989647E+03  0.00000000000E+00 0.  1.
         22    1    1    2    0    0 -0.22927794070E+02 -0.82271393786E+01  0.51621836739E+02  0.57080500975E+02  0.00000000000E+00 0.  1.
         22    1    1    2    0    0 -0.11831478091E+02  0.17121450493E+02 -0.70569679268E+02  0.73574503551E+02  0.00000000000E+00 0.  1.
</event>
<event>
 6    1  0.8017648E-006  0.6022862E+02  0.7818608E-02  0.1430308E+00
          2   -1    0    0  502    0  0.00000000000E+00  0.00000000000E+00  0.49448796141E+02  0.49448796141E+02  0.00000000000E+00 0.  1.
          1   -1    0    0  501    0 -0.00000000000E+00 -0.00000000000E+00 -0.44590389308E+03  0.44590389308E+03  0.00000000000E+00 0.  1.
          2    1    1    2  501    0 -0.34798659657E+02 -0.55440457151E+02 -0.16837997360E+03  0.18065549123E+03  0.00000000000E+00 0.  1.
          1    1    1    2  502    0  0.25281679101E+02  0.82392567994E+02 -0.69617411611E+02  0.11078936121E+03  0.00000000000E+00 0.  1.
         22    1    1    2    0    0 -0.27746363951E+02  0.10885386317E+02 -0.14646209193E+03  0.14946403153E+03  0.00000000000E+00 0.  1.
         22    1    1    2    0    0  0.37263344507E+02 -0.37837497160E+02 -0.11995619795E+02  0.54443805244E+02  0.00000000000E+00 0.  1.
</event>
<event>
 6    1  0.8017648E-006  0.8572850E+02  0.7818608E-02  0.1372865E+00
          2   -1    0    0  502    0  0.00000000000E+00  0.00000000000E+00  0.22711880138E+03  0.22711880138E+03  0.00000000000E+00 0.  1.
          1   -1    0    0  501    0 -0.00000000000E+00 -0.00000000000E+00 -0.18080628395E+03  0.18080628395E+03  0.00000000000E+00 0. -1.
          2    1    1    2  501    0 -0.47817473865E+02  0.69697776427E+02  0.13610546831E+03  0.16021544666E+03  0.00000000000E+00 0.  1.
          1    1    1    2  502    0  0.67765845514E+02  0.17627544999E+02 -0.64700395887E+02  0.95336673892E+02  0.00000000000E+00 0. -1.
         22    1    1    2    0    0 -0.22518228350E+01  0.30728044527E+02 -0.28057337803E+01  0.30937930903E+02  0.00000000000E+00 0.  1.
         22    1    1    2    0    0 -0.17696548814E+02 -0.11805336595E+03 -0.22286821215E+02  0.12143503388E+03  0.00000000000E+00 0.  1.
</event>
<event>
 6    1  0.8017648E-006  0.2728703E+02  0.7818608E-02  0.1650303E+00
          2   -1    0    0  502    0  0.00000000000E+00  0.00000000000E+00  0.18734378013E+03  0.18734378013E+03  0.00000000000E+00 0.  1.
          1   -1    0    0  501    0 -0.00000000000E+00 -0.00000000000E+00 -0.13230403306E+03  0.13230403306E+03  0.00000000000E+00 0. -1.
          2    1    1    2  501    0 -0.42444489805E+02 -0.70053772213E+01  0.10526522029E+03  0.11371621093E+03  0.00000000000E+00 0.  1.
          1    1    1    2  502    0  0.37831005996E+02  0.13640783239E+02 -0.63874034021E+02  0.75479455511E+02  0.00000000000E+00 0. -1.
         22    1    1    2    0    0 -0.43616518065E+01 -0.14394006583E+02  0.70647954067E+02  0.72231190257E+02  0.00000000000E+00 0.  1.
         22    1    1    2    0    0  0.89751356156E+01  0.77586005649E+01 -0.56999393268E+02  0.58220956493E+02  0.00000000000E+00 0.  1.
</event>
<event>
 6    1  0.8017648E-006  0.5011433E+02  0.7818608E-02  0.1554112E+00
          2   -1    0    0  502    0  0.00000000000E+00  0.00000000000E+00  0.20797496042E+03  0.20797496042E+03  0.00000000000E+00 0.  1.
          1   -1    0    0  501    0 -0.00000000000E+00 -0.00000000000E+00 -0.67870710085E+02  0.67870710085E+02  0.00000000000E+00 0. -1.
          2    1    1    2  501    0 -0.79322050788E+01  0.22661713218E+02  0.84621643583E+02  0.87961899059E+02  0.00000000000E+00 0.  1.
          1    1    1    2  502    0  0.40106471313E+02 -0.30568347954E+02  0.16106914482E+01  0.50453416779E+02  0.00000000000E+00 0. -1.
         22    1    1    2    0    0 -0.22289460379E+02  0.12977241430E+02  0.93127454804E+02  0.96633077554E+02  0.00000000000E+00 0.  1.
         22    1    1    2    0    0 -0.98848058545E+01 -0.50706066944E+01 -0.39255539496E+02  0.40797277117E+02  0.00000000000E+00 0. -1.
</event>
<event>
 6    1  0.8017648E-006  0.1564926E+03  0.7818608E-02  0.1307566E+00
          2   -1    0    0  502    0  0.00000000000E+00  0.00000000000E+00  0.66324871938E+03  0.66324871938E+03  0.00000000000E+00 0. -1.
          1   -1    0    0  501    0 -0.00000000000E+00 -0.00000000000E+00 -0.28606680956E+02  0.28606680956E+02  0.00000000000E+00 0. -1.
          2    1    1    2  501    0  0.46082985952E+02  0.83638443973E+01  0.55238918216E+02  0.72421913625E+02  0.00000000000E+00 0. -1.
          1    1    1    2  502    0  0.12351342254E+02 -0.67694623861E+02  0.13639677900E+03  0.15277172211E+03  0.00000000000E+00 0. -1.
         22    1    1    2    0    0 -0.13030091251E+02 -0.87682974883E+01 -0.45337496076E+00  0.15712156685E+02  0.00000000000E+00 0.  1.
         22    1    1    2    0    0 -0.45404236955E+02  0.68099076952E+02  0.44345971617E+03  0.45094960792E+03  0.00000000000E+00 0. -1.
</event>
<event>
 6    1  0.8017648E-006  0.3549200E+03  0.7818608E-02  0.1061995E+00
          2   -1    0    0  502    0  0.00000000000E+00  0.00000000000E+00  0.16225027758E+03  0.16225027758E+03  0.00000000000E+00 0.  1.
          1   -1    0    0  501    0 -0.00000000000E+00 -0.00000000000E+00 -0.84175673717E+03  0.84175673717E+03  0.00000000000E+00 0.  1.
          2    1    1    2  501    0  0.12939060882E+03  0.81675315541E+02 -0.11060095281E+03  0.18879978174E+03  0.00000000000E+00 0.  1.
          1    1    1    2  502    0 -0.21789045132E+03 -0.24496878197E+03 -0.46867994215E+03  0.57196751752E+03  0.00000000000E+00 0.  1.
         22    1    1    2    0    0  0.93674690077E+02  0.17326957574E+03 -0.66822083419E+02  0.20799635639E+03  0.00000000000E+00 0.  1.
         22    1    1    2    0    0 -0.51748475821E+01 -0.99761093176E+01 -0.33403481200E+02  0.35243359103E+02  0.00000000000E+00 0.  1.
</event>
<event>
 6    1  0.8017648E-006  0.2426206E+02  0.7818608E-02  0.1729189E+00
          2   -1    0    0  502    0  0.00000000000E+00  0.00000000000E+00  0.22914990649E+03  0.22914990649E+03  0.00000000000E+00 0. -1.
          1   -1    0    0  501    0 -0.00000000000E+00 -0.00000000000E+00 -0.62606814809E+02  0.62606814809E+02  0.00000000000E+00 0. -1.
          2    1    1    2  501    0  0.20544156023E+02  0.27169436404E+01  0.11538098358E+03  0.11722719608E+03  0.00000000000E+00 0. -1.
          1    1    1    2  502    0 -0.20267917947E+02 -0.13349827459E+02 -0.18806245501E+02  0.30703114841E+02  0.00000000000E+00 0. -1.
         22    1    1    2    0    0 -0.75507512903E+01 -0.65702906285E+01 -0.35414170496E+02  0.36801440677E+02  0.00000000000E+00 0. -1.
         22    1    1    2    0    0  0.72745132141E+01  0.17203174447E+02  0.10538252410E+03  0.10702496970E+03  0.00000000000E+00 0.  1.
</event>
<event>
 6    1  0.8017648E-006  0.4261719E+02  0.7818608E-02  0.1535416E+00
          2   -1    0    0  502    0  0.00000000000E+00  0.00000000000E+00  0.17261219258E+03  0.17261219258E+03  0.00000000000E+00 0.  1.
          1   -1    0    0  501    0 -0.00000000000E+00 -0.00000000000E+00 -0.15630943536E+03  0.15630943536E+03  0.00000000000E+00 0.  1.
          2    1    1    2  501    0  0.24906579098E+02 -0.83410230563E+01  0.84059798490E+02  0.88067928727E+02  0.00000000000E+00 0.  1.
          1    1    1    2  502    0 -0.20406322154E+02  0.13901480847E+01 -0.10464744424E+03  0.10662756718E+03  0.00000000000E+00 0.  1.
         22    1    1    2    0    0  0.14803732153E+02 -0.55665347038E+01  0.82041035434E+02  0.83551590585E+02  0.00000000000E+00 0.  1.
         22    1    1    2    0    0 -0.19303989097E+02  0.12517409675E+02 -0.45150632465E+02  0.50674541459E+02  0.00000000000E+00 0.  1.
</event>
<event>
 6    1  0.8017648E-006  0.6230012E+02  0.7818608E-02  0.1403818E+00
          2   -1    0    0  502    0  0.00000000000E+00  0.00000000000E+00  0.43365413565E+02  0.43365413565E+02  0.00000000000E+00 0.  1.
          1   -1    0    0  501    0 -0.00000000000E+00 -0.00000000000E+00 -0.57301270504E+03  0.57301270504E+03  0.00000000000E+00 0. -1.
          2    1    1    2  501    0  0.96129954775E+01  0.49588421496E+02  0.47076494512E+01  0.50730495680E+02  0.00000000000E+00 0.  1.
          1    1    1    2  502    0 -0.33222051388E+02  0.17783994766E+02 -0.85650954605E+02  0.93573827500E+02  0.00000000000E+00 0. -1.
         22    1    1    2    0    0  0.12356324501E+02  0.14810224504E+02 -0.39980476094E+01  0.19697865106E+02  0.00000000000E+00 0.  1.
         22    1    1    2    0    0  0.11252731409E+02 -0.82182640767E+02 -0.44470593871E+03  0.45237593032E+03  0.00000000000E+00 0. -1.
</event>
<event>
 6    1  0.8017648E-006  0.8326218E+02  0.7818608E-02  0.1326029E+00
          2   -1    0    0  502    0  0.00000000000E+00  0.00000000000E+00  0.14232813060E+03  0.14232813060E+03  0.00000000000E+00 0. -1.
          1   -1    0    0  501    0 -0.00000000000E+00 -0.00000000000E+00 -0.10629141786E+03  0.10629141786E+03  0.00000000000E+00 0.  1.
          2    1    1    2  501    0  0.20732653600E+02 -0.15958813081E+02  0.28134470645E+02  0.38419722523E+02  0.00000000000E+00 0. -1.
          1    1    1    2  502    0 -0.45001761938E+02  0.18714171216E+02 -0.51101319994E+02  0.70616738008E+02  0.00000000000E+00 0.  1.
         22    1    1    2    0    0 -0.60183150571E+01  0.33506411933E+02 -0.25658939149E+02  0.42629577936E+02  0.00000000000E+00 0.  1.
         22    1    1    2    0    0  0.30287423395E+02 -0.36261770068E+02  0.84662501239E+02  0.96953509995E+02  0.00000000000E+00 0. -1.
</event>
<event>
 6    1  0.8017648E-006  0.1489925E+03  0.7818608E-02  0.1312372E+00
          2   -1    0    0  502    0  0.00000000000E+00  0.00000000000E+00  0.46242263603E+03  0.46242263603E+03  0.00000000000E+00 0. -1.
          1   -1    0    0  501    0 -0.00000000000E+00 -0.00000000000E+00 -0.70500072902E+02  0.70500072902E+02  0.00000000000E+00 0. -1.
          2    1    1    2  501    0 -0.50274198144E+02 -0.17895028486E+02  0.11095611105E+03  0.12312183244E+03  0.00000000000E+00 0. -1.
          1    1    1    2  502    0  0.46240576058E+02  0.12430653652E+03  0.15470440841E+03  0.20377379586E+03  0.00000000000E+00 0. -1.
         22    1    1    2    0    0  0.26229938319E+01 -0.89792817521E+02  0.15129078537E+03  0.17595036775E+03  0.00000000000E+00 0. -1.
         22    1    1    2    0    0  0.14106282539E+01 -0.16618690518E+02 -0.25028741702E+02  0.30076712882E+02  0.00000000000E+00 0.  1.
</event>
<event>
 6    1  0.8017648E-006  0.8314316E+02  0.7818608E-02  0.1433686E+00
          2   -1    0    0  502    0  0.00000000000E+00  0.00000000000E+00  0.55635633873E+03  0.55635633873E+03  0.00000000000E+00 0.  1.
          1   -1    0    0  501    0 -0.00000000000E+00 -0.00000000000E+00 -0.78778926733E+02  0.78778926733E+02  0.00000000000E+00 0. -1.
          2    1    1    2  501    0  0.15953157537E+02 -0.49082292284E+02  0.18562880203E+03  0.19266973502E+03  0.00000000000E+00 0.  1.
          1    1    1    2  502    0 -0.53577452536E+01  0.85316632132E+02  0.29791261151E+03  0.30993476290E+03  0.00000000000E+00 0. -1.
         22    1    1    2    0    0 -0.49506341974E+01 -0.24584788466E+02  0.60146212758E+02  0.65165078930E+02  0.00000000000E+00 0.  1.
         22    1    1    2    0    0 -0.56447780856E+01 -0.11649551382E+02 -0.66110214304E+02  0.67365688613E+02  0.00000000000E+00 0. -1.
</event>
<event>
 6    1  0.8017648E-006  0.9368134E+02  0.7818608E-02  0.1405186E+00
          2   -1    0    0  502    0  0.00000000000E+00  0.00000000000E+00  0.37542916314E+03  0.37542916314E+03  0.00000000000E+00 0.  1.
          1   -1    0    0  501    0 -0.00000000000E+00 -0.00000000000E+00 -0.17302282389E+03  0.17302282389E+03  0.00000000000E+00 0.  1.
          2    1    1    2  501    0  0.39363323771E+02 -0.55520649522E+02  0.30251133626E+03  0.31007276944E+03  0.00000000000E+00 0.  1.
          1    1    1    2  502    0 -0.45635383594E+02  0.64578942281E+02 -0.82102948814E+02  0.11399088659E+03  0.00000000000E+00 0.  1.
         22    1    1    2    0    0  0.18884709316E+01 -0.22390075871E+02  0.50072131169E+02  0.54882603253E+02  0.00000000000E+00 0.  1.
         22    1    1    2    0    0  0.43835888916E+01  0.13331783112E+02 -0.68074179373E+02  0.69505727749E+02  0.00000000000E+00 0.  1.
</event>
<event>
 6    1  0.8017648E-006  0.1484032E+03  0.7818608E-02  0.1264800E+00
          2   -1    0    0  502    0  0.00000000000E+00  0.00000000000E+00  0.69118189892E+03  0.69118189892E+03  0.00000000000E+00 0.  1.
          1   -1    0    0  501    0 -0.00000000000E+00 -0.00000000000E+00 -0.54813098428E+02  0.54813098428E+02  0.00000000000E+00 0.  1.
          2    1    1    2  501    0 -0.32083141514E+01  0.24744410780E+02  0.18145247538E+02  0.30851728521E+02  0.00000000000E+00 0.  1.
          1    1    1    2  502    0 -0.25543252435E+02 -0.14611469260E+03  0.44705391332E+03  0.47101928045E+03  0.00000000000E+00 0.  1.
         22    1    1    2    0    0  0.41236502077E+02  0.26609477372E+00  0.10527173307E+02  0.42559855355E+02  0.00000000000E+00 0.  1.
         22    1    1    2    0    0 -0.12484935491E+02  0.12110418704E+03  0.16064246632E+03  0.20156413302E+03  0.00000000000E+00 0.  1.
</event>
<event>
 6    1  0.8017648E-006  0.6636968E+02  0.7818608E-02  0.1383607E+00
          2   -1    0    0  502    0  0.00000000000E+00  0.00000000000E+00  0.13292975587E+03  0.13292975587E+03  0.00000000000E+00 0.  1.
          1   -1    0    0  501    0 -0.00000000000E+00 -0.00000000000E+00 -0.11523392964E+03  0.11523392964E+03  0.00000000000E+00 0. -1.
          2    1    1    2  501    0 -0.20742791400E+02 -0.12487062839E+02  0.17563133358E+02  0.29910763727E+02  0.00000000000E+00 0.  1.
          1    1    1    2  502    0  0.39327195092E+02  0.53825907371E+02 -0.41502558052E+02  0.78525912303E+02  0.00000000000E+00 0. -1.
         22    1    1    2    0    0  0.22457420077E+02 -0.50974677422E+02 -0.24856631900E+02  0.60996767161E+02  0.00000000000E+00 0.  1.
         22    1    1    2    0    0 -0.41041823769E+02  0.96358328903E+01  0.66491882820E+02  0.78730242313E+02  0.00000000000E+00 0.  1.
</event>
<event>
 6    1  0.8017648E-006  0.1583437E+03  0.7818608E-02  0.1284673E+00
          2   -1    0    0  502    0  0.00000000000E+00  0.00000000000E+00  0.86059036854E+03  0.86059036854E+03  0.00000000000E+00 0.  1.
          1   -1    0    0  501    0 -0.00000000000E+00 -0.00000000000E+00 -0.24789328379E+02  0.24789328379E+02  0.00000000000E+00 0.  1.
          2    1    1    2  501    0  0.12574610486E+02  0.23873758439E+02  0.37297681477E+02  0.46034706630E+02  0.00000000000E+00 0.  1.
          1    1    1    2  502    0  0.87437667458E+02  0.17822971780E+02  0.25840788004E+03  0.27338185105E+03  0.00000000000E+00 0.  1.
         22    1    1    2    0    0 -0.12313667919E+03 -0.40050268105E+02  0.51799431287E+03  0.53393330473E+03  0.00000000000E+00 0.  1.
         22    1    1    2    0    0  0.23124401241E+02 -0.16464621143E+01  0.22101165763E+02  0.32029834504E+02  0.00000000000E+00 0.  1.
</event>
<event>
 6    1  0.8017648E-006  0.1584683E+03  0.7818608E-02  0.1263707E+00
          2   -1    0    0  502    0  0.00000000000E+00  0.00000000000E+00  0.18751707166E+03  0.18751707166E+03  0.00000000000E+00 0. -1.
          1   -1    0    0  501    0 -0.00000000000E+00 -0.00000000000E+00 -0.59210052234E+03  0.59210052234E+03  0.00000000000E+00 0. -1.
          2    1    1    2  501    0  0.10228499741E+03  0.14624753761E+03 -0.16484898134E+03  0.24295215497E+03  0.00000000000E+00 0. -1.
          1    1    1    2  502    0 -0.20527875180E+03 -0.14508181763E+03 -0.27290144393E+03  0.37103004979E+03  0.00000000000E+00 0. -1.
         22    1    1    2    0    0  0.12019220708E+03 -0.21101110748E+02  0.52627737210E+02  0.13289507982E+03  0.00000000000E+00 0. -1.
         22    1    1    2    0    0 -0.17198452696E+02  0.19935390759E+02 -0.19460762610E+02  0.32740309424E+02  0.00000000000E+00 0.  1.
</event>
<event>
 6    1  0.8017648E-006  0.6402893E+02  0.7818608E-02  0.1466946E+00
          2   -1    0    0  502    0  0.00000000000E+00  0.00000000000E+00  0.51553941445E+03  0.51553941445E+03  0.00000000000E+00 0. -1.
          1   -1    0    0  501    0 -0.00000000000E+00 -0.00000000000E+00 -0.68016018456E+02  0.68016018456E+02  0.00000000000E+00 0. -1.
          2    1    1    2  501    0  0.47503199751E+02 -0.10036726705E+03  0.40393578628E+02  0.11815999101E+03  0.00000000000E+00 0. -1.
          1    1    1    2  502    0 -0.73443995482E+02  0.58343086486E+02  0.18144916313E+03  0.20425899005E+03  0.00000000000E+00 0. -1.
         22    1    1    2    0    0 -0.77528976235E+00  0.11123313523E+02 -0.14057707326E+02  0.17942918191E+02  0.00000000000E+00 0. -1.
         22    1    1    2    0    0  0.26716085493E+02  0.30900867045E+02  0.23973836156E+03  0.24319353366E+03  0.00000000000E+00 0.  1.
</event>
<event>
 6    1  0.8017648E-006  0.7423321E+02  0.7818608E-02  0.1351657E+00
          2   -1    0    0  502    0  0.00000000000E+00  0.00000000000E+00  0.26387185983E+03  0.26387185983E+03  0.00000000000E+00 0.  1.
          1   -1    0    0  501    0 -0.00000000000E+00 -0.00000000000E+00 -0.50358315309E+02  0.50358315309E+02  0.00000000000E+00 0.  1.
          2    1    1    2  501    0  0.26455740721E+02 -0.22978323808E+01  0.75302929863E+02  0.79848090125E+02  0.00000000000E+00 0.  1.
          1    1    1    2  502    0 -0.24482777005E+02 -0.24491996833E+02 -0.11869246077E+02  0.36607967455E+02  0.00000000000E+00 0.  1.
         22    1    1    2    0    0 -0.38098085656E+02  0.84182878503E+01 -0.32750086121E+01  0.39154276681E+02  0.00000000000E+00 0.  1.
         22    1    1    2    0    0  0.36125121940E+02  0.18371541364E+02  0.15335486934E+03  0.15861984087E+03  0.00000000000E+00 0.  1.
</event>
<event>
 6    1  0.8017648E-006  0.8191161E+02  0.7818608E-02  0.1354115E+00
          2   -1    0    0  502    0  0.00000000000E+00  0.00000000000E+00  0.64548828593E+02  0.64548828593E+02  0.00000000000E+00 0. -1.
          1   -1    0    0  501    0 -0.00000000000E+00 -0.00000000000E+00 -0.82830601193E+03  0.82830601193E+03  0.00000000000E+00 0.  1.
          2    1    1    2  501    0  0.23812905605E+02  0.61240633898E+02  0.16612715980E+02  0.67775010482E+02  0.00000000000E+00 0. -1.
          1    1    1    2  502    0 -0.60092504004E+02 -0.34656218897E+02 -0.59836941813E+03  0.60237706056E+03  0.00000000000E+00 0.  1.
         22    1    1    2    0    0  0.28049751602E+02 -0.39352758392E+02 -0.19610610386E+03  0.20197284998E+03  0.00000000000E+00 0.  1.
         22    1    1    2    0    0  0.82298467972E+01  0.12768343391E+02  0.14105622672E+02  0.20729919494E+02  0.00000000000E+00 0. -1.
</event>
<event>
 6    1  0.8017648E-006  0.4873411E+02  0.7818608E-02  0.1495788E+00
          2   -1    0    0  502    0  0.00000000000E+00  0.00000000000E+00  0.28151310953E+03  0.28151310953E+03  0.00000000000E+00 0. -1.
          1   -1    0    0  501    0 -0.00000000000E+00 -0.00000000000E+00 -0.11605906918E+03  0.11605906918E+03  0.00000000000E+00 0. -1.
          2    1    1    2  501    0  0.45556359291E+01 -0.35445112094E+02  0.18657853978E+03  0.18997015897E+03  0.00000000000E+00 0. -1.
          1    1    1    2  502    0  0.12968386663E+02  0.56663094458E+02 -0.53439379405E+02  0.78959816346E+02  0.00000000000E+00 0. -1.
         22    1    1    2    0    0  0.65971007329E+01 -0.10930391397E+02  0.76339305819E+02  0.77399514256E+02  0.00000000000E+00 0. -1.
         22    1    1    2    0    0 -0.24121123325E+02 -0.10287590967E+02 -0.44024425850E+02  0.51242689135E+02  0.00000000000E+00 0. -1.
</event>
<event>
 6    1  0.8017648E-006  0.4380549E+02  0.7818608E-02  0.1562213E+00
          2   -1    0    0  502    0  0.00000000000E+00  0.00000000000E+00  0.13215098382E+03  0.13215098382E+03  0.00000000000E+00 0.  1.
          1   -1    0    0  501    0 -0.00000000000E+00 -0.00000000000E+00 -0.81458345318E+02  0.81458345318E+02  0.00000000000E+00 0.  1.
          2    1    1    2  501    0 -0.13338512229E+02  0.27306434793E+02  0.47325449835E+02  0.56242826135E+02  0.00000000000E+00 0.  1.
          1    1    1    2  502    0  0.11871561342E+02 -0.29567289041E+02  0.17423121901E+02  0.36314235869E+02  0.00000000000E+00 0.  1.
         22    1    1    2    0    0  0.14122493778E+02 -0.50752293638E+01 -0.65691943244E+02  0.67384228057E+02  0.00000000000E+00 0.  1.
         22    1    1    2    0    0 -0.12655542891E+02  0.73360836120E+01  0.51636010006E+02  0.53668039073E+02  0.00000000000E+00 0. -1.
</event>
<event>
 6    1  0.8017648E-006  0.1008902E+03  0.7818608E-02  0.1335216E+00
          2   -1    0    0  502    0  0.00000000000E+00  0.00000000000E+00  0.57475785084E+03  0.57475785084E+03  0.00000000000E+00 0. -1.
          1   -1    0    0  501    0 -0.00000000000E+00 -0.00000000000E+00 -0.27154887680E+02  0.27154887680E+02  0.00000000000E+00 0. -1.
          2    1    1    2  501    0  0.22866750238E+02 -0.15194682621E+02  0.57072775992E+02  0.63332996186E+02  0.00000000000E+00 0. -1.
          1    1    1    2  502    0 -0.65279715107E+02 -0.24951830830E+02  0.24588458858E+03  0.25562328917E+03  0.00000000000E+00 0. -1.
         22    1    1    2    0    0 -0.27962834525E+02 -0.22352444316E+02  0.24068515554E+02  0.43137516416E+02  0.00000000000E+00 0. -1.
         22    1    1    2    0    0  0.70375799394E+02  0.62498957767E+02  0.22057708304E+03  0.23981893675E+03  0.00000000000E+00 0. -1.
</event>
<event>
 6    1  0.8017648E-006  0.1001743E+03  0.7818608E-02  0.1354566E+00
          2   -1    0    0  502    0  0.00000000000E+00  0.00000000000E+00  0.28271437499E+03  0.28271437499E+03  0.00000000000E+00 0.  1.
          1   -1    0    0  501    0 -0.00000000000E+00 -0.00000000000E+00 -0.69479968733E+02  0.69479968733E+02  0.00000000000E+00 0. -1.
          2    1    1    2  501    0  0.70834646683E+01 -0.63967335995E+02  0.98663709779E+02  0.11779865523E+03  0.00000000000E+00 0.  1.
          1    1    1    2  502    0 -0.55589297773E+01  0.79586143430E+02  0.27783234430E+02  0.84479370510E+02  0.00000000000E+00 0. -1.
         22    1    1    2    0    0 -0.12553828441E+02  0.23019190732E+02 -0.21821740127E+02  0.34112608998E+02  0.00000000000E+00 0. -1.
         22    1    1    2    0    0  0.11029293550E+02 -0.38637998167E+02  0.10860920218E+03  0.11580370899E+03  0.00000000000E+00 0.  1.
</event>
<event>
 6    1  0.8017648E-006  0.4931944E+03  0.7818608E-02  0.1119799E+00
          2   -1    0    0  502    0  0.00000000000E+00  0.00000000000E+00  0.13758636376E+04  0.13758636376E+04  0.00000000000E+00 0. -1.
          1   -1    0    0  501    0 -0.00000000000E+00 -0.00000000000E+00 -0.13867893982E+03  0.13867893982E+03  0.00000000000E+00 0. -1.
          2    1    1    2  501    0 -0.20664529706E+03 -0.12842424705E+03  0.28402946425E+03  0.37398904073E+03  0.00000000000E+00 0. -1.
          1    1    1    2  502    0  0.57574844522E+02  0.33639329288E+03  0.53937278044E+03  0.63827760927E+03  0.00000000000E+00 0. -1.
         22    1    1    2    0    0  0.12642036858E+03 -0.22383024900E+03  0.37434465412E+03  0.45411012984E+03  0.00000000000E+00 0. -1.
         22    1    1    2    0    0  0.22650083949E+02  0.15861203172E+02  0.39437799016E+02  0.48165797618E+02  0.00000000000E+00 0.  1.
</event>
<event>
 6    1  0.8017648E-006  0.1173941E+03  0.7818608E-02  0.1366146E+00
          2   -1    0    0  502    0  0.00000000000E+00  0.00000000000E+00  0.31883829117E+03  0.31883829117E+03  0.00000000000E+00 0. -1.
          1   -1    0    0  501    0 -0.00000000000E+00 -0.00000000000E+00 -0.16613634270E+03  0.16613634270E+03  0.00000000000E+00 0. -1.
          2    1    1    2  501    0 -0.11628359352E+03  0.54765287996E+02  0.69504819869E+02  0.14612334131E+03  0.00000000000E+00 0. -1.
          1    1    1    2  502    0  0.92698903801E+02 -0.14233211104E+03  0.92810823735E+01  0.17011071421E+03  0.00000000000E+00 0. -1.
         22    1    1    2    0    0  0.88086318836E+01 -0.61996342718E+01 -0.27678884607E+02  0.29700978331E+02  0.00000000000E+00 0. -1.
         22    1    1    2    0    0  0.14776057836E+02  0.93766457312E+02  0.10159493084E+03  0.13903960002E+03  0.00000000000E+00 0.  1.
</event>
<event>
 6    1  0.8017648E-006  0.5127193E+02  0.7818608E-02  0.1522896E+00
          2   -1    0    0  502    0  0.00000000000E+00  0.00000000000E+00  0.45360958304E+03  0.45360958304E+03  0.00000000000E+00 0. -1.
          1   -1    0    0  501    0 -0.00000000000E+00 -0.00000000000E+00 -0.65093127553E+02  0.65093127553E+02  0.00000000000E+00 0. -1.
          2    1    1    2  501    0 -0.48496149615E+02 -0.19286349750E+02  0.31200895830E+03  0.31634384754E+03  0.00000000000E+00 0. -1.
          1    1    1    2  502    0 -0.32672298211E+01 -0.21067651820E+02  0.50670684034E+02  0.54973074903E+02  0.00000000000E+00 0. -1.
         22    1    1    2    0    0  0.37907548676E+02  0.33211685883E+02  0.78043222359E+02  0.92901791598E+02  0.00000000000E+00 0. -1.
         22    1    1    2    0    0  0.13855830759E+02  0.71423156869E+01 -0.52206409202E+02  0.54483996560E+02  0.00000000000E+00 0. -1.
</event>
<event>
 6    1  0.8017648E-006  0.3889715E+02  0.7818608E-02  0.1533921E+00
          2   -1    0    0  502    0  0.00000000000E+00  0.00000000000E+00  0.45214860820E+02  0.45214860820E+02  0.00000000000E+00 0. -1.
          1   -1    0    0  501    0 -0.00000000000E+00 -0.00000000000E+00 -0.49732509987E+03  0.49732509987E+03  0.00000000000E+00 0.  1.
          2    1    1    2  501    0 -0.19750786532E+02  0.82124045538E+01  0.14548445253E+02  0.25868792327E+02  0.00000000000E+00 0. -1.
          1    1    1    2  502    0  0.43750100179E+02  0.26987645773E+02 -0.30339199990E+03  0.30771595652E+03  0.00000000000E+00 0.  1.
         22    1    1    2    0    0 -0.16051525945E+02 -0.53828026340E+01  0.18215477875E+02  0.24868246491E+02  0.00000000000E+00 0. -1.
         22    1    1    2    0    0 -0.79477877021E+01 -0.29817247693E+02 -0.18148216227E+03  0.18408696535E+03  0.00000000000E+00 0.  1.
</event>
<event>
 6    1  0.8017648E-006  0.9166378E+02  0.7818608E-02  0.1301220E+00
          2   -1    0    0  502    0  0.00000000000E+00  0.00000000000E+00  0.24314289231E+03  0.24314289231E+03  0.00000000000E+00 0.  1.
          1   -1    0    0  501    0 -0.00000000000E+00 -0.00000000000E+00 -0.24784591041E+03  0.24784591041E+03  0.00000000000E+00 0. -1.
          2    1    1    2  501    0 -0.30622559317E+02  0.59395296641E+02  0.17492307233E+03  0.18725283345E+03  0.00000000000E+00 0.  1.
          1    1    1    2  502    0  0.33057696011E+02 -0.65439161542E+02 -0.16096991779E+03  0.17687964711E+03  0.00000000000E+00 0. -1.
         22    1    1    2    0    0 -0.28390253426E+01 -0.14877078395E+02 -0.69891016034E+02  0.71513227089E+02  0.00000000000E+00 0. -1.
         22    1    1    2    0    0  0.40388864876E+00  0.20920943296E+02  0.51234843396E+02  0.55343095073E+02  0.00000000000E+00 0. -1.
</event>
<event>
 6    1  0.8017648E-006  0.3500220E+02  0.7818608E-02  0.1551331E+00
          2   -1    0    0  502    0  0.00000000000E+00  0.00000000000E+00  0.16247597047E+03  0.16247597047E+03  0.00000000000E+00 0.  1.
          1   -1    0    0  501    0 -0.00000000000E+00 -0.00000000000E+00 -0.12975877756E+03  0.12975877756E+03  0.00000000000E+00 0.  1.
          2    1    1    2  501    0 -0.34522193569E+02  0.59786931034E+02  0.67373373613E+02  0.96464659037E+02  0.00000000000E+00 0.  1.
          1    1    1    2  502    0  0.55157367168E+02 -0.35968807028E+02 -0.27898610882E+02  0.71515192240E+02  0.00000000000E+00 0.  1.
         22    1    1    2    0    0 -0.48079481366E+01 -0.16403714913E+02 -0.63042443118E+02  0.65318817063E+02  0.00000000000E+00 0.  1.
         22    1    1    2    0    0 -0.15827225463E+02 -0.74144090927E+01  0.56284873293E+02  0.58936079693E+02  0.00000000000E+00 0.  1.
</event>
<event>
 6    1  0.8017648E-006  0.4791652E+02  0.7818608E-02  0.1527393E+00
          2   -1    0    0  502    0  0.00000000000E+00  0.00000000000E+00  0.18825828236E+03  0.18825828236E+03  0.00000000000E+00 0. -1.
          1   -1    0    0  501    0 -0.00000000000E+00 -0.00000000000E+00 -0.99021374280E+02  0.99021374280E+02  0.00000000000E+00 0.  1.
          2    1    1    2  501    0 -0.33575163911E+02 -0.20147090009E+02  0.98448536906E+02  0.10594956954E+03  0.00000000000E+00 0. -1.
          1    1    1    2  502    0  0.38942203715E+02  0.11817297828E+02  0.33501253261E+02  0.52711267563E+02  0.00000000000E+00 0.  1.
         22    1    1    2    0    0 -0.71699110730E+01 -0.95700965207E+01  0.41147780108E+02  0.42850136290E+02  0.00000000000E+00 0. -1.
         22    1    1    2    0    0  0.18028712692E+01  0.17899888701E+02 -0.83860662198E+02  0.85768683240E+02  0.00000000000E+00 0.  1.
</event>
<event>
 6    1  0.8017648E-006  0.6541847E+03  0.7818608E-02  0.1026420E+00
          2   -1    0    0  502    0  0.00000000000E+00  0.00000000000E+00  0.89401327003E+03  0.89401327003E+03  0.00000000000E+00 0. -1.
          1   -1    0    0  501    0 -0.00000000000E+00 -0.00000000000E+00 -0.22439988864E+04  0.22439988864E+04  0.00000000000E+00 0. -1.
          2    1    1    2  501    0  0.20609109174E+03  0.54398413274E+03  0.68486340623E+03  0.89857117690E+03  0.00000000000E+00 0. -1.
          1    1    1    2  502    0 -0.10260542915E+03 -0.63824419001E+03 -0.19105134690E+04  0.20169147814E+04  0.00000000000E+00 0. -1.
         22    1    1    2    0    0  0.77915544463E+01 -0.96890203131E+01 -0.52873096689E+02  0.54315281356E+02  0.00000000000E+00 0. -1.
         22    1    1    2    0    0 -0.11127721704E+03  0.10394907759E+03 -0.71462456855E+02  0.16821091672E+03  0.00000000000E+00 0. -1.
</event>
<event>
 6    1  0.8017648E-006  0.6820321E+02  0.7818608E-02  0.1431179E+00
          2   -1    0    0  502    0  0.00000000000E+00  0.00000000000E+00  0.54655402087E+02  0.54655402087E+02  0.00000000000E+00 0.  1.
          1   -1    0    0  501    0 -0.00000000000E+00 -0.00000000000E+00 -0.56119042957E+03  0.56119042957E+03  0.00000000000E+00 0.  1.
          2    1    1    2  501    0 -0.11853191997E+02 -0.18542323545E+02 -0.12759456379E+02  0.25438546540E+02  0.00000000000E+00 0.  1.
          1    1    1    2  502    0  0.11648730421E+02 -0.28716151093E+02 -0.44671633116E+03  0.44778989580E+03  0.00000000000E+00 0.  1.
         22    1    1    2    0    0  0.42643884035E+01  0.23980688897E+02 -0.90199257766E+02  0.93429998127E+02  0.00000000000E+00 0.  1.
         22    1    1    2    0    0 -0.40599268283E+01  0.23277785741E+02  0.43140017821E+02  0.49187391194E+02  0.00000000000E+00 0.  1.
</event>
<event>
 6    1  0.8017648E-006  0.1903579E+03  0.7818608E-02  0.1161247E+00
          2   -1    0    0  502    0  0.00000000000E+00  0.00000000000E+00  0.41587893167E+03  0.41587893167E+03  0.00000000000E+00 0.  1.
          1   -1    0    0  501    0 -0.00000000000E+00 -0.00000000000E+00 -0.15975298709E+03  0.15975298709E+03  0.00000000000E+00 0. -1.
          2    1    1    2  501    0  0.91866436415E+02 -0.11845167989E+03  0.27088886037E+03  0.30959815452E+03  0.00000000000E+00 0.  1.
          1    1    1    2  502    0 -0.27378979278E+02  0.11195123012E+03 -0.34682343626E+02  0.12035593625E+03  0.00000000000E+00 0. -1.
         22    1    1    2    0    0  0.19827179790E+01 -0.26884321566E+02  0.56637605869E+02  0.62725722915E+02  0.00000000000E+00 0.  1.
         22    1    1    2    0    0 -0.66470175116E+02  0.33384771334E+02 -0.36718178043E+02  0.82952105072E+02  0.00000000000E+00 0. -1.
</event>
<event>
 6    1  0.8017648E-006  0.1196032E+03  0.7818608E-02  0.1365366E+00
          2   -1    0    0  502    0  0.00000000000E+00  0.00000000000E+00  0.40499929893E+03  0.40499929893E+03  0.00000000000E+00 0. -1.
          1   -1    0    0  501    0 -0.00000000000E+00 -0.00000000000E+00 -0.78388695233E+02  0.78388695233E+02  0.00000000000E+00 0. -1.
          2    1    1    2  501    0 -0.29968958832E+02 -0.24259880661E+02  0.20107771929E+03  0.20474112801E+03  0.00000000000E+00 0. -1.
          1    1    1    2  502    0  0.83305966622E+02  0.54594991500E+02  0.10415179561E+02  0.10014476091E+03  0.00000000000E+00 0. -1.
         22    1    1    2    0    0  0.38059082751E+01  0.12271286841E+02 -0.21133681383E+02  0.24732608179E+02  0.00000000000E+00 0. -1.
         22    1    1    2    0    0 -0.57142916065E+02 -0.42606397680E+02  0.13625138623E+03  0.15376949707E+03  0.00000000000E+00 0. -1.
</event>
<event>
 6    1  0.8017648E-006  0.6808688E+02  0.7818608E-02  0.1463326E+00
          2   -1    0    0  502    0  0.00000000000E+00  0.00000000000E+00  0.53363233284E+02  0.53363233284E+02  0.00000000000E+00 0. -1.
          1   -1    0    0  501    0 -0.00000000000E+00 -0.00000000000E+00 -0.37264169615E+03  0.37264169615E+03  0.00000000000E+00 0. -1.
          2    1    1    2  501    0  0.37109034308E+02 -0.53655144618E+01 -0.16043114322E+02  0.40782970586E+02  0.00000000000E+00 0. -1.
          1    1    1    2  502    0 -0.55853400858E+02 -0.64028302000E+02 -0.16684649486E+03  0.18723508937E+03  0.00000000000E+00 0. -1.
         22    1    1    2    0    0  0.24115477055E+02  0.55157104426E+02 -0.15940642376E+03  0.17039445513E+03  0.00000000000E+00 0. -1.
         22    1    1    2    0    0 -0.53711105042E+01  0.14236712035E+02  0.23017570074E+02  0.27592414352E+02  0.00000000000E+00 0. -1.
</event>
<event>
 6    1  0.8017648E-006  0.3797921E+02  0.7818608E-02  0.1557459E+00
          2   -1    0    0  502    0  0.00000000000E+00  0.00000000000E+00  0.67960949322E+02  0.67960949322E+02  0.00000000000E+00 0.  1.
          1   -1    0    0  501    0 -0.00000000000E+00 -0.00000000000E+00 -0.32164692040E+03  0.32164692040E+03  0.00000000000E+00 0.  1.
          2    1    1    2  501    0 -0.19366844543E+02 -0.17736561276E+02  0.45840215693E+02  0.52829779937E+02  0.00000000000E+00 0.  1.
          1    1    1    2  502    0  0.12042217860E+02 -0.19723206256E+02 -0.64800416283E+02  0.68797629512E+02  0.00000000000E+00 0.  1.
         22    1    1    2    0    0  0.23729210009E+02  0.43160110720E+02 -0.24356402927E+03  0.24849407824E+03  0.00000000000E+00 0.  1.
         22    1    1    2    0    0 -0.16404583325E+02 -0.57003431880E+01  0.88382587822E+01  0.19486382035E+02  0.00000000000E+00 0.  1.
</event>
<event>
 6    1  0.8017648E-006  0.2289425E+03  0.7818608E-02  0.1231024E+00
          2   -1    0    0  502    0  0.00000000000E+00  0.00000000000E+00  0.22619770401E+03  0.22619770401E+03  0.00000000000E+00 0.  1.
          1   -1    0    0  501    0 -0.00000000000E+00 -0.00000000000E+00 -0.40884211086E+03  0.40884211086E+03  0.00000000000E+00 0.  1.
          2    1    1    2  501    0  0.31721984707E+02  0.20392161904E+03  0.66683304301E+02  0.21688009152E+03  0.00000000000E+00 0.  1.
          1    1    1    2  502    0 -0.29654031876E+02 -0.20363032352E+03 -0.15512080304E+03  0.25769581642E+03  0.00000000000E+00 0.  1.
         22    1    1    2    0    0 -0.76116178588E+01  0.21110776429E+02  0.28220962902E+02  0.36055850496E+02  0.00000000000E+00 0. -1.
         22    1    1    2    0    0  0.55436650274E+01 -0.21402071943E+02 -0.12242787100E+03  0.12440805643E+03  0.00000000000E+00 0. -1.
</event>
<event>
 6    1  0.8017648E-006  0.1251324E+03  0.7818608E-02  0.1369588E+00
          2   -1    0    0  502    0  0.00000000000E+00  0.00000000000E+00  0.50126318491E+03  0.50126318491E+03  0.00000000000E+00 0.  1.
          1   -1    0    0  501    0 -0.00000000000E+00 -0.00000000000E+00 -0.23650858808E+03  0.23650858808E+03  0.00000000000E+00 0.  1.
          2    1    1    2  501    0  0.13216696283E+02 -0.27243540774E+02  0.69975124673E+02  0.76245718880E+02  0.00000000000E+00 0.  1.
          1    1    1    2  502    0  0.33248326941E+02  0.92891818241E+02 -0.20869742946E+03  0.23084401271E+03  0.00000000000E+00 0.  1.
         22    1    1    2    0    0  0.84270022952E+01  0.61945103694E+01 -0.55095015742E+01  0.11821206960E+02  0.00000000000E+00 0. -1.
         22    1    1    2    0    0 -0.54892025519E+02 -0.71842787836E+02  0.40898640319E+03  0.41886083444E+03  0.00000000000E+00 0.  1.
</event>
<event>
 6    1  0.8017648E-006  0.6538472E+02  0.7818608E-02  0.1449400E+00
          2   -1    0    0  502    0  0.00000000000E+00  0.00000000000E+00  0.15740125037E+03  0.15740125037E+03  0.00000000000E+00 0.  1.
          1   -1    0    0  501    0 -0.00000000000E+00 -0.00000000000E+00 -0.32267903195E+03  0.32267903195E+03  0.00000000000E+00 0. -1.
          2    1    1    2  501    0 -0.13025935848E+02 -0.42333890875E+02  0.11276367440E+03  0.12115064830E+03  0.00000000000E+00 0.  1.
          1    1    1    2  502    0 -0.11190632277E+02  0.68891604606E+02 -0.18995107173E+03  0.20236771750E+03  0.00000000000E+00 0. -1.
         22    1    1    2    0    0  0.45361223490E+01 -0.19071380636E+02  0.30423354885E+02  0.36192188215E+02  0.00000000000E+00 0.  1.
         22    1    1    2    0    0  0.19680445775E+02 -0.74863330951E+01 -0.11851373913E+03  0.12036972830E+03  0.00000000000E+00 0. -1.
</event>
<event>
 6    1  0.8017648E-006  0.9376634E+02  0.7818608E-02  0.1411128E+00
          2   -1    0    0  502    0  0.00000000000E+00  0.00000000000E+00  0.50574324684E+03  0.50574324684E+03  0.00000000000E+00 0. -1.
          1   -1    0    0  501    0 -0.00000000000E+00 -0.00000000000E+00 -0.48529646404E+02  0.48529646404E+02  0.00000000000E+00 0. -1.
          2    1    1    2  501    0 -0.36793381041E+02  0.13750242522E+02  0.18800998682E+03  0.19206919899E+03  0.00000000000E+00 0. -1.
          1    1    1    2  502    0  0.85916093155E+02 -0.21862393944E+02  0.41469653535E+02  0.97873752846E+02  0.00000000000E+00 0. -1.
         22    1    1    2    0    0 -0.54961347136E+02 -0.32259967853E+01  0.24024015127E+03  0.24646802433E+03  0.00000000000E+00 0. -1.
         22    1    1    2    0    0  0.58386350222E+01  0.11338148208E+02 -0.12506191187E+02  0.17861917078E+02  0.00000000000E+00 0. -1.
</event>
<event>
 6    1  0.8017648E-006  0.5347838E+02  0.7818608E-02  0.1541045E+00
          2   -1    0    0  502    0  0.00000000000E+00  0.00000000000E+00  0.23991453893E+03  0.23991453893E+03  0.00000000000E+00 0. -1.
          1   -1    0    0  501    0 -0.00000000000E+00 -0.00000000000E+00 -0.10535924673E+03  0.10535924673E+03  0.00000000000E+00 0.  1.
          2    1    1    2  501    0  0.38102604443E+02 -0.13878796287E+02  0.15600750142E+03  0.16119171800E+03  0.00000000000E+00 0. -1.
          1    1    1    2  502    0 -0.37772378820E+02  0.29253821817E+02 -0.37572587320E+02  0.60780243588E+02  0.00000000000E+00 0.  1.
         22    1    1    2    0    0  0.86366537482E+01 -0.93217137499E+01  0.68575313834E+02  0.69742811834E+02  0.00000000000E+00 0. -1.
         22    1    1    2    0    0 -0.89668793711E+01 -0.60533117807E+01 -0.52454935733E+02  0.53559012238E+02  0.00000000000E+00 0. -1.
</event>
<event>
 6    1  0.8017648E-006  0.1302439E+03  0.7818608E-02  0.1344581E+00
          2   -1    0    0  502    0  0.00000000000E+00  0.00000000000E+00  0.58896511853E+03  0.58896511853E+03  0.00000000000E+00 0. -1.
          1   -1    0    0  501    0 -0.00000000000E+00 -0.00000000000E+00 -0.29741042256E+02  0.29741042256E+02  0.00000000000E+00 0. -1.
          2    1    1    2  501    0  0.34332167606E+02 -0.22578138533E+01  0.89499524249E+02  0.95885141168E+02  0.00000000000E+00 0. -1.
          1    1    1    2  502    0  0.13910641066E+02  0.74082545130E+02  0.16786377587E+03  0.18401080587E+03  0.00000000000E+00 0. -1.
         22    1    1    2    0    0  0.13063423067E+02  0.54297587479E+01 -0.61271919434E+01  0.15416801984E+02  0.00000000000E+00 0. -1.
         22    1    1    2    0    0 -0.61306231739E+02 -0.77254490025E+02  0.30798796809E+03  0.32339341176E+03  0.00000000000E+00 0. -1.
</event>
<event>
 6    1  0.8017648E-006  0.1367670E+03  0.7818608E-02  0.1219703E+00
          2   -1    0    0  502    0  0.00000000000E+00  0.00000000000E+00  0.10058879294E+04  0.10058879294E+04  0.00000000000E+00 0. -1.
          1   -1    0    0  501    0 -0.00000000000E+00 -0.00000000000E+00 -0.92339951458E+02  0.92339951458E+02  0.00000000000E+00 0.  1.
          2    1    1    2  501    0  0.10473679278E+03 -0.11964822242E+02  0.88682504569E+03  0.89306865044E+03  0.00000000000E+00 0. -1.
          1    1    1    2  502    0 -0.71710418680E+02  0.16899919209E+02  0.90573050303E+01  0.74229550658E+02  0.00000000000E+00 0.  1.
         22    1    1    2    0    0  0.17588261818E+02 -0.64411942304E+01  0.61292719894E+02  0.64090821877E+02  0.00000000000E+00 0.  1.
         22    1    1    2    0    0 -0.50614635918E+02  0.15060972641E+01 -0.43627092718E+02  0.66838857838E+02  0.00000000000E+00 0. -1.
</event>
<event>
 6    1  0.8017648E-006  0.4155688E+02  0.7818608E-02  0.1509516E+00
          2   -1    0    0  502    0  0.00000000000E+00  0.00000000000E+00  0.19229896789E+03  0.19229896789E+03  0.00000000000E+00 0.  1.
          1   -1    0    0  501    0 -0.00000000000E+00 -0.00000000000E+00 -0.89324019413E+02  0.89324019413E+02  0.00000000000E+00 0.  1.
          2    1    1    2  501    0  0.34159161760E+02  0.38847410168E+02  0.52350262921E+02  0.73597008341E+02  0.00000000000E+00 0.  1.
          1    1    1    2  502    0 -0.50915144788E+02 -0.42131753021E+02 -0.10681506969E+02  0.66944239278E+02  0.00000000000E+00 0.  1.
         22    1    1    2    0    0 -0.59218946868E+01  0.24791277889E+02 -0.33019503572E+02  0.41712874657E+02  0.00000000000E+00 0.  1.
         22    1    1    2    0    0  0.22677877716E+02 -0.21506935036E+02  0.94325696101E+02  0.99368865030E+02  0.00000000000E+00 0.  1.
</event>
<event>
 6    1  0.8017648E-006  0.2223443E+03  0.7818608E-02  0.1171616E+00
          2   -1    0    0  502    0  0.00000000000E+00  0.00000000000E+00  0.72816452136E+03  0.72816452136E+03  0.00000000000E+00 0. -1.
          1   -1    0    0  501    0 -0.00000000000E+00 -0.00000000000E+00 -0.11072324500E+03  0.11072324500E+03  0.00000000000E+00 0. -1.
          2    1    1    2  501    0 -0.13447267554E+03  0.58590785606E+02  0.20600818179E+03  0.25289355782E+03  0.00000000000E+00 0. -1.
          1    1    1    2  502    0  0.19588340239E+03 -0.14472498088E+03  0.17346063880E+03  0.29900538563E+03  0.00000000000E+00 0. -1.
         22    1    1    2    0    0 -0.17039410014E+01  0.87504784945E+02  0.81840288286E+02  0.11982413609E+03  0.00000000000E+00 0. -1.
         22    1    1    2    0    0 -0.59706785849E+02 -0.13705896694E+01  0.15613216750E+03  0.16716468682E+03  0.00000000000E+00 0.  1.
</event>
<event>
 6    1  0.8017648E-006  0.1529797E+03  0.7818608E-02  0.1249976E+00
          2   -1    0    0  502    0  0.00000000000E+00  0.00000000000E+00  0.77052293310E+03  0.77052293310E+03  0.00000000000E+00 0. -1.
          1   -1    0    0  501    0 -0.00000000000E+00 -0.00000000000E+00 -0.73818981994E+02  0.73818981994E+02  0.00000000000E+00 0. -1.
          2    1    1    2  501    0  0.45076643526E+02 -0.10871045129E+01 -0.10188328670E+02  0.46226481900E+02  0.00000000000E+00 0. -1.
          1    1    1    2  502    0 -0.13081752691E+03  0.92621332383E+01  0.59776268119E+03  0.61197976722E+03  0.00000000000E+00 0. -1.
         22    1    1    2    0    0  0.53198372996E+01  0.50161876730E+02  0.26892149919E+02  0.57163819617E+02  0.00000000000E+00 0. -1.
         22    1    1    2    0    0  0.80421046081E+02 -0.58336905455E+02  0.82237448667E+02  0.12897184636E+03  0.00000000000E+00 0. -1.
</event>
<event>
 6    1  0.8017648E-006  0.1086564E+03  0.7818608E-02  0.1263109E+00
          2   -1    0    0  502    0  0.00000000000E+00  0.00000000000E+00  0.64082063562E+03  0.64082063562E+03  0.00000000000E+00 0.  1.
          1   -1    0    0  501    0 -0.00000000000E+00 -0.00000000000E+00 -0.35076069721E+02  0.35076069721E+02  0.00000000000E+00 0. -1.
          2    1    1    2  501    0  0.60904858817E+02 -0.31877137625E+02  0.31040705631E+03  0.31792781309E+03  0.00000000000E+00 0.  1.
          1    1    1    2  502    0 -0.63793386785E+02  0.30194877053E+02  0.56238802471E+02  0.90244831991E+02  0.00000000000E+00 0. -1.
         22    1    1    2    0    0 -0.36303458678E+02  0.29136354464E+01  0.13655195282E+02  0.38895947626E+02  0.00000000000E+00 0.  1.
         22    1    1    2    0    0  0.39191986647E+02 -0.12313748742E+01  0.22544351183E+03  0.22882811263E+03  0.00000000000E+00 0.  1.
</event>
<event>
 6    1  0.8017648E-006  0.1296164E+03  0.7818608E-02  0.1345344E+00
          2   -1    0    0  502    0  0.00000000000E+00  0.00000000000E+00  0.57268284435E+03  0.57268284435E+03  0.00000000000E+00 0.  1.
          1   -1    0    0  501    0 -0.00000000000E+00 -0.00000000000E+00 -0.71656440240E+02  0.71656440240E+02  0.00000000000E+00 0.  1.
          2    1    1    2  501    0  0.58055609797E+02  0.75597176429E+02  0.15317856445E+03  0.18041357909E+03  0.00000000000E+00 0.  1.
          1    1    1    2  502    0 -0.59068314522E+02 -0.11120918072E+03  0.29848382222E+03  0.32395854640E+03  0.00000000000E+00 0.  1.
         22    1    1    2    0    0 -0.11468571454E+02  0.83160946048E+01 -0.41723084888E+02  0.44062471256E+02  0.00000000000E+00 0.  1.
         22    1    1    2    0    0  0.12481276179E+02  0.27295909686E+02  0.91087102323E+02  0.95904687842E+02  0.00000000000E+00 0.  1.
</event>
<event>
 6    1  0.8017648E-006  0.4101727E+02  0.7818608E-02  0.1534634E+00
          2   -1    0    0  502    0  0.00000000000E+00  0.00000000000E+00  0.82196427670E+02  0.82196427670E+02  0.00000000000E+00 0. -1.
          1   -1    0    0  501    0 -0.00000000000E+00 -0.00000000000E+00 -0.19307455004E+03  0.19307455004E+03  0.00000000000E+00 0. -1.
          2    1    1    2  501    0  0.28188952370E+02  0.43413733549E+02 -0.21489061606E+02  0.56045954939E+02  0.00000000000E+00 0. -1.
          1    1    1    2  502    0 -0.35985563803E+02 -0.61847998509E+02 -0.17433751586E+02  0.73648295406E+02  0.00000000000E+00 0. -1.
         22    1    1    2    0    0  0.25953814565E+02  0.15065698424E+02  0.29721343654E+02  0.42236643191E+02  0.00000000000E+00 0. -1.
         22    1    1    2    0    0 -0.18157203131E+02  0.33685665369E+01 -0.10167665283E+03  0.10334008417E+03  0.00000000000E+00 0.  1.
</event>
<event>
 6    1  0.8017648E-006  0.1108582E+03  0.7818608E-02  0.1378473E+00
          2   -1    0    0  502    0  0.00000000000E+00  0.00000000000E+00  0.78877401345E+03  0.78877401345E+03  0.00000000000E+00 0.  1.
          1   -1    0    0  501    0 -0.00000000000E+00 -0.00000000000E+00 -0.64501455428E+03  0.64501455428E+03  0.00000000000E+00 0.  1.
          2    1    1    2  501    0 -0.63662200266E+02  0.68499609429E+01  0.55466056315E+03  0.55834410360E+03  0.00000000000E+00 0.  1.
          1    1    1    2  502    0  0.11678221319E+03 -0.25309914948E+02 -0.61711305132E+03  0.62857552865E+03  0.00000000000E+00 0.  1.
         22    1    1    2    0    0 -0.12520965005E+02  0.34794510410E+01 -0.15925892996E+02  0.20555174821E+02  0.00000000000E+00 0.  1.
         22    1    1    2    0    0 -0.40599047919E+02  0.14980502964E+02  0.22213784033E+03  0.22631376067E+03  0.00000000000E+00 0. -1.
</event>
<event>
 6    1  0.8017648E-006  0.7198116E+02  0.7818608E-02  0.1416669E+00
          2   -1    0    0  502    0  0.00000000000E+00  0.00000000000E+00  0.19859670911E+03  0.19859670911E+03  0.00000000000E+00 0. -1.
          1   -1    0    0  501    0 -0.00000000000E+00 -0.00000000000E+00 -0.99422240011E+02  0.99422240011E+02  0.00000000000E+00 0.  1.
          2    1    1    2  501    0 -0.19924583473E+02 -0.60534844127E+01  0.84704747423E+02  0.87226876225E+02  0.00000000000E+00 0. -1.
          1    1    1    2  502    0 -0.25049080839E+01  0.40422524108E+02 -0.51560639511E+02  0.65564888214E+02  0.00000000000E+00 0.  1.
         22    1    1    2    0    0  0.12749132783E+01 -0.49256090639E+02  0.94614726095E+02  0.10667583730E+03  0.00000000000E+00 0. -1.
         22    1    1    2    0    0  0.21154578279E+02  0.14887050944E+02 -0.28584364909E+02  0.38551347385E+02  0.00000000000E+00 0.  1.
</event>
<event>
 6    1  0.8017648E-006  0.1108065E+03  0.7818608E-02  0.1355583E+00
          2   -1    0    0  502    0  0.00000000000E+00  0.00000000000E+00  0.14316166645E+03  0.14316166645E+03  0.00000000000E+00 0. -1.
          1   -1    0    0  501    0 -0.00000000000E+00 -0.00000000000E+00 -0.85659040735E+03  0.85659040735E+03  0.00000000000E+00 0.  1.
          2    1    1    2  501    0  0.23221514396E+02  0.60386216472E+02  0.85049505154E+02  0.10686043326E+03  0.00000000000E+00 0. -1.
          1    1    1    2  502    0 -0.61802239241E+02 -0.74975236655E+02 -0.74441187858E+03  0.75072621365E+03  0.00000000000E+00 0.  1.
         22    1    1    2    0    0  0.80710255408E+01 -0.17247464951E+02 -0.85768362527E+02  0.87856863768E+02  0.00000000000E+00 0.  1.
         22    1    1    2    0    0  0.30509699304E+02  0.31836485134E+02  0.31701995057E+02  0.54308563118E+02  0.00000000000E+00 0. -1.
</event>
<event>
 6    1  0.8017648E-006  0.6534355E+02  0.7818608E-02  0.1469662E+00
          2   -1    0    0  502    0  0.00000000000E+00  0.00000000000E+00  0.81402971146E+02  0.81402971146E+02  0.00000000000E+00 0. -1.
          1   -1    0    0  501    0 -0.00000000000E+00 -0.00000000000E+00 -0.31117230720E+03  0.31117230720E+03  0.00000000000E+00 0. -1.
          2    1    1    2  501    0 -0.13144186797E+02 -0.28173571298E+02  0.20903325876E+02  0.37462898965E+02  0.00000000000E+00 0. -1.
          1    1    1    2  502    0 -0.52449295631E+01  0.66805745105E+02 -0.19805480555E+03  0.20908424825E+03  0.00000000000E+00 0. -1.
         22    1    1    2    0    0  0.14447243422E+02 -0.61803250701E+01 -0.92860674031E+02  0.94180805061E+02  0.00000000000E+00 0. -1.
         22    1    1    2    0    0  0.39418729381E+01 -0.32451848737E+02  0.40242817647E+02  0.51847326072E+02  0.00000000000E+00 0. -1.
</event>
<event>
 6    1  0.8017648E-006  0.1032630E+03  0.7818608E-02  0.1337579E+00
          2   -1    0    0  502    0  0.00000000000E+00  0.00000000000E+00  0.78120147584E+02  0.78120147584E+02  0.00000000000E+00 0.  1.
          1   -1    0    0  501    0 -0.00000000000E+00 -0.00000000000E+00 -0.24361633398E+03  0.24361633398E+03  0.00000000000E+00 0. -1.
          2    1    1    2  501    0  0.20199779213E+02  0.70088356352E+01 -0.34127613270E+02  0.40272184504E+02  0.00000000000E+00 0.  1.
          1    1    1    2  502    0 -0.44656091074E+01 -0.26370373175E+02 -0.15177325365E+03  0.15411183851E+03  0.00000000000E+00 0. -1.
         22    1    1    2    0    0  0.13084124146E+02  0.53575760599E+01  0.68288990505E+02  0.69737250807E+02  0.00000000000E+00 0. -1.
         22    1    1    2    0    0 -0.28818294251E+02  0.14003961480E+02 -0.47884309986E+02  0.57615207745E+02  0.00000000000E+00 0.  1.
</event>
<event>
 6    1  0.8017648E-006  0.4171029E+02  0.7818608E-02  0.1543991E+00
          2   -1    0    0  502    0  0.00000000000E+00  0.00000000000E+00  0.17609308652E+03  0.17609308652E+03  0.00000000000E+00 0.  1.
          1   -1    0    0  501    0 -0.00000000000E+00 -0.00000000000E+00 -0.56863864142E+02  0.56863864142E+02  0.00000000000E+00 0.  1.
          2    1    1    2  501    0  0.25857369409E+02 -0.17631767777E+02  0.49666211118E+02  0.58704474400E+02  0.00000000000E+00 0.  1.
          1    1    1    2  502    0 -0.21633199114E+02  0.16367421878E+02  0.43313327548E+02  0.51107065521E+02  0.00000000000E+00 0.  1.
         22    1    1    2    0    0 -0.17422143436E+02  0.13347745321E+02 -0.44794562384E+02  0.49882323585E+02  0.00000000000E+00 0.  1.
         22    1    1    2    0    0  0.13197973141E+02 -0.12083399422E+02  0.71044246097E+02  0.73263087159E+02  0.00000000000E+00 0.  1.
</event>
<event>
 6    1  0.8017648E-006  0.6044533E+02  0.7818608E-02  0.1398739E+00
          2   -1    0    0  502    0  0.00000000000E+00  0.00000000000E+00  0.12323573862E+03  0.12323573862E+03  0.00000000000E+00 0. -1.
          1   -1    0    0  501    0 -0.00000000000E+00 -0.00000000000E+00 -0.34109974756E+03  0.34109974756E+03  0.00000000000E+00 0. -1.
          2    1    1    2  501    0  0.89653159734E+02  0.50151254003E+02  0.39074574514E+02  0.10990750521E+03  0.00000000000E+00 0. -1.
          1    1    1    2  502    0 -0.25342478639E+02 -0.74309836593E+02 -0.24281193252E+02  0.82181320164E+02  0.00000000000E+00 0. -1.
         22    1    1    2    0    0 -0.40653779819E+02 -0.80325910868E+01 -0.22833456034E+03  0.23206448194E+03  0.00000000000E+00 0. -1.
         22    1    1    2    0    0 -0.23656901277E+02  0.32191173677E+02 -0.43228298589E+01  0.40182178870E+02  0.00000000000E+00 0. -1.
</event>
<event>
 6    1  0.8017648E-006  0.1519376E+03  0.7818608E-02  0.1311133E+00
          2   -1    0    0  502    0  0.00000000000E+00  0.00000000000E+00  0.77951238616E+03  0.77951238616E+03  0.00000000000E+00 0. -1.
          1   -1    0    0  501    0 -0.00000000000E+00 -0.00000000000E+00 -0.17863420333E+03  0.17863420333E+03  0.00000000000E+00 0. -1.
          2    1    1    2  501    0 -0.40174884081E+02 -0.15408776749E+03  0.18185441214E+03  0.24171902824E+03  0.00000000000E+00 0. -1.
          1    1    1    2  502    0  0.59255892587E+02 -0.12811960225E+02 -0.12151219306E+03  0.13579624514E+03  0.00000000000E+00 0. -1.
         22    1    1    2    0    0  0.26767255293E+01  0.15859810436E+02 -0.27531202357E+01  0.16318030446E+02  0.00000000000E+00 0.  1.
         22    1    1    2    0    0 -0.21757734035E+02  0.15103991728E+03  0.54328908398E+03  0.56431328567E+03  0.00000000000E+00 0. -1.
</event>
<event>
 6    1  0.8017648E-006  0.3317588E+03  0.7818608E-02  0.1200798E+00
          2   -1    0    0  502    0  0.00000000000E+00  0.00000000000E+00  0.54094729521E+03  0.54094729521E+03  0.00000000000E+00 0.  1.
          1   -1    0    0  501    0 -0.00000000000E+00 -0.00000000000E+00 -0.83262679696E+03  0.83262679696E+03  0.00000000000E+00 0. -1.
          2    1    1    2  501    0  0.19580759857E+03 -0.48305578549E+02  0.27061628111E+03  0.33750143137E+03  0.00000000000E+00 0.  1.
          1    1    1    2  502    0 -0.22753418556E+03  0.17374876291E+03 -0.73290769308E+03  0.78683805500E+03  0.00000000000E+00 0. -1.
         22    1    1    2    0    0  0.45164205789E+02 -0.12245096937E+03  0.18686729357E+03  0.22793295240E+03  0.00000000000E+00 0.  1.
         22    1    1    2    0    0 -0.13437618799E+02 -0.29922149898E+01 -0.16255383353E+02  0.21301653398E+02  0.00000000000E+00 0. -1.
</event>
<event>
 6    1  0.8017648E-006  0.1267100E+03  0.7818608E-02  0.1233116E+00
          2   -1    0    0  502    0  0.00000000000E+00  0.00000000000E+00  0.10151518957E+03  0.10151518957E+03  0.00000000000E+00 0. -1.
          1   -1    0    0  501    0 -0.00000000000E+00 -0.00000000000E+00 -0.37235357972E+03  0.37235357972E+03  0.00000000000E+00 0.  1.
          2    1    1    2  501    0 -0.21963828964E+02  0.17232696429E+02  0.12846801839E+02  0.30731350873E+02  0.00000000000E+00 0. -1.
          1    1    1    2  502    0  0.59402102811E+02 -0.96699135087E+02 -0.26735689079E+03  0.29044627661E+03  0.00000000000E+00 0.  1.
         22    1    1    2    0    0 -0.34330623536E+02  0.90568495784E+02  0.32775558162E+02  0.10225204816E+03  0.00000000000E+00 0. -1.
         22    1    1    2    0    0 -0.31076503105E+01 -0.11102057126E+02 -0.49103859364E+02  0.50439093641E+02  0.00000000000E+00 0.  1.
</event>
<event>
 6    1  0.8017648E-006  0.8898576E+02  0.7818608E-02  0.1374540E+00
          2   -1    0    0  502    0  0.00000000000E+00  0.00000000000E+00  0.99678251188E+02  0.99678251188E+02  0.00000000000E+00 0. -1.
          1   -1    0    0  501    0 -0.00000000000E+00 -0.00000000000E+00 -0.25162427283E+03  0.25162427283E+03  0.00000000000E+00 0.  1.
          2    1    1    2  501    0  0.19426507196E+02  0.31679260755E+02  0.27400207592E+01  0.37262212194E+02  0.00000000000E+00 0. -1.
          1    1    1    2  502    0 -0.54214742172E+02 -0.17957649455E+02 -0.17012866848E+03  0.17945885122E+03  0.00000000000E+00 0.  1.
         22    1    1    2    0    0  0.35845928521E+02  0.13057364791E+02  0.66643662463E+02  0.76790644699E+02  0.00000000000E+00 0. -1.
         22    1    1    2    0    0 -0.10576935454E+01 -0.26778976091E+02 -0.51201036391E+02  0.57790815911E+02  0.00000000000E+00 0.  1.
</event>
<event>
 6    1  0.8017648E-006  0.4348157E+02  0.7818608E-02  0.1499255E+00
          2   -1    0    0  502    0  0.00000000000E+00  0.00000000000E+00  0.40010105645E+03  0.40010105645E+03  0.00000000000E+00 0.  1.
          1   -1    0    0  501    0 -0.00000000000E+00 -0.00000000000E+00 -0.30030838065E+03  0.30030838065E+03  0.00000000000E+00 0.  1.
          2    1    1    2  501    0 -0.39354208638E+02 -0.80973796762E+02  0.29008023603E+03  0.30373023036E+03  0.00000000000E+00 0.  1.
          1    1    1    2  502    0  0.42157774034E+02  0.87689240263E+02 -0.24175401916E+03  0.26059870788E+03  0.00000000000E+00 0.  1.
         22    1    1    2    0    0  0.18543668080E+02  0.27477630204E+01  0.89504740258E+02  0.91446795220E+02  0.00000000000E+00 0. -1.
         22    1    1    2    0    0 -0.21347233477E+02 -0.94632065212E+01 -0.38038281327E+02  0.44633703645E+02  0.00000000000E+00 0.  1.
</event>
<event>
 6    1  0.8017648E-006  0.3712653E+02  0.7818608E-02  0.1594284E+00
          2   -1    0    0  502    0  0.00000000000E+00  0.00000000000E+00  0.28440709920E+02  0.28440709920E+02  0.00000000000E+00 0.  1.
          1   -1    0    0  501    0 -0.00000000000E+00 -0.00000000000E+00 -0.38204255199E+03  0.38204255199E+03  0.00000000000E+00 0.  1.
          2    1    1    2  501    0  0.27012884166E+02  0.10353249067E+01 -0.63370319699E+02  0.68895320794E+02  0.00000000000E+00 0.  1.
          1    1    1    2  502    0  0.24121331324E+02 -0.18034706766E+02 -0.11972635925E+03  0.12345643107E+03  0.00000000000E+00 0.  1.
         22    1    1    2    0    0  0.10276970511E+02  0.13002414274E+02  0.15204072492E+02  0.22490947516E+02  0.00000000000E+00 0.  1.
         22    1    1    2    0    0 -0.61411186000E+02  0.39969675854E+01 -0.18570923561E+03  0.19564056253E+03  0.00000000000E+00 0.  1.
</event>
<event>
 6    1  0.8017648E-006  0.1239838E+03  0.7818608E-02  0.1238978E+00
          2   -1    0    0  502    0  0.00000000000E+00  0.00000000000E+00  0.26058315555E+02  0.26058315555E+02  0.00000000000E+00 0.  1.
          1   -1    0    0  501    0 -0.00000000000E+00 -0.00000000000E+00 -0.74312125499E+03  0.74312125499E+03  0.00000000000E+00 0.  1.
          2    1    1    2  501    0 -0.47138933785E+02 -0.10055659877E+02 -0.51652505020E+02  0.70648260055E+02  0.00000000000E+00 0.  1.
          1    1    1    2  502    0  0.65156409769E+02  0.32855703488E+02 -0.35045294531E+03  0.35796944264E+03  0.00000000000E+00 0.  1.
         22    1    1    2    0    0 -0.39669608922E+02 -0.62355233988E+02 -0.12400799596E+03  0.14436009192E+03  0.00000000000E+00 0.  1.
         22    1    1    2    0    0  0.21652132938E+02  0.39555190378E+02 -0.19094949314E+03  0.19620177593E+03  0.00000000000E+00 0.  1.
</event>
<event>
 6    1  0.8017648E-006  0.6512033E+02  0.7818608E-02  0.1477984E+00
          2   -1    0    0  502    0  0.00000000000E+00  0.00000000000E+00  0.18684400628E+03  0.18684400628E+03  0.00000000000E+00 0.  1.
          1   -1    0    0  501    0 -0.00000000000E+00 -0.00000000000E+00 -0.12747408527E+03  0.12747408527E+03  0.00000000000E+00 0. -1.
          2    1    1    2  501    0 -0.34253808028E+02  0.30132927253E+02  0.99199016847E+02  0.10918681978E+03  0.00000000000E+00 0.  1.
          1    1    1    2  502    0  0.30581801663E+02 -0.47753557819E+02 -0.52863349510E+02  0.77525367452E+02  0.00000000000E+00 0. -1.
         22    1    1    2    0    0  0.13935908654E+02  0.21483593471E+01 -0.55157658130E+02  0.56931469753E+02  0.00000000000E+00 0. -1.
         22    1    1    2    0    0 -0.10263902289E+02  0.15472271218E+02  0.68191911802E+02  0.70674434572E+02  0.00000000000E+00 0.  1.
</event>
<event>
 6    1  0.8017648E-006  0.2079296E+03  0.7818608E-02  0.1204711E+00
          2   -1    0    0  502    0  0.00000000000E+00  0.00000000000E+00  0.62281728402E+03  0.62281728402E+03  0.00000000000E+00 0. -1.
          1   -1    0    0  501    0 -0.00000000000E+00 -0.00000000000E+00 -0.15149184413E+03  0.15149184413E+03  0.00000000000E+00 0. -1.
          2    1    1    2  501    0 -0.14703201338E+03  0.10402322696E+03  0.31923299010E+03  0.36653641930E+03  0.00000000000E+00 0. -1.
          1    1    1    2  502    0  0.15232768832E+03 -0.15527457188E+03  0.15838156143E+03  0.26906994686E+03  0.00000000000E+00 0. -1.
         22    1    1    2    0    0 -0.22947113732E+02  0.29960963566E+01  0.54439072260E+02  0.59153691437E+02  0.00000000000E+00 0. -1.
         22    1    1    2    0    0  0.17651438793E+02  0.48255248568E+02 -0.60728183906E+02  0.79549070556E+02  0.00000000000E+00 0. -1.
</event>
<event>
 6    1  0.8017648E-006  0.1829503E+03  0.7818608E-02  0.1297649E+00
          2   -1    0    0  502    0  0.00000000000E+00  0.00000000000E+00  0.76024874937E+03  0.76024874937E+03  0.00000000000E+00 0. -1.
          1   -1    0    0  501    0 -0.00000000000E+00 -0.00000000000E+00 -0.90343146987E+02  0.90343146987E+02  0.00000000000E+00 0. -1.
          2    1    1    2  501    0 -0.50690942055E+02 -0.43938702909E+02  0.56492238143E+03  0.56889144682E+03  0.00000000000E+00 0. -1.
          1    1    1    2  502    0  0.70843355757E+02  0.66811960146E+01  0.12731824830E+03  0.14585388505E+03  0.00000000000E+00 0. -1.
         22    1    1    2    0    0 -0.15331552192E+02  0.48019743652E+02  0.44948423308E+02  0.67537493519E+02  0.00000000000E+00 0.  1.
         22    1    1    2    0    0 -0.48208615088E+01 -0.10762236757E+02 -0.67283450650E+02  0.68309070972E+02  0.00000000000E+00 0. -1.
</event>
<event>
 6    1  0.8017648E-006  0.6913680E+02  0.7818608E-02  0.1404472E+00
          2   -1    0    0  502    0  0.00000000000E+00  0.00000000000E+00  0.11858641810E+03  0.11858641810E+03  0.00000000000E+00 0.  1.
          1   -1    0    0  501    0 -0.00000000000E+00 -0.00000000000E+00 -0.63729687423E+03  0.63729687423E+03  0.00000000000E+00 0.  1.
          2    1    1    2  501    0 -0.27192238062E+02 -0.11823867550E+02  0.65966371889E+02  0.72324158307E+02  0.00000000000E+00 0.  1.
          1    1    1    2  502    0  0.33551334552E+02  0.22478830129E+02 -0.54932551954E+03  0.55080805756E+03  0.00000000000E+00 0.  1.
         22    1    1    2    0    0  0.28842355108E+02 -0.20367853556E+02 -0.72511582537E+02  0.80651475552E+02  0.00000000000E+00 0.  1.
         22    1    1    2    0    0 -0.35201451599E+02  0.97128909766E+01  0.37160274060E+02  0.52099600900E+02  0.00000000000E+00 0.  1.
</event>
<event>
 6    1  0.8017648E-006  0.6825020E+02  0.7818608E-02  0.1395332E+00
          2   -1    0    0  502    0  0.00000000000E+00  0.00000000000E+00  0.49595114982E+03  0.49595114982E+03  0.00000000000E+00 0. -1.
          1   -1    0    0  501    0 -0.00000000000E+00 -0.00000000000E+00 -0.34834945307E+02  0.34834945307E+02  0.00000000000E+00 0. -1.
          2    1    1    2  501    0 -0.53694823076E+02  0.31207803868E+02  0.25162993630E+03  0.25918079768E+03  0.00000000000E+00 0. -1.
          1    1    1    2  502    0  0.34514310562E+02 -0.15901799638E+02  0.85461844427E+02  0.93529843998E+02  0.00000000000E+00 0. -1.
         22    1    1    2    0    0  0.97442414364E+00  0.23008301372E+02  0.13277929185E+03  0.13476153672E+03  0.00000000000E+00 0. -1.
         22    1    1    2    0    0  0.18206088371E+02 -0.38314305602E+02 -0.87548680601E+01  0.43313916728E+02  0.00000000000E+00 0. -1.
</event>
<event>
 6    1  0.8017648E-006  0.5746568E+02  0.7818608E-02  0.1451576E+00
          2   -1    0    0  502    0  0.00000000000E+00  0.00000000000E+00  0.17564147792E+03  0.17564147792E+03  0.00000000000E+00 0. -1.
          1   -1    0    0  501    0 -0.00000000000E+00 -0.00000000000E+00 -0.37952657442E+03  0.37952657442E+03  0.00000000000E+00 0.  1.
          2    1    1    2  501    0 -0.97420366695E+02  0.10419357416E+03  0.69110401308E+02  0.15850323754E+03  0.00000000000E+00 0. -1.
          1    1    1    2  502    0  0.74741616793E+02 -0.12905371520E+03 -0.20582109734E+03  0.25417217550E+03  0.00000000000E+00 0.  1.
         22    1    1    2    0    0  0.11512798763E+02  0.42826132894E+01  0.35300902213E+02  0.37376985018E+02  0.00000000000E+00 0.  1.
         22    1    1    2    0    0  0.11165951139E+02  0.20577527753E+02 -0.10247530269E+03  0.10511565428E+03  0.00000000000E+00 0. -1.
</event>
<event>
 6    1  0.8017648E-006  0.2116763E+03  0.7818608E-02  0.1246501E+00
          2   -1    0    0  502    0  0.00000000000E+00  0.00000000000E+00  0.30201104678E+03  0.30201104678E+03  0.00000000000E+00 0. -1.
          1   -1    0    0  501    0 -0.00000000000E+00 -0.00000000000E+00 -0.26454880286E+03  0.26454880286E+03  0.00000000000E+00 0. -1.
          2    1    1    2  501    0 -0.48615931851E+02  0.14977477540E+03  0.11198740592E+03  0.19322828794E+03  0.00000000000E+00 0. -1.
          1    1    1    2  502    0  0.58444533716E+02 -0.18146909120E+03 -0.12823661243E+03  0.22976384257E+03  0.00000000000E+00 0. -1.
         22    1    1    2    0    0  0.20394854785E+02 -0.87201520835E+00 -0.37170310454E+02  0.42406868447E+02  0.00000000000E+00 0.  1.
         22    1    1    2    0    0 -0.30223456651E+02  0.32566331006E+02  0.90881760892E+02  0.10116085068E+03  0.00000000000E+00 0. -1.
</event>
<event>
 6    1  0.8017648E-006  0.3910005E+02  0.7818608E-02  0.1561107E+00
          2   -1    0    0  502    0  0.00000000000E+00  0.00000000000E+00  0.33359311349E+02  0.33359311349E+02  0.00000000000E+00 0. -1.
          1   -1    0    0  501    0 -0.00000000000E+00 -0.00000000000E+00 -0.66988837970E+03  0.66988837970E+03  0.00000000000E+00 0. -1.
          2    1    1    2  501    0  0.37504885751E+02  0.12743661418E+02  0.16916805956E+00  0.39611185028E+02  0.00000000000E+00 0. -1.
          1    1    1    2  502    0  0.23671431842E+02 -0.15061198524E+01 -0.29117303667E+03  0.29213754015E+03  0.00000000000E+00 0. -1.
         22    1    1    2    0    0  0.52088938075E+01  0.11226353509E+02  0.55021556782E+01  0.13543902869E+02  0.00000000000E+00 0. -1.
         22    1    1    2    0    0 -0.66385211400E+02 -0.22463895075E+02 -0.35102735542E+03  0.35795506300E+03  0.00000000000E+00 0. -1.
</event>
<event>
 6    1  0.8017648E-006  0.1027143E+03  0.7818608E-02  0.1391895E+00
          2   -1    0    0  502    0  0.00000000000E+00  0.00000000000E+00  0.15845529961E+03  0.15845529961E+03  0.00000000000E+00 0. -1.
          1   -1    0    0  501    0 -0.00000000000E+00 -0.00000000000E+00 -0.13228797660E+03  0.13228797660E+03  0.00000000000E+00 0. -1.
          2    1    1    2  501    0 -0.56133069464E+02 -0.26665120942E+02  0.31478750351E+02  0.69662485499E+02  0.00000000000E+00 0. -1.
          1    1    1    2  502    0  0.83034082428E+02  0.45985502890E+01  0.24036974040E+02  0.86565475973E+02  0.00000000000E+00 0. -1.
         22    1    1    2    0    0 -0.39801219926E+02  0.19527241660E+02  0.42535608812E+02  0.61438817465E+02  0.00000000000E+00 0. -1.
         22    1    1    2    0    0  0.12900206962E+02  0.25393289927E+01 -0.71884010193E+02  0.73076497267E+02  0.00000000000E+00 0.  1.
</event>
<event>
 6    1  0.8017648E-006  0.1329870E+03  0.7818608E-02  0.1285773E+00
          2   -1    0    0  502    0  0.00000000000E+00  0.00000000000E+00  0.68109106841E+03  0.68109106841E+03  0.00000000000E+00 0. -1.
          1   -1    0    0  501    0 -0.00000000000E+00 -0.00000000000E+00 -0.23809359444E+02  0.23809359444E+02  0.00000000000E+00 0. -1.
          2    1    1    2  501    0  0.11860045650E+02 -0.52084538811E+02  0.29452797386E+03  0.29933290372E+03  0.00000000000E+00 0. -1.
          1    1    1    2  502    0 -0.30956683283E+02 -0.20993043420E+02  0.79397200392E+02  0.87766391870E+02  0.00000000000E+00 0. -1.
         22    1    1    2    0    0  0.55899802477E+02  0.62371771529E+02  0.25943571686E+03  0.27262046326E+03  0.00000000000E+00 0. -1.
         22    1    1    2    0    0 -0.36803164844E+02  0.10705810702E+02  0.23920817856E+02  0.45180669010E+02  0.00000000000E+00 0. -1.
</event>
<event>
 6    1  0.8017648E-006  0.8319778E+02  0.7818608E-02  0.1321238E+00
          2   -1    0    0  502    0  0.00000000000E+00  0.00000000000E+00  0.42271543448E+03  0.42271543448E+03  0.00000000000E+00 0.  1.
          1   -1    0    0  501    0 -0.00000000000E+00 -0.00000000000E+00 -0.71808532660E+02  0.71808532660E+02  0.00000000000E+00 0. -1.
          2    1    1    2  501    0  0.51143778121E+02 -0.10954124070E+02  0.29176897118E+03  0.29641999159E+03  0.00000000000E+00 0.  1.
          1    1    1    2  502    0 -0.30922075172E+02  0.13600062177E+02 -0.30521411633E+02  0.45526838154E+02  0.00000000000E+00 0. -1.
         22    1    1    2    0    0 -0.45327513532E+02  0.92968963165E+01 -0.11490195367E+02  0.47676412970E+02  0.00000000000E+00 0.  1.
         22    1    1    2    0    0  0.25105810583E+02 -0.11942834424E+02  0.10114953764E+03  0.10490072442E+03  0.00000000000E+00 0.  1.
</event>
<event>
 6    1  0.8017648E-006  0.4060302E+02  0.7818608E-02  0.1582410E+00
          2   -1    0    0  502    0  0.00000000000E+00  0.00000000000E+00  0.84053037162E+02  0.84053037162E+02  0.00000000000E+00 0. -1.
          1   -1    0    0  501    0 -0.00000000000E+00 -0.00000000000E+00 -0.52845194747E+03  0.52845194747E+03  0.00000000000E+00 0.  1.
          2    1    1    2  501    0  0.42374636463E+02 -0.23022925042E+02 -0.77129370347E+02  0.90964853999E+02  0.00000000000E+00 0. -1.
          1    1    1    2  502    0  0.58921506531E+01  0.24002778874E+02 -0.38602701357E+03  0.38681740658E+03  0.00000000000E+00 0.  1.
         22    1    1    2    0    0 -0.91706468462E+01  0.11422314086E+02 -0.51404817275E+02  0.53451148367E+02  0.00000000000E+00 0. -1.
         22    1    1    2    0    0 -0.39096140270E+02 -0.12402167919E+02  0.70162290878E+02  0.81271575685E+02  0.00000000000E+00 0. -1.
</event>
<event>
 6    1  0.8017648E-006  0.1069382E+03  0.7818608E-02  0.1324873E+00
          2   -1    0    0  502    0  0.00000000000E+00  0.00000000000E+00  0.13210439714E+03  0.13210439714E+03  0.00000000000E+00 0.  1.
          1   -1    0    0  501    0 -0.00000000000E+00 -0.00000000000E+00 -0.47623712975E+03  0.47623712975E+03  0.00000000000E+00 0. -1.
          2    1    1    2  501    0  0.45463709889E+02  0.79187786354E+02  0.56223227284E+02  0.10723201812E+03  0.00000000000E+00 0.  1.
          1    1    1    2  502    0 -0.59712200594E+02 -0.66520351757E+02 -0.35542077437E+03  0.36648933265E+03  0.00000000000E+00 0. -1.
         22    1    1    2    0    0 -0.18293024160E+02  0.28716179678E+01 -0.81314657714E+02  0.83396369716E+02  0.00000000000E+00 0. -1.
         22    1    1    2    0    0  0.32541514864E+02 -0.15539052565E+02  0.36379472190E+02  0.51223806390E+02  0.00000000000E+00 0.  1.
</event>
<event>
 6    1  0.8017648E-006  0.2564488E+03  0.7818608E-02  0.1242871E+00
          2   -1    0    0  502    0  0.00000000000E+00  0.00000000000E+00  0.10569816149E+04  0.10569816149E+04  0.00000000000E+00 0. -1.
          1   -1    0    0  501    0 -0.00000000000E+00 -0.00000000000E+00 -0.18470637236E+03  0.18470637236E+03  0.00000000000E+00 0.  1.
          2    1    1    2  501    0 -0.18267728944E+03  0.10484983413E+02  0.82698592565E+03  0.84698680520E+03  0.00000000000E+00 0. -1.
          1    1    1    2  502    0  0.23967621997E+03 -0.80984355532E+01 -0.25886924602E+02  0.24120615237E+03  0.00000000000E+00 0.  1.
         22    1    1    2    0    0 -0.71531767762E+00 -0.12330306633E+02 -0.32687867677E+02  0.34943451952E+02  0.00000000000E+00 0.  1.
         22    1    1    2    0    0 -0.56283612849E+02  0.99437587730E+01  0.10386410916E+03  0.11855157774E+03  0.00000000000E+00 0.  1.
</event>
<event>
 6    1  0.8017648E-006  0.5851555E+02  0.7818608E-02  0.1442523E+00
          2   -1    0    0  502    0  0.00000000000E+00  0.00000000000E+00  0.30653399590E+03  0.30653399590E+03  0.00000000000E+00 0. -1.
          1   -1    0    0  501    0 -0.00000000000E+00 -0.00000000000E+00 -0.40446704698E+03  0.40446704698E+03  0.00000000000E+00 0.  1.
          2    1    1    2  501    0  0.62794185127E+01 -0.29285235323E+02  0.23561488156E+03  0.23751090189E+03  0.00000000000E+00 0. -1.
          1    1    1    2  502    0  0.26697193416E+01  0.24276457732E+02 -0.34298559448E+03  0.34385402691E+03  0.00000000000E+00 0.  1.
         22    1    1    2    0    0  0.18890909726E+02 -0.11814331221E+02  0.63081365885E+02  0.66900699656E+02  0.00000000000E+00 0. -1.
         22    1    1    2    0    0 -0.27840047581E+02  0.16823108813E+02 -0.53643704042E+02  0.62735414423E+02  0.00000000000E+00 0. -1.
</event>
<event>
 6    1  0.8017648E-006  0.6404991E+02  0.7818608E-02  0.1433803E+00
          2   -1    0    0  502    0  0.00000000000E+00  0.00000000000E+00  0.41408891031E+03  0.41408891031E+03  0.00000000000E+00 0.  1.
          1   -1    0    0  501    0 -0.00000000000E+00 -0.00000000000E+00 -0.24370291938E+03  0.24370291938E+03  0.00000000000E+00 0.  1.
          2    1    1    2  501    0 -0.11592182262E+02 -0.56954845741E+02  0.31102888142E+03  0.31641301841E+03  0.00000000000E+00 0.  1.
          1    1    1    2  502    0  0.85020696030E+02  0.84767242187E+02  0.19482917564E+02  0.12162889533E+03  0.00000000000E+00 0.  1.
         22    1    1    2    0    0 -0.48192811574E+02 -0.31470806316E+02 -0.17899914800E+03  0.18802567304E+03  0.00000000000E+00 0.  1.
         22    1    1    2    0    0 -0.25235702195E+02  0.36584098698E+01  0.18873339937E+02  0.31724242913E+02  0.00000000000E+00 0.  1.
</event>
<event>
 6    1  0.8017648E-006  0.1548472E+03  0.7818608E-02  0.1197388E+00
          2   -1    0    0  502    0  0.00000000000E+00  0.00000000000E+00  0.13853563329E+04  0.13853563329E+04  0.00000000000E+00 0.  1.
          1   -1    0    0  501    0 -0.00000000000E+00 -0.00000000000E+00 -0.30404487708E+03  0.30404487708E+03  0.00000000000E+00 0. -1.
          2    1    1    2  501    0  0.35244898168E+02  0.11025537497E+03  0.12383964049E+04  0.12437942379E+04  0.00000000000E+00 0.  1.
          1    1    1    2  502    0 -0.40941677768E+02 -0.12764601466E+03 -0.25365883808E+03  0.28690160713E+03  0.00000000000E+00 0. -1.
         22    1    1    2    0    0  0.47360164943E+01  0.28808349679E+02  0.12483835069E+03  0.12820672629E+03  0.00000000000E+00 0. -1.
         22    1    1    2    0    0  0.96076310556E+00 -0.11417709993E+02 -0.28264461679E+02  0.30498638678E+02  0.00000000000E+00 0.  1.
</event>
<event>
 6    1  0.8017648E-006  0.4588211E+02  0.7818608E-02  0.1532778E+00
          2   -1    0    0  502    0  0.00000000000E+00  0.00000000000E+00  0.21021700274E+03  0.21021700274E+03  0.00000000000E+00 0.  1.
          1   -1    0    0  501    0 -0.00000000000E+00 -0.00000000000E+00 -0.20622270263E+03  0.20622270263E+03  0.00000000000E+00 0.  1.
          2    1    1    2  501    0 -0.73070841411E+01  0.20119286560E+02  0.80784516790E+02  0.83572228182E+02  0.00000000000E+00 0.  1.
          1    1    1    2  502    0  0.40437211717E+02 -0.79585334540E+01 -0.16897674190E+03  0.17393000215E+03  0.00000000000E+00 0.  1.
         22    1    1    2    0    0 -0.94832088261E+01 -0.16563611527E+02 -0.29368421313E+02  0.35025542778E+02  0.00000000000E+00 0. -1.
         22    1    1    2    0    0 -0.23646918750E+02  0.44028584217E+01  0.12155494653E+03  0.12391193225E+03  0.00000000000E+00 0.  1.
</event>
<event>
 6    1  0.8017648E-006  0.3484180E+03  0.7818608E-02  0.1199341E+00
          2   -1    0    0  502    0  0.00000000000E+00  0.00000000000E+00  0.19206494867E+04  0.19206494867E+04  0.00000000000E+00 0.  1.
          1   -1    0    0  501    0 -0.00000000000E+00 -0.00000000000E+00 -0.10275416943E+03  0.10275416943E+03  0.00000000000E+00 0.  1.
          2    1    1    2  501    0 -0.29704188683E+02 -0.54575028085E+02  0.89419453612E+03  0.89635073545E+03  0.00000000000E+00 0.  1.
          1    1    1    2  502    0 -0.18388905283E+03 -0.70472081112E+02  0.40032111462E+02  0.20095787597E+03  0.00000000000E+00 0.  1.
         22    1    1    2    0    0  0.12180161610E+02 -0.14583685674E+01  0.14212075835E+01  0.12349210773E+02  0.00000000000E+00 0.  1.
         22    1    1    2    0    0  0.20141307990E+03  0.12650547777E+03  0.88224746206E+03  0.91374583390E+03  0.00000000000E+00 0.  1.
</event>
<event>
 6    1  0.8017648E-006  0.4163567E+02  0.7818608E-02  0.1518319E+00
          2   -1    0    0  502    0  0.00000000000E+00  0.00000000000E+00  0.27152119578E+03  0.27152119578E+03  0.00000000000E+00 0.  1.
          1   -1    0    0  501    0 -0.00000000000E+00 -0.00000000000E+00 -0.10185999317E+04  0.10185999317E+04  0.00000000000E+00 0. -1.
          2    1    1    2  501    0 -0.22891106447E+02  0.19843206836E+02  0.22168362569E+03  0.22374401782E+03  0.00000000000E+00 0.  1.
          1    1    1    2  502    0 -0.38708380086E+01 -0.32820814008E+02 -0.92997776055E+03  0.93056478782E+03  0.00000000000E+00 0. -1.
         22    1    1    2    0    0 -0.39945421608E+01  0.95586577216E+01  0.45166416499E+02  0.46339286614E+02  0.00000000000E+00 0.  1.
         22    1    1    2    0    0  0.30756486616E+02  0.34189494507E+01 -0.83951017564E+02  0.89473035236E+02  0.00000000000E+00 0.  1.
</event>
<event>
 6    1  0.8017648E-006  0.5817649E+02  0.7818608E-02  0.1504082E+00
          2   -1    0    0  502    0  0.00000000000E+00  0.00000000000E+00  0.30120966890E+03  0.30120966890E+03  0.00000000000E+00 0.  1.
          1   -1    0    0  501    0 -0.00000000000E+00 -0.00000000000E+00 -0.17749181039E+03  0.17749181039E+03  0.00000000000E+00 0. -1.
          2    1    1    2  501    0  0.76778001629E+00 -0.46802965390E+02  0.23510753705E+03  0.23972204954E+03  0.00000000000E+00 0.  1.
          1    1    1    2  502    0  0.13773931242E+02  0.48309405577E+02 -0.96895851212E+02  0.10914360188E+03  0.00000000000E+00 0. -1.
         22    1    1    2    0    0 -0.10188861686E+02  0.92392951403E+01 -0.70914617186E+02  0.72236143362E+02  0.00000000000E+00 0. -1.
         22    1    1    2    0    0 -0.43528495722E+01 -0.10745735327E+02  0.56420789863E+02  0.57599684512E+02  0.00000000000E+00 0. -1.
</event>
<event>
 6    1  0.1134124E-005  0.2030643E+03  0.7818608E-02  0.1185287E+00
          2   -1    0    0  502    0  0.00000000000E+00  0.00000000000E+00  0.13103840861E+04  0.13103840861E+04  0.00000000000E+00 0. -1.
          1   -1    0    0  501    0 -0.00000000000E+00 -0.00000000000E+00 -0.46600783303E+03  0.46600783303E+03  0.00000000000E+00 0. -1.
          2    1    1    2  501    0  0.57594227129E+03  0.85705235340E+02  0.76492797989E+03  0.96133745461E+03  0.00000000000E+00 0. -1.
          1    1    1    2  502    0 -0.61990176325E+03 -0.14023417312E+02 -0.45555471183E+02  0.62173157654E+03  0.00000000000E+00 0. -1.
         22    1    1    2    0    0  0.16151378439E+02 -0.65967831172E+02  0.29169927916E+01  0.67978898358E+02  0.00000000000E+00 0. -1.
         22    1    1    2    0    0  0.27808113529E+02 -0.57139868552E+01  0.12208675153E+03  0.12534398958E+03  0.00000000000E+00 0.  1.
</event>
<event>
 6    1  0.8017648E-006  0.4717377E+02  0.7818608E-02  0.1518947E+00
          2   -1    0    0  502    0  0.00000000000E+00  0.00000000000E+00  0.23200694855E+04  0.23200694855E+04  0.00000000000E+00 0.  1.
          1   -1    0    0  501    0 -0.00000000000E+00 -0.00000000000E+00 -0.22981083106E+03  0.22981083106E+03  0.00000000000E+00 0.  1.
          2    1    1    2  501    0 -0.24785476817E+02 -0.76131982474E+02  0.22472305957E+04  0.22486564320E+04  0.00000000000E+00 0.  1.
          1    1    1    2  502    0  0.10309300129E+02  0.78416902570E+02 -0.15795632147E+03  0.17665132824E+03  0.00000000000E+00 0.  1.
         22    1    1    2    0    0 -0.11739386947E+02 -0.43341303568E+00  0.59382500114E+02  0.60533316220E+02  0.00000000000E+00 0.  1.
         22    1    1    2    0    0  0.26215563635E+02 -0.18515070594E+01 -0.58398119980E+02  0.64039240098E+02  0.00000000000E+00 0. -1.
</event>
<event>
 6    1  0.8017648E-006  0.4398395E+02  0.7818608E-02  0.1554120E+00
          2   -1    0    0  502    0  0.00000000000E+00  0.00000000000E+00  0.13667148937E+03  0.13667148937E+03  0.00000000000E+00 0.  1.
          1   -1    0    0  501    0 -0.00000000000E+00 -0.00000000000E+00 -0.21290210854E+03  0.21290210854E+03  0.00000000000E+00 0.  1.
          2    1    1    2  501    0  0.18289426816E+02  0.17445808667E+02  0.82146562379E+02  0.85947176125E+02  0.00000000000E+00 0.  1.
          1    1    1    2  502    0 -0.21849296147E+02 -0.22323437755E+02 -0.12636486155E+03  0.13016837500E+03  0.00000000000E+00 0.  1.
         22    1    1    2    0    0 -0.15098728081E+02  0.64801571012E+01 -0.80144288226E+02  0.81811190928E+02  0.00000000000E+00 0.  1.
         22    1    1    2    0    0  0.18658597412E+02 -0.16025280135E+01  0.48131968228E+02  0.51646855848E+02  0.00000000000E+00 0.  1.
</event>
<event>
 6    1  0.8017648E-006  0.7637663E+02  0.7818608E-02  0.1340897E+00
          2   -1    0    0  502    0  0.00000000000E+00  0.00000000000E+00  0.13640571688E+03  0.13640571688E+03  0.00000000000E+00 0. -1.
          1   -1    0    0  501    0 -0.00000000000E+00 -0.00000000000E+00 -0.23979682108E+03  0.23979682108E+03  0.00000000000E+00 0. -1.
          2    1    1    2  501    0  0.38198953756E+02 -0.24478397392E+02  0.99106145543E+02  0.10899715635E+03  0.00000000000E+00 0. -1.
          1    1    1    2  502    0 -0.40036417425E+02  0.94951811683E+01 -0.96441843488E+02  0.10485276516E+03  0.00000000000E+00 0. -1.
         22    1    1    2    0    0  0.21443571896E+02 -0.11956446750E+02  0.20188344716E+02  0.31786045002E+02  0.00000000000E+00 0. -1.
         22    1    1    2    0    0 -0.19606108227E+02  0.26939662974E+02 -0.12624375097E+03  0.13056657145E+03  0.00000000000E+00 0. -1.
</event>
<event>
 6    1  0.8017648E-006  0.2686176E+03  0.7818608E-02  0.1211957E+00
          2   -1    0    0  502    0  0.00000000000E+00  0.00000000000E+00  0.21064214637E+04  0.21064214637E+04  0.00000000000E+00 0. -1.
          1   -1    0    0  501    0 -0.00000000000E+00 -0.00000000000E+00 -0.11728472576E+03  0.11728472576E+03  0.00000000000E+00 0. -1.
          2    1    1    2  501    0 -0.17279048744E+03 -0.17480210641E+03  0.27024024260E+03  0.36529730040E+03  0.00000000000E+00 0. -1.
          1    1    1    2  502    0  0.13769928821E+03  0.19748803607E+03  0.17111472572E+04  0.17280010284E+04  0.00000000000E+00 0. -1.
         22    1    1    2    0    0  0.19755685119E+02  0.51130608141E+01 -0.55775443439E+02  0.59391334184E+02  0.00000000000E+00 0. -1.
         22    1    1    2    0    0  0.15335514111E+02 -0.27798990466E+02  0.63524681619E+02  0.71016526518E+02  0.00000000000E+00 0.  1.
</event>
<event>
 6    1  0.8017648E-006  0.1399064E+03  0.7818608E-02  0.1288411E+00
          2   -1    0    0  502    0  0.00000000000E+00  0.00000000000E+00  0.16971935334E+03  0.16971935334E+03  0.00000000000E+00 0.  1.
          1   -1    0    0  501    0 -0.00000000000E+00 -0.00000000000E+00 -0.12598797516E+03  0.12598797516E+03  0.00000000000E+00 0. -1.
          2    1    1    2  501    0  0.30581080235E+02 -0.56318918389E+01 -0.36990571992E+02  0.48324146038E+02  0.00000000000E+00 0.  1.
          1    1    1    2  502    0 -0.87097464498E+02 -0.26075527619E+02  0.42284604586E+02  0.10026908421E+03  0.00000000000E+00 0. -1.
         22    1    1    2    0    0 -0.17601251920E+02  0.25911282596E+02 -0.31944059280E+02  0.44739485448E+02  0.00000000000E+00 0.  1.
         22    1    1    2    0    0  0.74117636184E+02  0.57961368623E+01  0.70381404864E+02  0.10237461280E+03  0.00000000000E+00 0.  1.
</event>
<event>
 6    1  0.8017648E-006  0.4062850E+02  0.7818608E-02  0.1504786E+00
          2   -1    0    0  502    0  0.00000000000E+00  0.00000000000E+00  0.21722024847E+03  0.21722024847E+03  0.00000000000E+00 0. -1.
          1   -1    0    0  501    0 -0.00000000000E+00 -0.00000000000E+00 -0.11797541603E+03  0.11797541603E+03  0.00000000000E+00 0. -1.
          2    1    1    2  501    0 -0.24815546329E+02 -0.35821903837E+02 -0.44788850954E+02  0.62490489708E+02  0.00000000000E+00 0. -1.
          1    1    1    2  502    0  0.78856036468E+02  0.33470503666E+02  0.21901466933E+02  0.88420717917E+02  0.00000000000E+00 0. -1.
         22    1    1    2    0    0 -0.26774668939E+02  0.61329366270E+01 -0.23453825736E+02  0.36118938939E+02  0.00000000000E+00 0. -1.
         22    1    1    2    0    0 -0.27265821201E+02 -0.37815364564E+01  0.14558604219E+03  0.14816551793E+03  0.00000000000E+00 0. -1.
</event>
<event>
 6    1  0.8017648E-006  0.6091485E+02  0.7818608E-02  0.1457111E+00
          2   -1    0    0  502    0  0.00000000000E+00  0.00000000000E+00  0.61163362364E+03  0.61163362364E+03  0.00000000000E+00 0.  1.
          1   -1    0    0  501    0 -0.00000000000E+00 -0.00000000000E+00 -0.70104546019E+02  0.70104546019E+02  0.00000000000E+00 0. -1.
          2    1    1    2  501    0 -0.43267481342E+02 -0.10191682826E+02  0.47391731514E+03  0.47599744425E+03  0.00000000000E+00 0.  1.
          1    1    1    2  502    0  0.49457398392E+02  0.35668368737E+02  0.53485528351E+02  0.81110840996E+02  0.00000000000E+00 0. -1.
         22    1    1    2    0    0  0.68781063643E+01 -0.22214968168E+02 -0.52096474476E+02  0.57051343636E+02  0.00000000000E+00 0. -1.
         22    1    1    2    0    0 -0.13068023415E+02 -0.32617177435E+01  0.66222708612E+02  0.67578540784E+02  0.00000000000E+00 0.  1.
</event>
<event>
 6    1  0.8017648E-006  0.2178915E+03  0.7818608E-02  0.1212447E+00
          2   -1    0    0  502    0  0.00000000000E+00  0.00000000000E+00  0.14186248807E+04  0.14186248807E+04  0.00000000000E+00 0.  1.
          1   -1    0    0  501    0 -0.00000000000E+00 -0.00000000000E+00 -0.15743694783E+03  0.15743694783E+03  0.00000000000E+00 0.  1.
          2    1    1    2  501    0  0.31751938235E+03  0.13550919641E+03  0.84711926422E+03  0.91476354775E+03  0.00000000000E+00 0.  1.
          1    1    1    2  502    0 -0.26768463302E+03  0.50226073574E+02  0.15332158082E+03  0.31254636195E+03  0.00000000000E+00 0.  1.
         22    1    1    2    0    0 -0.94517284773E+01 -0.27606897859E+02 -0.11475528879E+02  0.31355442010E+02  0.00000000000E+00 0.  1.
         22    1    1    2    0    0 -0.40383020853E+02 -0.15812837213E+03  0.27222261671E+03  0.31739647681E+03  0.00000000000E+00 0. -1.
</event>
<event>
 6    1  0.8017648E-006  0.1136673E+03  0.7818608E-02  0.1256918E+00
          2   -1    0    0  502    0  0.00000000000E+00  0.00000000000E+00  0.27021728893E+03  0.27021728893E+03  0.00000000000E+00 0. -1.
          1   -1    0    0  501    0 -0.00000000000E+00 -0.00000000000E+00 -0.20337308543E+03  0.20337308543E+03  0.00000000000E+00 0. -1.
          2    1    1    2  501    0  0.66078182991E+02 -0.61054414184E+02  0.19276509280E+03  0.21272599456E+03  0.00000000000E+00 0. -1.
          1    1    1    2  502    0 -0.61482742869E+02  0.59163566726E+02 -0.10425553537E+03  0.13472071836E+03  0.00000000000E+00 0. -1.
         22    1    1    2    0    0  0.15061435649E+02 -0.67118351568E+01  0.49310986336E+02  0.51994893484E+02  0.00000000000E+00 0.  1.
         22    1    1    2    0    0 -0.19656875770E+02  0.86026826145E+01 -0.70976340258E+02  0.74148767957E+02  0.00000000000E+00 0. -1.
</event>
<event>
 6    1  0.8017648E-006  0.2985230E+03  0.7818608E-02  0.1212025E+00
          2   -1    0    0  502    0  0.00000000000E+00  0.00000000000E+00  0.94574037119E+03  0.94574037119E+03  0.00000000000E+00 0.  1.
          1   -1    0    0  501    0 -0.00000000000E+00 -0.00000000000E+00 -0.57295918826E+03  0.57295918826E+03  0.00000000000E+00 0. -1.
          2    1    1    2  501    0  0.91804246189E+02  0.75185510618E+02  0.68797490104E+03  0.69813347225E+03  0.00000000000E+00 0.  1.
          1    1    1    2  502    0 -0.19875258261E+03 -0.12510788447E+03 -0.50984729947E+03  0.56133665534E+03  0.00000000000E+00 0. -1.
         22    1    1    2    0    0 -0.87513411867E+01 -0.11992837384E+02 -0.87029815219E+01  0.17209183841E+02  0.00000000000E+00 0.  1.
         22    1    1    2    0    0  0.11569967761E+03  0.61915211239E+02  0.20335656289E+03  0.24202024802E+03  0.00000000000E+00 0.  1.
</event>
<event>
 6    1  0.8017648E-006  0.7934056E+02  0.7818608E-02  0.1391120E+00
          2   -1    0    0  502    0  0.00000000000E+00  0.00000000000E+00  0.76812466834E+02  0.76812466834E+02  0.00000000000E+00 0. -1.
          1   -1    0    0  501    0 -0.00000000000E+00 -0.00000000000E+00 -0.52932502381E+03  0.52932502381E+03  0.00000000000E+00 0. -1.
          2    1    1    2  501    0  0.98996898908E+02 -0.12521065068E+02 -0.21539152131E+01  0.99808829342E+02  0.00000000000E+00 0. -1.
          1    1    1    2  502    0 -0.57357051013E+02  0.40815899603E+02 -0.28900691700E+03  0.29745716841E+03  0.00000000000E+00 0. -1.
         22    1    1    2    0    0  0.34244744398E+01  0.24071439623E+02  0.83004284999E+01  0.25691600650E+02  0.00000000000E+00 0. -1.
         22    1    1    2    0    0 -0.45064322335E+02 -0.52366274159E+02 -0.16965215326E+03  0.18317989225E+03  0.00000000000E+00 0. -1.
</event>
<event>
 6    1  0.8017648E-006  0.2025743E+03  0.7818608E-02  0.1227595E+00
          2   -1    0    0  502    0  0.00000000000E+00  0.00000000000E+00  0.10334463553E+04  0.10334463553E+04  0.00000000000E+00 0. -1.
          1   -1    0    0  501    0 -0.00000000000E+00 -0.00000000000E+00 -0.53731428216E+02  0.53731428216E+02  0.00000000000E+00 0. -1.
          2    1    1    2  501    0 -0.33130722865E+02 -0.36041261783E+02  0.67092798413E+03  0.67271165980E+03  0.00000000000E+00 0. -1.
          1    1    1    2  502    0 -0.85185245375E+02  0.53606161410E+00  0.42090877489E+02  0.95018184362E+02  0.00000000000E+00 0. -1.
         22    1    1    2    0    0  0.29473300484E+02 -0.17462777928E+02  0.93821203482E+00  0.34271041657E+02  0.00000000000E+00 0. -1.
         22    1    1    2    0    0  0.88842667756E+02  0.52967978097E+02  0.26575785344E+03  0.28517689770E+03  0.00000000000E+00 0. -1.
</event>
<event>
 6    1  0.8017648E-006  0.9595778E+02  0.7818608E-02  0.1289976E+00
          2   -1    0    0  502    0  0.00000000000E+00  0.00000000000E+00  0.21172657621E+03  0.21172657621E+03  0.00000000000E+00 0.  1.
          1   -1    0    0  501    0 -0.00000000000E+00 -0.00000000000E+00 -0.88732403197E+02  0.88732403197E+02  0.00000000000E+00 0.  1.
          2    1    1    2  501    0  0.20851387814E+02  0.59119114601E+02  0.82849441396E+02  0.10389359954E+03  0.00000000000E+00 0.  1.
          1    1    1    2  502    0 -0.73110469712E+00 -0.44507760192E+02 -0.24094077775E+02  0.50616201114E+02  0.00000000000E+00 0.  1.
         22    1    1    2    0    0 -0.28843154026E+02 -0.40476004983E+02 -0.22835772890E+02  0.54696499313E+02  0.00000000000E+00 0.  1.
         22    1    1    2    0    0  0.87228709095E+01  0.25864650574E+02  0.87074582286E+02  0.91252679448E+02  0.00000000000E+00 0.  1.
</event>
<event>
 6    1  0.8017648E-006  0.2363499E+03  0.7818608E-02  0.1200644E+00
          2   -1    0    0  502    0  0.00000000000E+00  0.00000000000E+00  0.28191927864E+03  0.28191927864E+03  0.00000000000E+00 0. -1.
          1   -1    0    0  501    0 -0.00000000000E+00 -0.00000000000E+00 -0.28588759046E+03  0.28588759046E+03  0.00000000000E+00 0.  1.
          2    1    1    2  501    0 -0.13287790434E+03 -0.11209112558E+03  0.41927742090E+02  0.17882643388E+03  0.00000000000E+00 0. -1.
          1    1    1    2  502    0  0.21377315650E+03  0.86634968562E+02 -0.89573480096E+01  0.23083503698E+03  0.00000000000E+00 0.  1.
         22    1    1    2    0    0 -0.31541218806E+02  0.21553720033E+02 -0.82466937463E+02  0.90885681521E+02  0.00000000000E+00 0. -1.
         22    1    1    2    0    0 -0.49354033349E+02  0.39024369896E+01  0.45528231567E+02  0.67259716710E+02  0.00000000000E+00 0. -1.
</event>
<event>
 6    1  0.8017648E-006  0.4606027E+02  0.7818608E-02  0.1500332E+00
          2   -1    0    0  502    0  0.00000000000E+00  0.00000000000E+00  0.18794646051E+03  0.18794646051E+03  0.00000000000E+00 0. -1.
          1   -1    0    0  501    0 -0.00000000000E+00 -0.00000000000E+00 -0.10407390075E+03  0.10407390075E+03  0.00000000000E+00 0.  1.
          2    1    1    2  501    0  0.33219634723E+02  0.53720720542E+01  0.12622693914E+03  0.13063553672E+03  0.00000000000E+00 0. -1.
          1    1    1    2  502    0 -0.31515003152E+02  0.11384641290E+02 -0.15289922723E+02  0.36831877740E+02  0.00000000000E+00 0.  1.
         22    1    1    2    0    0  0.10659386283E+02  0.96688966426E+01  0.44766657354E+02  0.47023012333E+02  0.00000000000E+00 0. -1.
         22    1    1    2    0    0 -0.12364017855E+02 -0.26425609986E+02 -0.71831113999E+02  0.77529934471E+02  0.00000000000E+00 0.  1.
</event>
<event>
 6    1  0.8017648E-006  0.7188487E+02  0.7818608E-02  0.1441888E+00
          2   -1    0    0  502    0  0.00000000000E+00  0.00000000000E+00  0.42947383354E+03  0.42947383354E+03  0.00000000000E+00 0.  1.
          1   -1    0    0  501    0 -0.00000000000E+00 -0.00000000000E+00 -0.93258215435E+02  0.93258215435E+02  0.00000000000E+00 0. -1.
          2    1    1    2  501    0 -0.31743557023E+02 -0.24268599334E+02  0.24149654807E+03  0.24477990329E+03  0.00000000000E+00 0.  1.
          1    1    1    2  502    0  0.27481197354E+02  0.60938734719E+02 -0.49265280298E+02  0.83041034675E+02  0.00000000000E+00 0. -1.
         22    1    1    2    0    0 -0.11971100514E+02 -0.29585408281E+02  0.16463792575E+03  0.16770286290E+03  0.00000000000E+00 0.  1.
         22    1    1    2    0    0  0.16233460183E+02 -0.70847271038E+01 -0.20653575415E+02  0.27208248107E+02  0.00000000000E+00 0. -1.
</event>
<event>
 6    1  0.8017648E-006  0.1941121E+03  0.7818608E-02  0.1199737E+00
          2   -1    0    0  502    0  0.00000000000E+00  0.00000000000E+00  0.17201108246E+03  0.17201108246E+03  0.00000000000E+00 0.  1.
          1   -1    0    0  501    0 -0.00000000000E+00 -0.00000000000E+00 -0.32246493100E+03  0.32246493100E+03  0.00000000000E+00 0.  1.
          2    1    1    2  501    0  0.15211488595E+03  0.32519493689E+01  0.55782925236E+02  0.16205322721E+03  0.00000000000E+00 0.  1.
          1    1    1    2  502    0 -0.11179615002E+03 -0.15778334722E+02 -0.39585016418E+02  0.11964241944E+03  0.00000000000E+00 0.  1.
         22    1    1    2    0    0  0.20145619529E+02  0.48450247701E+02 -0.33669155299E+02  0.62344883567E+02  0.00000000000E+00 0. -1.
         22    1    1    2    0    0 -0.60464355456E+02 -0.35923862348E+02 -0.13298260206E+03  0.15043548324E+03  0.00000000000E+00 0.  1.
</event>
<event>
 6    1  0.8017648E-006  0.6483316E+02  0.7818608E-02  0.1469321E+00
          2   -1    0    0  502    0  0.00000000000E+00  0.00000000000E+00  0.15460682727E+03  0.15460682727E+03  0.00000000000E+00 0.  1.
          1   -1    0    0  501    0 -0.00000000000E+00 -0.00000000000E+00 -0.95092676512E+02  0.95092676512E+02  0.00000000000E+00 0.  1.
          2    1    1    2  501    0 -0.39471572292E+02  0.52996489720E+02  0.35738015084E+02  0.75125486115E+02  0.00000000000E+00 0.  1.
          1    1    1    2  502    0 -0.21498014850E+02 -0.23860983549E+00  0.74999357858E+01  0.22769949801E+02  0.00000000000E+00 0.  1.
         22    1    1    2    0    0  0.47911527858E+02 -0.43226917056E+02  0.70292330095E+02  0.95420608518E+02  0.00000000000E+00 0.  1.
         22    1    1    2    0    0  0.13058059284E+02 -0.95309628283E+01 -0.54016130211E+02  0.56383459344E+02  0.00000000000E+00 0.  1.
</event>
<event>
 6    1  0.8017648E-006  0.2283782E+03  0.7818608E-02  0.1231701E+00
          2   -1    0    0  502    0  0.00000000000E+00  0.00000000000E+00  0.21307391029E+03  0.21307391029E+03  0.00000000000E+00 0. -1.
          1   -1    0    0  501    0 -0.00000000000E+00 -0.00000000000E+00 -0.24311634518E+03  0.24311634518E+03  0.00000000000E+00 0. -1.
          2    1    1    2  501    0  0.95491405257E+00 -0.84327261177E+02 -0.52426402802E+02  0.99300184034E+02  0.00000000000E+00 0. -1.
          1    1    1    2  502    0 -0.35531007161E+02  0.18422198739E+03 -0.22954896853E+02  0.18901619083E+03  0.00000000000E+00 0. -1.
         22    1    1    2    0    0 -0.15249339122E+02 -0.15807326207E+02 -0.35021509370E+02  0.41339085912E+02  0.00000000000E+00 0. -1.
         22    1    1    2    0    0  0.49825432231E+02 -0.84087400005E+02  0.80360374133E+02  0.12653479469E+03  0.00000000000E+00 0. -1.
</event>
<event>
 6    1  0.8017648E-006  0.8615258E+02  0.7818608E-02  0.1365970E+00
          2   -1    0    0  502    0  0.00000000000E+00  0.00000000000E+00  0.41580144939E+03  0.41580144939E+03  0.00000000000E+00 0. -1.
          1   -1    0    0  501    0 -0.00000000000E+00 -0.00000000000E+00 -0.50955014040E+02  0.50955014040E+02  0.00000000000E+00 0. -1.
          2    1    1    2  501    0  0.53105073194E+02 -0.43398938211E+02  0.19066036569E+03  0.20262031409E+03  0.00000000000E+00 0. -1.
          1    1    1    2  502    0 -0.65909091669E+02  0.18621753240E+02  0.81802023908E+02  0.10668809293E+03  0.00000000000E+00 0. -1.
         22    1    1    2    0    0  0.22999955025E+02 -0.76915359311E+01  0.11438242646E+03  0.11692517753E+03  0.00000000000E+00 0. -1.
         22    1    1    2    0    0 -0.10195936550E+02  0.32468720903E+02 -0.21998380709E+02  0.40522878883E+02  0.00000000000E+00 0. -1.
</event>
<event>
 6    1  0.8017648E-006  0.1348373E+03  0.7818608E-02  0.1288933E+00
          2   -1    0    0  502    0  0.00000000000E+00  0.00000000000E+00  0.32232277174E+03  0.32232277174E+03  0.00000000000E+00 0. -1.
          1   -1    0    0  501    0 -0.00000000000E+00 -0.00000000000E+00 -0.13220402670E+03  0.13220402670E+03  0.00000000000E+00 0. -1.
          2    1    1    2  501    0  0.53544154892E+02  0.48758171107E+02  0.12115305275E+03  0.14114672495E+03  0.00000000000E+00 0. -1.
          1    1    1    2  502    0 -0.11670719485E+03 -0.10122688237E+03  0.65532662106E+02  0.16781531768E+03  0.00000000000E+00 0. -1.
         22    1    1    2    0    0  0.48085644959E+02  0.21270423352E+02  0.59656803014E+02  0.79521030592E+02  0.00000000000E+00 0. -1.
         22    1    1    2    0    0  0.15077395003E+02  0.31198287907E+02 -0.56223772837E+02  0.66043725216E+02  0.00000000000E+00 0. -1.
</event>
<event>
 6    1  0.8017648E-006  0.6384954E+02  0.7818608E-02  0.1439653E+00
          2   -1    0    0  502    0  0.00000000000E+00  0.00000000000E+00  0.61952183153E+03  0.61952183153E+03  0.00000000000E+00 0.  1.
          1   -1    0    0  501    0 -0.00000000000E+00 -0.00000000000E+00 -0.39441150379E+02  0.39441150379E+02  0.00000000000E+00 0.  1.
          2    1    1    2  501    0 -0.71947121854E+02  0.31313387977E+02  0.14220465086E+03  0.16241637644E+03  0.00000000000E+00 0.  1.
          1    1    1    2  502    0  0.71840640711E+02 -0.67795496745E+02  0.15394652198E+03  0.18291210639E+03  0.00000000000E+00 0.  1.
         22    1    1    2    0    0 -0.16951902703E+02  0.46422798946E+02  0.28904457193E+03  0.29323916489E+03  0.00000000000E+00 0.  1.
         22    1    1    2    0    0  0.17058383845E+02 -0.99406901780E+01 -0.51150636118E+01  0.20395334181E+02  0.00000000000E+00 0.  1.
</event>
<event>
 6    1  0.8017648E-006  0.1788729E+02  0.7818608E-02  0.1836760E+00
          2   -1    0    0  502    0  0.00000000000E+00  0.00000000000E+00  0.11551669910E+03  0.11551669910E+03  0.00000000000E+00 0. -1.
          1   -1    0    0  501    0 -0.00000000000E+00 -0.00000000000E+00 -0.12594906689E+03  0.12594906689E+03  0.00000000000E+00 0.  1.
          2    1    1    2  501    0 -0.22353063476E+02  0.65358183630E+01 -0.35683312009E+01  0.23560758816E+02  0.00000000000E+00 0. -1.
          1    1    1    2  502    0  0.17570693012E+02 -0.10735414142E+02 -0.71186210308E+02  0.74104351477E+02  0.00000000000E+00 0.  1.
         22    1    1    2    0    0  0.14948896464E+02  0.98236672437E+01  0.10242014051E+03  0.10397047237E+03  0.00000000000E+00 0. -1.
         22    1    1    2    0    0 -0.10166526000E+02 -0.56240714650E+01 -0.38097966787E+02  0.39830183330E+02  0.00000000000E+00 0.  1.
</event>
<event>
 6    1  0.8017648E-006  0.1221097E+03  0.7818608E-02  0.1239961E+00
          2   -1    0    0  502    0  0.00000000000E+00  0.00000000000E+00  0.43493666270E+03  0.43493666270E+03  0.00000000000E+00 0.  1.
          1   -1    0    0  501    0 -0.00000000000E+00 -0.00000000000E+00 -0.16931679903E+03  0.16931679903E+03  0.00000000000E+00 0. -1.
          2    1    1    2  501    0 -0.32790821748E+02  0.85289917450E+02  0.31121708895E+03  0.32435425766E+03  0.00000000000E+00 0.  1.
          1    1    1    2  502    0  0.49507773225E+02 -0.90131435197E+02 -0.10007424026E+03  0.14349058779E+03  0.00000000000E+00 0. -1.
         22    1    1    2    0    0 -0.27065785665E+02  0.14201881017E+02  0.91697954506E+02  0.96657979695E+02  0.00000000000E+00 0.  1.
         22    1    1    2    0    0  0.10348834188E+02 -0.93603632696E+01 -0.37220939526E+02  0.39750636584E+02  0.00000000000E+00 0.  1.
</event>
<event>
 6    1  0.8017648E-006  0.4547564E+02  0.7818608E-02  0.1545083E+00
          2   -1    0    0  502    0  0.00000000000E+00  0.00000000000E+00  0.14318896961E+03  0.14318896961E+03  0.00000000000E+00 0. -1.
          1   -1    0    0  501    0 -0.00000000000E+00 -0.00000000000E+00 -0.13675069124E+03  0.13675069124E+03  0.00000000000E+00 0. -1.
          2    1    1    2  501    0  0.37273094317E+02 -0.11212950123E+02  0.28407930534E+02  0.48187387641E+02  0.00000000000E+00 0. -1.
          1    1    1    2  502    0 -0.67352509198E+02  0.18772191124E+02 -0.62805168755E+02  0.93985343949E+02  0.00000000000E+00 0. -1.
         22    1    1    2    0    0  0.33774052587E+02  0.43135523556E+01  0.85169003540E+02  0.91722693626E+02  0.00000000000E+00 0. -1.
         22    1    1    2    0    0 -0.36946377057E+01 -0.11872793356E+02 -0.44333486949E+02  0.46044235632E+02  0.00000000000E+00 0. -1.
</event>
<event>
 6    1  0.8017648E-006  0.6787921E+02  0.7818608E-02  0.1387668E+00
          2   -1    0    0  502    0  0.00000000000E+00  0.00000000000E+00  0.20219238351E+03  0.20219238351E+03  0.00000000000E+00 0.  1.
          1   -1    0    0  501    0 -0.00000000000E+00 -0.00000000000E+00 -0.31447607717E+03  0.31447607717E+03  0.00000000000E+00 0.  1.
          2    1    1    2  501    0 -0.57293218086E+01 -0.53194556563E+02  0.15599946803E+03  0.16491913171E+03  0.00000000000E+00 0.  1.
          1    1    1    2  502    0 -0.31373834174E+02  0.84473337975E+02 -0.13993215097E+03  0.16643638176E+03  0.00000000000E+00 0.  1.
         22    1    1    2    0    0  0.44215940977E+02 -0.20549760443E+02 -0.15132075454E+03  0.15898211486E+03  0.00000000000E+00 0.  1.
         22    1    1    2    0    0 -0.71127849948E+01 -0.10729020969E+02  0.22969743816E+02  0.26330832351E+02  0.00000000000E+00 0. -1.
</event>
<event>
 6    1  0.8017648E-006  0.4885663E+02  0.7818608E-02  0.1499957E+00
          2   -1    0    0  502    0  0.00000000000E+00  0.00000000000E+00  0.20208835508E+03  0.20208835508E+03  0.00000000000E+00 0.  1.
          1   -1    0    0  501    0 -0.00000000000E+00 -0.00000000000E+00 -0.18564670825E+03  0.18564670825E+03  0.00000000000E+00 0.  1.
          2    1    1    2  501    0  0.28720640830E+02 -0.29616499122E+01  0.13645744583E+03  0.13947860446E+03  0.00000000000E+00 0.  1.
          1    1    1    2  502    0 -0.61412699212E+02  0.27891702981E+02 -0.98433766815E+02  0.11932591156E+03  0.00000000000E+00 0.  1.
         22    1    1    2    0    0  0.16972625609E+02 -0.60424082573E+01  0.50053705901E+02  0.53197313768E+02  0.00000000000E+00 0. -1.
         22    1    1    2    0    0  0.15719432773E+02 -0.18887644812E+02 -0.71635738082E+02  0.75733233549E+02  0.00000000000E+00 0.  1.
</event>
<event>
 6    1  0.8017648E-006  0.5903289E+02  0.7818608E-02  0.1444398E+00
          2   -1    0    0  502    0  0.00000000000E+00  0.00000000000E+00  0.16282767893E+03  0.16282767893E+03  0.00000000000E+00 0. -1.
          1   -1    0    0  501    0 -0.00000000000E+00 -0.00000000000E+00 -0.36668743607E+03  0.36668743607E+03  0.00000000000E+00 0.  1.
          2    1    1    2  501    0 -0.42087273259E+02  0.73995369361E+02  0.97707066750E+02  0.12958905876E+03  0.00000000000E+00 0. -1.
          1    1    1    2  502    0  0.28483633374E+02 -0.10743234538E+03 -0.22612497134E+03  0.25196334826E+03  0.00000000000E+00 0.  1.
         22    1    1    2    0    0 -0.15004020314E+02  0.11308323945E+02 -0.10160296533E+03  0.10332551176E+03  0.00000000000E+00 0. -1.
         22    1    1    2    0    0  0.28607660200E+02  0.22128652073E+02  0.26161112783E+02  0.44637196224E+02  0.00000000000E+00 0.  1.
</event>
<event>
 6    1  0.8017648E-006  0.4349926E+02  0.7818608E-02  0.1494100E+00
          2   -1    0    0  502    0  0.00000000000E+00  0.00000000000E+00  0.20460698081E+03  0.20460698081E+03  0.00000000000E+00 0. -1.
          1   -1    0    0  501    0 -0.00000000000E+00 -0.00000000000E+00 -0.59850403550E+02  0.59850403550E+02  0.00000000000E+00 0. -1.
          2    1    1    2  501    0 -0.17559627226E+02  0.15608363624E+02  0.49045670593E+02  0.54382343892E+02  0.00000000000E+00 0. -1.
          1    1    1    2  502    0  0.85919289530E+01 -0.28063101172E+02  0.77288147356E+02  0.82672949701E+02  0.00000000000E+00 0. -1.
         22    1    1    2    0    0  0.21014127527E+02 -0.31357065116E+02 -0.38934027134E+02  0.54228383318E+02  0.00000000000E+00 0. -1.
         22    1    1    2    0    0 -0.12046429253E+02  0.43811802665E+02  0.57356786446E+02  0.73173707450E+02  0.00000000000E+00 0. -1.
</event>
<event>
 6    1  0.8017648E-006  0.3518527E+03  0.7818608E-02  0.1134905E+00
          2   -1    0    0  502    0  0.00000000000E+00  0.00000000000E+00  0.74829865245E+03  0.74829865245E+03  0.00000000000E+00 0. -1.
          1   -1    0    0  501    0 -0.00000000000E+00 -0.00000000000E+00 -0.25165306780E+03  0.25165306780E+03  0.00000000000E+00 0. -1.
          2    1    1    2  501    0 -0.33031808377E+03  0.12571380077E+02  0.47076015716E+03  0.57522447934E+03  0.00000000000E+00 0. -1.
          1    1    1    2  502    0  0.28487194908E+03  0.21123911593E+02  0.23325997823E+02  0.28660486595E+03  0.00000000000E+00 0. -1.
         22    1    1    2    0    0  0.46555084998E+02  0.18749168705E+02 -0.44930854259E+02  0.67362370288E+02  0.00000000000E+00 0. -1.
         22    1    1    2    0    0 -0.11089503042E+01 -0.52444460375E+02  0.47490283920E+02  0.70760004675E+02  0.00000000000E+00 0.  1.
</event>
<event>
 6    1  0.8017648E-006  0.1270013E+03  0.7818608E-02  0.1260080E+00
          2   -1    0    0  502    0  0.00000000000E+00  0.00000000000E+00  0.27073170116E+03  0.27073170116E+03  0.00000000000E+00 0.  1.
          1   -1    0    0  501    0 -0.00000000000E+00 -0.00000000000E+00 -0.40111775519E+03  0.40111775519E+03  0.00000000000E+00 0.  1.
          2    1    1    2  501    0 -0.48828268323E+02  0.21669150719E+02  0.95699826102E+02  0.10960022170E+03  0.00000000000E+00 0.  1.
          1    1    1    2  502    0  0.57071136425E+02  0.11204165079E+03 -0.32776959137E+03  0.35106032409E+03  0.00000000000E+00 0.  1.
         22    1    1    2    0    0 -0.49200959953E+01 -0.15137721431E+03  0.54950208065E+02  0.16111732906E+03  0.00000000000E+00 0. -1.
         22    1    1    2    0    0 -0.33227721066E+01  0.17666412798E+02  0.46733503171E+02  0.50071581503E+02  0.00000000000E+00 0.  1.
</event>
<event>
 6    1  0.8017648E-006  0.5778060E+02  0.7818608E-02  0.1408775E+00
          2   -1    0    0  502    0  0.00000000000E+00  0.00000000000E+00  0.18199854021E+03  0.18199854021E+03  0.00000000000E+00 0.  1.
          1   -1    0    0  501    0 -0.00000000000E+00 -0.00000000000E+00 -0.88108125471E+02  0.88108125471E+02  0.00000000000E+00 0. -1.
          2    1    1    2  501    0  0.73247348284E+01 -0.37873665243E+02  0.73966455892E+02  0.83421237443E+02  0.00000000000E+00 0.  1.
          1    1    1    2  502    0  0.37604819662E+02  0.20205397465E+02 -0.12629469524E+02  0.44518356315E+02  0.00000000000E+00 0. -1.
         22    1    1    2    0    0 -0.37269467357E+02  0.42518776384E+02 -0.37229036120E+02  0.67696829119E+02  0.00000000000E+00 0. -1.
         22    1    1    2    0    0 -0.76600871339E+01 -0.24850508606E+02  0.69782464491E+02  0.74470242804E+02  0.00000000000E+00 0. -1.
</event>
<event>
 6    1  0.8017648E-006  0.7145815E+02  0.7818608E-02  0.1359969E+00
          2   -1    0    0  502    0  0.00000000000E+00  0.00000000000E+00  0.18814984525E+03  0.18814984525E+03  0.00000000000E+00 0. -1.
          1   -1    0    0  501    0 -0.00000000000E+00 -0.00000000000E+00 -0.84663153791E+02  0.84663153791E+02  0.00000000000E+00 0.  1.
          2    1    1    2  501    0  0.25643258533E+02 -0.12010135361E+02  0.58981728704E+02  0.65426786415E+02  0.00000000000E+00 0. -1.
          1    1    1    2  502    0 -0.21516073962E+02  0.66284032842E+02  0.92504233576E+01  0.70299962880E+02  0.00000000000E+00 0.  1.
         22    1    1    2    0    0 -0.50680878017E+02 -0.42182209096E+02 -0.14894361138E+02  0.67599794042E+02  0.00000000000E+00 0. -1.
         22    1    1    2    0    0  0.46553693446E+02 -0.12091688385E+02  0.50148900531E+02  0.69486455701E+02  0.00000000000E+00 0. -1.
</event>
<event>
 6    1  0.8017648E-006  0.5281046E+02  0.7818608E-02  0.1495486E+00
          2   -1    0    0  502    0  0.00000000000E+00  0.00000000000E+00  0.83462255079E+03  0.83462255079E+03  0.00000000000E+00 0.  1.
          1   -1    0    0  501    0 -0.00000000000E+00 -0.00000000000E+00 -0.16550651786E+03  0.16550651786E+03  0.00000000000E+00 0.  1.
          2    1    1    2  501    0  0.19081693114E+02  0.82912125651E+02  0.77085185833E+03  0.77553279691E+03  0.00000000000E+00 0.  1.
          1    1    1    2  502    0 -0.41774321739E+02 -0.51943616822E+02 -0.52484124746E+02  0.84839947170E+02  0.00000000000E+00 0.  1.
         22    1    1    2    0    0  0.12556961019E+02 -0.55222191706E+00  0.41576989293E+02  0.43435334207E+02  0.00000000000E+00 0.  1.
         22    1    1    2    0    0  0.10135667606E+02 -0.30416286912E+02 -0.90828689942E+02  0.96320990360E+02  0.00000000000E+00 0.  1.
</event>
<event>
 6    1  0.8017648E-006  0.1999995E+02  0.7818608E-02  0.1758803E+00
          2   -1    0    0  502    0  0.00000000000E+00  0.00000000000E+00  0.14266987959E+03  0.14266987959E+03  0.00000000000E+00 0.  1.
          1   -1    0    0  501    0 -0.00000000000E+00 -0.00000000000E+00 -0.33309973158E+03  0.33309973158E+03  0.00000000000E+00 0.  1.
          2    1    1    2  501    0 -0.23838903528E+02  0.28011484070E+02  0.34774191578E+02  0.50617990489E+02  0.00000000000E+00 0.  1.
          1    1    1    2  502    0  0.19737875309E+02 -0.10125351429E+02 -0.28557684021E+03  0.28643714516E+03  0.00000000000E+00 0.  1.
         22    1    1    2    0    0  0.16418246368E+02 -0.78461183613E+01  0.97050858571E+02  0.98742035307E+02  0.00000000000E+00 0.  1.
         22    1    1    2    0    0 -0.12317218149E+02 -0.10040014281E+02 -0.36678061934E+02  0.39972440217E+02  0.00000000000E+00 0.  1.
</event>
<event>
 6    1  0.8017648E-006  0.6186524E+02  0.7818608E-02  0.1463893E+00
          2   -1    0    0  502    0  0.00000000000E+00  0.00000000000E+00  0.54433295211E+03  0.54433295211E+03  0.00000000000E+00 0.  1.
          1   -1    0    0  501    0 -0.00000000000E+00 -0.00000000000E+00 -0.22425373630E+03  0.22425373630E+03  0.00000000000E+00 0.  1.
          2    1    1    2  501    0  0.20899738954E+02  0.72646202560E+02  0.42730870274E+03  0.43394354157E+03  0.00000000000E+00 0.  1.
          1    1    1    2  502    0 -0.27676989548E+02 -0.41581385620E+02 -0.17885255491E+03  0.18569669835E+03  0.00000000000E+00 0.  1.
         22    1    1    2    0    0  0.19774897205E+01 -0.11527220320E+02 -0.36830366702E+02  0.38642763686E+02  0.00000000000E+00 0.  1.
         22    1    1    2    0    0  0.47997608731E+01 -0.19537596619E+02  0.10845343468E+03  0.11030368480E+03  0.00000000000E+00 0. -1.
</event>
<event>
 6    1  0.8017648E-006  0.6917957E+02  0.7818608E-02  0.1376086E+00
          2   -1    0    0  502    0  0.00000000000E+00  0.00000000000E+00  0.11888509141E+03  0.11888509141E+03  0.00000000000E+00 0. -1.
          1   -1    0    0  501    0 -0.00000000000E+00 -0.00000000000E+00 -0.19452922416E+03  0.19452922416E+03  0.00000000000E+00 0. -1.
          2    1    1    2  501    0  0.65441707574E+01 -0.27244151144E+02  0.41796344511E+02  0.50319025795E+02  0.00000000000E+00 0. -1.
          1    1    1    2  502    0  0.56364582168E+02  0.64116531174E+02 -0.74158452737E+02  0.11308126195E+03  0.00000000000E+00 0. -1.
         22    1    1    2    0    0 -0.55562577888E+02  0.22343317710E+01 -0.78956417226E+02  0.96572812537E+02  0.00000000000E+00 0. -1.
         22    1    1    2    0    0 -0.73461750366E+01 -0.39106711800E+02  0.35674392703E+02  0.53441215276E+02  0.00000000000E+00 0. -1.
</event>
<event>
 6    1  0.8017648E-006  0.1981304E+03  0.7818608E-02  0.1262817E+00
          2   -1    0    0  502    0  0.00000000000E+00  0.00000000000E+00  0.43796931577E+03  0.43796931577E+03  0.00000000000E+00 0. -1.
          1   -1    0    0  501    0 -0.00000000000E+00 -0.00000000000E+00 -0.17660123975E+03  0.17660123975E+03  0.00000000000E+00 0. -1.
          2    1    1    2  501    0 -0.66908195575E+02 -0.89105834451E+01  0.68802119780E+01  0.67848673158E+02  0.00000000000E+00 0. -1.
          1    1    1    2  502    0  0.16022275090E+03 -0.85516759880E+02  0.30534899376E+03  0.35527799554E+03  0.00000000000E+00 0. -1.
         22    1    1    2    0    0 -0.75415300878E+02  0.92406068070E+02  0.17678040548E+02  0.12057720407E+03  0.00000000000E+00 0. -1.
         22    1    1    2    0    0 -0.17899254442E+02  0.20212752554E+01 -0.68539170268E+02  0.70866682752E+02  0.00000000000E+00 0. -1.
</event>
<event>
 6    1  0.8017648E-006  0.1300106E+03  0.7818608E-02  0.1229766E+00
          2   -1    0    0  502    0  0.00000000000E+00  0.00000000000E+00  0.86988440940E+03  0.86988440940E+03  0.00000000000E+00 0.  1.
          1   -1    0    0  501    0 -0.00000000000E+00 -0.00000000000E+00 -0.22468501312E+03  0.22468501312E+03  0.00000000000E+00 0.  1.
          2    1    1    2  501    0 -0.13528024403E+01  0.91182039930E+02  0.69563120445E+03  0.70158304361E+03  0.00000000000E+00 0.  1.
          1    1    1    2  502    0 -0.22684189320E+02 -0.10803075764E+03 -0.17990105091E+03  0.21106777385E+03  0.00000000000E+00 0.  1.
         22    1    1    2    0    0  0.18908546476E+02  0.29351238024E+02  0.15182940927E+03  0.15579216227E+03  0.00000000000E+00 0.  1.
         22    1    1    2    0    0  0.51284452850E+01 -0.12502520309E+02 -0.22360166539E+02  0.26126442789E+02  0.00000000000E+00 0.  1.
</event>
<event>
 6    1  0.8017648E-006  0.2299986E+02  0.7818608E-02  0.1709605E+00
          2   -1    0    0  502    0  0.00000000000E+00  0.00000000000E+00  0.18385499961E+03  0.18385499961E+03  0.00000000000E+00 0. -1.
          1   -1    0    0  501    0 -0.00000000000E+00 -0.00000000000E+00 -0.45921482041E+03  0.45921482041E+03  0.00000000000E+00 0. -1.
          2    1    1    2  501    0 -0.27592705160E+02  0.24473889921E+01  0.89019335191E+02  0.93229765252E+02  0.00000000000E+00 0. -1.
          1    1    1    2  502    0  0.12812965840E+02 -0.33281682227E+02 -0.41387184047E+03  0.41540551609E+03  0.00000000000E+00 0. -1.
         22    1    1    2    0    0  0.54676857915E+01  0.14683527067E+02  0.89201475456E+02  0.90567128577E+02  0.00000000000E+00 0. -1.
         22    1    1    2    0    0  0.93120535285E+01  0.16150766168E+02 -0.39708790973E+02  0.43867410105E+02  0.00000000000E+00 0. -1.
</event>
<event>
 6    1  0.8017648E-006  0.9024402E+02  0.7818608E-02  0.1390652E+00
          2   -1    0    0  502    0  0.00000000000E+00  0.00000000000E+00  0.88866897008E+02  0.88866897008E+02  0.00000000000E+00 0.  1.
          1   -1    0    0  501    0 -0.00000000000E+00 -0.00000000000E+00 -0.18039565320E+03  0.18039565320E+03  0.00000000000E+00 0.  1.
          2    1    1    2  501    0  0.13811811214E+02  0.42610202937E+02 -0.33533017353E+01  0.44918149515E+02  0.00000000000E+00 0.  1.
          1    1    1    2  502    0 -0.34575175174E+02 -0.63704798461E+02 -0.21992757729E+02  0.75745795116E+02  0.00000000000E+00 0.  1.
         22    1    1    2    0    0  0.37112807359E+02  0.32220973731E+02  0.25108110961E+02  0.55190296740E+02  0.00000000000E+00 0.  1.
         22    1    1    2    0    0 -0.16349443399E+02 -0.11126378207E+02 -0.91290807688E+02  0.93408308837E+02  0.00000000000E+00 0.  1.
</event>
<event>
 6    1  0.8017648E-006  0.6761245E+02  0.7818608E-02  0.1490659E+00
          2   -1    0    0  502    0  0.00000000000E+00  0.00000000000E+00  0.22000799391E+03  0.22000799391E+03  0.00000000000E+00 0. -1.
          1   -1    0    0  501    0 -0.00000000000E+00 -0.00000000000E+00 -0.19357116810E+03  0.19357116810E+03  0.00000000000E+00 0. -1.
          2    1    1    2  501    0  0.12448053275E+02 -0.52748999261E+02  0.14735759157E+03  0.15700850533E+03  0.00000000000E+00 0. -1.
          1    1    1    2  502    0 -0.26311077490E+02  0.57125026052E+02 -0.12022938589E+03  0.13568583799E+03  0.00000000000E+00 0. -1.
         22    1    1    2    0    0  0.84983142504E+01  0.62412486086E+01 -0.59733151886E+02  0.60656606923E+02  0.00000000000E+00 0. -1.
         22    1    1    2    0    0  0.53647099646E+01 -0.10617275400E+02  0.59041772010E+02  0.60228211761E+02  0.00000000000E+00 0. -1.
</event>
<event>
 6    1  0.8017648E-006  0.7808228E+02  0.7818608E-02  0.1337116E+00
          2   -1    0    0  502    0  0.00000000000E+00  0.00000000000E+00  0.96208914124E+02  0.96208914124E+02  0.00000000000E+00 0. -1.
          1   -1    0    0  501    0 -0.00000000000E+00 -0.00000000000E+00 -0.23001989168E+03  0.23001989168E+03  0.00000000000E+00 0.  1.
          2    1    1    2  501    0  0.15297184569E+02  0.57235528441E+02  0.80078354381E+01  0.59783233436E+02  0.00000000000E+00 0. -1.
          1    1    1    2  502    0  0.39297762378E+02  0.38159624784E+02 -0.46155746167E+02  0.71629770318E+02  0.00000000000E+00 0.  1.
         22    1    1    2    0    0  0.10441808627E+02  0.80146139466E+01  0.21720912325E+02  0.25398099069E+02  0.00000000000E+00 0.  1.
         22    1    1    2    0    0 -0.65036755575E+02 -0.10340976717E+03 -0.11738397915E+03  0.16941770298E+03  0.00000000000E+00 0.  1.
</event>
<event>
 6    1  0.8017648E-006  0.2066167E+03  0.7818608E-02  0.1255958E+00
          2   -1    0    0  502    0  0.00000000000E+00  0.00000000000E+00  0.37461508918E+03  0.37461508918E+03  0.00000000000E+00 0. -1.
          1   -1    0    0  501    0 -0.00000000000E+00 -0.00000000000E+00 -0.28681300112E+03  0.28681300112E+03  0.00000000000E+00 0. -1.
          2    1    1    2  501    0  0.12063468021E+03  0.25511842550E+02 -0.13590212855E+03  0.18350195837E+03  0.00000000000E+00 0. -1.
          1    1    1    2  502    0 -0.16711729429E+03 -0.42645997605E+02  0.28509497412E+03  0.33320566536E+03  0.00000000000E+00 0. -1.
         22    1    1    2    0    0  0.62070790461E+02  0.26485766566E+02  0.12494131167E+02  0.68632224011E+02  0.00000000000E+00 0. -1.
         22    1    1    2    0    0 -0.15588176387E+02 -0.93516115099E+01 -0.73884888672E+02  0.76088242554E+02  0.00000000000E+00 0.  1.
</event>
<event>
 6    1  0.8017648E-006  0.6401046E+02  0.7818608E-02  0.1499445E+00
          2   -1    0    0  502    0  0.00000000000E+00  0.00000000000E+00  0.41533296744E+03  0.41533296744E+03  0.00000000000E+00 0.  1.
          1   -1    0    0  501    0 -0.00000000000E+00 -0.00000000000E+00 -0.53644222694E+02  0.53644222694E+02  0.00000000000E+00 0. -1.
          2    1    1    2  501    0 -0.14605793406E+02 -0.17095150650E+02  0.26539060905E+03  0.26634141388E+03  0.00000000000E+00 0.  1.
          1    1    1    2  502    0  0.44952107359E+02  0.13066579664E+02  0.17150307389E+02  0.49855395933E+02  0.00000000000E+00 0. -1.
         22    1    1    2    0    0 -0.22567274286E+01 -0.10769669813E+02 -0.33752484203E+02  0.35500828109E+02  0.00000000000E+00 0. -1.
         22    1    1    2    0    0 -0.28089586525E+02  0.14798240799E+02  0.11290031251E+03  0.11727955221E+03  0.00000000000E+00 0. -1.
</event>
<event>
 6    1  0.8017648E-006  0.6344179E+02  0.7818608E-02  0.1465350E+00
          2   -1    0    0  502    0  0.00000000000E+00  0.00000000000E+00  0.10092656087E+03  0.10092656087E+03  0.00000000000E+00 0.  1.
          1   -1    0    0  501    0 -0.00000000000E+00 -0.00000000000E+00 -0.36041828141E+03  0.36041828141E+03  0.00000000000E+00 0.  1.
          2    1    1    2  501    0  0.67095289825E+02 -0.44831485381E+02 -0.33030702583E+02  0.87193275609E+02  0.00000000000E+00 0.  1.
          1    1    1    2  502    0 -0.10918739946E+03  0.28012636245E+02 -0.21808494518E+03  0.24549468284E+03  0.00000000000E+00 0.  1.
         22    1    1    2    0    0  0.39307441567E+02  0.56977096166E+01  0.52993445864E+02  0.66225706202E+02  0.00000000000E+00 0. -1.
         22    1    1    2    0    0  0.27846680639E+01  0.11121139519E+02 -0.61369518649E+02  0.62431177625E+02  0.00000000000E+00 0.  1.
</event>
<event>
 6    1  0.8017648E-006  0.5585225E+02  0.7818608E-02  0.1418664E+00
          2   -1    0    0  502    0  0.00000000000E+00  0.00000000000E+00  0.37053689293E+03  0.37053689293E+03  0.00000000000E+00 0.  1.
          1   -1    0    0  501    0 -0.00000000000E+00 -0.00000000000E+00 -0.54657949485E+02  0.54657949485E+02  0.00000000000E+00 0.  1.
          2    1    1    2  501    0  0.22038453699E+02 -0.48684410044E+01  0.19361919392E+03  0.19493021165E+03  0.00000000000E+00 0.  1.
          1    1    1    2  502    0 -0.27005177962E+02  0.21040590676E+02 -0.18882143640E+02  0.39096309816E+02  0.00000000000E+00 0.  1.
         22    1    1    2    0    0  0.26002867206E+02 -0.14457267829E+02  0.16007404914E+03  0.16281542587E+03  0.00000000000E+00 0.  1.
         22    1    1    2    0    0 -0.21036142944E+02 -0.17148818430E+01 -0.18932155968E+02  0.28352895077E+02  0.00000000000E+00 0.  1.
</event>
<event>
 6    1  0.8017648E-006  0.1085143E+03  0.7818608E-02  0.1324964E+00
          2   -1    0    0  502    0  0.00000000000E+00  0.00000000000E+00  0.34050754295E+03  0.34050754295E+03  0.00000000000E+00 0.  1.
          1   -1    0    0  501    0 -0.00000000000E+00 -0.00000000000E+00 -0.47938587956E+02  0.47938587956E+02  0.00000000000E+00 0.  1.
          2    1    1    2  501    0 -0.23925798162E+01 -0.50536816205E+02  0.56812181231E+02  0.76074425180E+02  0.00000000000E+00 0.  1.
          1    1    1    2  502    0 -0.17492827717E+02  0.57450522041E+02  0.27299369072E+02  0.65968303419E+02  0.00000000000E+00 0.  1.
         22    1    1    2    0    0  0.36250959301E+02 -0.37235573455E+02  0.20533124297E+03  0.21180542798E+03  0.00000000000E+00 0.  1.
         22    1    1    2    0    0 -0.16365551768E+02  0.30321867619E+02  0.31261617210E+01  0.34597974329E+02  0.00000000000E+00 0.  1.
</event>
<event>
 6    1  0.8017648E-006  0.3677588E+03  0.7818608E-02  0.1197405E+00
          2   -1    0    0  502    0  0.00000000000E+00  0.00000000000E+00  0.50919149816E+03  0.50919149816E+03  0.00000000000E+00 0.  1.
          1   -1    0    0  501    0 -0.00000000000E+00 -0.00000000000E+00 -0.52728072936E+03  0.52728072936E+03  0.00000000000E+00 0.  1.
          2    1    1    2  501    0  0.21232667347E+03  0.22635155436E+03  0.26817171826E+03  0.41016303210E+03  0.00000000000E+00 0.  1.
          1    1    1    2  502    0 -0.23888132011E+03 -0.26423582531E+03 -0.33148739037E+03  0.48658888854E+03  0.00000000000E+00 0.  1.
         22    1    1    2    0    0  0.37303970906E+02  0.39571465384E+02  0.83656671268E+02  0.99779385474E+02  0.00000000000E+00 0.  1.
         22    1    1    2    0    0 -0.10749324268E+02 -0.16871944358E+01 -0.38430230361E+02  0.39940921408E+02  0.00000000000E+00 0.  1.
</event>
<event>
 6    1  0.8017648E-006  0.8004034E+02  0.7818608E-02  0.1330168E+00
          2   -1    0    0  502    0  0.00000000000E+00  0.00000000000E+00  0.13876737173E+03  0.13876737173E+03  0.00000000000E+00 0.  1.
          1   -1    0    0  501    0 -0.00000000000E+00 -0.00000000000E+00 -0.27140785072E+03  0.27140785072E+03  0.00000000000E+00 0. -1.
          2    1    1    2  501    0 -0.43320107899E+02 -0.37805178414E+01  0.60904962130E+02  0.74835409236E+02  0.00000000000E+00 0.  1.
          1    1    1    2  502    0  0.59650882311E+02  0.26488435425E+02 -0.19410009719E+03  0.20477966867E+03  0.00000000000E+00 0. -1.
         22    1    1    2    0    0  0.11717217127E+02  0.45323103325E+00 -0.59338760333E+02  0.60486255243E+02  0.00000000000E+00 0. -1.
         22    1    1    2    0    0 -0.28047991538E+02 -0.23161148617E+02  0.59893416402E+02  0.70073889309E+02  0.00000000000E+00 0.  1.
</event>
<event>
 6    1  0.8017648E-006  0.2175038E+03  0.7818608E-02  0.1272772E+00
          2   -1    0    0  502    0  0.00000000000E+00  0.00000000000E+00  0.47258415235E+03  0.47258415235E+03  0.00000000000E+00 0.  1.
          1   -1    0    0  501    0 -0.00000000000E+00 -0.00000000000E+00 -0.64782043608E+02  0.64782043608E+02  0.00000000000E+00 0.  1.
          2    1    1    2  501    0 -0.24228383555E+02 -0.63973084256E+02  0.51630080017E+02  0.85704347856E+02  0.00000000000E+00 0.  1.
          1    1    1    2  502    0 -0.81491183533E+02 -0.24929745440E+02  0.14380832895E+03  0.16716201924E+03  0.00000000000E+00 0.  1.
         22    1    1    2    0    0  0.10169713490E+03  0.99380958056E+02  0.22589337441E+03  0.26692077228E+03  0.00000000000E+00 0.  1.
         22    1    1    2    0    0  0.40224321890E+01 -0.10478128360E+02 -0.13529674636E+02  0.17579056584E+02  0.00000000000E+00 0. -1.
</event>
<event>
 6    1  0.8017648E-006  0.8716859E+02  0.7818608E-02  0.1383603E+00
          2   -1    0    0  502    0  0.00000000000E+00  0.00000000000E+00  0.48281280189E+02  0.48281280189E+02  0.00000000000E+00 0.  1.
          1   -1    0    0  501    0 -0.00000000000E+00 -0.00000000000E+00 -0.30255788062E+03  0.30255788062E+03  0.00000000000E+00 0. -1.
          2    1    1    2  501    0 -0.39195172314E+02 -0.44230248818E+01 -0.32413038095E+02  0.51053204800E+02  0.00000000000E+00 0.  1.
          1    1    1    2  502    0  0.68950404787E+02  0.18232152360E+02 -0.59910472212E+02  0.93144159133E+02  0.00000000000E+00 0. -1.
         22    1    1    2    0    0  0.22876668806E+02  0.90137571296E+01 -0.14464557023E+03  0.14672058745E+03  0.00000000000E+00 0.  1.
         22    1    1    2    0    0 -0.52631901279E+02 -0.22822884608E+02 -0.17307519886E+02  0.59921209423E+02  0.00000000000E+00 0.  1.
</event>
<event>
 6    1  0.8017648E-006  0.4726443E+02  0.7818608E-02  0.1551515E+00
          2   -1    0    0  502    0  0.00000000000E+00  0.00000000000E+00  0.85957290672E+03  0.85957290672E+03  0.00000000000E+00 0. -1.
          1   -1    0    0  501    0 -0.00000000000E+00 -0.00000000000E+00 -0.49389084072E+02  0.49389084072E+02  0.00000000000E+00 0.  1.
          2    1    1    2  501    0 -0.58786949772E+02 -0.11439091109E+02  0.56570671290E+03  0.56886803680E+03  0.00000000000E+00 0. -1.
          1    1    1    2  502    0  0.41672089533E+02  0.43545096499E+02 -0.48196853445E+01  0.60464599908E+02  0.00000000000E+00 0.  1.
         22    1    1    2    0    0 -0.12350480860E+02 -0.66410539466E+00 -0.10536112276E+02  0.16247617528E+02  0.00000000000E+00 0.  1.
         22    1    1    2    0    0  0.29465341098E+02 -0.31441899995E+02  0.25983290737E+03  0.26338173656E+03  0.00000000000E+00 0.  1.
</event>
<event>
 6    1  0.8017648E-006  0.2051602E+03  0.7818608E-02  0.1269076E+00
          2   -1    0    0  502    0  0.00000000000E+00  0.00000000000E+00  0.46243095146E+03  0.46243095146E+03  0.00000000000E+00 0.  1.
          1   -1    0    0  501    0 -0.00000000000E+00 -0.00000000000E+00 -0.65592512531E+02  0.65592512531E+02  0.00000000000E+00 0.  1.
          2    1    1    2  501    0  0.36855583855E+02 -0.46918876232E+02  0.97667973885E+02  0.11444976248E+03  0.00000000000E+00 0.  1.
          1    1    1    2  502    0 -0.40524233720E+02 -0.91007176896E+02  0.12568294658E+03  0.16037681511E+03  0.00000000000E+00 0.  1.
         22    1    1    2    0    0 -0.96931580330E+01 -0.10599172624E+02 -0.94394059994E+01  0.17187267339E+02  0.00000000000E+00 0.  1.
         22    1    1    2    0    0  0.13361807898E+02  0.14852522575E+03  0.18292692446E+03  0.23600961906E+03  0.00000000000E+00 0.  1.
</event>
<event>
 6    1  0.8017648E-006  0.1143680E+03  0.7818608E-02  0.1325209E+00
          2   -1    0    0  502    0  0.00000000000E+00  0.00000000000E+00  0.35928308286E+03  0.35928308286E+03  0.00000000000E+00 0. -1.
          1   -1    0    0  501    0 -0.00000000000E+00 -0.00000000000E+00 -0.71973208519E+02  0.71973208519E+02  0.00000000000E+00 0. -1.
          2    1    1    2  501    0  0.67107007885E+02 -0.46127211274E+02  0.11135076527E+03  0.13794949457E+03  0.00000000000E+00 0. -1.
          1    1    1    2  502    0 -0.94125003895E+02  0.33223823765E+02  0.12310542687E+03  0.15848749146E+03  0.00000000000E+00 0. -1.
         22    1    1    2    0    0  0.43427471375E+02 -0.11375649088E+02  0.82002417826E+02  0.93486615040E+02  0.00000000000E+00 0.  1.
         22    1    1    2    0    0 -0.16409475365E+02  0.24279036597E+02 -0.29148735622E+02  0.41332690310E+02  0.00000000000E+00 0. -1.
</event>
<event>
 6    1  0.8017648E-006  0.1224528E+03  0.7818608E-02  0.1353576E+00
          2   -1    0    0  502    0  0.00000000000E+00  0.00000000000E+00  0.74747587756E+03  0.74747587756E+03  0.00000000000E+00 0.  1.
          1   -1    0    0  501    0 -0.00000000000E+00 -0.00000000000E+00 -0.43120475804E+02  0.43120475804E+02  0.00000000000E+00 0.  1.
          2    1    1    2  501    0 -0.67768617691E+02 -0.23493425214E+02  0.13966489274E+03  0.15700576052E+03  0.00000000000E+00 0.  1.
          1    1    1    2  502    0  0.11252810837E+03  0.33456317140E+02  0.42053740872E+03  0.43661609276E+03  0.00000000000E+00 0.  1.
         22    1    1    2    0    0 -0.40979350369E+02 -0.24062469442E+02  0.16489765137E+03  0.17160869739E+03  0.00000000000E+00 0.  1.
         22    1    1    2    0    0 -0.37801403106E+01  0.14099577516E+02 -0.20744551073E+02  0.25365802690E+02  0.00000000000E+00 0.  1.
</event>
<event>
 6    1  0.8017648E-006  0.6155983E+02  0.7818608E-02  0.1434917E+00
          2   -1    0    0  502    0  0.00000000000E+00  0.00000000000E+00  0.13391420407E+03  0.13391420407E+03  0.00000000000E+00 0. -1.
          1   -1    0    0  501    0 -0.00000000000E+00 -0.00000000000E+00 -0.10945936972E+03  0.10945936972E+03  0.00000000000E+00 0. -1.
          2    1    1    2  501    0  0.10023082131E+02 -0.25193346016E+02  0.50831878007E+01  0.27586330983E+02  0.00000000000E+00 0. -1.
          1    1    1    2  502    0 -0.51345560332E+02  0.17417562439E+02  0.61089478405E+02  0.81680244973E+02  0.00000000000E+00 0. -1.
         22    1    1    2    0    0  0.11118056004E+02  0.29265939889E+02 -0.76882443169E+02  0.83012146548E+02  0.00000000000E+00 0. -1.
         22    1    1    2    0    0  0.30204422198E+02 -0.21490156311E+02  0.35164611318E+02  0.51094851284E+02  0.00000000000E+00 0. -1.
</event>
<event>
 6    1  0.8017648E-006  0.1606946E+03  0.7818608E-02  0.1264442E+00
          2   -1    0    0  502    0  0.00000000000E+00  0.00000000000E+00  0.38211451461E+03  0.38211451461E+03  0.00000000000E+00 0. -1.
          1   -1    0    0  501    0 -0.00000000000E+00 -0.00000000000E+00 -0.10188158999E+03  0.10188158999E+03  0.00000000000E+00 0. -1.
          2    1    1    2  501    0  0.20621158539E+02 -0.58363682568E+02  0.83030857551E+02  0.10356483442E+03  0.00000000000E+00 0. -1.
          1    1    1    2  502    0  0.70171147723E+02  0.13441435013E+03  0.89998929389E+02  0.17632644381E+03  0.00000000000E+00 0. -1.
         22    1    1    2    0    0 -0.58088992940E+02 -0.75514559413E+02  0.13219015796E+03  0.16294483006E+03  0.00000000000E+00 0. -1.
         22    1    1    2    0    0 -0.32703313322E+02 -0.53610815344E+00 -0.24987020279E+02  0.41159996315E+02  0.00000000000E+00 0. -1.
</event>
<event>
 6    1  0.8017648E-006  0.4495734E+02  0.7818608E-02  0.1561573E+00
          2   -1    0    0  502    0  0.00000000000E+00  0.00000000000E+00  0.12046390729E+04  0.12046390729E+04  0.00000000000E+00 0. -1.
          1   -1    0    0  501    0 -0.00000000000E+00 -0.00000000000E+00 -0.31253213605E+02  0.31253213605E+02  0.00000000000E+00 0. -1.
          2    1    1    2  501    0  0.27751446246E+02  0.33784700415E+02  0.86187314433E+03  0.86298138199E+03  0.00000000000E+00 0. -1.
          1    1    1    2  502    0 -0.25696332351E+02  0.44629265249E+02  0.42591853212E+02  0.66829176061E+02  0.00000000000E+00 0. -1.
         22    1    1    2    0    0 -0.15918177208E+01 -0.64426191115E+02  0.28056763381E+03  0.28787404386E+03  0.00000000000E+00 0. -1.
         22    1    1    2    0    0 -0.46329617336E+00 -0.13987774549E+02 -0.11646772034E+02  0.18207684614E+02  0.00000000000E+00 0. -1.
</event>
<event>
 6    1  0.8017648E-006  0.5234913E+03  0.7818608E-02  0.1048443E+00
          2   -1    0    0  502    0  0.00000000000E+00  0.00000000000E+00  0.35167496003E+03  0.35167496003E+03  0.00000000000E+00 0.  1.
          1   -1    0    0  501    0 -0.00000000000E+00 -0.00000000000E+00 -0.17601639253E+04  0.17601639253E+04  0.00000000000E+00 0.  1.
          2    1    1    2  501    0  0.12865009691E+03 -0.37314813144E+02  0.93866063017E+02  0.16356674632E+03  0.00000000000E+00 0.  1.
          1    1    1    2  502    0 -0.47818330086E+03 -0.28094150142E+03 -0.13113180712E+04  0.14237775389E+04  0.00000000000E+00 0.  1.
         22    1    1    2    0    0  0.20228195012E+02  0.89030151506E+01  0.16212361435E+02  0.27409564307E+02  0.00000000000E+00 0.  1.
         22    1    1    2    0    0  0.32930500893E+03  0.30935329942E+03 -0.20724931847E+03  0.49708503576E+03  0.00000000000E+00 0.  1.
</event>
<event>
 6    1  0.8017648E-006  0.4494058E+02  0.7818608E-02  0.1508427E+00
          2   -1    0    0  502    0  0.00000000000E+00  0.00000000000E+00  0.22879078041E+03  0.22879078041E+03  0.00000000000E+00 0. -1.
          1   -1    0    0  501    0 -0.00000000000E+00 -0.00000000000E+00 -0.15088454331E+03  0.15088454331E+03  0.00000000000E+00 0.  1.
          2    1    1    2  501    0 -0.53911133568E+02 -0.48232064063E+02  0.15103404817E+03  0.16746350657E+03  0.00000000000E+00 0. -1.
          1    1    1    2  502    0  0.57433803586E+02  0.36088166394E+02 -0.54090123921E+02  0.86756781025E+02  0.00000000000E+00 0.  1.
         22    1    1    2    0    0 -0.91576836488E+01  0.30552311347E+02  0.46926046226E+02  0.56739410579E+02  0.00000000000E+00 0.  1.
         22    1    1    2    0    0  0.56350136302E+01 -0.18408413677E+02 -0.65963733375E+02  0.68715625541E+02  0.00000000000E+00 0.  1.
</event>
<event>
 6    1  0.8017648E-006  0.3242640E+02  0.7818608E-02  0.1597468E+00
          2   -1    0    0  502    0  0.00000000000E+00  0.00000000000E+00  0.68612119346E+02  0.68612119346E+02  0.00000000000E+00 0.  1.
          1   -1    0    0  501    0 -0.00000000000E+00 -0.00000000000E+00 -0.18328846986E+03  0.18328846986E+03  0.00000000000E+00 0. -1.
          2    1    1    2  501    0  0.27430349212E+02 -0.52565826845E+01  0.20951156785E+02  0.34914276307E+02  0.00000000000E+00 0.  1.
          1    1    1    2  502    0 -0.28570309577E+02  0.13539236664E+02 -0.67083792206E+02  0.74160695085E+02  0.00000000000E+00 0. -1.
         22    1    1    2    0    0  0.58305573528E+01 -0.27524684355E+02  0.30689820611E+02  0.41634946103E+02  0.00000000000E+00 0.  1.
         22    1    1    2    0    0 -0.46905969879E+01  0.19242030376E+02 -0.99233535703E+02  0.10119067171E+03  0.00000000000E+00 0. -1.
</event>
<event>
 6    1  0.8017648E-006  0.2902026E+02  0.7818608E-02  0.1610415E+00
          2   -1    0    0  502    0  0.00000000000E+00  0.00000000000E+00  0.23169517791E+03  0.23169517791E+03  0.00000000000E+00 0.  1.
          1   -1    0    0  501    0 -0.00000000000E+00 -0.00000000000E+00 -0.10277513071E+03  0.10277513071E+03  0.00000000000E+00 0. -1.
          2    1    1    2  501    0 -0.11785303060E+02 -0.33632230255E+02  0.42288133003E+02  0.55301957226E+02  0.00000000000E+00 0.  1.
          1    1    1    2  502    0  0.11866540806E+02  0.40784116360E+02  0.13748720817E+03  0.14389889280E+03  0.00000000000E+00 0. -1.
         22    1    1    2    0    0  0.21919676657E+02 -0.53287366334E+01 -0.88663358727E+02  0.91488025662E+02  0.00000000000E+00 0. -1.
         22    1    1    2    0    0 -0.22000914402E+02 -0.18231494715E+01  0.37808064756E+02  0.43781432927E+02  0.00000000000E+00 0.  1.
</event>
<event>
 6    1  0.8017648E-006  0.3695069E+02  0.7818608E-02  0.1547868E+00
          2   -1    0    0  502    0  0.00000000000E+00  0.00000000000E+00  0.21326188094E+03  0.21326188094E+03  0.00000000000E+00 0. -1.
          1   -1    0    0  501    0 -0.00000000000E+00 -0.00000000000E+00 -0.15810833854E+03  0.15810833854E+03  0.00000000000E+00 0.  1.
          2    1    1    2  501    0  0.31117494069E+01 -0.25372363464E+02  0.16427041697E+03  0.16624743518E+03  0.00000000000E+00 0. -1.
          1    1    1    2  502    0  0.19371396583E+02  0.22375180694E+02 -0.56000862402E+02  0.63340321332E+02  0.00000000000E+00 0.  1.
         22    1    1    2    0    0 -0.27164704163E+02  0.12792449209E+02 -0.94418036208E+02  0.99077411504E+02  0.00000000000E+00 0.  1.
         22    1    1    2    0    0  0.46815581733E+01 -0.97952664388E+01  0.41302024031E+02  0.42705051464E+02  0.00000000000E+00 0.  1.
</event>
<event>
 6    1  0.8017648E-006  0.9611812E+02  0.7818608E-02  0.1398994E+00
          2   -1    0    0  502    0  0.00000000000E+00  0.00000000000E+00  0.63006869388E+03  0.63006869388E+03  0.00000000000E+00 0.  1.
          1   -1    0    0  501    0 -0.00000000000E+00 -0.00000000000E+00 -0.16477572118E+03  0.16477572118E+03  0.00000000000E+00 0.  1.
          2    1    1    2  501    0 -0.18818361913E+02 -0.61326571834E+02  0.45615680134E+03  0.46064531536E+03  0.00000000000E+00 0.  1.
          1    1    1    2  502    0  0.50428079742E+02  0.73744264411E+02 -0.12170215917E+03  0.15097226006E+03  0.00000000000E+00 0.  1.
         22    1    1    2    0    0 -0.21238753042E+02 -0.22303533533E+02  0.15342137438E+03  0.15648210874E+03  0.00000000000E+00 0.  1.
         22    1    1    2    0    0 -0.10370964788E+02  0.98858409567E+01 -0.22583043847E+02  0.26744730909E+02  0.00000000000E+00 0.  1.
</event>
<event>
 6    1  0.8017648E-006  0.1044490E+03  0.7818608E-02  0.1343269E+00
          2   -1    0    0  502    0  0.00000000000E+00  0.00000000000E+00  0.21054741945E+03  0.21054741945E+03  0.00000000000E+00 0.  1.
          1   -1    0    0  501    0 -0.00000000000E+00 -0.00000000000E+00 -0.21815408976E+03  0.21815408976E+03  0.00000000000E+00 0.  1.
          2    1    1    2  501    0 -0.59616894759E+02  0.66385612831E+02  0.14613743391E+03  0.17122316818E+03  0.00000000000E+00 0.  1.
          1    1    1    2  502    0  0.39095522040E+02 -0.72909049496E+02 -0.78423227851E+02  0.11399294719E+03  0.00000000000E+00 0.  1.
         22    1    1    2    0    0  0.25704380946E+02 -0.11245974239E+02 -0.10490267279E+03  0.10858986092E+03  0.00000000000E+00 0.  1.
         22    1    1    2    0    0 -0.51830082279E+01  0.17769410904E+02  0.29581796425E+02  0.34895532922E+02  0.00000000000E+00 0.  1.
</event>
<event>
 6    1  0.8017648E-006  0.2268722E+03  0.7818608E-02  0.1255893E+00
          2   -1    0    0  502    0  0.00000000000E+00  0.00000000000E+00  0.51385665834E+03  0.51385665834E+03  0.00000000000E+00 0. -1.
          1   -1    0    0  501    0 -0.00000000000E+00 -0.00000000000E+00 -0.21447302202E+03  0.21447302202E+03  0.00000000000E+00 0.  1.
          2    1    1    2  501    0 -0.17111139047E+03 -0.48955100956E+02  0.28343335299E+03  0.33467921275E+03  0.00000000000E+00 0. -1.
          1    1    1    2  502    0  0.20317011036E+03  0.80820176094E+02 -0.72156493783E+02  0.23025323929E+03  0.00000000000E+00 0.  1.
         22    1    1    2    0    0  0.88529833589E+01 -0.10519332862E+02 -0.31947200913E+02  0.34780099545E+02  0.00000000000E+00 0. -1.
         22    1    1    2    0    0 -0.40911703251E+02 -0.21345742276E+02  0.12005397803E+03  0.12861712878E+03  0.00000000000E+00 0.  1.
</event>
<event>
 6    1  0.8017648E-006  0.4057939E+02  0.7818608E-02  0.1507311E+00
          2   -1    0    0  502    0  0.00000000000E+00  0.00000000000E+00  0.16959158514E+03  0.16959158514E+03  0.00000000000E+00 0.  1.
          1   -1    0    0  501    0 -0.00000000000E+00 -0.00000000000E+00 -0.19036488500E+03  0.19036488500E+03  0.00000000000E+00 0. -1.
          2    1    1    2  501    0  0.24415215523E+01  0.21934825538E+02  0.88321899128E+02  0.91037659594E+02  0.00000000000E+00 0.  1.
          1    1    1    2  502    0  0.27422801444E+02  0.89348440237E+01 -0.12899794344E+03  0.13218286912E+03  0.00000000000E+00 0. -1.
         22    1    1    2    0    0 -0.11965659785E+02 -0.36890850810E+02 -0.50596983604E+02  0.63750816759E+02  0.00000000000E+00 0. -1.
         22    1    1    2    0    0 -0.17898663212E+02  0.60211812482E+01  0.70499728050E+02  0.72985124673E+02  0.00000000000E+00 0.  1.
</event>
<event>
 6    1  0.8017648E-006  0.9313998E+02  0.7818608E-02  0.1425362E+00
          2   -1    0    0  502    0  0.00000000000E+00  0.00000000000E+00  0.31857603656E+03  0.31857603656E+03  0.00000000000E+00 0. -1.
          1   -1    0    0  501    0 -0.00000000000E+00 -0.00000000000E+00 -0.64544866214E+02  0.64544866214E+02  0.00000000000E+00 0.  1.
          2    1    1    2  501    0 -0.37743586788E+02  0.16682649410E+02  0.84591293656E+02  0.94120009017E+02  0.00000000000E+00 0. -1.
          1    1    1    2  502    0  0.77860626568E+02 -0.58539985909E+02  0.51909412306E+02  0.11038022561E+03  0.00000000000E+00 0.  1.
         22    1    1    2    0    0 -0.94109952746E+01  0.45376342851E+01 -0.25547366694E+02  0.27601175735E+02  0.00000000000E+00 0.  1.
         22    1    1    2    0    0 -0.30706044505E+02  0.37319702214E+02  0.14307783108E+03  0.15101949242E+03  0.00000000000E+00 0. -1.
</event>
<event>
 6    1  0.8017648E-006  0.5741682E+02  0.7818608E-02  0.1427975E+00
          2   -1    0    0  502    0  0.00000000000E+00  0.00000000000E+00  0.52269617357E+02  0.52269617357E+02  0.00000000000E+00 0.  1.
          1   -1    0    0  501    0 -0.00000000000E+00 -0.00000000000E+00 -0.24231959890E+03  0.24231959890E+03  0.00000000000E+00 0.  1.
          2    1    1    2  501    0  0.20293348295E+02 -0.12338255964E+02  0.37048482166E+01  0.24037022394E+02  0.00000000000E+00 0.  1.
          1    1    1    2  502    0  0.42232932768E+02 -0.14008801935E+02 -0.77627622077E+02  0.89475778014E+02  0.00000000000E+00 0.  1.
         22    1    1    2    0    0 -0.77296931202E+02  0.33247643459E+02 -0.13314795167E+03  0.15750745507E+03  0.00000000000E+00 0.  1.
         22    1    1    2    0    0  0.14770650139E+02 -0.69005855596E+01  0.17020743983E+02  0.23568960782E+02  0.00000000000E+00 0.  1.
</event>
<event>
 6    1  0.8017648E-006  0.1323352E+03  0.7818608E-02  0.1320093E+00
          2   -1    0    0  502    0  0.00000000000E+00  0.00000000000E+00  0.49285446409E+03  0.49285446409E+03  0.00000000000E+00 0. -1.
          1   -1    0    0  501    0 -0.00000000000E+00 -0.00000000000E+00 -0.17876284996E+03  0.17876284996E+03  0.00000000000E+00 0.  1.
          2    1    1    2  501    0 -0.61991314416E+02  0.84694393124E+02  0.39512856530E+03  0.40883082859E+03  0.00000000000E+00 0. -1.
          1    1    1    2  502    0  0.62959828169E+02 -0.90210563955E+02 -0.83694630278E+02  0.13822690386E+03  0.00000000000E+00 0.  1.
         22    1    1    2    0    0  0.36303019619E+01 -0.20398201937E+02 -0.56301470515E+02  0.59992677193E+02  0.00000000000E+00 0.  1.
         22    1    1    2    0    0 -0.45988157143E+01  0.25914372768E+02  0.58959149619E+02  0.64566904415E+02  0.00000000000E+00 0.  1.
</event>
<event>
 6    1  0.8017648E-006  0.4205920E+02  0.7818608E-02  0.1514034E+00
          2   -1    0    0  502    0  0.00000000000E+00  0.00000000000E+00  0.24975581925E+03  0.24975581925E+03  0.00000000000E+00 0. -1.
          1   -1    0    0  501    0 -0.00000000000E+00 -0.00000000000E+00 -0.86902376814E+02  0.86902376814E+02  0.00000000000E+00 0.  1.
          2    1    1    2  501    0  0.32773110650E+02 -0.26731292029E+02  0.44030581182E+02  0.61051870032E+02  0.00000000000E+00 0. -1.
          1    1    1    2  502    0 -0.21857458806E+02  0.31921391740E+02 -0.52319302701E+02  0.65069448985E+02  0.00000000000E+00 0.  1.
         22    1    1    2    0    0 -0.20049897369E+02 -0.30956502996E+02  0.17846440359E+03  0.18223569028E+03  0.00000000000E+00 0. -1.
         22    1    1    2    0    0  0.91342455251E+01  0.25766403284E+02 -0.73222396312E+01  0.28301186773E+02  0.00000000000E+00 0. -1.
</event>
<event>
 6    1  0.8017648E-006  0.6411560E+02  0.7818608E-02  0.1400984E+00
          2   -1    0    0  502    0  0.00000000000E+00  0.00000000000E+00  0.27356575134E+03  0.27356575134E+03  0.00000000000E+00 0.  1.
          1   -1    0    0  501    0 -0.00000000000E+00 -0.00000000000E+00 -0.24434193790E+03  0.24434193790E+03  0.00000000000E+00 0.  1.
          2    1    1    2  501    0 -0.10263483342E+03 -0.79489853115E+02  0.15432254402E+03  0.20166306894E+03  0.00000000000E+00 0.  1.
          1    1    1    2  502    0  0.95066151349E+02  0.52405867385E+02  0.29777580270E+02  0.11256399227E+03  0.00000000000E+00 0.  1.
         22    1    1    2    0    0 -0.21572865899E+02  0.11005800014E+02  0.16368860157E+02  0.29231075243E+02  0.00000000000E+00 0. -1.
         22    1    1    2    0    0  0.29141547968E+02  0.16078185716E+02 -0.17124517101E+03  0.17444955279E+03  0.00000000000E+00 0.  1.
</event>
<event>
 6    1  0.8017648E-006  0.7320992E+02  0.7818608E-02  0.1429566E+00
          2   -1    0    0  502    0  0.00000000000E+00  0.00000000000E+00  0.14766277046E+03  0.14766277046E+03  0.00000000000E+00 0.  1.
          1   -1    0    0  501    0 -0.00000000000E+00 -0.00000000000E+00 -0.13847848720E+03  0.13847848720E+03  0.00000000000E+00 0. -1.
          2    1    1    2  501    0 -0.31538412927E+02 -0.21474149461E+02  0.71238355817E+02  0.80812832672E+02  0.00000000000E+00 0.  1.
          1    1    1    2  502    0  0.47845703835E+02  0.27591833387E+02 -0.48969103254E+02  0.73813912772E+02  0.00000000000E+00 0. -1.
         22    1    1    2    0    0 -0.36426813210E+02 -0.76897931771E+01  0.51671298385E+02  0.63686487708E+02  0.00000000000E+00 0.  1.
         22    1    1    2    0    0  0.20119522302E+02  0.15721092510E+01 -0.64756267684E+02  0.67828024515E+02  0.00000000000E+00 0. -1.
</event>
<event>
 6    1  0.8017648E-006  0.9015324E+02  0.7818608E-02  0.1317743E+00
          2   -1    0    0  502    0  0.00000000000E+00  0.00000000000E+00  0.33931000915E+03  0.33931000915E+03  0.00000000000E+00 0.  1.
          1   -1    0    0  501    0 -0.00000000000E+00 -0.00000000000E+00 -0.62992077112E+02  0.62992077112E+02  0.00000000000E+00 0.  1.
          2    1    1    2  501    0 -0.48801649933E+02 -0.52280305595E+01  0.70777614987E+02  0.86130158034E+02  0.00000000000E+00 0.  1.
          1    1    1    2  502    0 -0.34945284996E+02  0.56579419851E+02  0.12056835566E+03  0.13769216419E+03  0.00000000000E+00 0.  1.
         22    1    1    2    0    0  0.17636358956E+02 -0.34016817327E+02  0.10121983866E+03  0.10822957431E+03  0.00000000000E+00 0.  1.
         22    1    1    2    0    0  0.66110575972E+02 -0.17334571965E+02 -0.16247877263E+02  0.70250189723E+02  0.00000000000E+00 0.  1.
</event>
<event>
 6    1  0.8017648E-006  0.5312389E+02  0.7818608E-02  0.1452322E+00
          2   -1    0    0  502    0  0.00000000000E+00  0.00000000000E+00  0.92612397354E+02  0.92612397354E+02  0.00000000000E+00 0. -1.
          1   -1    0    0  501    0 -0.00000000000E+00 -0.00000000000E+00 -0.25967035916E+03  0.25967035916E+03  0.00000000000E+00 0. -1.
          2    1    1    2  501    0  0.71373907822E+02  0.28874535075E+02  0.19624125731E+02  0.79454891632E+02  0.00000000000E+00 0. -1.
          1    1    1    2  502    0 -0.58124896582E+02 -0.36461477521E+02 -0.86140338651E+02  0.11012765724E+03  0.00000000000E+00 0. -1.
         22    1    1    2    0    0  0.74760578784E+01 -0.25995970821E+02  0.21425858781E+02  0.34507236413E+02  0.00000000000E+00 0. -1.
         22    1    1    2    0    0 -0.20725069118E+02  0.33582913267E+02 -0.12196760767E+03  0.12819297123E+03  0.00000000000E+00 0. -1.
</event>
<event>
 6    1  0.8017648E-006  0.1209718E+03  0.7818608E-02  0.1297130E+00
          2   -1    0    0  502    0  0.00000000000E+00  0.00000000000E+00  0.95531952555E+03  0.95531952555E+03  0.00000000000E+00 0.  1.
          1   -1    0    0  501    0 -0.00000000000E+00 -0.00000000000E+00 -0.31337387212E+02  0.31337387212E+02  0.00000000000E+00 0.  1.
          2    1    1    2  501    0  0.48088287977E+01  0.32515414892E+02  0.22521503106E+03  0.22760093861E+03  0.00000000000E+00 0.  1.
          1    1    1    2  502    0 -0.10178159046E+03 -0.46569906694E+02  0.45487682549E+03  0.46844548748E+03  0.00000000000E+00 0.  1.
         22    1    1    2    0    0  0.66089091754E+02  0.41299955037E+02  0.23618716215E+03  0.24871234368E+03  0.00000000000E+00 0.  1.
         22    1    1    2    0    0  0.30883669912E+02 -0.27245463235E+02  0.77031196308E+01  0.41898142992E+02  0.00000000000E+00 0.  1.
</event>
<event>
 6    1  0.8017648E-006  0.7093107E+02  0.7818608E-02  0.1479227E+00
          2   -1    0    0  502    0  0.00000000000E+00  0.00000000000E+00  0.21243083110E+03  0.21243083110E+03  0.00000000000E+00 0.  1.
          1   -1    0    0  501    0 -0.00000000000E+00 -0.00000000000E+00 -0.97403546190E+02  0.97403546190E+02  0.00000000000E+00 0.  1.
          2    1    1    2  501    0 -0.41066078042E+02 -0.26658387096E+01  0.97208487726E+02  0.10556050184E+03  0.00000000000E+00 0.  1.
          1    1    1    2  502    0  0.59018982474E+02 -0.20778264563E+02 -0.30567421663E+02  0.69637230255E+02  0.00000000000E+00 0.  1.
         22    1    1    2    0    0  0.75927992423E+01  0.75689072194E+01 -0.39927530438E+02  0.41341826807E+02  0.00000000000E+00 0.  1.
         22    1    1    2    0    0 -0.25545703674E+02  0.15875196053E+02  0.88313749283E+02  0.93294818390E+02  0.00000000000E+00 0.  1.
</event>
<event>
 6    1  0.8017648E-006  0.1356568E+03  0.7818608E-02  0.1336716E+00
          2   -1    0    0  502    0  0.00000000000E+00  0.00000000000E+00  0.70387608943E+03  0.70387608943E+03  0.00000000000E+00 0. -1.
          1   -1    0    0  501    0 -0.00000000000E+00 -0.00000000000E+00 -0.17398668578E+03  0.17398668578E+03  0.00000000000E+00 0.  1.
          2    1    1    2  501    0 -0.10749796771E+03  0.24951802295E+02  0.57873395740E+03  0.58916160681E+03  0.00000000000E+00 0. -1.
          1    1    1    2  502    0  0.11453373952E+03 -0.32516056466E+02 -0.95085470986E+02  0.15236967615E+03  0.00000000000E+00 0.  1.
         22    1    1    2    0    0  0.11179471901E+02 -0.89905325802E+01 -0.42177694598E+02  0.44550737252E+02  0.00000000000E+00 0.  1.
         22    1    1    2    0    0 -0.18215243713E+02  0.16554786752E+02  0.88418611844E+02  0.91780755000E+02  0.00000000000E+00 0. -1.
</event>
<event>
 6    1  0.8017648E-006  0.1099346E+03  0.7818608E-02  0.1262484E+00
          2   -1    0    0  502    0  0.00000000000E+00  0.00000000000E+00  0.34107488900E+03  0.34107488900E+03  0.00000000000E+00 0.  1.
          1   -1    0    0  501    0 -0.00000000000E+00 -0.00000000000E+00 -0.22788968828E+03  0.22788968828E+03  0.00000000000E+00 0. -1.
          2    1    1    2  501    0 -0.53484510340E+02 -0.69760705246E+02  0.29294615981E+03  0.30585061940E+03  0.00000000000E+00 0.  1.
          1    1    1    2  502    0  0.29390053166E+02  0.48830758254E+02 -0.74859726591E+02  0.94086113970E+02  0.00000000000E+00 0. -1.
         22    1    1    2    0    0 -0.12312548089E+02 -0.94119265802E+01  0.25745740273E+02  0.30050396746E+02  0.00000000000E+00 0.  1.
         22    1    1    2    0    0  0.36407005263E+02  0.30341873572E+02 -0.13064697277E+03  0.13897744715E+03  0.00000000000E+00 0. -1.
</event>
<event>
 6    1  0.8017648E-006  0.1241047E+03  0.7818608E-02  0.1266836E+00
          2   -1    0    0  502    0  0.00000000000E+00  0.00000000000E+00  0.46641066640E+02  0.46641066640E+02  0.00000000000E+00 0. -1.
          1   -1    0    0  501    0 -0.00000000000E+00 -0.00000000000E+00 -0.82508546332E+03  0.82508546332E+03  0.00000000000E+00 0.  1.
          2    1    1    2  501    0 -0.20592745805E+02 -0.45066868053E+02 -0.64501146069E+02  0.81335611021E+02  0.00000000000E+00 0. -1.
          1    1    1    2  502    0 -0.18402627408E+02  0.14437205061E+03 -0.49339627966E+03  0.51441406909E+03  0.00000000000E+00 0.  1.
         22    1    1    2    0    0  0.47509132957E+02 -0.32072084424E+02 -0.14579284283E+02  0.59146359515E+02  0.00000000000E+00 0. -1.
         22    1    1    2    0    0 -0.85137597446E+01 -0.67233098129E+02 -0.20596768666E+03  0.21683049033E+03  0.00000000000E+00 0. -1.
</event>
<event>
 6    1  0.8017648E-006  0.2998746E+02  0.7818608E-02  0.1619149E+00
          2   -1    0    0  502    0  0.00000000000E+00  0.00000000000E+00  0.64877528592E+02  0.64877528592E+02  0.00000000000E+00 0.  1.
          1   -1    0    0  501    0 -0.00000000000E+00 -0.00000000000E+00 -0.17608236305E+04  0.17608236305E+04  0.00000000000E+00 0. -1.
          2    1    1    2  501    0 -0.25689823236E+02  0.22394440235E+02  0.31885589568E+01  0.34229298555E+02  0.00000000000E+00 0.  1.
          1    1    1    2  502    0  0.18221012766E+02  0.30796939290E+02 -0.16462280911E+04  0.16466169514E+04  0.00000000000E+00 0. -1.
         22    1    1    2    0    0  0.57251811464E+01 -0.29878045770E+02  0.39318189630E+02  0.49713130599E+02  0.00000000000E+00 0.  1.
         22    1    1    2    0    0  0.17436293243E+01 -0.23313333756E+02 -0.92224759376E+02  0.95141778499E+02  0.00000000000E+00 0.  1.
</event>
<event>
 6    1  0.8017648E-006  0.1902922E+03  0.7818608E-02  0.1210918E+00
          2   -1    0    0  502    0  0.00000000000E+00  0.00000000000E+00  0.43841342558E+03  0.43841342558E+03  0.00000000000E+00 0.  1.
          1   -1    0    0  501    0 -0.00000000000E+00 -0.00000000000E+00 -0.31407541379E+03  0.31407541379E+03  0.00000000000E+00 0. -1.
          2    1    1    2  501    0  0.18129326427E+03  0.30303259231E+02  0.86465921875E+02  0.20313023122E+03  0.00000000000E+00 0.  1.
          1    1    1    2  502    0 -0.22346424045E+03  0.17658241570E+03 -0.44598151251E+02  0.28828217321E+03  0.00000000000E+00 0. -1.
         22    1    1    2    0    0  0.27852682173E+02 -0.15724999266E+03  0.11784045354E+03  0.19846839694E+03  0.00000000000E+00 0.  1.
         22    1    1    2    0    0  0.14318294012E+02 -0.49635682271E+02 -0.35370212368E+02  0.62608037989E+02  0.00000000000E+00 0. -1.
</event>
<event>
 6    1  0.8017648E-006  0.5847261E+02  0.7818608E-02  0.1404865E+00
          2   -1    0    0  502    0  0.00000000000E+00  0.00000000000E+00  0.51957353457E+02  0.51957353457E+02  0.00000000000E+00 0. -1.
          1   -1    0    0  501    0 -0.00000000000E+00 -0.00000000000E+00 -0.25280479999E+03  0.25280479999E+03  0.00000000000E+00 0.  1.
          2    1    1    2  501    0  0.34156725088E+02  0.39469459741E+01  0.12143112552E+02  0.36465263384E+02  0.00000000000E+00 0. -1.
          1    1    1    2  502    0 -0.19512899007E+02  0.10517733302E+02 -0.77488231967E+02  0.80596538604E+02  0.00000000000E+00 0.  1.
         22    1    1    2    0    0 -0.35286021877E+02 -0.42567715256E+01 -0.15407159831E+03  0.15811793336E+03  0.00000000000E+00 0.  1.
         22    1    1    2    0    0  0.20642195797E+02 -0.10207907750E+02  0.18569271194E+02  0.29582418100E+02  0.00000000000E+00 0.  1.
</event>
<event>
 6    1  0.8017648E-006  0.8842912E+02  0.7818608E-02  0.1375282E+00
          2   -1    0    0  502    0  0.00000000000E+00  0.00000000000E+00  0.26858665820E+03  0.26858665820E+03  0.00000000000E+00 0. -1.
          1   -1    0    0  501    0 -0.00000000000E+00 -0.00000000000E+00 -0.95039472757E+02  0.95039472757E+02  0.00000000000E+00 0. -1.
          2    1    1    2  501    0  0.96107446836E+02 -0.14760032936E+02  0.79246757853E+02  0.12543742878E+03  0.00000000000E+00 0. -1.
          1    1    1    2  502    0 -0.24718737279E+02  0.32911338239E+02 -0.28377316439E+02  0.49994442148E+02  0.00000000000E+00 0. -1.
         22    1    1    2    0    0 -0.83754477275E+02  0.58261449963E+01  0.13464891269E+03  0.15867919246E+03  0.00000000000E+00 0. -1.
         22    1    1    2    0    0  0.12365767718E+02 -0.23977450300E+02 -0.11971168668E+02  0.29515067565E+02  0.00000000000E+00 0. -1.
</event>
<event>
 6    1  0.8017648E-006  0.7005474E+02  0.7818608E-02  0.1413522E+00
          2   -1    0    0  502    0  0.00000000000E+00  0.00000000000E+00  0.31828964640E+03  0.31828964640E+03  0.00000000000E+00 0. -1.
          1   -1    0    0  501    0 -0.00000000000E+00 -0.00000000000E+00 -0.36733416507E+02  0.36733416507E+02  0.00000000000E+00 0.  1.
          2    1    1    2  501    0  0.20471370084E+02 -0.28215237473E+02  0.72585782166E+02  0.80522496182E+02  0.00000000000E+00 0. -1.
          1    1    1    2  502    0 -0.42705595649E+02  0.31063609663E+02  0.63916965217E+02  0.82910157325E+02  0.00000000000E+00 0.  1.
         22    1    1    2    0    0  0.30203576081E+02 -0.31212765843E+02  0.15462701591E+03  0.16061135330E+03  0.00000000000E+00 0. -1.
         22    1    1    2    0    0 -0.79693505164E+01  0.28364393653E+02 -0.95735334011E+01  0.30979056098E+02  0.00000000000E+00 0.  1.
</event>
<event>
 6    1  0.8017648E-006  0.1112116E+03  0.7818608E-02  0.1346856E+00
          2   -1    0    0  502    0  0.00000000000E+00  0.00000000000E+00  0.19112134341E+03  0.19112134341E+03  0.00000000000E+00 0. -1.
          1   -1    0    0  501    0 -0.00000000000E+00 -0.00000000000E+00 -0.22982246828E+03  0.22982246828E+03  0.00000000000E+00 0.  1.
          2    1    1    2  501    0  0.59420090414E+02 -0.33882345705E+02  0.10554444268E+03  0.12577118063E+03  0.00000000000E+00 0. -1.
          1    1    1    2  502    0 -0.51842399384E+02  0.77541340680E+02 -0.13034358946E+03  0.16028020839E+03  0.00000000000E+00 0.  1.
         22    1    1    2    0    0 -0.21708441261E+02 -0.25135809209E+01 -0.64536159742E+02  0.68135823362E+02  0.00000000000E+00 0. -1.
         22    1    1    2    0    0  0.14130750231E+02 -0.41145414053E+02  0.50634181653E+02  0.66756599309E+02  0.00000000000E+00 0. -1.
</event>
<event>
 6    1  0.8017648E-006  0.1357896E+03  0.7818608E-02  0.1251380E+00
          2   -1    0    0  502    0  0.00000000000E+00  0.00000000000E+00  0.31039228294E+02  0.31039228294E+02  0.00000000000E+00 0. -1.
          1   -1    0    0  501    0 -0.00000000000E+00 -0.00000000000E+00 -0.13868844235E+04  0.13868844235E+04  0.00000000000E+00 0. -1.
          2    1    1    2  501    0 -0.26205591908E+02 -0.82633241400E+01 -0.82753756235E+02  0.87196328731E+02  0.00000000000E+00 0. -1.
          1    1    1    2  502    0  0.58735284294E+02  0.15948000775E+03 -0.78505415461E+03  0.80323952353E+03  0.00000000000E+00 0. -1.
         22    1    1    2    0    0  0.85347069609E+01 -0.69613938070E+02 -0.37809626118E+03  0.38454612768E+03  0.00000000000E+00 0. -1.
         22    1    1    2    0    0 -0.41064399347E+02 -0.81602745540E+02 -0.10994102318E+03  0.14294167185E+03  0.00000000000E+00 0. -1.
</event>
<event>
 6    1  0.8017648E-006  0.1208450E+03  0.7818608E-02  0.1278956E+00
          2   -1    0    0  502    0  0.00000000000E+00  0.00000000000E+00  0.22246435254E+03  0.22246435254E+03  0.00000000000E+00 0.  1.
          1   -1    0    0  501    0 -0.00000000000E+00 -0.00000000000E+00 -0.68417707017E+03  0.68417707017E+03  0.00000000000E+00 0. -1.
          2    1    1    2  501    0  0.10027290919E+03  0.33439517949E+02  0.17760338373E+03  0.20667805784E+03  0.00000000000E+00 0.  1.
          1    1    1    2  502    0 -0.46078571992E+02 -0.34064231175E+02 -0.49838814750E+03  0.50167155810E+03  0.00000000000E+00 0. -1.
         22    1    1    2    0    0  0.14507479325E+01 -0.16188662739E+02  0.20821408056E+02  0.26414172413E+02  0.00000000000E+00 0.  1.
         22    1    1    2    0    0 -0.55645085134E+02  0.16813375964E+02 -0.16174936192E+03  0.17187763436E+03  0.00000000000E+00 0.  1.
</event>
<event>
 6    1  0.8017648E-006  0.1305935E+03  0.7818608E-02  0.1329156E+00
          2   -1    0    0  502    0  0.00000000000E+00  0.00000000000E+00  0.85274967222E+03  0.85274967222E+03  0.00000000000E+00 0. -1.
          1   -1    0    0  501    0 -0.00000000000E+00 -0.00000000000E+00 -0.26523088079E+03  0.26523088079E+03  0.00000000000E+00 0.  1.
          2    1    1    2  501    0  0.12107499297E+03  0.15800069231E+02  0.75114066423E+03  0.76100006148E+03  0.00000000000E+00 0. -1.
          1    1    1    2  502    0 -0.10769226228E+03 -0.24710600638E+02 -0.19348227847E+03  0.22280850347E+03  0.00000000000E+00 0.  1.
         22    1    1    2    0    0 -0.17061612680E+02 -0.90736650984E+01 -0.49278492534E+02  0.52932030492E+02  0.00000000000E+00 0.  1.
         22    1    1    2    0    0  0.36788819912E+01  0.17984196505E+02  0.79138898202E+02  0.81239957566E+02  0.00000000000E+00 0.  1.
</event>
<event>
 6    1  0.8017648E-006  0.1046973E+03  0.7818608E-02  0.1396740E+00
          2   -1    0    0  502    0  0.00000000000E+00  0.00000000000E+00  0.59093482672E+03  0.59093482672E+03  0.00000000000E+00 0. -1.
          1   -1    0    0  501    0 -0.00000000000E+00 -0.00000000000E+00 -0.61294589092E+02  0.61294589092E+02  0.00000000000E+00 0.  1.
          2    1    1    2  501    0  0.30787246412E+02  0.42789549661E+02  0.23487999662E+03  0.24072268882E+03  0.00000000000E+00 0. -1.
          1    1    1    2  502    0 -0.68669332774E+02 -0.64161657930E+02  0.87191165724E+01  0.94383359792E+02  0.00000000000E+00 0.  1.
         22    1    1    2    0    0 -0.10864423812E+02  0.37407038908E+01 -0.10812492607E+02  0.15777787131E+02  0.00000000000E+00 0.  1.
         22    1    1    2    0    0  0.48746510174E+02  0.17631404378E+02  0.29685361705E+03  0.30134558007E+03  0.00000000000E+00 0. -1.
</event>
<event>
 6    1  0.8017648E-006  0.2058694E+03  0.7818608E-02  0.1246616E+00
          2   -1    0    0  502    0  0.00000000000E+00  0.00000000000E+00  0.75990270271E+03  0.75990270271E+03  0.00000000000E+00 0.  1.
          1   -1    0    0  501    0 -0.00000000000E+00 -0.00000000000E+00 -0.27359787145E+03  0.27359787145E+03  0.00000000000E+00 0. -1.
          2    1    1    2  501    0 -0.79386662770E+02 -0.56071240475E+02  0.71374775198E+03  0.72033469977E+03  0.00000000000E+00 0.  1.
          1    1    1    2  502    0  0.47840287845E+02  0.45839260295E+02 -0.15009436576E+03  0.16406781999E+03  0.00000000000E+00 0. -1.
         22    1    1    2    0    0  0.81408911937E+01 -0.20588063508E+02 -0.10122997399E+03  0.10362263316E+03  0.00000000000E+00 0.  1.
         22    1    1    2    0    0  0.23405483731E+02  0.30820043688E+02  0.23881419026E+02  0.45475421233E+02  0.00000000000E+00 0. -1.
</event>
<event>
 6    1  0.8017648E-006  0.2277797E+03  0.7818608E-02  0.1250124E+00
          2   -1    0    0  502    0  0.00000000000E+00  0.00000000000E+00  0.17975429898E+03  0.17975429898E+03  0.00000000000E+00 0. -1.
          1   -1    0    0  501    0 -0.00000000000E+00 -0.00000000000E+00 -0.40766586742E+03  0.40766586742E+03  0.00000000000E+00 0. -1.
          2    1    1    2  501    0  0.15670225400E+03 -0.99078661170E+02 -0.49515089462E+01  0.18546345988E+03  0.00000000000E+00 0. -1.
          1    1    1    2  502    0 -0.17194632780E+03  0.11544220537E+03 -0.17342422864E+03  0.27012664716E+03  0.00000000000E+00 0. -1.
         22    1    1    2    0    0  0.30464639779E+02 -0.17045740764E+02  0.32917204625E+02  0.47981182930E+02  0.00000000000E+00 0. -1.
         22    1    1    2    0    0 -0.15220565983E+02  0.68219656624E+00 -0.82453035470E+02  0.83848876434E+02  0.00000000000E+00 0.  1.
</event>
<event>
 6    1  0.8017648E-006  0.4191373E+02  0.7818608E-02  0.1544945E+00
          2   -1    0    0  502    0  0.00000000000E+00  0.00000000000E+00  0.18488605298E+03  0.18488605298E+03  0.00000000000E+00 0. -1.
          1   -1    0    0  501    0 -0.00000000000E+00 -0.00000000000E+00 -0.22403453864E+03  0.22403453864E+03  0.00000000000E+00 0. -1.
          2    1    1    2  501    0 -0.26331092468E+02  0.10784304876E+02  0.12239511635E+03  0.12565903138E+03  0.00000000000E+00 0. -1.
          1    1    1    2  502    0  0.23225837427E+02  0.90373607412E+01 -0.15314111466E+03  0.15515577466E+03  0.00000000000E+00 0. -1.
         22    1    1    2    0    0 -0.12620094351E+02 -0.53599007961E+01  0.57351719945E+02  0.58967915841E+02  0.00000000000E+00 0.  1.
         22    1    1    2    0    0  0.15725349392E+02 -0.14461764821E+02 -0.65754207296E+02  0.69137869741E+02  0.00000000000E+00 0. -1.
</event>
<event>
 6    1  0.8017648E-006  0.1390318E+03  0.7818608E-02  0.1340868E+00
          2   -1    0    0  502    0  0.00000000000E+00  0.00000000000E+00  0.27626878541E+03  0.27626878541E+03  0.00000000000E+00 0. -1.
          1   -1    0    0  501    0 -0.00000000000E+00 -0.00000000000E+00 -0.22963228444E+03  0.22963228444E+03  0.00000000000E+00 0. -1.
          2    1    1    2  501    0  0.60843395855E+02 -0.10543924847E+03  0.18134087387E+03  0.21841214818E+03  0.00000000000E+00 0. -1.
          1    1    1    2  502    0 -0.56371805346E+02  0.11049193744E+03 -0.10664946956E+03  0.16358593471E+03  0.00000000000E+00 0. -1.
         22    1    1    2    0    0  0.19419478162E+00 -0.16541158742E+02  0.45965300228E+02  0.48851371211E+02  0.00000000000E+00 0. -1.
         22    1    1    2    0    0 -0.46657852906E+01  0.11488469771E+02 -0.74020203563E+02  0.75051615743E+02  0.00000000000E+00 0.  1.
</event>
<event>
 6    1  0.8017648E-006  0.1598209E+03  0.7818608E-02  0.1256074E+00
          2   -1    0    0  502    0  0.00000000000E+00  0.00000000000E+00  0.19756174659E+03  0.19756174659E+03  0.00000000000E+00 0. -1.
          1   -1    0    0  501    0 -0.00000000000E+00 -0.00000000000E+00 -0.20951976655E+03  0.20951976655E+03  0.00000000000E+00 0. -1.
          2    1    1    2  501    0  0.90673900592E+02  0.79282938597E+02  0.43352955622E+02  0.12801179384E+03  0.00000000000E+00 0. -1.
          1    1    1    2  502    0 -0.12902110272E+03 -0.51206024139E+02 -0.52482088427E+02  0.14840104939E+03  0.00000000000E+00 0. -1.
         22    1    1    2    0    0  0.62166869957E+01 -0.38691653839E+02 -0.55574598407E+02  0.68001671024E+02  0.00000000000E+00 0. -1.
         22    1    1    2    0    0  0.32130515130E+02  0.10614739382E+02  0.52745711250E+02  0.62666998890E+02  0.00000000000E+00 0. -1.
</event>
<event>
 6    1  0.8017648E-006  0.8170941E+02  0.7818608E-02  0.1450900E+00
          2   -1    0    0  502    0  0.00000000000E+00  0.00000000000E+00  0.24186297845E+03  0.24186297845E+03  0.00000000000E+00 0.  1.
          1   -1    0    0  501    0 -0.00000000000E+00 -0.00000000000E+00 -0.65684844091E+02  0.65684844091E+02  0.00000000000E+00 0.  1.
          2    1    1    2  501    0 -0.41261618239E+02 -0.30500513279E+01  0.94406072530E+02  0.10307439296E+03  0.00000000000E+00 0.  1.
          1    1    1    2  502    0  0.16428301608E+02  0.44975227571E+02  0.52009050475E+02  0.70693716270E+02  0.00000000000E+00 0.  1.
         22    1    1    2    0    0  0.15457310061E+02 -0.37080624418E+02  0.76209232470E+02  0.86149569094E+02  0.00000000000E+00 0.  1.
         22    1    1    2    0    0  0.93760065701E+01 -0.48445518248E+01 -0.46446221120E+02  0.47630144215E+02  0.00000000000E+00 0.  1.
</event>
<event>
 6    1  0.8017648E-006  0.1255262E+03  0.7818608E-02  0.1284578E+00
          2   -1    0    0  502    0  0.00000000000E+00  0.00000000000E+00  0.12180472894E+03  0.12180472894E+03  0.00000000000E+00 0. -1.
          1   -1    0    0  501    0 -0.00000000000E+00 -0.00000000000E+00 -0.41948011673E+03  0.41948011673E+03  0.00000000000E+00 0.  1.
          2    1    1    2  501    0 -0.28456810767E+02  0.11648584212E+03  0.49087249409E+02  0.12956967063E+03  0.00000000000E+00 0. -1.
          1    1    1    2  502    0  0.26886474753E+02 -0.84046492704E+02 -0.13499915388E+03  0.16128070873E+03  0.00000000000E+00 0.  1.
         22    1    1    2    0    0 -0.57863046710E+01  0.13593095514E+02  0.13732642243E+02  0.20170251123E+02  0.00000000000E+00 0. -1.
         22    1    1    2    0    0  0.73566406852E+01 -0.46032444927E+02 -0.22549612557E+03  0.23026421519E+03  0.00000000000E+00 0.  1.
</event>
<event>
 6    1  0.8017648E-006  0.9938895E+02  0.7818608E-02  0.1361283E+00
          2   -1    0    0  502    0  0.00000000000E+00  0.00000000000E+00  0.47496630444E+03  0.47496630444E+03  0.00000000000E+00 0. -1.
          1   -1    0    0  501    0 -0.00000000000E+00 -0.00000000000E+00 -0.39413557767E+02  0.39413557767E+02  0.00000000000E+00 0.  1.
          2    1    1    2  501    0  0.11189374395E+02 -0.54379063355E+02  0.16818278318E+03  0.17710938199E+03  0.00000000000E+00 0. -1.
          1    1    1    2  502    0 -0.39607832271E+02  0.62740331542E+02  0.98360330130E+02  0.12320667239E+03  0.00000000000E+00 0.  1.
         22    1    1    2    0    0 -0.17141903171E+02  0.16757212907E+02 -0.11225594292E+02  0.26470039591E+02  0.00000000000E+00 0.  1.
         22    1    1    2    0    0  0.45560361046E+02 -0.25118481093E+02  0.18023522766E+03  0.18759376823E+03  0.00000000000E+00 0.  1.
</event>
<event>
 6    1  0.8017648E-006  0.5909004E+02  0.7818608E-02  0.1423684E+00
          2   -1    0    0  502    0  0.00000000000E+00  0.00000000000E+00  0.53369926681E+03  0.53369926681E+03  0.00000000000E+00 0. -1.
          1   -1    0    0  501    0 -0.00000000000E+00 -0.00000000000E+00 -0.85852239749E+02  0.85852239749E+02  0.00000000000E+00 0. -1.
          2    1    1    2  501    0 -0.73631157762E+01 -0.38099445978E+02  0.43688999040E+03  0.43860990296E+03  0.00000000000E+00 0. -1.
          1    1    1    2  502    0 -0.93102132209E+01  0.19968829278E+02 -0.34778546990E+02  0.41170153555E+02  0.00000000000E+00 0. -1.
         22    1    1    2    0    0  0.28251492637E+02  0.31049295512E+02 -0.36560045743E+02  0.55667248295E+02  0.00000000000E+00 0. -1.
         22    1    1    2    0    0 -0.11578163639E+02 -0.12918678812E+02  0.82295629396E+02  0.84104201757E+02  0.00000000000E+00 0. -1.
</event>
<event>
 6    1  0.8017648E-006  0.6050694E+02  0.7818608E-02  0.1397825E+00
          2   -1    0    0  502    0  0.00000000000E+00  0.00000000000E+00  0.21227592347E+03  0.21227592347E+03  0.00000000000E+00 0. -1.
          1   -1    0    0  501    0 -0.00000000000E+00 -0.00000000000E+00 -0.12014279812E+03  0.12014279812E+03  0.00000000000E+00 0.  1.
          2    1    1    2  501    0  0.22074011293E+02 -0.32577856417E+02  0.11232998740E+03  0.11902354714E+03  0.00000000000E+00 0. -1.
          1    1    1    2  502    0 -0.30440229780E+02  0.23074609362E+02 -0.70171230715E+02  0.79893972278E+02  0.00000000000E+00 0.  1.
         22    1    1    2    0    0 -0.98427464601E+01  0.17766455330E+02 -0.38105257621E+02  0.43180287762E+02  0.00000000000E+00 0.  1.
         22    1    1    2    0    0  0.18208964948E+02 -0.82632082756E+01  0.88079626279E+02  0.90320914416E+02  0.00000000000E+00 0. -1.
</event>
<event>
 6    1  0.8017648E-006  0.5467857E+02  0.7818608E-02  0.1463230E+00
          2   -1    0    0  502    0  0.00000000000E+00  0.00000000000E+00  0.21906330174E+03  0.21906330174E+03  0.00000000000E+00 0.  1.
          1   -1    0    0  501    0 -0.00000000000E+00 -0.00000000000E+00 -0.17640842240E+03  0.17640842240E+03  0.00000000000E+00 0.  1.
          2    1    1    2  501    0  0.80424513484E+01 -0.33039365077E+02  0.14454727982E+03  0.14849308661E+03  0.00000000000E+00 0.  1.
          1    1    1    2  502    0 -0.25230077577E+02  0.14199525843E+02 -0.11713049989E+03  0.12065544892E+03  0.00000000000E+00 0.  1.
         22    1    1    2    0    0  0.17914111982E+02 -0.10571680806E+02  0.65147554432E+02  0.68387715941E+02  0.00000000000E+00 0.  1.
         22    1    1    2    0    0 -0.72648575290E+00  0.29411520039E+02 -0.49909455017E+02  0.57935472663E+02  0.00000000000E+00 0.  1.
</event>
<event>
 6    1  0.8017648E-006  0.3864457E+02  0.7818608E-02  0.1535549E+00
          2   -1    0    0  502    0  0.00000000000E+00  0.00000000000E+00  0.51440561249E+03  0.51440561249E+03  0.00000000000E+00 0. -1.
          1   -1    0    0  501    0 -0.00000000000E+00 -0.00000000000E+00 -0.82869924633E+02  0.82869924633E+02  0.00000000000E+00 0. -1.
          2    1    1    2  501    0  0.98148881919E+02  0.35751384944E+02  0.26546563164E+03  0.28527770002E+03  0.00000000000E+00 0. -1.
          1    1    1    2  502    0 -0.10552308686E+03 -0.38111378448E+02  0.14057179725E+03  0.17985557876E+03  0.00000000000E+00 0. -1.
         22    1    1    2    0    0  0.48508553948E+01  0.12914773653E+02  0.77653755957E+02  0.78869689938E+02  0.00000000000E+00 0. -1.
         22    1    1    2    0    0  0.25233495502E+01 -0.10554780149E+02 -0.52155496996E+02  0.53272568399E+02  0.00000000000E+00 0. -1.
</event>
<event>
 6    1  0.8017648E-006  0.5157553E+02  0.7818608E-02  0.1523772E+00
          2   -1    0    0  502    0  0.00000000000E+00  0.00000000000E+00  0.40690874348E+03  0.40690874348E+03  0.00000000000E+00 0. -1.
          1   -1    0    0  501    0 -0.00000000000E+00 -0.00000000000E+00 -0.26290032229E+03  0.26290032229E+03  0.00000000000E+00 0. -1.
          2    1    1    2  501    0  0.77946395020E+01 -0.33862029602E+02  0.31528908776E+03  0.31719804904E+03  0.00000000000E+00 0. -1.
          1    1    1    2  502    0 -0.17372010953E+02  0.34343940473E+02 -0.21735702578E+03  0.22073823789E+03  0.00000000000E+00 0. -1.
         22    1    1    2    0    0  0.47139367662E+01  0.14384293209E+02 -0.40842728765E+02  0.43557520406E+02  0.00000000000E+00 0.  1.
         22    1    1    2    0    0  0.48634346843E+01 -0.14866204080E+02  0.86919087966E+02  0.88315258442E+02  0.00000000000E+00 0.  1.
</event>
<event>
 6    1  0.8017648E-006  0.1529014E+03  0.7818608E-02  0.1306882E+00
          2   -1    0    0  502    0  0.00000000000E+00  0.00000000000E+00  0.31914643529E+03  0.31914643529E+03  0.00000000000E+00 0. -1.
          1   -1    0    0  501    0 -0.00000000000E+00 -0.00000000000E+00 -0.15790231007E+03  0.15790231007E+03  0.00000000000E+00 0. -1.
          2    1    1    2  501    0 -0.29390446682E+02  0.67252411468E+02  0.80370261996E+02  0.10883962614E+03  0.00000000000E+00 0. -1.
          1    1    1    2  502    0  0.71971238973E+01 -0.13315667538E+03 -0.80156171327E+02  0.15558762995E+03  0.00000000000E+00 0. -1.
         22    1    1    2    0    0  0.15883390109E+02 -0.61975362518E+01 -0.14736938244E+02  0.22535946524E+02  0.00000000000E+00 0.  1.
         22    1    1    2    0    0  0.63099326756E+01  0.72101800166E+02  0.17576697280E+03  0.19008554275E+03  0.00000000000E+00 0. -1.
</event>
<event>
 6    1  0.8017648E-006  0.1447616E+03  0.7818608E-02  0.1239850E+00
          2   -1    0    0  502    0  0.00000000000E+00  0.00000000000E+00  0.41118026064E+02  0.41118026064E+02  0.00000000000E+00 0.  1.
          1   -1    0    0  501    0 -0.00000000000E+00 -0.00000000000E+00 -0.72511909169E+03  0.72511909169E+03  0.00000000000E+00 0.  1.
          2    1    1    2  501    0  0.27632743017E+02 -0.82665662646E+01 -0.10836324252E+03  0.11213606438E+03  0.00000000000E+00 0.  1.
          1    1    1    2  502    0  0.11618656545E+03  0.12881384042E+02 -0.19101573851E+03  0.22394700357E+03  0.00000000000E+00 0.  1.
         22    1    1    2    0    0 -0.63879988277E+02 -0.35337228223E+02 -0.30362630308E+03  0.31227920924E+03  0.00000000000E+00 0.  1.
         22    1    1    2    0    0 -0.79939320193E+02  0.30722410445E+02 -0.80995781504E+02  0.11787484056E+03  0.00000000000E+00 0.  1.
</event>
<event>
 6    1  0.8017648E-006  0.7530918E+02  0.7818608E-02  0.1350990E+00
          2   -1    0    0  502    0  0.00000000000E+00  0.00000000000E+00  0.16857270758E+03  0.16857270758E+03  0.00000000000E+00 0.  1.
          1   -1    0    0  501    0 -0.00000000000E+00 -0.00000000000E+00 -0.33955207555E+03  0.33955207555E+03  0.00000000000E+00 0.  1.
          2    1    1    2  501    0 -0.11691904994E+03  0.12936544012E+03  0.29441707987E+02  0.17683974526E+03  0.00000000000E+00 0.  1.
          1    1    1    2  502    0  0.90925514701E+02 -0.61184051911E+02 -0.49737665521E+02  0.12035270169E+03  0.00000000000E+00 0.  1.
         22    1    1    2    0    0  0.62594232922E+01 -0.38182399736E+02  0.14928694033E+02  0.41472182666E+02  0.00000000000E+00 0. -1.
         22    1    1    2    0    0  0.19734111944E+02 -0.29998988468E+02 -0.16561210447E+03  0.16946015351E+03  0.00000000000E+00 0.  1.
</event>
<event>
 6    1  0.8017648E-006  0.1090632E+03  0.7818608E-02  0.1349753E+00
          2   -1    0    0  502    0  0.00000000000E+00  0.00000000000E+00  0.48706760255E+03  0.48706760255E+03  0.00000000000E+00 0.  1.
          1   -1    0    0  501    0 -0.00000000000E+00 -0.00000000000E+00 -0.12771898292E+03  0.12771898292E+03  0.00000000000E+00 0.  1.
          2    1    1    2  501    0  0.90358605936E+02  0.26417541865E+02  0.15209102199E+03  0.17886934661E+03  0.00000000000E+00 0.  1.
          1    1    1    2  502    0 -0.14714811440E+03  0.40379594373E+02 -0.27042696859E+02  0.15496575966E+03  0.00000000000E+00 0.  1.
         22    1    1    2    0    0  0.68851474224E+02 -0.53899775752E+02  0.24511496984E+03  0.26024423100E+03  0.00000000000E+00 0.  1.
         22    1    1    2    0    0 -0.12061965758E+02 -0.12897360486E+02 -0.10814675335E+02  0.20707248201E+02  0.00000000000E+00 0.  1.
</event>
<event>
 6    1  0.8017648E-006  0.3365414E+02  0.7818608E-02  0.1581552E+00
          2   -1    0    0  502    0  0.00000000000E+00  0.00000000000E+00  0.13081562974E+03  0.13081562974E+03  0.00000000000E+00 0.  1.
          1   -1    0    0  501    0 -0.00000000000E+00 -0.00000000000E+00 -0.20964901386E+03  0.20964901386E+03  0.00000000000E+00 0. -1.
          2    1    1    2  501    0  0.19386431962E+02 -0.28364282292E+02  0.40401241100E+02  0.53034201573E+02  0.00000000000E+00 0.  1.
          1    1    1    2  502    0 -0.47245780147E+02  0.53484697417E+02 -0.14265996402E+03  0.15951376722E+03  0.00000000000E+00 0. -1.
         22    1    1    2    0    0  0.16273576307E+02 -0.13463642714E+02  0.72840102473E+02  0.75840487137E+02  0.00000000000E+00 0.  1.
         22    1    1    2    0    0  0.11585771878E+02 -0.11656772411E+02 -0.49414763674E+02  0.52076187668E+02  0.00000000000E+00 0. -1.
</event>
<event>
 6    1  0.8017648E-006  0.1662266E+03  0.7818608E-02  0.1237723E+00
          2   -1    0    0  502    0  0.00000000000E+00  0.00000000000E+00  0.23487074091E+04  0.23487074091E+04  0.00000000000E+00 0.  1.
          1   -1    0    0  501    0 -0.00000000000E+00 -0.00000000000E+00 -0.14671763832E+02  0.14671763832E+02  0.00000000000E+00 0.  1.
          2    1    1    2  501    0  0.79740023983E+02  0.49304806553E+02  0.75324811526E+03  0.75906004935E+03  0.00000000000E+00 0.  1.
          1    1    1    2  502    0 -0.48023457629E+02 -0.81699635212E+02  0.11062903496E+04  0.11103420286E+04  0.00000000000E+00 0.  1.
         22    1    1    2    0    0 -0.25623393512E+02  0.82374164302E+02  0.32360391572E+03  0.33490529334E+03  0.00000000000E+00 0.  1.
         22    1    1    2    0    0 -0.60931728417E+01 -0.49979335643E+02  0.15089326470E+03  0.15907180165E+03  0.00000000000E+00 0.  1.
</event>
<event>
 6    1  0.8017648E-006  0.1514575E+03  0.7818608E-02  0.1301558E+00
          2   -1    0    0  502    0  0.00000000000E+00  0.00000000000E+00  0.61393944792E+02  0.61393944792E+02  0.00000000000E+00 0. -1.
          1   -1    0    0  501    0 -0.00000000000E+00 -0.00000000000E+00 -0.47404522571E+03  0.47404522571E+03  0.00000000000E+00 0. -1.
          2    1    1    2  501    0 -0.32040424601E+02 -0.10265989837E+02 -0.55267643794E+02  0.64703105076E+02  0.00000000000E+00 0. -1.
          1    1    1    2  502    0  0.13473574580E+03  0.25041003050E+02 -0.20665665277E+03  0.24796722599E+03  0.00000000000E+00 0. -1.
         22    1    1    2    0    0 -0.11242813088E+03  0.19355822575E+01 -0.55124239825E+02  0.12522984033E+03  0.00000000000E+00 0.  1.
         22    1    1    2    0    0  0.97328096862E+01 -0.16710595471E+02 -0.95602744532E+02  0.97538999110E+02  0.00000000000E+00 0. -1.
</event>
<event>
 6    1  0.8017648E-006  0.3018277E+02  0.7818608E-02  0.1599364E+00
          2   -1    0    0  502    0  0.00000000000E+00  0.00000000000E+00  0.84805548232E+02  0.84805548232E+02  0.00000000000E+00 0. -1.
          1   -1    0    0  501    0 -0.00000000000E+00 -0.00000000000E+00 -0.15014785428E+03  0.15014785428E+03  0.00000000000E+00 0.  1.
          2    1    1    2  501    0  0.62095627080E+01  0.28964963522E+02  0.25565849405E+01  0.29733212195E+02  0.00000000000E+00 0. -1.
          1    1    1    2  502    0  0.24695603386E+02 -0.30603806950E+02 -0.62899502840E+02  0.74180949602E+02  0.00000000000E+00 0.  1.
         22    1    1    2    0    0 -0.17403763484E+02 -0.17581654136E+02 -0.63419608042E+02  0.68073873327E+02  0.00000000000E+00 0.  1.
         22    1    1    2    0    0 -0.13501402610E+02  0.19220497564E+02  0.58420219888E+02  0.62965367392E+02  0.00000000000E+00 0. -1.
</event>
<event>
 6    1  0.8017648E-006  0.2383017E+02  0.7818608E-02  0.1692643E+00
          2   -1    0    0  502    0  0.00000000000E+00  0.00000000000E+00  0.14587041069E+03  0.14587041069E+03  0.00000000000E+00 0.  1.
          1   -1    0    0  501    0 -0.00000000000E+00 -0.00000000000E+00 -0.11235430043E+03  0.11235430043E+03  0.00000000000E+00 0.  1.
          2    1    1    2  501    0  0.27365998973E+02 -0.16548218934E+02  0.78740778107E+02  0.84987361334E+02  0.00000000000E+00 0.  1.
          1    1    1    2  502    0 -0.33961722279E+02  0.16503761413E+02 -0.22889071894E+02  0.44155207316E+02  0.00000000000E+00 0.  1.
         22    1    1    2    0    0 -0.26821465628E+01 -0.13341000451E+02 -0.73829999436E+02  0.75073597356E+02  0.00000000000E+00 0.  1.
         22    1    1    2    0    0  0.92778698684E+01  0.13385457972E+02  0.51494403488E+02  0.54008545111E+02  0.00000000000E+00 0.  1.
</event>
<event>
 6    1  0.8017648E-006  0.6016054E+02  0.7818608E-02  0.1475686E+00
          2   -1    0    0  502    0  0.00000000000E+00  0.00000000000E+00  0.11263833155E+03  0.11263833155E+03  0.00000000000E+00 0. -1.
          1   -1    0    0  501    0 -0.00000000000E+00 -0.00000000000E+00 -0.13455419472E+03  0.13455419472E+03  0.00000000000E+00 0.  1.
          2    1    1    2  501    0  0.26885451533E+02  0.14386776603E+02  0.56133830711E+02  0.63881247604E+02  0.00000000000E+00 0. -1.
          1    1    1    2  502    0 -0.32726945110E+02 -0.27379571718E+02 -0.17446263042E+02  0.46098437911E+02  0.00000000000E+00 0.  1.
         22    1    1    2    0    0 -0.14058496526E+02 -0.11988476275E+02 -0.91158677551E+02  0.93012200172E+02  0.00000000000E+00 0.  1.
         22    1    1    2    0    0  0.19899990103E+02  0.24981271390E+02  0.30555246718E+02  0.44200640588E+02  0.00000000000E+00 0.  1.
</event>
<event>
 6    1  0.8017648E-006  0.3668055E+02  0.7818608E-02  0.1538690E+00
          2   -1    0    0  502    0  0.00000000000E+00  0.00000000000E+00  0.20649041857E+03  0.20649041857E+03  0.00000000000E+00 0. -1.
          1   -1    0    0  501    0 -0.00000000000E+00 -0.00000000000E+00 -0.13480949849E+03  0.13480949849E+03  0.00000000000E+00 0. -1.
          2    1    1    2  501    0 -0.34260598347E+02 -0.30913183006E+02  0.10655595852E+03  0.11611884334E+03  0.00000000000E+00 0. -1.
          1    1    1    2  502    0  0.59107801976E+02  0.42183082192E+01 -0.68731612562E+02  0.90749991427E+02  0.00000000000E+00 0. -1.
         22    1    1    2    0    0 -0.21948258230E+02  0.54406264917E+01  0.80219789018E+02  0.83345911753E+02  0.00000000000E+00 0. -1.
         22    1    1    2    0    0 -0.28989453997E+01  0.21254248295E+02 -0.46363214883E+02  0.51085170542E+02  0.00000000000E+00 0. -1.
</event>
<event>
 6    1  0.8017648E-006  0.5258952E+02  0.7818608E-02  0.1498352E+00
          2   -1    0    0  502    0  0.00000000000E+00  0.00000000000E+00  0.38725485699E+03  0.38725485699E+03  0.00000000000E+00 0.  1.
          1   -1    0    0  501    0 -0.00000000000E+00 -0.00000000000E+00 -0.47269933009E+02  0.47269933009E+02  0.00000000000E+00 0.  1.
          2    1    1    2  501    0  0.15463985190E+01  0.32453215166E+02  0.24809620146E+03  0.25021456333E+03  0.00000000000E+00 0.  1.
          1    1    1    2  502    0  0.14594022727E+02 -0.27980286759E+02  0.18297718024E+01  0.31610599667E+02  0.00000000000E+00 0.  1.
         22    1    1    2    0    0 -0.14337329523E+01 -0.20091882627E+02 -0.27002901109E+02  0.33688217613E+02  0.00000000000E+00 0.  1.
         22    1    1    2    0    0 -0.14706688293E+02  0.15618954220E+02  0.11706185182E+03  0.11901140938E+03  0.00000000000E+00 0.  1.
</event>
<event>
 6    1  0.8017648E-006  0.9588448E+02  0.7818608E-02  0.1333028E+00
          2   -1    0    0  502    0  0.00000000000E+00  0.00000000000E+00  0.74639907538E+02  0.74639907538E+02  0.00000000000E+00 0.  1.
          1   -1    0    0  501    0 -0.00000000000E+00 -0.00000000000E+00 -0.36148559530E+03  0.36148559530E+03  0.00000000000E+00 0. -1.
          2    1    1    2  501    0  0.35854716884E+02 -0.33060454321E+02  0.69386560082E+01  0.49261539866E+02  0.00000000000E+00 0.  1.
          1    1    1    2  502    0 -0.78426497315E+02  0.50024471899E+02 -0.21236062762E+03  0.23184089249E+03  0.00000000000E+00 0. -1.
         22    1    1    2    0    0  0.31494211771E+02  0.29757640852E+02 -0.95596999786E+02  0.10495803415E+03  0.00000000000E+00 0. -1.
         22    1    1    2    0    0  0.11077568659E+02 -0.46721658431E+02  0.14173283633E+02  0.50065036331E+02  0.00000000000E+00 0.  1.
</event>
<event>
 6    1  0.8017648E-006  0.9361239E+02  0.7818608E-02  0.1309640E+00
          2   -1    0    0  502    0  0.00000000000E+00  0.00000000000E+00  0.65197349968E+02  0.65197349968E+02  0.00000000000E+00 0.  1.
          1   -1    0    0  501    0 -0.00000000000E+00 -0.00000000000E+00 -0.25943493452E+03  0.25943493452E+03  0.00000000000E+00 0.  1.
          2    1    1    2  501    0 -0.35537716066E+02 -0.15565257694E+02 -0.36149379070E+02  0.53028144578E+02  0.00000000000E+00 0.  1.
          1    1    1    2  502    0  0.68462434829E+02  0.49003453536E+02 -0.52906621160E+02  0.99436180557E+02  0.00000000000E+00 0.  1.
         22    1    1    2    0    0 -0.56243323567E+02  0.33259267835E+02 -0.44785230601E+02  0.79216205557E+02  0.00000000000E+00 0.  1.
         22    1    1    2    0    0  0.23318604805E+02 -0.66697463677E+02 -0.60396353721E+02  0.92951753796E+02  0.00000000000E+00 0.  1.
</event>
<event>
 6    1  0.8017648E-006  0.8095839E+02  0.7818608E-02  0.1399455E+00
          2   -1    0    0  502    0  0.00000000000E+00  0.00000000000E+00  0.23728414825E+03  0.23728414825E+03  0.00000000000E+00 0.  1.
          1   -1    0    0  501    0 -0.00000000000E+00 -0.00000000000E+00 -0.39757491523E+02  0.39757491523E+02  0.00000000000E+00 0. -1.
          2    1    1    2  501    0  0.69937953115E+01 -0.19716586932E+02  0.12827174458E+02  0.24539628719E+02  0.00000000000E+00 0.  1.
          1    1    1    2  502    0  0.35253173219E+02  0.16417409518E+02  0.69098769094E+02  0.79290336408E+02  0.00000000000E+00 0. -1.
         22    1    1    2    0    0 -0.64489400183E+02 -0.51782540206E+01  0.13012928426E+03  0.14532490382E+03  0.00000000000E+00 0.  1.
         22    1    1    2    0    0  0.22242431652E+02  0.84774314351E+01 -0.14528571078E+02  0.27886770826E+02  0.00000000000E+00 0. -1.
</event>
<event>
 6    1  0.8017648E-006  0.5546964E+02  0.7818608E-02  0.1455989E+00
          2   -1    0    0  502    0  0.00000000000E+00  0.00000000000E+00  0.93299338939E+02  0.93299338939E+02  0.00000000000E+00 0. -1.
          1   -1    0    0  501    0 -0.00000000000E+00 -0.00000000000E+00 -0.33746244176E+03  0.33746244176E+03  0.00000000000E+00 0. -1.
          2    1    1    2  501    0 -0.56967947201E+02  0.34598374635E+02 -0.42679338937E+02  0.79144933558E+02  0.00000000000E+00 0. -1.
          1    1    1    2  502    0  0.64481348016E+02 -0.11762749390E+02  0.40187695982E+02  0.76884702143E+02  0.00000000000E+00 0. -1.
         22    1    1    2    0    0 -0.30666845324E+01  0.28232831976E+02 -0.74087189767E+00  0.28408559390E+02  0.00000000000E+00 0.  1.
         22    1    1    2    0    0 -0.44467162830E+01 -0.51068457221E+02 -0.24093058797E+03  0.24632358561E+03  0.00000000000E+00 0. -1.
</event>
<event>
 6    1  0.8017648E-006  0.5522245E+02  0.7818608E-02  0.1512253E+00
          2   -1    0    0  502    0  0.00000000000E+00  0.00000000000E+00  0.96351937174E+02  0.96351937174E+02  0.00000000000E+00 0. -1.
          1   -1    0    0  501    0 -0.00000000000E+00 -0.00000000000E+00 -0.87588375232E+02  0.87588375232E+02  0.00000000000E+00 0.  1.
          2    1    1    2  501    0  0.27147209694E+02 -0.39601245862E+01  0.19580405919E+02  0.33705279658E+02  0.00000000000E+00 0. -1.
          1    1    1    2  502    0 -0.14865717564E+02 -0.15226803324E+02  0.13862698814E+01  0.21325263007E+02  0.00000000000E+00 0.  1.
         22    1    1    2    0    0 -0.81020342799E+00  0.27877536544E+02  0.54205619101E+02  0.60959516201E+02  0.00000000000E+00 0. -1.
         22    1    1    2    0    0 -0.11471288702E+02 -0.86906086338E+01 -0.66408732959E+02  0.67950253540E+02  0.00000000000E+00 0.  1.
</event>
<event>
 6    1  0.8017648E-006  0.7826425E+02  0.7818608E-02  0.1447535E+00
          2   -1    0    0  502    0  0.00000000000E+00  0.00000000000E+00  0.10107591295E+03  0.10107591295E+03  0.00000000000E+00 0.  1.
          1   -1    0    0  501    0 -0.00000000000E+00 -0.00000000000E+00 -0.22839151446E+03  0.22839151446E+03  0.00000000000E+00 0. -1.
          2    1    1    2  501    0 -0.13020581803E+02  0.18517465745E+02  0.94495325907E+01  0.24530098946E+02  0.00000000000E+00 0.  1.
          1    1    1    2  502    0  0.10439552320E+02  0.20258868049E+02 -0.16699772937E+03  0.16854568402E+03  0.00000000000E+00 0. -1.
         22    1    1    2    0    0  0.28544715235E+01 -0.51393999070E+02  0.74392323849E+02  0.90463854636E+02  0.00000000000E+00 0.  1.
         22    1    1    2    0    0 -0.27344204038E+00  0.12617665275E+02 -0.44159728590E+02  0.45927789808E+02  0.00000000000E+00 0. -1.
</event>
<event>
 6    1  0.8017648E-006  0.2027570E+03  0.7818608E-02  0.1253498E+00
          2   -1    0    0  502    0  0.00000000000E+00  0.00000000000E+00  0.16729809334E+03  0.16729809334E+03  0.00000000000E+00 0. -1.
          1   -1    0    0  501    0 -0.00000000000E+00 -0.00000000000E+00 -0.30762877052E+03  0.30762877052E+03  0.00000000000E+00 0. -1.
          2    1    1    2  501    0  0.19348321033E+02  0.12662982281E+02 -0.40294542937E+02  0.46458140702E+02  0.00000000000E+00 0. -1.
          1    1    1    2  502    0 -0.12432217954E+03 -0.14803834515E+03 -0.34706915258E+01  0.19334787731E+03  0.00000000000E+00 0. -1.
         22    1    1    2    0    0  0.10826964685E+03  0.11544852288E+03 -0.24352575199E+02  0.16013658477E+03  0.00000000000E+00 0. -1.
         22    1    1    2    0    0 -0.32957883400E+01  0.19926839994E+02 -0.72212867518E+02  0.74984261069E+02  0.00000000000E+00 0. -1.
</event>
<event>
 6    1  0.8017648E-006  0.5142478E+02  0.7818608E-02  0.1516921E+00
          2   -1    0    0  502    0  0.00000000000E+00  0.00000000000E+00  0.29230264940E+03  0.29230264940E+03  0.00000000000E+00 0. -1.
          1   -1    0    0  501    0 -0.00000000000E+00 -0.00000000000E+00 -0.48948388142E+02  0.48948388142E+02  0.00000000000E+00 0. -1.
          2    1    1    2  501    0  0.16465546919E+02  0.12927923122E+02  0.81535229442E+02  0.84179802042E+02  0.00000000000E+00 0. -1.
          1    1    1    2  502    0 -0.42636809256E+02 -0.48223731719E+02  0.47990189344E+02  0.80289999861E+02  0.00000000000E+00 0. -1.
         22    1    1    2    0    0  0.12557272562E+02  0.11062385051E+02 -0.27801180723E+02  0.32449454646E+02  0.00000000000E+00 0. -1.
         22    1    1    2    0    0  0.13613989775E+02  0.24233423546E+02  0.14163002320E+03  0.14433178100E+03  0.00000000000E+00 0. -1.
</event>
<event>
 6    1  0.8017648E-006  0.5420254E+02  0.7818608E-02  0.1510518E+00
          2   -1    0    0  502    0  0.00000000000E+00  0.00000000000E+00  0.32480627588E+03  0.32480627588E+03  0.00000000000E+00 0. -1.
          1   -1    0    0  501    0 -0.00000000000E+00 -0.00000000000E+00 -0.79317713282E+02  0.79317713282E+02  0.00000000000E+00 0.  1.
          2    1    1    2  501    0  0.16140255904E+02  0.46831630364E+02  0.23296984654E+03  0.23817778835E+03  0.00000000000E+00 0. -1.
          1    1    1    2  502    0 -0.10208833853E+02 -0.26469430393E+02 -0.22768240049E+02  0.36376418033E+02  0.00000000000E+00 0.  1.
         22    1    1    2    0    0 -0.19434657391E+02 -0.12588931601E+02 -0.43488093363E+02  0.49268665205E+02  0.00000000000E+00 0.  1.
         22    1    1    2    0    0  0.13503235340E+02 -0.77732683699E+01  0.78775049469E+02  0.80301117580E+02  0.00000000000E+00 0.  1.
</event>
<event>
 6    1  0.8017648E-006  0.8970542E+02  0.7818608E-02  0.1433358E+00
          2   -1    0    0  502    0  0.00000000000E+00  0.00000000000E+00  0.53404208218E+03  0.53404208218E+03  0.00000000000E+00 0. -1.
          1   -1    0    0  501    0 -0.00000000000E+00 -0.00000000000E+00 -0.78839193435E+02  0.78839193435E+02  0.00000000000E+00 0.  1.
          2    1    1    2  501    0  0.43119507321E+02 -0.45278471701E+02  0.39173762412E+03  0.39669610291E+03  0.00000000000E+00 0. -1.
          1    1    1    2  502    0 -0.44488430646E+02  0.62735531649E+02  0.14855541058E+02  0.78330418694E+02  0.00000000000E+00 0.  1.
         22    1    1    2    0    0  0.97188144609E+01 -0.23586527696E+02  0.90849657669E+02  0.94363340032E+02  0.00000000000E+00 0.  1.
         22    1    1    2    0    0 -0.83498911363E+01  0.61294677477E+01 -0.42239934104E+02  0.43491413980E+02  0.00000000000E+00 0.  1.
</event>
<event>
 6    1  0.8017648E-006  0.4607707E+02  0.7818608E-02  0.1536210E+00
          2   -1    0    0  502    0  0.00000000000E+00  0.00000000000E+00  0.31624656947E+03  0.31624656947E+03  0.00000000000E+00 0. -1.
          1   -1    0    0  501    0 -0.00000000000E+00 -0.00000000000E+00 -0.69765189865E+02  0.69765189865E+02  0.00000000000E+00 0. -1.
          2    1    1    2  501    0 -0.72939869665E+02 -0.82812895351E-01  0.15530097100E+03  0.17157687210E+03  0.00000000000E+00 0. -1.
          1    1    1    2  502    0  0.60321453235E+02  0.17536758110E+02  0.40542089614E+01  0.62949600600E+02  0.00000000000E+00 0. -1.
         22    1    1    2    0    0 -0.11105614005E+01  0.12599934076E+02 -0.28526669766E+02  0.31205169016E+02  0.00000000000E+00 0. -1.
         22    1    1    2    0    0  0.13728977831E+02 -0.30053879291E+02  0.11565286941E+03  0.12028011763E+03  0.00000000000E+00 0. -1.
</event>
<event>
 6    1  0.8017648E-006  0.1109159E+03  0.7818608E-02  0.1260134E+00
          2   -1    0    0  502    0  0.00000000000E+00  0.00000000000E+00  0.18417463525E+03  0.18417463525E+03  0.00000000000E+00 0.  1.
          1   -1    0    0  501    0 -0.00000000000E+00 -0.00000000000E+00 -0.14932152962E+03  0.14932152962E+03  0.00000000000E+00 0.  1.
          2    1    1    2  501    0  0.46709171799E+01 -0.33897316098E+02  0.40107362286E+02  0.52720451587E+02  0.00000000000E+00 0.  1.
          1    1    1    2  502    0 -0.44042405329E+02  0.79321096048E+02 -0.84242938451E+02  0.12380808707E+03  0.00000000000E+00 0.  1.
         22    1    1    2    0    0  0.52993174758E+02 -0.55268411387E+02  0.10257743256E+03  0.12800392002E+03  0.00000000000E+00 0. -1.
         22    1    1    2    0    0 -0.13621686609E+02  0.98446314369E+01 -0.23588750768E+02  0.28963706203E+02  0.00000000000E+00 0. -1.
</event>
<event>
 6    1  0.8017648E-006  0.1065115E+03  0.7818608E-02  0.1333754E+00
          2   -1    0    0  502    0  0.00000000000E+00  0.00000000000E+00  0.76446122156E+03  0.76446122156E+03  0.00000000000E+00 0.  1.
          1   -1    0    0  501    0 -0.00000000000E+00 -0.00000000000E+00 -0.12101806990E+03  0.12101806990E+03  0.00000000000E+00 0.  1.
          2    1    1    2  501    0  0.18905671053E+02 -0.17892683186E+03  0.48397665816E+03  0.51633868846E+03  0.00000000000E+00 0.  1.
          1    1    1    2  502    0 -0.40893882141E+02  0.88808108555E+02 -0.50026485260E+02  0.10982640379E+03  0.00000000000E+00 0.  1.
         22    1    1    2    0    0  0.50249067351E+02  0.85192569371E+02  0.20831469954E+03  0.23060302837E+03  0.00000000000E+00 0. -1.
         22    1    1    2    0    0 -0.28260856264E+02  0.49261539357E+01  0.11782792213E+01  0.28711170845E+02  0.00000000000E+00 0. -1.
</event>
<event>
 6    1  0.8017648E-006  0.1379115E+03  0.7818608E-02  0.1324237E+00
          2   -1    0    0  502    0  0.00000000000E+00  0.00000000000E+00  0.22772546949E+03  0.22772546949E+03  0.00000000000E+00 0. -1.
          1   -1    0    0  501    0 -0.00000000000E+00 -0.00000000000E+00 -0.20807989917E+03  0.20807989917E+03  0.00000000000E+00 0. -1.
          2    1    1    2  501    0  0.76544169857E+02 -0.10279148165E+02  0.11727511748E+03  0.14042123773E+03  0.00000000000E+00 0. -1.
          1    1    1    2  502    0 -0.12036181021E+03  0.73397302714E+01 -0.10505222502E+03  0.15992750539E+03  0.00000000000E+00 0. -1.
         22    1    1    2    0    0 -0.16977442972E+02 -0.93932336729E+00 -0.49342335280E+02  0.52189864429E+02  0.00000000000E+00 0. -1.
         22    1    1    2    0    0  0.60795083328E+02  0.38787412610E+01  0.56765013145E+02  0.83266761123E+02  0.00000000000E+00 0. -1.
</event>
<event>
 6    1  0.8017648E-006  0.3450140E+03  0.7818608E-02  0.1065997E+00
          2   -1    0    0  502    0  0.00000000000E+00  0.00000000000E+00  0.34852189689E+03  0.34852189689E+03  0.00000000000E+00 0. -1.
          1   -1    0    0  501    0 -0.00000000000E+00 -0.00000000000E+00 -0.11311259297E+04  0.11311259297E+04  0.00000000000E+00 0. -1.
          2    1    1    2  501    0 -0.30398960210E+03  0.91976077632E+02  0.21876878227E+03  0.38565406407E+03  0.00000000000E+00 0. -1.
          1    1    1    2  502    0  0.26721417474E+03 -0.10826492890E+03 -0.80900158103E+03  0.85884123569E+03  0.00000000000E+00 0. -1.
         22    1    1    2    0    0  0.50518074595E+02  0.21313109635E+02 -0.20719288487E+03  0.21432502431E+03  0.00000000000E+00 0. -1.
         22    1    1    2    0    0 -0.13742647243E+02 -0.50242583675E+01  0.14821650862E+02  0.20827502483E+02  0.00000000000E+00 0. -1.
</event>
<event>
 6    1  0.8017648E-006  0.2404461E+02  0.7818608E-02  0.1710510E+00
          2   -1    0    0  502    0  0.00000000000E+00  0.00000000000E+00  0.15957654467E+03  0.15957654467E+03  0.00000000000E+00 0. -1.
          1   -1    0    0  501    0 -0.00000000000E+00 -0.00000000000E+00 -0.25005856815E+03  0.25005856815E+03  0.00000000000E+00 0.  1.
          2    1    1    2  501    0  0.15098568773E+02  0.19869268553E+02  0.57641061077E+02  0.62811197520E+02  0.00000000000E+00 0. -1.
          1    1    1    2  502    0  0.81229351384E+01 -0.35688916160E+02 -0.20337658633E+03  0.20664393696E+03  0.00000000000E+00 0.  1.
         22    1    1    2    0    0 -0.11469138067E+02  0.13264900556E+02  0.96055170955E+02  0.97642688318E+02  0.00000000000E+00 0. -1.
         22    1    1    2    0    0 -0.11752365844E+02  0.25547470507E+01 -0.40801669174E+02  0.42537290026E+02  0.00000000000E+00 0.  1.
</event>
<event>
 6    1  0.8017648E-006  0.9297430E+02  0.7818608E-02  0.1324513E+00
          2   -1    0    0  502    0  0.00000000000E+00  0.00000000000E+00  0.67179242027E+02  0.67179242027E+02  0.00000000000E+00 0.  1.
          1   -1    0    0  501    0 -0.00000000000E+00 -0.00000000000E+00 -0.28869029979E+03  0.28869029979E+03  0.00000000000E+00 0.  1.
          2    1    1    2  501    0  0.14939246113E+02  0.18389753536E+02 -0.18555228845E+02  0.30094195903E+02  0.00000000000E+00 0.  1.
          1    1    1    2  502    0 -0.10282997166E+03 -0.21121333253E+02 -0.89464852855E+02  0.13792778432E+03  0.00000000000E+00 0.  1.
         22    1    1    2    0    0  0.47063076574E+02  0.39916758013E+02 -0.85884571365E-01  0.61711328969E+02  0.00000000000E+00 0.  1.
         22    1    1    2    0    0  0.40827648973E+02 -0.37185178296E+02 -0.11340509149E+03  0.12613623263E+03  0.00000000000E+00 0.  1.
</event>
<event>
 6    1  0.8017648E-006  0.8451252E+02  0.7818608E-02  0.1332294E+00
          2   -1    0    0  502    0  0.00000000000E+00  0.00000000000E+00  0.14943536196E+03  0.14943536196E+03  0.00000000000E+00 0.  1.
          1   -1    0    0  501    0 -0.00000000000E+00 -0.00000000000E+00 -0.12981366182E+03  0.12981366182E+03  0.00000000000E+00 0.  1.
          2    1    1    2  501    0 -0.63268956347E+02 -0.24962322567E+02  0.37376211927E+02  0.77608373280E+02  0.00000000000E+00 0.  1.
          1    1    1    2  502    0  0.28225870459E+02  0.58040624040E+02 -0.72447753232E+01  0.64945366052E+02  0.00000000000E+00 0.  1.
         22    1    1    2    0    0 -0.23083222370E+02 -0.60612588245E+01  0.45625959438E+02  0.51490797121E+02  0.00000000000E+00 0. -1.
         22    1    1    2    0    0  0.58126308258E+02 -0.27017042649E+02 -0.56135695909E+02  0.85204487325E+02  0.00000000000E+00 0.  1.
</event>
<event>
 6    1  0.8017648E-006  0.3921025E+02  0.7818608E-02  0.1561210E+00
          2   -1    0    0  502    0  0.00000000000E+00  0.00000000000E+00  0.35455002081E+03  0.35455002081E+03  0.00000000000E+00 0.  1.
          1   -1    0    0  501    0 -0.00000000000E+00 -0.00000000000E+00 -0.80337589437E+02  0.80337589437E+02  0.00000000000E+00 0.  1.
          2    1    1    2  501    0  0.37139416648E+02 -0.35743091977E+02  0.23105818222E+03  0.23673780532E+03  0.00000000000E+00 0.  1.
          1    1    1    2  502    0 -0.55687292217E+02  0.22800082634E+01  0.37151499808E+02  0.66981392119E+02  0.00000000000E+00 0.  1.
         22    1    1    2    0    0  0.13800930780E+02  0.60681583796E+01  0.64586054799E+02  0.66322294223E+02  0.00000000000E+00 0. -1.
         22    1    1    2    0    0  0.47469447891E+01  0.27394925334E+02 -0.58583305453E+02  0.64846118594E+02  0.00000000000E+00 0.  1.
</event>
<event>
 6    1  0.8017648E-006  0.1266698E+03  0.7818608E-02  0.1327945E+00
          2   -1    0    0  502    0  0.00000000000E+00  0.00000000000E+00  0.43673547428E+03  0.43673547428E+03  0.00000000000E+00 0. -1.
          1   -1    0    0  501    0 -0.00000000000E+00 -0.00000000000E+00 -0.74925637386E+02  0.74925637386E+02  0.00000000000E+00 0. -1.
          2    1    1    2  501    0 -0.69455994003E+02  0.43844012662E+02  0.19091077624E+03  0.20783011580E+03  0.00000000000E+00 0. -1.
          1    1    1    2  502    0  0.96240841743E+02 -0.66913286777E+02  0.61803675811E+02  0.13251181800E+03  0.00000000000E+00 0. -1.
         22    1    1    2    0    0 -0.18087923217E+02  0.41688552728E+02  0.13255692756E+03  0.14013010897E+03  0.00000000000E+00 0. -1.
         22    1    1    2    0    0 -0.86969245231E+01 -0.18619278613E+02 -0.23461542714E+02  0.31189068898E+02  0.00000000000E+00 0. -1.
</event>
<event>
 6    1  0.8017648E-006  0.1333869E+03  0.7818608E-02  0.1226532E+00
          2   -1    0    0  502    0  0.00000000000E+00  0.00000000000E+00  0.12639371967E+03  0.12639371967E+03  0.00000000000E+00 0.  1.
          1   -1    0    0  501    0 -0.00000000000E+00 -0.00000000000E+00 -0.32249083086E+03  0.32249083086E+03  0.00000000000E+00 0. -1.
          2    1    1    2  501    0 -0.29008210480E+02  0.43689822928E+02  0.40690679840E+02  0.66377769837E+02  0.00000000000E+00 0.  1.
          1    1    1    2  502    0  0.98266262321E+02 -0.44109186189E+02 -0.21375067396E+03  0.23935586317E+03  0.00000000000E+00 0. -1.
         22    1    1    2    0    0 -0.79377438213E+02  0.31126532163E+01  0.33090428988E+02  0.86054882476E+02  0.00000000000E+00 0.  1.
         22    1    1    2    0    0  0.10119386372E+02 -0.26932899560E+01 -0.56127546061E+02  0.57096035048E+02  0.00000000000E+00 0.  1.
</event>
<event>
 6    1  0.8017648E-006  0.6913235E+02  0.7818608E-02  0.1460902E+00
          2   -1    0    0  502    0  0.00000000000E+00  0.00000000000E+00  0.30705660958E+03  0.30705660958E+03  0.00000000000E+00 0. -1.
          1   -1    0    0  501    0 -0.00000000000E+00 -0.00000000000E+00 -0.18599439923E+03  0.18599439923E+03  0.00000000000E+00 0.  1.
          2    1    1    2  501    0  0.47711941209E+02  0.33019806124E+02  0.22204347006E+03  0.22949954145E+03  0.00000000000E+00 0. -1.
          1    1    1    2  502    0 -0.51199661262E+02 -0.23710483899E+02 -0.12397816064E+03  0.13621371691E+03  0.00000000000E+00 0.  1.
         22    1    1    2    0    0 -0.99722449428E+01 -0.25636828666E+01 -0.50895780426E+02  0.51926858216E+02  0.00000000000E+00 0.  1.
         22    1    1    2    0    0  0.13459964997E+02 -0.67456393582E+01  0.73892681363E+02  0.75410892231E+02  0.00000000000E+00 0. -1.
</event>
<event>
 6    1  0.8017648E-006  0.2095636E+02  0.7818608E-02  0.1734835E+00
          2   -1    0    0  502    0  0.00000000000E+00  0.00000000000E+00  0.14008216977E+03  0.14008216977E+03  0.00000000000E+00 0. -1.
          1   -1    0    0  501    0 -0.00000000000E+00 -0.00000000000E+00 -0.19235626495E+03  0.19235626495E+03  0.00000000000E+00 0.  1.
          2    1    1    2  501    0 -0.91939466846E+01  0.18429607255E+02  0.68631567443E+02  0.71655224017E+02  0.00000000000E+00 0. -1.
          1    1    1    2  502    0  0.14268174355E+02 -0.24734183004E+02 -0.12868676943E+03  0.13181671076E+03  0.00000000000E+00 0.  1.
         22    1    1    2    0    0 -0.15348886104E+02 -0.38250786085E+01 -0.58773972425E+02  0.60865420114E+02  0.00000000000E+00 0.  1.
         22    1    1    2    0    0  0.10274658434E+02  0.10129654358E+02  0.66555079229E+02  0.68101079834E+02  0.00000000000E+00 0. -1.
</event>
<event>
 6    1  0.8017648E-006  0.1137273E+03  0.7818608E-02  0.1389234E+00
          2   -1    0    0  502    0  0.00000000000E+00  0.00000000000E+00  0.33403412414E+03  0.33403412414E+03  0.00000000000E+00 0. -1.
          1   -1    0    0  501    0 -0.00000000000E+00 -0.00000000000E+00 -0.10062400786E+03  0.10062400786E+03  0.00000000000E+00 0. -1.
          2    1    1    2  501    0 -0.15783177066E+01 -0.61656300297E+02  0.11084807447E+03  0.12685143305E+03  0.00000000000E+00 0. -1.
          1    1    1    2  502    0  0.28465348318E+02  0.96677399113E+02 -0.30967190220E+02  0.10543131615E+03  0.00000000000E+00 0. -1.
         22    1    1    2    0    0 -0.70906649348E+01  0.72050015170E+01 -0.20150103739E+02  0.22543652250E+02  0.00000000000E+00 0.  1.
         22    1    1    2    0    0 -0.19796365677E+02 -0.42226100333E+02  0.17367933577E+03  0.17983173056E+03  0.00000000000E+00 0.  1.
</event>
<event>
 6    1  0.8017648E-006  0.3755190E+02  0.7818608E-02  0.1584171E+00
          2   -1    0    0  502    0  0.00000000000E+00  0.00000000000E+00  0.81507423245E+03  0.81507423245E+03  0.00000000000E+00 0. -1.
          1   -1    0    0  501    0 -0.00000000000E+00 -0.00000000000E+00 -0.80803497124E+02  0.80803497124E+02  0.00000000000E+00 0. -1.
          2    1    1    2  501    0  0.18034332864E+02  0.32542742304E+02  0.90999680294E+02  0.98311795081E+02  0.00000000000E+00 0. -1.
          1    1    1    2  502    0 -0.11136859690E+02 -0.32940741594E+02  0.67085888255E+03  0.67175945278E+03  0.00000000000E+00 0. -1.
         22    1    1    2    0    0  0.91193073641E+01  0.88714253528E+01  0.47184639461E+02  0.48869767297E+02  0.00000000000E+00 0. -1.
         22    1    1    2    0    0 -0.16016780539E+02 -0.84734260626E+01 -0.74772466976E+02  0.76936714420E+02  0.00000000000E+00 0. -1.
</event>
<event>
 6    1  0.8017648E-006  0.2574087E+03  0.7818608E-02  0.1226250E+00
          2   -1    0    0  502    0  0.00000000000E+00  0.00000000000E+00  0.27842447670E+03  0.27842447670E+03  0.00000000000E+00 0. -1.
          1   -1    0    0  501    0 -0.00000000000E+00 -0.00000000000E+00 -0.38397030915E+03  0.38397030915E+03  0.00000000000E+00 0.  1.
          2    1    1    2  501    0 -0.99101206736E+02  0.15996983275E+03  0.96699971533E+02  0.21157098350E+03  0.00000000000E+00 0. -1.
          1    1    1    2  502    0  0.16789604336E+03 -0.18751323460E+03 -0.17291984288E+03  0.30537119475E+03  0.00000000000E+00 0.  1.
         22    1    1    2    0    0 -0.57172116383E+02  0.40181651043E+02  0.35507777076E+02  0.78383787897E+02  0.00000000000E+00 0. -1.
         22    1    1    2    0    0 -0.11622720243E+02 -0.12638249196E+02 -0.64833738178E+02  0.67068819691E+02  0.00000000000E+00 0.  1.
</event>
<event>
 6    1  0.8017648E-006  0.4238829E+02  0.7818608E-02  0.1533956E+00
          2   -1    0    0  502    0  0.00000000000E+00  0.00000000000E+00  0.64211872174E+02  0.64211872174E+02  0.00000000000E+00 0. -1.
          1   -1    0    0  501    0 -0.00000000000E+00 -0.00000000000E+00 -0.51025815763E+03  0.51025815763E+03  0.00000000000E+00 0. -1.
          2    1    1    2  501    0 -0.24987484458E+02 -0.12527400267E+01  0.24191317541E+02  0.34801775551E+02  0.00000000000E+00 0. -1.
          1    1    1    2  502    0  0.21240444297E+02  0.10654862570E+02 -0.38673082093E+03  0.38746020496E+03  0.00000000000E+00 0. -1.
         22    1    1    2    0    0 -0.15593789269E+02  0.45251521321E+01  0.31135258979E+02  0.35114777762E+02  0.00000000000E+00 0. -1.
         22    1    1    2    0    0  0.19340829430E+02 -0.13927274676E+02 -0.11464204105E+03  0.11709327154E+03  0.00000000000E+00 0. -1.
</event>
<event>
 6    1  0.8017648E-006  0.9505560E+02  0.7818608E-02  0.1293226E+00
          2   -1    0    0  502    0  0.00000000000E+00  0.00000000000E+00  0.10563712756E+03  0.10563712756E+03  0.00000000000E+00 0.  1.
          1   -1    0    0  501    0 -0.00000000000E+00 -0.00000000000E+00 -0.39139478740E+03  0.39139478740E+03  0.00000000000E+00 0.  1.
          2    1    1    2  501    0  0.88503800842E+02 -0.25150183543E+02  0.40980356033E+02  0.10072161673E+03  0.00000000000E+00 0.  1.
          1    1    1    2  502    0 -0.43792768298E+02 -0.48476525721E+02 -0.14265860320E+03  0.15690524901E+03  0.00000000000E+00 0.  1.
         22    1    1    2    0    0  0.95925328245E+01 -0.67545598261E+01  0.14348806442E+02  0.18534535622E+02  0.00000000000E+00 0.  1.
         22    1    1    2    0    0 -0.54303565369E+02  0.80381269090E+02 -0.19842821912E+03  0.22087051360E+03  0.00000000000E+00 0.  1.
</event>
<event>
 6    1  0.8017648E-006  0.5925566E+02  0.7818608E-02  0.1422580E+00
          2   -1    0    0  502    0  0.00000000000E+00  0.00000000000E+00  0.73654734999E+03  0.73654734999E+03  0.00000000000E+00 0. -1.
          1   -1    0    0  501    0 -0.00000000000E+00 -0.00000000000E+00 -0.14697600472E+03  0.14697600472E+03  0.00000000000E+00 0. -1.
          2    1    1    2  501    0 -0.36662945894E+02  0.14316070672E+02  0.52360796947E+03  0.52508516183E+03  0.00000000000E+00 0. -1.
          1    1    1    2  502    0  0.12010581895E+02 -0.38450221617E+02  0.17939344984E+03  0.18386050002E+03  0.00000000000E+00 0. -1.
         22    1    1    2    0    0  0.24413032402E+02  0.34589211642E+02 -0.13987407188E+03  0.14614091042E+03  0.00000000000E+00 0. -1.
         22    1    1    2    0    0  0.23933159702E+00 -0.10455060697E+02  0.26443997838E+02  0.28436782439E+02  0.00000000000E+00 0. -1.
</event>
<event>
 6    1  0.8017648E-006  0.2873221E+02  0.7818608E-02  0.1614734E+00
          2   -1    0    0  502    0  0.00000000000E+00  0.00000000000E+00  0.28911083139E+03  0.28911083139E+03  0.00000000000E+00 0. -1.
          1   -1    0    0  501    0 -0.00000000000E+00 -0.00000000000E+00 -0.74194779454E+02  0.74194779454E+02  0.00000000000E+00 0.  1.
          2    1    1    2  501    0 -0.22296692852E+02  0.40230496716E+02  0.18883795448E+03  0.19435896797E+03  0.00000000000E+00 0. -1.
          1    1    1    2  502    0  0.19750298117E+02 -0.33429775379E+02  0.22165165666E+02  0.44709268912E+02  0.00000000000E+00 0.  1.
         22    1    1    2    0    0  0.16230539106E+02  0.11305491997E+02 -0.56414732309E+02  0.59781824751E+02  0.00000000000E+00 0.  1.
         22    1    1    2    0    0 -0.13684144372E+02 -0.18106213334E+02  0.60327664098E+02  0.64455549210E+02  0.00000000000E+00 0. -1.
</event>
<event>
 6    1  0.8017648E-006  0.8075628E+02  0.7818608E-02  0.1349529E+00
          2   -1    0    0  502    0  0.00000000000E+00  0.00000000000E+00  0.84817925508E+02  0.84817925508E+02  0.00000000000E+00 0. -1.
          1   -1    0    0  501    0 -0.00000000000E+00 -0.00000000000E+00 -0.60603782223E+03  0.60603782223E+03  0.00000000000E+00 0. -1.
          2    1    1    2  501    0  0.21144859918E+02 -0.38269121926E+02  0.45052015704E+02  0.62779892585E+02  0.00000000000E+00 0. -1.
          1    1    1    2  502    0  0.41481528240E+01  0.10851874738E+03 -0.36087080093E+03  0.37685708255E+03  0.00000000000E+00 0. -1.
         22    1    1    2    0    0 -0.27817310102E+02 -0.60287662088E+02 -0.22198885882E+03  0.23170554240E+03  0.00000000000E+00 0. -1.
         22    1    1    2    0    0  0.25242973597E+01 -0.99619633626E+01  0.16587747327E+02  0.19513230194E+02  0.00000000000E+00 0.  1.
</event>
<event>
 6    1  0.8017648E-006  0.4891609E+02  0.7818608E-02  0.1544193E+00
          2   -1    0    0  502    0  0.00000000000E+00  0.00000000000E+00  0.64552164845E+03  0.64552164845E+03  0.00000000000E+00 0.  1.
          1   -1    0    0  501    0 -0.00000000000E+00 -0.00000000000E+00 -0.53747972861E+02  0.53747972861E+02  0.00000000000E+00 0.  1.
          2    1    1    2  501    0 -0.11230804221E+02  0.46700844238E+02  0.38705501067E+03  0.39002394939E+03  0.00000000000E+00 0.  1.
          1    1    1    2  502    0  0.39428306090E+02 -0.40187339816E+02 -0.12449923052E+02  0.57659467449E+02  0.00000000000E+00 0.  1.
         22    1    1    2    0    0  0.10772573864E+02  0.17834897458E+01 -0.13578609618E+02  0.17424345683E+02  0.00000000000E+00 0.  1.
         22    1    1    2    0    0 -0.38970075732E+02 -0.82969941684E+01  0.23074719759E+03  0.23416185879E+03  0.00000000000E+00 0.  1.
</event>
<event>
 6    1  0.8017648E-006  0.1277623E+03  0.7818608E-02  0.1257887E+00
          2   -1    0    0  502    0  0.00000000000E+00  0.00000000000E+00  0.16748163338E+03  0.16748163338E+03  0.00000000000E+00 0. -1.
          1   -1    0    0  501    0 -0.00000000000E+00 -0.00000000000E+00 -0.19223696967E+03  0.19223696967E+03  0.00000000000E+00 0. -1.
          2    1    1    2  501    0  0.23464644801E+02  0.13713540562E+02 -0.63052366647E+01  0.27899941931E+02  0.00000000000E+00 0. -1.
          1    1    1    2  502    0 -0.20690342121E+02 -0.13326256251E+03 -0.67416910074E+02  0.15077148466E+03  0.00000000000E+00 0. -1.
         22    1    1    2    0    0  0.20141231219E+02  0.11669318046E+03 -0.88901665136E+01  0.11875185313E+03  0.00000000000E+00 0. -1.
         22    1    1    2    0    0 -0.22915533899E+02  0.28558414859E+01  0.57856976963E+02  0.62295323322E+02  0.00000000000E+00 0.  1.
</event>
<event>
 6    1  0.8017648E-006  0.8898610E+02  0.7818608E-02  0.1335330E+00
          2   -1    0    0  502    0  0.00000000000E+00  0.00000000000E+00  0.18249736153E+03  0.18249736153E+03  0.00000000000E+00 0. -1.
          1   -1    0    0  501    0 -0.00000000000E+00 -0.00000000000E+00 -0.83229800951E+02  0.83229800951E+02  0.00000000000E+00 0. -1.
          2    1    1    2  501    0 -0.45079246666E+02  0.14654811799E+02  0.14607005255E+02  0.49601074498E+02  0.00000000000E+00 0. -1.
          1    1    1    2  502    0  0.63297664770E+02  0.22705563492E+02  0.36683863258E+02  0.76601845946E+02  0.00000000000E+00 0. -1.
         22    1    1    2    0    0 -0.57529582022E+02 -0.32155208824E+01  0.62955765589E+02  0.85342959892E+02  0.00000000000E+00 0. -1.
         22    1    1    2    0    0  0.39311163918E+02 -0.34144854409E+02 -0.14979073523E+02  0.54181282144E+02  0.00000000000E+00 0. -1.
</event>
<event>
 6    1  0.8017648E-006  0.3295678E+03  0.7818608E-02  0.1071784E+00
          2   -1    0    0  502    0  0.00000000000E+00  0.00000000000E+00  0.96922036093E+02  0.96922036093E+02  0.00000000000E+00 0.  1.
          1   -1    0    0  501    0 -0.00000000000E+00 -0.00000000000E+00 -0.14516138412E+04  0.14516138412E+04  0.00000000000E+00 0.  1.
          2    1    1    2  501    0  0.23314565014E+03  0.20241797673E+03 -0.29322332453E+03  0.42580494305E+03  0.00000000000E+00 0.  1.
          1    1    1    2  502    0 -0.14496988435E+03 -0.79599476108E+02 -0.52947495045E+03  0.55470358492E+03  0.00000000000E+00 0.  1.
         22    1    1    2    0    0  0.12409457206E+02  0.69431874605E+01 -0.35353650504E+01  0.14652688706E+02  0.00000000000E+00 0.  1.
         22    1    1    2    0    0 -0.10058522299E+03 -0.12976168808E+03 -0.52845816510E+03  0.55337466064E+03  0.00000000000E+00 0.  1.
</event>
<event>
 6    1  0.8017648E-006  0.5847816E+02  0.7818608E-02  0.1442199E+00
          2   -1    0    0  502    0  0.00000000000E+00  0.00000000000E+00  0.59145933658E+03  0.59145933658E+03  0.00000000000E+00 0. -1.
          1   -1    0    0  501    0 -0.00000000000E+00 -0.00000000000E+00 -0.33220565980E+02  0.33220565980E+02  0.00000000000E+00 0.  1.
          2    1    1    2  501    0 -0.22946038766E+02 -0.78723769388E+01  0.22687078837E+03  0.22816408488E+03  0.00000000000E+00 0. -1.
          1    1    1    2  502    0  0.77539469936E+02 -0.95332165479E+01  0.16773211980E+03  0.18503328249E+03  0.00000000000E+00 0.  1.
         22    1    1    2    0    0 -0.25583784500E+02  0.20442610417E+02 -0.10909087146E+02  0.34517220809E+02  0.00000000000E+00 0.  1.
         22    1    1    2    0    0 -0.29009646670E+02 -0.30370169307E+01  0.17454494957E+03  0.17696531438E+03  0.00000000000E+00 0. -1.
</event>
<event>
 6    1  0.8017648E-006  0.1905867E+02  0.7818608E-02  0.1803558E+00
          2   -1    0    0  502    0  0.00000000000E+00  0.00000000000E+00  0.87313522025E+02  0.87313522025E+02  0.00000000000E+00 0.  1.
          1   -1    0    0  501    0 -0.00000000000E+00 -0.00000000000E+00 -0.32667184004E+03  0.32667184004E+03  0.00000000000E+00 0. -1.
          2    1    1    2  501    0 -0.24022055227E+02  0.21276045985E+01  0.43629245320E+01  0.24507569221E+02  0.00000000000E+00 0.  1.
          1    1    1    2  502    0  0.42363599952E+01  0.21655797546E+02 -0.25774242690E+03  0.25868528937E+03  0.00000000000E+00 0. -1.
         22    1    1    2    0    0  0.71388605644E+01 -0.11019558286E+02  0.70402947827E+02  0.71616821053E+02  0.00000000000E+00 0.  1.
         22    1    1    2    0    0  0.12646834667E+02 -0.12763843859E+02 -0.56381763469E+02  0.59175682413E+02  0.00000000000E+00 0.  1.
</event>
<event>
 6    1  0.8017648E-006  0.1474887E+03  0.7818608E-02  0.1319627E+00
          2   -1    0    0  502    0  0.00000000000E+00  0.00000000000E+00  0.26508171505E+03  0.26508171505E+03  0.00000000000E+00 0.  1.
          1   -1    0    0  501    0 -0.00000000000E+00 -0.00000000000E+00 -0.11525540012E+03  0.11525540012E+03  0.00000000000E+00 0.  1.
          2    1    1    2  501    0  0.35095093769E+02 -0.41610877869E+02  0.29115094715E+02  0.61731835417E+02  0.00000000000E+00 0.  1.
          1    1    1    2  502    0 -0.13069561351E+02  0.13431575498E+03  0.43518231422E+02  0.14179341288E+03  0.00000000000E+00 0.  1.
         22    1    1    2    0    0 -0.84320357448E+01 -0.86150262631E+02  0.11042772948E+03  0.14031126261E+03  0.00000000000E+00 0.  1.
         22    1    1    2    0    0 -0.13593496673E+02 -0.65546144787E+01 -0.33234740688E+02  0.36500604261E+02  0.00000000000E+00 0.  1.
</event>
<event>
 6    1  0.8017648E-006  0.1251725E+03  0.7818608E-02  0.1333829E+00
          2   -1    0    0  502    0  0.00000000000E+00  0.00000000000E+00  0.50149084632E+03  0.50149084632E+03  0.00000000000E+00 0.  1.
          1   -1    0    0  501    0 -0.00000000000E+00 -0.00000000000E+00 -0.92800687077E+02  0.92800687077E+02  0.00000000000E+00 0. -1.
          2    1    1    2  501    0  0.54467571553E+02 -0.77815727567E+02  0.32594254749E+03  0.33950043898E+03  0.00000000000E+00 0.  1.
          1    1    1    2  502    0 -0.36782487835E+02  0.94413558053E+02 -0.64886721036E+01  0.10153311884E+03  0.00000000000E+00 0. -1.
         22    1    1    2    0    0 -0.63214428994E+01 -0.32079694382E+02  0.11588552061E+03  0.12040980574E+03  0.00000000000E+00 0.  1.
         22    1    1    2    0    0 -0.11363640818E+02  0.15481863896E+02 -0.26649236747E+02  0.32848169835E+02  0.00000000000E+00 0. -1.
</event>
<event>
 6    1  0.8017648E-006  0.1195722E+03  0.7818608E-02  0.1284665E+00
          2   -1    0    0  502    0  0.00000000000E+00  0.00000000000E+00  0.76555137234E+03  0.76555137234E+03  0.00000000000E+00 0. -1.
          1   -1    0    0  501    0 -0.00000000000E+00 -0.00000000000E+00 -0.43212620507E+03  0.43212620507E+03  0.00000000000E+00 0. -1.
          2    1    1    2  501    0  0.18507596033E+02 -0.22513798015E+03 -0.23910020799E+03  0.32893548103E+03  0.00000000000E+00 0. -1.
          1    1    1    2  502    0 -0.70924417508E+02  0.19950027008E+03  0.67052105966E+03  0.70315654175E+03  0.00000000000E+00 0. -1.
         22    1    1    2    0    0  0.60821993637E+02 -0.38986899646E+00 -0.11728397380E+03  0.13211736229E+03  0.00000000000E+00 0. -1.
         22    1    1    2    0    0 -0.84051721617E+01  0.26027579068E+02  0.19288289401E+02  0.33468192350E+02  0.00000000000E+00 0.  1.
</event>
<event>
 6    1  0.8017648E-006  0.8844622E+02  0.7818608E-02  0.1371311E+00
          2   -1    0    0  502    0  0.00000000000E+00  0.00000000000E+00  0.18283742893E+03  0.18283742893E+03  0.00000000000E+00 0. -1.
          1   -1    0    0  501    0 -0.00000000000E+00 -0.00000000000E+00 -0.22175398333E+03  0.22175398333E+03  0.00000000000E+00 0. -1.
          2    1    1    2  501    0  0.31696804534E+02 -0.81157853397E+02  0.35770760843E+02  0.94185093921E+02  0.00000000000E+00 0. -1.
          1    1    1    2  502    0  0.85750147649E+02  0.60383343342E+02  0.31402487512E+02  0.10947763332E+03  0.00000000000E+00 0. -1.
         22    1    1    2    0    0 -0.28629009689E+02  0.29986408907E+01  0.27312543311E+02  0.39681066834E+02  0.00000000000E+00 0. -1.
         22    1    1    2    0    0 -0.88817942494E+02  0.17775869164E+02 -0.13340234607E+03  0.16124761818E+03  0.00000000000E+00 0. -1.
</event>
<event>
 6    1  0.8017648E-006  0.8908964E+02  0.7818608E-02  0.1318625E+00
          2   -1    0    0  502    0  0.00000000000E+00  0.00000000000E+00  0.40136671166E+02  0.40136671166E+02  0.00000000000E+00 0. -1.
          1   -1    0    0  501    0 -0.00000000000E+00 -0.00000000000E+00 -0.41328953364E+03  0.41328953364E+03  0.00000000000E+00 0. -1.
          2    1    1    2  501    0  0.28159892486E+02  0.34531604247E+02 -0.10891632954E+03  0.11767828210E+03  0.00000000000E+00 0. -1.
          1    1    1    2  502    0  0.58314217509E+01 -0.25658093551E+02  0.12194514041E+02  0.29000852005E+02  0.00000000000E+00 0. -1.
         22    1    1    2    0    0  0.25215552184E+02 -0.45673111538E+02 -0.60737676006E+02  0.80068236375E+02  0.00000000000E+00 0. -1.
         22    1    1    2    0    0 -0.59206866421E+02  0.36799600842E+02 -0.21569337097E+03  0.22667883433E+03  0.00000000000E+00 0. -1.
</event>
<event>
 6    1  0.8017648E-006  0.9806660E+02  0.7818608E-02  0.1294251E+00
          2   -1    0    0  502    0  0.00000000000E+00  0.00000000000E+00  0.10958325889E+03  0.10958325889E+03  0.00000000000E+00 0. -1.
          1   -1    0    0  501    0 -0.00000000000E+00 -0.00000000000E+00 -0.33776145662E+03  0.33776145662E+03  0.00000000000E+00 0. -1.
          2    1    1    2  501    0 -0.63980306141E+02  0.71943373342E+02  0.23333711813E+02  0.99064578174E+02  0.00000000000E+00 0. -1.
          1    1    1    2  502    0  0.83669014031E+02 -0.11964229798E+02 -0.38957258900E+02  0.93066184647E+02  0.00000000000E+00 0. -1.
         22    1    1    2    0    0 -0.49136088910E+01  0.20221413667E+02  0.62320222454E+01  0.21722965366E+02  0.00000000000E+00 0. -1.
         22    1    1    2    0    0 -0.14775098999E+02 -0.80200557211E+02 -0.21878667289E+03  0.23349098732E+03  0.00000000000E+00 0. -1.
</event>
<event>
 6    1  0.8017648E-006  0.5775631E+02  0.7818608E-02  0.1525390E+00
          2   -1    0    0  502    0  0.00000000000E+00  0.00000000000E+00  0.17917140921E+03  0.17917140921E+03  0.00000000000E+00 0. -1.
          1   -1    0    0  501    0 -0.00000000000E+00 -0.00000000000E+00 -0.46994683393E+02  0.46994683393E+02  0.00000000000E+00 0.  1.
          2    1    1    2  501    0  0.19977960356E+02  0.66536765238E+01  0.26830009890E+02  0.34106300619E+02  0.00000000000E+00 0. -1.
          1    1    1    2  502    0 -0.18004281480E+02 -0.27286228593E+02  0.46592006108E+01  0.33021213981E+02  0.00000000000E+00 0.  1.
         22    1    1    2    0    0  0.58997135676E+01 -0.87456909095E+01 -0.26364454359E+02  0.28396798822E+02  0.00000000000E+00 0.  1.
         22    1    1    2    0    0 -0.78733924432E+01  0.29378242979E+02  0.12705196967E+03  0.13064177918E+03  0.00000000000E+00 0. -1.
</event>
<event>
 6    1  0.8017648E-006  0.2540718E+03  0.7818608E-02  0.1200831E+00
          2   -1    0    0  502    0  0.00000000000E+00  0.00000000000E+00  0.10578980284E+04  0.10578980284E+04  0.00000000000E+00 0. -1.
          1   -1    0    0  501    0 -0.00000000000E+00 -0.00000000000E+00 -0.86267966286E+02  0.86267966286E+02  0.00000000000E+00 0.  1.
          2    1    1    2  501    0  0.19148129474E+03  0.90582510194E+01  0.57722455174E+03  0.60822308513E+03  0.00000000000E+00 0. -1.
          1    1    1    2  502    0 -0.22857358178E+03 -0.35273029800E+02  0.25819642043E+03  0.34663447671E+03  0.00000000000E+00 0.  1.
         22    1    1    2    0    0  0.66556175948E+02  0.17850831484E+02  0.14227636557E+03  0.15808523315E+03  0.00000000000E+00 0.  1.
         22    1    1    2    0    0 -0.29463888910E+02  0.83639472967E+01 -0.60672756489E+01  0.31223199674E+02  0.00000000000E+00 0.  1.
</event>
<event>
 6    1  0.8017648E-006  0.5746312E+02  0.7818608E-02  0.1469701E+00
          2   -1    0    0  502    0  0.00000000000E+00  0.00000000000E+00  0.35345739855E+03  0.35345739855E+03  0.00000000000E+00 0.  1.
          1   -1    0    0  501    0 -0.00000000000E+00 -0.00000000000E+00 -0.60845554302E+02  0.60845554302E+02  0.00000000000E+00 0.  1.
          2    1    1    2  501    0  0.78639770995E+02  0.45283072360E+01  0.10903321851E+03  0.13451008098E+03  0.00000000000E+00 0.  1.
          1    1    1    2  502    0 -0.80351396385E+02  0.21804059023E+02  0.81998113021E+02  0.11685655493E+03  0.00000000000E+00 0.  1.
         22    1    1    2    0    0  0.91463123816E+00 -0.42836685455E+02  0.12620606732E+03  0.13328086734E+03  0.00000000000E+00 0.  1.
         22    1    1    2    0    0  0.79699415190E+00  0.16504319196E+02 -0.24625554596E+02  0.29655449600E+02  0.00000000000E+00 0.  1.
</event>
<event>
 6    1  0.8017648E-006  0.9848514E+02  0.7818608E-02  0.1342909E+00
          2   -1    0    0  502    0  0.00000000000E+00  0.00000000000E+00  0.14145953568E+03  0.14145953568E+03  0.00000000000E+00 0. -1.
          1   -1    0    0  501    0 -0.00000000000E+00 -0.00000000000E+00 -0.28209939402E+03  0.28209939402E+03  0.00000000000E+00 0. -1.
          2    1    1    2  501    0  0.47628889792E+02 -0.56282986407E+02  0.23929900228E+02  0.77517261475E+02  0.00000000000E+00 0. -1.
          1    1    1    2  502    0 -0.44662432248E+02  0.69786253997E+02 -0.20212763498E+03  0.21845007422E+03  0.00000000000E+00 0. -1.
         22    1    1    2    0    0 -0.22016611614E+01 -0.33604956748E+02  0.76597569221E+02  0.83673938837E+02  0.00000000000E+00 0. -1.
         22    1    1    2    0    0 -0.76479638206E+00  0.20101689158E+02 -0.39039692808E+02  0.43917655164E+02  0.00000000000E+00 0.  1.
</event>
<event>
 6    1  0.8017648E-006  0.1007008E+03  0.7818608E-02  0.1361782E+00
          2   -1    0    0  502    0  0.00000000000E+00  0.00000000000E+00  0.89302649101E+02  0.89302649101E+02  0.00000000000E+00 0.  1.
          1   -1    0    0  501    0 -0.00000000000E+00 -0.00000000000E+00 -0.17193998232E+03  0.17193998232E+03  0.00000000000E+00 0.  1.
          2    1    1    2  501    0 -0.14758382889E+02  0.22041176336E+02 -0.22980154387E+02  0.35095737853E+02  0.00000000000E+00 0.  1.
          1    1    1    2  502    0  0.55846121636E+02 -0.62822564113E+02 -0.13729631886E+02  0.85170221646E+02  0.00000000000E+00 0.  1.
         22    1    1    2    0    0 -0.57394325988E+02  0.24767401695E+02  0.24342939763E+02  0.67082870828E+02  0.00000000000E+00 0.  1.
         22    1    1    2    0    0  0.16306587241E+02  0.16013986082E+02 -0.70270486704E+02  0.73893801089E+02  0.00000000000E+00 0.  1.
</event>
<event>
 6    1  0.8017648E-006  0.1059070E+03  0.7818608E-02  0.1269038E+00
          2   -1    0    0  502    0  0.00000000000E+00  0.00000000000E+00  0.91870845022E+03  0.91870845022E+03  0.00000000000E+00 0.  1.
          1   -1    0    0  501    0 -0.00000000000E+00 -0.00000000000E+00 -0.35693348687E+02  0.35693348687E+02  0.00000000000E+00 0.  1.
          2    1    1    2  501    0 -0.60870596789E+02 -0.26398249319E+02  0.63276534307E+03  0.63623429373E+03  0.00000000000E+00 0.  1.
          1    1    1    2  502    0  0.55319016668E+02  0.18858693090E+02  0.38402059329E+02  0.69932553727E+02  0.00000000000E+00 0.  1.
         22    1    1    2    0    0 -0.31302403538E+02 -0.17889333839E+02  0.19816129781E+03  0.20141442024E+03  0.00000000000E+00 0. -1.
         22    1    1    2    0    0  0.36853983659E+02  0.25428890068E+02  0.13686401323E+02  0.46820531210E+02  0.00000000000E+00 0.  1.
</event>
<event>
 6    1  0.8017648E-006  0.1095399E+03  0.7818608E-02  0.1342896E+00
          2   -1    0    0  502    0  0.00000000000E+00  0.00000000000E+00  0.19458035366E+04  0.19458035366E+04  0.00000000000E+00 0. -1.
          1   -1    0    0  501    0 -0.00000000000E+00 -0.00000000000E+00 -0.33387474272E+02  0.33387474272E+02  0.00000000000E+00 0.  1.
          2    1    1    2  501    0  0.29074081343E+02  0.12692871683E+02  0.13479960356E+04  0.13483692830E+04  0.00000000000E+00 0. -1.
          1    1    1    2  502    0 -0.10493229533E+02 -0.41583537307E+02  0.47315432466E+03  0.47509400479E+03  0.00000000000E+00 0.  1.
         22    1    1    2    0    0  0.58503359079E+01  0.30447389100E+02  0.11650878742E+03  0.12056354126E+03  0.00000000000E+00 0.  1.
         22    1    1    2    0    0 -0.24431187718E+02 -0.15567234763E+01 -0.25243085421E+02  0.35164181817E+02  0.00000000000E+00 0.  1.
</event>
<event>
 6    1  0.8017648E-006  0.9091575E+02  0.7818608E-02  0.1413345E+00
          2   -1    0    0  502    0  0.00000000000E+00  0.00000000000E+00  0.60060364851E+03  0.60060364851E+03  0.00000000000E+00 0.  1.
          1   -1    0    0  501    0 -0.00000000000E+00 -0.00000000000E+00 -0.36398644414E+02  0.36398644414E+02  0.00000000000E+00 0. -1.
          2    1    1    2  501    0  0.18420381260E+02  0.92972781283E+01  0.27459442506E+03  0.27536856774E+03  0.00000000000E+00 0.  1.
          1    1    1    2  502    0 -0.51170049137E+02  0.50549125381E+02  0.74011426840E+02  0.10320503529E+03  0.00000000000E+00 0. -1.
         22    1    1    2    0    0 -0.18952915858E+01 -0.13383036583E+02 -0.15271650310E+02  0.20394143806E+02  0.00000000000E+00 0. -1.
         22    1    1    2    0    0  0.34644959463E+02 -0.46463366926E+02  0.23087080251E+03  0.23803454609E+03  0.00000000000E+00 0.  1.
</event>
<event>
 6    1  0.8017648E-006  0.9602746E+02  0.7818608E-02  0.1289804E+00
          2   -1    0    0  502    0  0.00000000000E+00  0.00000000000E+00  0.26341135679E+03  0.26341135679E+03  0.00000000000E+00 0. -1.
          1   -1    0    0  501    0 -0.00000000000E+00 -0.00000000000E+00 -0.15770268347E+03  0.15770268347E+03  0.00000000000E+00 0.  1.
          2    1    1    2  501    0  0.30142079284E+02 -0.66565516381E+02  0.16370326179E+03  0.17927150035E+03  0.00000000000E+00 0. -1.
          1    1    1    2  502    0 -0.42732660168E+02  0.57677821878E+02 -0.82265436873E+02  0.10918064611E+03  0.00000000000E+00 0.  1.
         22    1    1    2    0    0  0.15083377413E+02 -0.11775419287E+02  0.75225152194E+02  0.77620823857E+02  0.00000000000E+00 0. -1.
         22    1    1    2    0    0 -0.24927965289E+01  0.20663113791E+02 -0.50954303796E+02  0.55041069951E+02  0.00000000000E+00 0. -1.
</event>
<event>
 6    1  0.8017648E-006  0.1022003E+03  0.7818608E-02  0.1359264E+00
          2   -1    0    0  502    0  0.00000000000E+00  0.00000000000E+00  0.31216918551E+03  0.31216918551E+03  0.00000000000E+00 0.  1.
          1   -1    0    0  501    0 -0.00000000000E+00 -0.00000000000E+00 -0.13398772851E+03  0.13398772851E+03  0.00000000000E+00 0. -1.
          2    1    1    2  501    0 -0.38238438439E+02  0.64544511807E+02  0.14282969495E+03  0.16133348672E+03  0.00000000000E+00 0.  1.
          1    1    1    2  502    0  0.16637770246E+02 -0.86473600453E+02  0.10314152941E+03  0.13561959321E+03  0.00000000000E+00 0. -1.
         22    1    1    2    0    0  0.20559895249E+02 -0.98739938765E+01 -0.10080351736E+03  0.10335160453E+03  0.00000000000E+00 0. -1.
         22    1    1    2    0    0  0.10407729436E+01  0.31803082522E+02  0.33013749996E+02  0.45852229554E+02  0.00000000000E+00 0.  1.
</event>
<event>
 6    1  0.8017648E-006  0.1263122E+03  0.7818608E-02  0.1360627E+00
          2   -1    0    0  502    0  0.00000000000E+00  0.00000000000E+00  0.37248655042E+03  0.37248655042E+03  0.00000000000E+00 0. -1.
          1   -1    0    0  501    0 -0.00000000000E+00 -0.00000000000E+00 -0.10287049120E+03  0.10287049120E+03  0.00000000000E+00 0. -1.
          2    1    1    2  501    0 -0.42204943033E+02 -0.51982378831E+02  0.13114475141E+03  0.14724934889E+03  0.00000000000E+00 0. -1.
          1    1    1    2  502    0  0.81505084030E+02  0.77083998006E+02 -0.26517439040E+02  0.11527443795E+03  0.00000000000E+00 0. -1.
         22    1    1    2    0    0  0.11603556242E+02  0.21858260614E+01 -0.17674902028E+02  0.21256117113E+02  0.00000000000E+00 0.  1.
         22    1    1    2    0    0 -0.50903697239E+02 -0.27287445236E+02  0.18266364887E+03  0.19157713768E+03  0.00000000000E+00 0. -1.
</event>
<event>
 6    1  0.8017648E-006  0.6635650E+02  0.7818608E-02  0.1426108E+00
          2   -1    0    0  502    0  0.00000000000E+00  0.00000000000E+00  0.16905330487E+03  0.16905330487E+03  0.00000000000E+00 0. -1.
          1   -1    0    0  501    0 -0.00000000000E+00 -0.00000000000E+00 -0.98884121562E+02  0.98884121562E+02  0.00000000000E+00 0. -1.
          2    1    1    2  501    0  0.46346081836E+02 -0.24862136367E+02  0.98285483580E+02  0.11147251414E+03  0.00000000000E+00 0. -1.
          1    1    1    2  502    0 -0.16096221354E+02  0.14729578617E+02 -0.40596654484E+01  0.22193010424E+02  0.00000000000E+00 0. -1.
         22    1    1    2    0    0 -0.27425183100E+02 -0.79896278698E+01 -0.74931631989E+02  0.80191796925E+02  0.00000000000E+00 0. -1.
         22    1    1    2    0    0 -0.28246773819E+01  0.18122185619E+02  0.50874997166E+02  0.54080104942E+02  0.00000000000E+00 0. -1.
</event>
<event>
 6    1  0.8017648E-006  0.1984410E+03  0.7818608E-02  0.1227826E+00
          2   -1    0    0  502    0  0.00000000000E+00  0.00000000000E+00  0.74085898572E+02  0.74085898572E+02  0.00000000000E+00 0. -1.
          1   -1    0    0  501    0 -0.00000000000E+00 -0.00000000000E+00 -0.90553014025E+03  0.90553014025E+03  0.00000000000E+00 0. -1.
          2    1    1    2  501    0 -0.99305443649E+00 -0.53422040707E+02 -0.13136673340E+03  0.14181720359E+03  0.00000000000E+00 0. -1.
          1    1    1    2  502    0 -0.32686447148E+02  0.62971745126E+02 -0.70123472458E+03  0.70481485758E+03  0.00000000000E+00 0. -1.
         22    1    1    2    0    0 -0.12730962725E+02 -0.33961753851E+02 -0.48635817497E+02  0.60670593208E+02  0.00000000000E+00 0.  1.
         22    1    1    2    0    0  0.46410464310E+02  0.24412049432E+02  0.49793033797E+02  0.72313384443E+02  0.00000000000E+00 0. -1.
</event>
<event>
 6    1  0.8017648E-006  0.1117461E+03  0.7818608E-02  0.1333304E+00
          2   -1    0    0  502    0  0.00000000000E+00  0.00000000000E+00  0.18404755308E+03  0.18404755308E+03  0.00000000000E+00 0. -1.
          1   -1    0    0  501    0 -0.00000000000E+00 -0.00000000000E+00 -0.17624206700E+03  0.17624206700E+03  0.00000000000E+00 0. -1.
          2    1    1    2  501    0  0.54996879299E+01  0.25918078428E+02  0.13121346673E+02  0.29566249259E+02  0.00000000000E+00 0. -1.
          1    1    1    2  502    0 -0.78007591084E+02  0.27155411612E+02 -0.11375154257E+03  0.14057743092E+03  0.00000000000E+00 0. -1.
         22    1    1    2    0    0 -0.17192658293E+01 -0.27187224089E+02 -0.23888553316E+02  0.36232085342E+02  0.00000000000E+00 0. -1.
         22    1    1    2    0    0  0.74227168983E+02 -0.25886265952E+02  0.13232423529E+03  0.15391385456E+03  0.00000000000E+00 0. -1.
</event>
<event>
 6    1  0.8017648E-006  0.2503842E+03  0.7818608E-02  0.1235917E+00
          2   -1    0    0  502    0  0.00000000000E+00  0.00000000000E+00  0.10675635452E+04  0.10675635452E+04  0.00000000000E+00 0. -1.
          1   -1    0    0  501    0 -0.00000000000E+00 -0.00000000000E+00 -0.93317879864E+02  0.93317879864E+02  0.00000000000E+00 0. -1.
          2    1    1    2  501    0 -0.11569162548E+03 -0.17984759882E+03  0.61655772319E+03  0.65258956246E+03  0.00000000000E+00 0. -1.
          1    1    1    2  502    0  0.11418626815E+03  0.20744672825E+03  0.22717882823E+03  0.32815068016E+03  0.00000000000E+00 0. -1.
         22    1    1    2    0    0  0.10659210814E+02  0.10956172194E+02 -0.19619194121E+02  0.24871052697E+02  0.00000000000E+00 0.  1.
         22    1    1    2    0    0 -0.91538534924E+01 -0.38555301620E+02  0.15012830801E+03  0.15527012972E+03  0.00000000000E+00 0. -1.
</event>
<event>
 6    1  0.8017648E-006  0.2285469E+03  0.7818608E-02  0.1186954E+00
          2   -1    0    0  502    0  0.00000000000E+00  0.00000000000E+00  0.42400202590E+03  0.42400202590E+03  0.00000000000E+00 0. -1.
          1   -1    0    0  501    0 -0.00000000000E+00 -0.00000000000E+00 -0.20910344105E+03  0.20910344105E+03  0.00000000000E+00 0. -1.
          2    1    1    2  501    0  0.58404537756E+02  0.71789169573E+02 -0.62496143704E+02  0.11167158491E+03  0.00000000000E+00 0. -1.
          1    1    1    2  502    0 -0.15492389242E+03 -0.14347863938E+03  0.27546373869E+03  0.34708472126E+03  0.00000000000E+00 0. -1.
         22    1    1    2    0    0 -0.18819847894E+02  0.53868429850E+02  0.72506636962E+01  0.57520140240E+02  0.00000000000E+00 0. -1.
         22    1    1    2    0    0  0.11533920256E+03  0.17821039955E+02 -0.53196738362E+01  0.11682902054E+03  0.00000000000E+00 0. -1.
</event>
<event>
 6    1  0.8017648E-006  0.1089498E+03  0.7818608E-02  0.1265118E+00
          2   -1    0    0  502    0  0.00000000000E+00  0.00000000000E+00  0.38619723029E+03  0.38619723029E+03  0.00000000000E+00 0.  1.
          1   -1    0    0  501    0 -0.00000000000E+00 -0.00000000000E+00 -0.72119290065E+02  0.72119290065E+02  0.00000000000E+00 0.  1.
          2    1    1    2  501    0 -0.25827229931E+02  0.14183791957E+02  0.10443401121E+03  0.10851123655E+03  0.00000000000E+00 0.  1.
          1    1    1    2  502    0  0.35676746513E+02 -0.81000775984E+02 -0.91619385855E+01  0.88982566104E+02  0.00000000000E+00 0.  1.
         22    1    1    2    0    0  0.10811636788E+01 -0.11538797205E+02 -0.12090824620E+02  0.16748157983E+02  0.00000000000E+00 0.  1.
         22    1    1    2    0    0 -0.10930680261E+02  0.78355781232E+02  0.23089669222E+03  0.24407455972E+03  0.00000000000E+00 0.  1.
</event>
<event>
 6    1  0.8017648E-006  0.9438884E+02  0.7818608E-02  0.1330197E+00
          2   -1    0    0  502    0  0.00000000000E+00  0.00000000000E+00  0.95325282482E+02  0.95325282482E+02  0.00000000000E+00 0. -1.
          1   -1    0    0  501    0 -0.00000000000E+00 -0.00000000000E+00 -0.42612108548E+03  0.42612108548E+03  0.00000000000E+00 0.  1.
          2    1    1    2  501    0  0.29278610010E+02  0.57110119039E+02  0.28302317214E+02  0.70141456076E+02  0.00000000000E+00 0. -1.
          1    1    1    2  502    0 -0.23484908551E+02 -0.11074105693E+03 -0.74015560803E+02  0.13525319168E+03  0.00000000000E+00 0.  1.
         22    1    1    2    0    0 -0.26239371004E+02  0.39876796750E+02 -0.28736685323E+03  0.29130460320E+03  0.00000000000E+00 0.  1.
         22    1    1    2    0    0  0.20445669544E+02  0.13754141142E+02  0.22842938200E+01  0.24747117003E+02  0.00000000000E+00 0. -1.
</event>
<event>
 6    1  0.8017648E-006  0.8709515E+02  0.7818608E-02  0.1421061E+00
          2   -1    0    0  502    0  0.00000000000E+00  0.00000000000E+00  0.22660587239E+03  0.22660587239E+03  0.00000000000E+00 0. -1.
          1   -1    0    0  501    0 -0.00000000000E+00 -0.00000000000E+00 -0.56833424187E+02  0.56833424187E+02  0.00000000000E+00 0. -1.
          2    1    1    2  501    0  0.20603625900E+02 -0.16937228414E+02  0.21977439184E+02  0.34559903640E+02  0.00000000000E+00 0. -1.
          1    1    1    2  502    0  0.93085050216E+01  0.33678716023E+02 -0.17471790435E+02  0.39066195613E+02  0.00000000000E+00 0. -1.
         22    1    1    2    0    0  0.73635042746E+01  0.11490400039E+02 -0.16910519209E+02  0.21730534926E+02  0.00000000000E+00 0.  1.
         22    1    1    2    0    0 -0.37275635196E+02 -0.28231887648E+02  0.18217731866E+03  0.18808266240E+03  0.00000000000E+00 0. -1.
</event>
<event>
 6    1  0.8017648E-006  0.3269160E+03  0.7818608E-02  0.1130083E+00
          2   -1    0    0  502    0  0.00000000000E+00  0.00000000000E+00  0.80265892871E+03  0.80265892871E+03  0.00000000000E+00 0. -1.
          1   -1    0    0  501    0 -0.00000000000E+00 -0.00000000000E+00 -0.26845155333E+03  0.26845155333E+03  0.00000000000E+00 0.  1.
          2    1    1    2  501    0  0.24322906757E+03 -0.14062966746E+03  0.33235327431E+03  0.43519625645E+03  0.00000000000E+00 0. -1.
          1    1    1    2  502    0 -0.32455331601E+03  0.17953202809E+03  0.27490725054E+03  0.46167152874E+03  0.00000000000E+00 0.  1.
         22    1    1    2    0    0  0.64348195513E+02 -0.35685494236E+02 -0.11064075276E+03  0.13287407925E+03  0.00000000000E+00 0.  1.
         22    1    1    2    0    0  0.16976052922E+02 -0.32168663909E+01  0.37587603278E+02  0.41368617603E+02  0.00000000000E+00 0.  1.
</event>
<event>
 6    1  0.8017648E-006  0.4052660E+02  0.7818608E-02  0.1548805E+00
          2   -1    0    0  502    0  0.00000000000E+00  0.00000000000E+00  0.30135583346E+03  0.30135583346E+03  0.00000000000E+00 0. -1.
          1   -1    0    0  501    0 -0.00000000000E+00 -0.00000000000E+00 -0.48687321784E+02  0.48687321784E+02  0.00000000000E+00 0. -1.
          2    1    1    2  501    0  0.23552615011E+02 -0.29991277706E+02  0.83098967484E+02  0.91431071355E+02  0.00000000000E+00 0. -1.
          1    1    1    2  502    0 -0.36478975898E+02  0.38159801508E+02  0.86042036203E+01  0.53487554194E+02  0.00000000000E+00 0. -1.
         22    1    1    2    0    0  0.21394062647E+02 -0.22796525227E+02  0.17823734268E+03  0.18095838694E+03  0.00000000000E+00 0. -1.
         22    1    1    2    0    0 -0.84677017599E+01  0.14628001425E+02 -0.17272002108E+02  0.24166142754E+02  0.00000000000E+00 0. -1.
</event>
<event>
 6    1  0.8017648E-006  0.1105595E+03  0.7818608E-02  0.1390975E+00
          2   -1    0    0  502    0  0.00000000000E+00  0.00000000000E+00  0.26097323814E+03  0.26097323814E+03  0.00000000000E+00 0. -1.
          1   -1    0    0  501    0 -0.00000000000E+00 -0.00000000000E+00 -0.36418194762E+03  0.36418194762E+03  0.00000000000E+00 0. -1.
          2    1    1    2  501    0  0.31858273817E+00  0.64411897050E+02  0.11285304816E+03  0.12994154246E+03  0.00000000000E+00 0. -1.
          1    1    1    2  502    0 -0.32355047566E+02 -0.96875043934E+02 -0.31443926070E+03  0.33061105836E+03  0.00000000000E+00 0. -1.
         22    1    1    2    0    0  0.96228613929E+01 -0.46775272779E+01 -0.28538226296E+02  0.30478009826E+02  0.00000000000E+00 0. -1.
         22    1    1    2    0    0  0.22413603435E+02  0.37140674162E+02  0.12691572935E+03  0.13412457513E+03  0.00000000000E+00 0. -1.
</event>
<event>
 6    1  0.8017648E-006  0.8326509E+02  0.7818608E-02  0.1339156E+00
          2   -1    0    0  502    0  0.00000000000E+00  0.00000000000E+00  0.13899675324E+04  0.13899675324E+04  0.00000000000E+00 0. -1.
          1   -1    0    0  501    0 -0.00000000000E+00 -0.00000000000E+00 -0.14822427808E+03  0.14822427808E+03  0.00000000000E+00 0. -1.
          2    1    1    2  501    0 -0.26749676522E+03 -0.15191476790E+03  0.94570657298E+03  0.99448154245E+03  0.00000000000E+00 0. -1.
          1    1    1    2  502    0  0.28588833701E+03  0.15754756358E+03  0.19840588411E+03  0.38199250108E+03  0.00000000000E+00 0. -1.
         22    1    1    2    0    0 -0.19464149655E+02  0.98704118356E+01  0.12680150057E+03  0.12866584122E+03  0.00000000000E+00 0.  1.
         22    1    1    2    0    0  0.10725778605E+01 -0.15503207518E+02 -0.29170703297E+02  0.33051925775E+02  0.00000000000E+00 0.  1.
</event>
<event>
 6    1  0.8017648E-006  0.2793128E+03  0.7818608E-02  0.1135773E+00
          2   -1    0    0  502    0  0.00000000000E+00  0.00000000000E+00  0.21332207349E+04  0.21332207349E+04  0.00000000000E+00 0. -1.
          1   -1    0    0  501    0 -0.00000000000E+00 -0.00000000000E+00 -0.18181956126E+03  0.18181956126E+03  0.00000000000E+00 0. -1.
          2    1    1    2  501    0 -0.21942885743E+03  0.26285986087E+02 -0.65011004084E+02  0.23036147071E+03  0.00000000000E+00 0. -1.
          1    1    1    2  502    0  0.23258306487E+03  0.39096081823E+02  0.18508682416E+04  0.18658340316E+04  0.00000000000E+00 0. -1.
         22    1    1    2    0    0  0.67240634683E+01  0.35343909356E+02  0.21355079732E+02  0.41838312448E+02  0.00000000000E+00 0. -1.
         22    1    1    2    0    0 -0.19878270909E+02 -0.10072597727E+03  0.14418885637E+03  0.17700648138E+03  0.00000000000E+00 0. -1.
</event>
<event>
 6    1  0.8017648E-006  0.3532466E+02  0.7818608E-02  0.1573957E+00
          2   -1    0    0  502    0  0.00000000000E+00  0.00000000000E+00  0.28047591820E+03  0.28047591820E+03  0.00000000000E+00 0. -1.
          1   -1    0    0  501    0 -0.00000000000E+00 -0.00000000000E+00 -0.98299962248E+02  0.98299962248E+02  0.00000000000E+00 0. -1.
          2    1    1    2  501    0  0.53616543207E+02  0.72999222088E+00 -0.31089479106E+02  0.61982435457E+02  0.00000000000E+00 0. -1.
          1    1    1    2  502    0 -0.71834529344E+01  0.27294476771E+02  0.17677748999E+03  0.17901639988E+03  0.00000000000E+00 0. -1.
         22    1    1    2    0    0 -0.24697523848E+02 -0.18679107715E+00 -0.43677200961E+02  0.50176692387E+02  0.00000000000E+00 0. -1.
         22    1    1    2    0    0 -0.21735566424E+02 -0.27837677915E+02  0.80165146031E+02  0.87600352726E+02  0.00000000000E+00 0. -1.
</event>
<event>
 6    1  0.8017648E-006  0.2806826E+03  0.7818608E-02  0.1205842E+00
          2   -1    0    0  502    0  0.00000000000E+00  0.00000000000E+00  0.17873683908E+03  0.17873683908E+03  0.00000000000E+00 0.  1.
          1   -1    0    0  501    0 -0.00000000000E+00 -0.00000000000E+00 -0.55946176632E+03  0.55946176632E+03  0.00000000000E+00 0.  1.
          2    1    1    2  501    0  0.31336433204E+02 -0.30190253598E+01  0.59737815316E+01  0.32043292993E+02  0.00000000000E+00 0.  1.
          1    1    1    2  502    0 -0.28235081519E+03 -0.39544760692E+02 -0.28726026655E+03  0.40472735474E+03  0.00000000000E+00 0.  1.
         22    1    1    2    0    0  0.24263463246E+03  0.23979131232E+02 -0.51306226816E+02  0.24915636158E+03  0.00000000000E+00 0.  1.
         22    1    1    2    0    0  0.83797495289E+01  0.18584654819E+02 -0.48132215414E+02  0.52271596088E+02  0.00000000000E+00 0.  1.
</event>
<event>
 6    1  0.8017648E-006  0.1264567E+03  0.7818608E-02  0.1279656E+00
          2   -1    0    0  502    0  0.00000000000E+00  0.00000000000E+00  0.18469177925E+03  0.18469177925E+03  0.00000000000E+00 0.  1.
          1   -1    0    0  501    0 -0.00000000000E+00 -0.00000000000E+00 -0.45006369673E+03  0.45006369673E+03  0.00000000000E+00 0.  1.
          2    1    1    2  501    0  0.11796491462E+03  0.15554953967E+03 -0.68804169062E+02  0.20699128980E+03  0.00000000000E+00 0.  1.
          1    1    1    2  502    0 -0.61695398241E+02 -0.16391259588E+03 -0.22313734213E+03  0.28366165533E+03  0.00000000000E+00 0.  1.
         22    1    1    2    0    0 -0.91217995682E+02  0.15456414532E+02  0.46182088953E+02  0.10340410450E+03  0.00000000000E+00 0.  1.
         22    1    1    2    0    0  0.34948479300E+02 -0.70933583227E+01 -0.19612495239E+02  0.40698426347E+02  0.00000000000E+00 0.  1.
</event>
<event>
 6    1  0.8017648E-006  0.1088965E+03  0.7818608E-02  0.1386684E+00
          2   -1    0    0  502    0  0.00000000000E+00  0.00000000000E+00  0.46636245641E+03  0.46636245641E+03  0.00000000000E+00 0.  1.
          1   -1    0    0  501    0 -0.00000000000E+00 -0.00000000000E+00 -0.33838236018E+02  0.33838236018E+02  0.00000000000E+00 0. -1.
          2    1    1    2  501    0 -0.27639269736E+01 -0.28395988177E+02  0.12164441129E+03  0.12494532498E+03  0.00000000000E+00 0.  1.
          1    1    1    2  502    0 -0.11014415937E+02 -0.45168871603E+02  0.23890316222E+02  0.52271326074E+02  0.00000000000E+00 0. -1.
         22    1    1    2    0    0  0.25139269246E+02  0.77422720241E+02  0.29662760593E+03  0.30759420844E+03  0.00000000000E+00 0.  1.
         22    1    1    2    0    0 -0.11360926335E+02 -0.38578604613E+01 -0.96381130476E+01  0.15389832931E+02  0.00000000000E+00 0.  1.
</event>
<event>
 6    1  0.8017648E-006  0.8231907E+02  0.7818608E-02  0.1432349E+00
          2   -1    0    0  502    0  0.00000000000E+00  0.00000000000E+00  0.18186421285E+03  0.18186421285E+03  0.00000000000E+00 0.  1.
          1   -1    0    0  501    0 -0.00000000000E+00 -0.00000000000E+00 -0.40329953081E+03  0.40329953081E+03  0.00000000000E+00 0.  1.
          2    1    1    2  501    0 -0.86748472404E+02  0.52519140516E+02 -0.16344118770E+03  0.19234494904E+03  0.00000000000E+00 0.  1.
          1    1    1    2  502    0 -0.55271599981E+01 -0.81675337383E+02 -0.17646627389E+03  0.19452957630E+03  0.00000000000E+00 0.  1.
         22    1    1    2    0    0  0.79183631953E+02  0.25437876090E+02  0.14574697679E+03  0.16780737276E+03  0.00000000000E+00 0.  1.
         22    1    1    2    0    0  0.13092000450E+02  0.37183207777E+01 -0.27274833159E+02  0.30481845565E+02  0.00000000000E+00 0. -1.
</event>
<event>
 6    1  0.8017648E-006  0.4640434E+02  0.7818608E-02  0.1562900E+00
          2   -1    0    0  502    0  0.00000000000E+00  0.00000000000E+00  0.19623249298E+03  0.19623249298E+03  0.00000000000E+00 0. -1.
          1   -1    0    0  501    0 -0.00000000000E+00 -0.00000000000E+00 -0.31798872216E+03  0.31798872216E+03  0.00000000000E+00 0.  1.
          2    1    1    2  501    0 -0.23214591446E+02  0.13468055813E+02  0.92243988196E+02  0.96069033209E+02  0.00000000000E+00 0. -1.
          1    1    1    2  502    0  0.29737927625E+02 -0.14681603616E+02 -0.27532781928E+03  0.27731805187E+03  0.00000000000E+00 0.  1.
         22    1    1    2    0    0 -0.16557333994E+02  0.86928642047E+01  0.99200141629E+02  0.10094740857E+03  0.00000000000E+00 0. -1.
         22    1    1    2    0    0  0.10033997815E+02 -0.74793164008E+01 -0.37872539727E+02  0.39886721492E+02  0.00000000000E+00 0.  1.
</event>
<event>
 6    1  0.8017648E-006  0.9055414E+02  0.7818608E-02  0.1329216E+00
          2   -1    0    0  502    0  0.00000000000E+00  0.00000000000E+00  0.13293084026E+03  0.13293084026E+03  0.00000000000E+00 0. -1.
          1   -1    0    0  501    0 -0.00000000000E+00 -0.00000000000E+00 -0.27678916856E+03  0.27678916856E+03  0.00000000000E+00 0. -1.
          2    1    1    2  501    0 -0.63546906182E+02  0.12657500652E+02  0.46733363352E+02  0.79890104883E+02  0.00000000000E+00 0. -1.
          1    1    1    2  502    0  0.11471999032E+03  0.16006542516E+02 -0.33352033303E+02  0.12053731251E+03  0.00000000000E+00 0. -1.
         22    1    1    2    0    0 -0.35456685756E+02 -0.42048226217E+02 -0.17413619592E+03  0.18261611271E+03  0.00000000000E+00 0. -1.
         22    1    1    2    0    0 -0.15716398382E+02  0.13384183049E+02  0.16896537575E+02  0.26676478704E+02  0.00000000000E+00 0. -1.
</event>
<event>
 6    1  0.8017648E-006  0.3459066E+02  0.7818608E-02  0.1560168E+00
          2   -1    0    0  502    0  0.00000000000E+00  0.00000000000E+00  0.62402207308E+02  0.62402207308E+02  0.00000000000E+00 0.  1.
          1   -1    0    0  501    0 -0.00000000000E+00 -0.00000000000E+00 -0.20527597919E+03  0.20527597919E+03  0.00000000000E+00 0.  1.
          2    1    1    2  501    0  0.16375639994E+02 -0.14758571793E+02  0.27250318000E+02  0.35050775422E+02  0.00000000000E+00 0.  1.
          1    1    1    2  502    0  0.22331390191E+02 -0.20619623041E+00 -0.19108924728E+02  0.29391912306E+02  0.00000000000E+00 0.  1.
         22    1    1    2    0    0 -0.90920963204E+01 -0.10906369382E+02  0.21792458399E+02  0.26010120178E+02  0.00000000000E+00 0. -1.
         22    1    1    2    0    0 -0.29614933865E+02  0.25871137405E+02 -0.17280762356E+03  0.17722537860E+03  0.00000000000E+00 0.  1.
</event>
<event>
 6    1  0.8017648E-006  0.8167872E+02  0.7818608E-02  0.1439567E+00
          2   -1    0    0  502    0  0.00000000000E+00  0.00000000000E+00  0.17329260976E+03  0.17329260976E+03  0.00000000000E+00 0. -1.
          1   -1    0    0  501    0 -0.00000000000E+00 -0.00000000000E+00 -0.66502108805E+02  0.66502108805E+02  0.00000000000E+00 0.  1.
          2    1    1    2  501    0 -0.26594260539E+02  0.69712553145E+01  0.32793768215E+02  0.42793508013E+02  0.00000000000E+00 0. -1.
          1    1    1    2  502    0 -0.55845966270E+01 -0.41566445320E+02 -0.70611923628E+01  0.42530195551E+02  0.00000000000E+00 0.  1.
         22    1    1    2    0    0  0.28746993797E+02  0.46614579748E+02  0.11003628395E+03  0.12291172638E+03  0.00000000000E+00 0. -1.
         22    1    1    2    0    0  0.34318633693E+01 -0.12019389743E+02 -0.28978358852E+02  0.31559288612E+02  0.00000000000E+00 0.  1.
</event>
<event>
 6    1  0.8017648E-006  0.2804536E+02  0.7818608E-02  0.1658605E+00
          2   -1    0    0  502    0  0.00000000000E+00  0.00000000000E+00  0.69437653922E+02  0.69437653922E+02  0.00000000000E+00 0.  1.
          1   -1    0    0  501    0 -0.00000000000E+00 -0.00000000000E+00 -0.24707831797E+03  0.24707831797E+03  0.00000000000E+00 0. -1.
          2    1    1    2  501    0  0.30628991505E+02  0.46325967071E+01  0.19554812079E+01  0.31039007388E+02  0.00000000000E+00 0.  1.
          1    1    1    2  502    0 -0.17894835116E+01 -0.27402235502E+02 -0.15125909014E+03  0.15373157487E+03  0.00000000000E+00 0. -1.
         22    1    1    2    0    0 -0.48104382168E+01  0.16079784875E+02  0.48309684159E+02  0.51142207432E+02  0.00000000000E+00 0.  1.
         22    1    1    2    0    0 -0.24029069777E+02  0.66898539199E+01 -0.76646739282E+02  0.80603182210E+02  0.00000000000E+00 0. -1.
</event>
<event>
 6    1  0.8017648E-006  0.3356429E+02  0.7818608E-02  0.1576328E+00
          2   -1    0    0  502    0  0.00000000000E+00  0.00000000000E+00  0.51278007715E+03  0.51278007715E+03  0.00000000000E+00 0.  1.
          1   -1    0    0  501    0 -0.00000000000E+00 -0.00000000000E+00 -0.33304693480E+03  0.33304693480E+03  0.00000000000E+00 0.  1.
          2    1    1    2  501    0  0.51985354566E+02 -0.10732464802E+02  0.41842031938E+03  0.42177390455E+03  0.00000000000E+00 0.  1.
          1    1    1    2  502    0 -0.60143405093E+02  0.12798947026E+02 -0.28514821560E+03  0.29170284037E+03  0.00000000000E+00 0.  1.
         22    1    1    2    0    0  0.13022528319E+02  0.11569100697E+02  0.87300126948E+02  0.89021022797E+02  0.00000000000E+00 0.  1.
         22    1    1    2    0    0 -0.48644777916E+01 -0.13635582921E+02 -0.40839088375E+02  0.43329244225E+02  0.00000000000E+00 0. -1.
</event>
<event>
 6    1  0.8017648E-006  0.1382560E+03  0.7818608E-02  0.1283197E+00
          2   -1    0    0  502    0  0.00000000000E+00  0.00000000000E+00  0.12549308658E+03  0.12549308658E+03  0.00000000000E+00 0. -1.
          1   -1    0    0  501    0 -0.00000000000E+00 -0.00000000000E+00 -0.24300546809E+03  0.24300546809E+03  0.00000000000E+00 0. -1.
          2    1    1    2  501    0 -0.50293730250E+02  0.10554667789E+02  0.12836875219E+02  0.52968346019E+02  0.00000000000E+00 0. -1.
          1    1    1    2  502    0  0.12747181029E+03  0.31645428070E+02 -0.32397399874E+02  0.13527781435E+03  0.00000000000E+00 0. -1.
         22    1    1    2    0    0  0.10768147229E+02 -0.34155359999E+02 -0.83379028243E+02  0.90744718646E+02  0.00000000000E+00 0. -1.
         22    1    1    2    0    0 -0.87946227272E+02 -0.80447358594E+01 -0.14572828615E+02  0.89507675650E+02  0.00000000000E+00 0. -1.
</event>
<event>
 6    1  0.8017648E-006  0.5627007E+02  0.7818608E-02  0.1511970E+00
          2   -1    0    0  502    0  0.00000000000E+00  0.00000000000E+00  0.23125800696E+03  0.23125800696E+03  0.00000000000E+00 0.  1.
          1   -1    0    0  501    0 -0.00000000000E+00 -0.00000000000E+00 -0.73411267388E+02  0.73411267388E+02  0.00000000000E+00 0. -1.
          2    1    1    2  501    0  0.21268125583E+02 -0.27107143521E+02  0.11978592294E+03  0.12464268021E+03  0.00000000000E+00 0.  1.
          1    1    1    2  502    0 -0.41592718065E+02  0.24004477657E+02  0.20855868183E+01  0.48067856370E+02  0.00000000000E+00 0. -1.
         22    1    1    2    0    0 -0.29472241961E+00  0.13651578007E+02 -0.45370111645E+02  0.47380370134E+02  0.00000000000E+00 0. -1.
         22    1    1    2    0    0  0.20619314902E+02 -0.10548912143E+02  0.81345341464E+02  0.84578367638E+02  0.00000000000E+00 0.  1.
</event>
<event>
 6    1  0.8017648E-006  0.3099376E+02  0.7818608E-02  0.1651442E+00
          2   -1    0    0  502    0  0.00000000000E+00  0.00000000000E+00  0.11748379267E+03  0.11748379267E+03  0.00000000000E+00 0. -1.
          1   -1    0    0  501    0 -0.00000000000E+00 -0.00000000000E+00 -0.14627453093E+03  0.14627453093E+03  0.00000000000E+00 0. -1.
          2    1    1    2  501    0 -0.44740892902E+02  0.10933656214E+01  0.45143877927E+02  0.63568173329E+02  0.00000000000E+00 0. -1.
          1    1    1    2  502    0  0.39819215749E+02 -0.16875899535E+02  0.11743021517E+02  0.44813664014E+02  0.00000000000E+00 0. -1.
         22    1    1    2    0    0 -0.99997247753E+01  0.54219260524E+00  0.33160410159E+02  0.34639591081E+02  0.00000000000E+00 0. -1.
         22    1    1    2    0    0  0.14921401929E+02  0.15240341309E+02 -0.11883804786E+03  0.12073689518E+03  0.00000000000E+00 0. -1.
</event>
<event>
 6    1  0.8017648E-006  0.1182610E+03  0.7818608E-02  0.1343464E+00
          2   -1    0    0  502    0  0.00000000000E+00  0.00000000000E+00  0.93698317461E+03  0.93698317461E+03  0.00000000000E+00 0. -1.
          1   -1    0    0  501    0 -0.00000000000E+00 -0.00000000000E+00 -0.29791230258E+03  0.29791230258E+03  0.00000000000E+00 0.  1.
          2    1    1    2  501    0 -0.51963660337E+02 -0.12285587915E+03  0.81613830203E+03  0.82696766386E+03  0.00000000000E+00 0. -1.
          1    1    1    2  502    0  0.12764369431E+03  0.41292191014E+02 -0.19453653132E+03  0.23631000774E+03  0.00000000000E+00 0.  1.
         22    1    1    2    0    0 -0.59239663101E+02  0.81259495122E+02 -0.42693770030E+02  0.10924834658E+03  0.00000000000E+00 0.  1.
         22    1    1    2    0    0 -0.16440370875E+02  0.30419301885E+00  0.60162871351E+02  0.62369459009E+02  0.00000000000E+00 0. -1.
</event>
<event>
 6    1  0.8017648E-006  0.4890189E+02  0.7818608E-02  0.1513052E+00
          2   -1    0    0  502    0  0.00000000000E+00  0.00000000000E+00  0.82077733843E+02  0.82077733843E+02  0.00000000000E+00 0.  1.
          1   -1    0    0  501    0 -0.00000000000E+00 -0.00000000000E+00 -0.21049016744E+03  0.21049016744E+03  0.00000000000E+00 0.  1.
          2    1    1    2  501    0  0.27120895418E+02 -0.82780484719E+01  0.30254520258E+02  0.41465709337E+02  0.00000000000E+00 0.  1.
          1    1    1    2  502    0 -0.23328922314E+02  0.34613539429E+02 -0.11058492564E+03  0.11820051399E+03  0.00000000000E+00 0.  1.
         22    1    1    2    0    0 -0.16797225100E+02 -0.11754700945E+02 -0.86984812434E+02  0.89368212243E+02  0.00000000000E+00 0.  1.
         22    1    1    2    0    0  0.13005251996E+02 -0.14580790012E+02  0.38902784221E+02  0.43533465713E+02  0.00000000000E+00 0.  1.
</event>
<event>
 6    1  0.8017648E-006  0.8626751E+02  0.7818608E-02  0.1425593E+00
          2   -1    0    0  502    0  0.00000000000E+00  0.00000000000E+00  0.38285436409E+03  0.38285436409E+03  0.00000000000E+00 0. -1.
          1   -1    0    0  501    0 -0.00000000000E+00 -0.00000000000E+00 -0.13157942147E+03  0.13157942147E+03  0.00000000000E+00 0. -1.
          2    1    1    2  501    0  0.15652889558E+02  0.72049426192E+02  0.28790995160E+03  0.29720072846E+03  0.00000000000E+00 0. -1.
          1    1    1    2  502    0 -0.10270444277E+02 -0.77703112283E+02 -0.46517029832E+02  0.91143237536E+02  0.00000000000E+00 0. -1.
         22    1    1    2    0    0 -0.12095011922E+02 -0.50390866805E+01 -0.56764969394E+02  0.58257561383E+02  0.00000000000E+00 0. -1.
         22    1    1    2    0    0  0.67125666408E+01  0.10692772771E+02  0.66646990247E+02  0.67832258178E+02  0.00000000000E+00 0.  1.
</event>
<event>
 6    1  0.8017648E-006  0.1940777E+03  0.7818608E-02  0.1294928E+00
          2   -1    0    0  502    0  0.00000000000E+00  0.00000000000E+00  0.41948889736E+03  0.41948889736E+03  0.00000000000E+00 0.  1.
          1   -1    0    0  501    0 -0.00000000000E+00 -0.00000000000E+00 -0.21419896610E+03  0.21419896610E+03  0.00000000000E+00 0. -1.
          2    1    1    2  501    0  0.67257290948E+02 -0.30293552966E+02  0.16507122977E+03  0.18080307917E+03  0.00000000000E+00 0.  1.
          1    1    1    2  502    0 -0.17777270577E+03  0.38042424017E+02 -0.12449454366E+03  0.22033894876E+03  0.00000000000E+00 0. -1.
         22    1    1    2    0    0  0.11845443805E+03 -0.10471299430E+01  0.17914190596E+03  0.21476585587E+03  0.00000000000E+00 0.  1.
         22    1    1    2    0    0 -0.79390232286E+01 -0.67017411080E+01 -0.14428660822E+02  0.17779979663E+02  0.00000000000E+00 0.  1.
</event>
<event>
 6    1  0.8017648E-006  0.5440374E+02  0.7818608E-02  0.1479241E+00
          2   -1    0    0  502    0  0.00000000000E+00  0.00000000000E+00  0.15373215631E+03  0.15373215631E+03  0.00000000000E+00 0.  1.
          1   -1    0    0  501    0 -0.00000000000E+00 -0.00000000000E+00 -0.31995581146E+03  0.31995581146E+03  0.00000000000E+00 0.  1.
          2    1    1    2  501    0 -0.25456882727E+02  0.30120186571E+02  0.91080129795E+02  0.99251541856E+02  0.00000000000E+00 0.  1.
          1    1    1    2  502    0  0.24609997321E+02 -0.64909978975E+02 -0.23537758948E+03  0.24540082919E+03  0.00000000000E+00 0.  1.
         22    1    1    2    0    0 -0.62812013191E+01  0.12128664369E+02  0.50760173380E+02  0.52565703562E+02  0.00000000000E+00 0.  1.
         22    1    1    2    0    0  0.71280867253E+01  0.22661128035E+02 -0.72686368842E+02  0.76469893158E+02  0.00000000000E+00 0. -1.
</event>
<event>
 6    1  0.8017648E-006  0.1766487E+03  0.7818608E-02  0.1293668E+00
          2   -1    0    0  502    0  0.00000000000E+00  0.00000000000E+00  0.77001755486E+02  0.77001755486E+02  0.00000000000E+00 0.  1.
          1   -1    0    0  501    0 -0.00000000000E+00 -0.00000000000E+00 -0.34175670692E+03  0.34175670692E+03  0.00000000000E+00 0. -1.
          2    1    1    2  501    0  0.19930197169E+02  0.88199336325E+01 -0.94640793829E+02  0.97117886329E+02  0.00000000000E+00 0.  1.
          1    1    1    2  502    0 -0.46690599937E+02  0.62237430931E+02 -0.15829026123E+03  0.17637833408E+03  0.00000000000E+00 0. -1.
         22    1    1    2    0    0 -0.12169093035E+02 -0.71318318070E+01 -0.56406974401E+02  0.58143758145E+02  0.00000000000E+00 0. -1.
         22    1    1    2    0    0  0.38929495804E+02 -0.63925532757E+02  0.44583078029E+02  0.87118483850E+02  0.00000000000E+00 0.  1.
</event>
<event>
 6    1  0.8017648E-006  0.1068140E+03  0.7818608E-02  0.1320801E+00
          2   -1    0    0  502    0  0.00000000000E+00  0.00000000000E+00  0.49213003004E+03  0.49213003004E+03  0.00000000000E+00 0. -1.
          1   -1    0    0  501    0 -0.00000000000E+00 -0.00000000000E+00 -0.72699286585E+02  0.72699286585E+02  0.00000000000E+00 0.  1.
          2    1    1    2  501    0 -0.27105362631E+02 -0.54603213020E+02  0.23811730147E+03  0.24579678764E+03  0.00000000000E+00 0. -1.
          1    1    1    2  502    0 -0.15899575584E+02  0.82628337720E+02 -0.11088111403E+02  0.84871578945E+02  0.00000000000E+00 0.  1.
         22    1    1    2    0    0  0.95340026373E+01 -0.47858027836E+02  0.18889638161E+03  0.19509774734E+03  0.00000000000E+00 0. -1.
         22    1    1    2    0    0  0.33470935578E+02  0.19832903137E+02  0.35051717792E+01  0.39063202691E+02  0.00000000000E+00 0.  1.
</event>
<event>
 6    1  0.8017648E-006  0.4831379E+02  0.7818608E-02  0.1477177E+00
          2   -1    0    0  502    0  0.00000000000E+00  0.00000000000E+00  0.32376890608E+03  0.32376890608E+03  0.00000000000E+00 0. -1.
          1   -1    0    0  501    0 -0.00000000000E+00 -0.00000000000E+00 -0.40393302211E+03  0.40393302211E+03  0.00000000000E+00 0.  1.
          2    1    1    2  501    0 -0.83353698145E+02 -0.15359714654E+02  0.27705525240E+03  0.28972982710E+03  0.00000000000E+00 0. -1.
          1    1    1    2  502    0  0.93702235773E+02  0.13576363942E+02 -0.26195467531E+03  0.27854026381E+03  0.00000000000E+00 0.  1.
         22    1    1    2    0    0 -0.22477591974E+02  0.19356336428E+02 -0.12180702788E+03  0.12536690927E+03  0.00000000000E+00 0.  1.
         22    1    1    2    0    0  0.12129054345E+02 -0.17572985716E+02  0.26542334745E+02  0.34064928005E+02  0.00000000000E+00 0.  1.
</event>
<event>
 6    1  0.8017648E-006  0.6902647E+02  0.7818608E-02  0.1369713E+00
          2   -1    0    0  502    0  0.00000000000E+00  0.00000000000E+00  0.42197952641E+03  0.42197952641E+03  0.00000000000E+00 0. -1.
          1   -1    0    0  501    0 -0.00000000000E+00 -0.00000000000E+00 -0.53641134010E+02  0.53641134010E+02  0.00000000000E+00 0. -1.
          2    1    1    2  501    0  0.93837579910E+01  0.20289390675E+02  0.23078942919E+02  0.32130233337E+02  0.00000000000E+00 0. -1.
          1    1    1    2  502    0 -0.76299394648E+02 -0.11143019058E+02  0.26997632076E+03  0.28077211091E+03  0.00000000000E+00 0. -1.
         22    1    1    2    0    0  0.43276128412E+02 -0.44647511028E+02 -0.14031282611E+02  0.63742453852E+02  0.00000000000E+00 0. -1.
         22    1    1    2    0    0  0.23639508245E+02  0.35501139411E+02  0.89314411340E+02  0.98975862323E+02  0.00000000000E+00 0. -1.
</event>
<event>
 6    1  0.8017648E-006  0.4751982E+03  0.7818608E-02  0.1108697E+00
          2   -1    0    0  502    0  0.00000000000E+00  0.00000000000E+00  0.34452435235E+03  0.34452435235E+03  0.00000000000E+00 0.  1.
          1   -1    0    0  501    0 -0.00000000000E+00 -0.00000000000E+00 -0.84226934867E+03  0.84226934867E+03  0.00000000000E+00 0.  1.
          2    1    1    2  501    0 -0.34167946174E+03  0.24955685275E+03 -0.77716019875E+02  0.43018979192E+03  0.00000000000E+00 0.  1.
          1    1    1    2  502    0  0.41689862311E+03 -0.23288855204E+03 -0.27308630113E+03  0.55010696004E+03  0.00000000000E+00 0.  1.
         22    1    1    2    0    0 -0.42447050822E+02  0.78478311201E+01  0.99965928886E+01  0.44308830341E+02  0.00000000000E+00 0. -1.
         22    1    1    2    0    0 -0.32772110542E+02 -0.24516131827E+02 -0.15693926820E+03  0.16218811871E+03  0.00000000000E+00 0.  1.
</event>
<event>
 6    1  0.8017648E-006  0.3417005E+02  0.7818608E-02  0.1560728E+00
          2   -1    0    0  502    0  0.00000000000E+00  0.00000000000E+00  0.50148302511E+03  0.50148302511E+03  0.00000000000E+00 0.  1.
          1   -1    0    0  501    0 -0.00000000000E+00 -0.00000000000E+00 -0.10357067885E+03  0.10357067885E+03  0.00000000000E+00 0. -1.
          2    1    1    2  501    0 -0.99709254567E+02  0.17729178513E+02  0.37803589009E+03  0.39136606063E+03  0.00000000000E+00 0.  1.
          1    1    1    2  502    0  0.77568899763E+02 -0.27485205526E+02  0.23916837313E+02  0.85699392298E+02  0.00000000000E+00 0. -1.
         22    1    1    2    0    0  0.98713077244E+01  0.67073529476E+01  0.60783026197E+02  0.61943583795E+02  0.00000000000E+00 0.  1.
         22    1    1    2    0    0  0.12269047080E+02  0.30486740659E+01 -0.64823407341E+02  0.66044667227E+02  0.00000000000E+00 0. -1.
</event>
<event>
 6    1  0.8017648E-006  0.2816863E+03  0.7818608E-02  0.1216557E+00
          2   -1    0    0  502    0  0.00000000000E+00  0.00000000000E+00  0.14132783647E+03  0.14132783647E+03  0.00000000000E+00 0. -1.
          1   -1    0    0  501    0 -0.00000000000E+00 -0.00000000000E+00 -0.86250502804E+03  0.86250502804E+03  0.00000000000E+00 0. -1.
          2    1    1    2  501    0  0.22391857280E+02 -0.13448142567E+03 -0.10535798689E+03  0.17229902647E+03  0.00000000000E+00 0. -1.
          1    1    1    2  502    0 -0.80627988927E+02  0.12180122444E+03 -0.66660735326E+03  0.68242345672E+03  0.00000000000E+00 0. -1.
         22    1    1    2    0    0  0.73193954389E+00 -0.16035107096E+02 -0.36985879545E+02  0.40318924599E+02  0.00000000000E+00 0. -1.
         22    1    1    2    0    0  0.57504192104E+02  0.28715308327E+02  0.87774028121E+02  0.10879145672E+03  0.00000000000E+00 0. -1.
</event>
<event>
 6    1  0.8017648E-006  0.4709207E+02  0.7818608E-02  0.1497550E+00
          2   -1    0    0  502    0  0.00000000000E+00  0.00000000000E+00  0.20252845215E+03  0.20252845215E+03  0.00000000000E+00 0.  1.
          1   -1    0    0  501    0 -0.00000000000E+00 -0.00000000000E+00 -0.21603174673E+03  0.21603174673E+03  0.00000000000E+00 0. -1.
          2    1    1    2  501    0 -0.15338515448E+02  0.58498772546E+02  0.11980464120E+03  0.13420331031E+03  0.00000000000E+00 0.  1.
          1    1    1    2  502    0  0.30988845501E+01 -0.53834457849E+02 -0.14561351597E+03  0.15527732600E+03  0.00000000000E+00 0. -1.
         22    1    1    2    0    0  0.29736028983E+02 -0.11795414140E+02 -0.52553676179E+02  0.61524402430E+02  0.00000000000E+00 0.  1.
         22    1    1    2    0    0 -0.17496398085E+02  0.71310994430E+01  0.64859256368E+02  0.67555160142E+02  0.00000000000E+00 0.  1.
</event>
<event>
 6    1  0.8017648E-006  0.1541389E+03  0.7818608E-02  0.1322570E+00
          2   -1    0    0  502    0  0.00000000000E+00  0.00000000000E+00  0.44656382412E+03  0.44656382412E+03  0.00000000000E+00 0. -1.
          1   -1    0    0  501    0 -0.00000000000E+00 -0.00000000000E+00 -0.43183353261E+02  0.43183353261E+02  0.00000000000E+00 0. -1.
          2    1    1    2  501    0 -0.81276216539E+01 -0.37242196669E+02  0.57024865452E+01  0.38542934492E+02  0.00000000000E+00 0. -1.
          1    1    1    2  502    0 -0.49744668060E+02  0.52023982192E+02  0.14507197992E+03  0.16194723240E+03  0.00000000000E+00 0. -1.
         22    1    1    2    0    0 -0.11924476226E+02 -0.38966317320E+01 -0.10793690071E+02  0.16549338884E+02  0.00000000000E+00 0.  1.
         22    1    1    2    0    0  0.69796765940E+02 -0.10885153791E+02  0.26339969446E+03  0.27270767160E+03  0.00000000000E+00 0. -1.
</event>
<event>
 6    1  0.8017648E-006  0.2321580E+03  0.7818608E-02  0.1195361E+00
          2   -1    0    0  502    0  0.00000000000E+00  0.00000000000E+00  0.19605672817E+03  0.19605672817E+03  0.00000000000E+00 0.  1.
          1   -1    0    0  501    0 -0.00000000000E+00 -0.00000000000E+00 -0.30099321679E+03  0.30099321679E+03  0.00000000000E+00 0. -1.
          2    1    1    2  501    0 -0.70243666604E+02 -0.10580928898E+03  0.11712882348E+03  0.17276845668E+03  0.00000000000E+00 0.  1.
          1    1    1    2  502    0  0.72301652451E+02  0.51484491717E+02 -0.14592357593E+03  0.17079775129E+03  0.00000000000E+00 0. -1.
         22    1    1    2    0    0  0.43676551406E+02 -0.11745001709E+02 -0.53386404939E+02  0.69969239243E+02  0.00000000000E+00 0. -1.
         22    1    1    2    0    0 -0.45734537253E+02  0.66069798976E+02 -0.22755331244E+02  0.83514497751E+02  0.00000000000E+00 0.  1.
</event>
<event>
 6    1  0.8017648E-006  0.7049106E+02  0.7818608E-02  0.1362281E+00
          2   -1    0    0  502    0  0.00000000000E+00  0.00000000000E+00  0.26556892768E+03  0.26556892768E+03  0.00000000000E+00 0.  1.
          1   -1    0    0  501    0 -0.00000000000E+00 -0.00000000000E+00 -0.48318630861E+02  0.48318630861E+02  0.00000000000E+00 0.  1.
          2    1    1    2  501    0  0.95167254567E+01 -0.18971344422E+02  0.30793012557E+02  0.37399058744E+02  0.00000000000E+00 0.  1.
          1    1    1    2  502    0 -0.16899533024E+02  0.35182667285E+02 -0.11555865097E+02  0.40705679110E+02  0.00000000000E+00 0.  1.
         22    1    1    2    0    0 -0.52684594352E+02  0.11320274184E+02  0.13110179021E+03  0.14174446898E+03  0.00000000000E+00 0.  1.
         22    1    1    2    0    0  0.60067401919E+02 -0.27531597047E+02  0.66911359153E+02  0.94038351713E+02  0.00000000000E+00 0.  1.
</event>
<event>
 6    1  0.8017648E-006  0.3929891E+03  0.7818608E-02  0.1191706E+00
          2   -1    0    0  502    0  0.00000000000E+00  0.00000000000E+00  0.24481311507E+04  0.24481311507E+04  0.00000000000E+00 0. -1.
          1   -1    0    0  501    0 -0.00000000000E+00 -0.00000000000E+00 -0.43486838511E+02  0.43486838511E+02  0.00000000000E+00 0. -1.
          2    1    1    2  501    0 -0.63509134982E+02 -0.22642396076E+03  0.15605482519E+04  0.15781673127E+04  0.00000000000E+00 0. -1.
          1    1    1    2  502    0 -0.47066322235E+02  0.16694614423E+03  0.43350427123E+03  0.46691777321E+03  0.00000000000E+00 0. -1.
         22    1    1    2    0    0  0.11324221266E+03  0.69223171677E+02  0.41485328629E+03  0.43556732587E+03  0.00000000000E+00 0. -1.
         22    1    1    2    0    0 -0.26667554387E+01 -0.97453551423E+01 -0.42614972051E+01  0.10965577497E+02  0.00000000000E+00 0. -1.
</event>
<event>
 6    1  0.8017648E-006  0.8494653E+02  0.7818608E-02  0.1316660E+00
          2   -1    0    0  502    0  0.00000000000E+00  0.00000000000E+00  0.25682147051E+03  0.25682147051E+03  0.00000000000E+00 0.  1.
          1   -1    0    0  501    0 -0.00000000000E+00 -0.00000000000E+00 -0.17638727744E+03  0.17638727744E+03  0.00000000000E+00 0. -1.
          2    1    1    2  501    0 -0.53909551752E+02 -0.24161228881E+02  0.14018745704E+03  0.15212668360E+03  0.00000000000E+00 0.  1.
          1    1    1    2  502    0  0.63674646739E+02  0.10593621579E+02 -0.12269997568E+03  0.13864331750E+03  0.00000000000E+00 0. -1.
         22    1    1    2    0    0 -0.23252198045E+02  0.54061408180E+00  0.99056625134E+02  0.10175053789E+03  0.00000000000E+00 0.  1.
         22    1    1    2    0    0  0.13487103058E+02  0.13026993221E+02 -0.36109913424E+02  0.40688208965E+02  0.00000000000E+00 0. -1.
</event>
<event>
 6    1  0.8017648E-006  0.2958524E+02  0.7818608E-02  0.1632549E+00
          2   -1    0    0  502    0  0.00000000000E+00  0.00000000000E+00  0.34413444118E+03  0.34413444118E+03  0.00000000000E+00 0. -1.
          1   -1    0    0  501    0 -0.00000000000E+00 -0.00000000000E+00 -0.48633299014E+02  0.48633299014E+02  0.00000000000E+00 0. -1.
          2    1    1    2  501    0 -0.45750355747E+02  0.21201999400E+02  0.15479964765E+03  0.16280525404E+03  0.00000000000E+00 0. -1.
          1    1    1    2  502    0  0.47315826597E+02 -0.12311151968E+02  0.80364790967E+02  0.94068334398E+02  0.00000000000E+00 0. -1.
         22    1    1    2    0    0 -0.13197980456E+02 -0.12052012194E+02  0.96310290711E+02  0.97954631247E+02  0.00000000000E+00 0.  1.
         22    1    1    2    0    0  0.11632509606E+02  0.31611647623E+01 -0.35973587168E+02  0.37939520505E+02  0.00000000000E+00 0. -1.
</event>
<event>
 6    1  0.8017648E-006  0.1298696E+03  0.7818608E-02  0.1297132E+00
          2   -1    0    0  502    0  0.00000000000E+00  0.00000000000E+00  0.10519693211E+04  0.10519693211E+04  0.00000000000E+00 0. -1.
          1   -1    0    0  501    0 -0.00000000000E+00 -0.00000000000E+00 -0.30279565337E+02  0.30279565337E+02  0.00000000000E+00 0.  1.
          2    1    1    2  501    0 -0.23941273752E+02 -0.39281644884E+02  0.58997158204E+03  0.59176236770E+03  0.00000000000E+00 0. -1.
          1    1    1    2  502    0 -0.40899320829E+02  0.73647204489E+02  0.11786117431E+03  0.14487208697E+03  0.00000000000E+00 0.  1.
         22    1    1    2    0    0  0.40853806541E+02 -0.57441699393E+02  0.30225533508E+03  0.31036570353E+03  0.00000000000E+00 0. -1.
         22    1    1    2    0    0  0.23986788041E+02  0.23076139787E+02  0.11601664345E+02  0.35248728255E+02  0.00000000000E+00 0.  1.
</event>
<event>
 6    1  0.8017648E-006  0.1209108E+03  0.7818608E-02  0.1319764E+00
          2   -1    0    0  502    0  0.00000000000E+00  0.00000000000E+00  0.30382767573E+03  0.30382767573E+03  0.00000000000E+00 0.  1.
          1   -1    0    0  501    0 -0.00000000000E+00 -0.00000000000E+00 -0.21706249788E+03  0.21706249788E+03  0.00000000000E+00 0.  1.
          2    1    1    2  501    0  0.91856298130E+02  0.36862790898E+02  0.20225647685E+03  0.22517576976E+03  0.00000000000E+00 0.  1.
          1    1    1    2  502    0 -0.12010006382E+03 -0.29789186706E+02 -0.10629865777E+03  0.16312824898E+03  0.00000000000E+00 0.  1.
         22    1    1    2    0    0  0.13684710699E+02  0.16048655351E+02  0.57106696860E+02  0.60876969962E+02  0.00000000000E+00 0.  1.
         22    1    1    2    0    0  0.14559054988E+02 -0.23122259543E+02 -0.66299338093E+02  0.71709184907E+02  0.00000000000E+00 0.  1.
</event>
<event>
 6    1  0.8017648E-006  0.5843516E+02  0.7818608E-02  0.1475422E+00
          2   -1    0    0  502    0  0.00000000000E+00  0.00000000000E+00  0.35653048808E+03  0.35653048808E+03  0.00000000000E+00 0. -1.
          1   -1    0    0  501    0 -0.00000000000E+00 -0.00000000000E+00 -0.34765912823E+02  0.34765912823E+02  0.00000000000E+00 0. -1.
          2    1    1    2  501    0 -0.26958751811E+02  0.30977948064E+01  0.92604377264E+02  0.96498400610E+02  0.00000000000E+00 0. -1.
          1    1    1    2  502    0  0.49457352637E+02 -0.62768022923E+01  0.10109070255E+03  0.11271538545E+03  0.00000000000E+00 0. -1.
         22    1    1    2    0    0 -0.33493103898E+02 -0.13811178934E+02  0.14877927639E+03  0.15312677675E+03  0.00000000000E+00 0. -1.
         22    1    1    2    0    0  0.10994503072E+02  0.16990186420E+02 -0.20709780951E+02  0.28955838089E+02  0.00000000000E+00 0. -1.
</event>
<event>
 6    1  0.8017648E-006  0.8319548E+02  0.7818608E-02  0.1391447E+00
          2   -1    0    0  502    0  0.00000000000E+00  0.00000000000E+00  0.90174505384E+02  0.90174505384E+02  0.00000000000E+00 0. -1.
          1   -1    0    0  501    0 -0.00000000000E+00 -0.00000000000E+00 -0.69406653504E+03  0.69406653504E+03  0.00000000000E+00 0.  1.
          2    1    1    2  501    0 -0.26782245652E+02 -0.72216794274E+01 -0.36322537203E+01  0.27975607286E+02  0.00000000000E+00 0. -1.
          1    1    1    2  502    0  0.66341843590E+02  0.12685856946E+02 -0.61978735943E+03  0.62345692881E+03  0.00000000000E+00 0.  1.
         22    1    1    2    0    0 -0.84065867126E+01 -0.23460079493E+02 -0.49246261707E+02  0.55192756065E+02  0.00000000000E+00 0. -1.
         22    1    1    2    0    0 -0.31153011225E+02  0.17995901975E+02  0.68773845193E+02  0.77615748266E+02  0.00000000000E+00 0. -1.
</event>
<event>
 6    1  0.8017648E-006  0.1413785E+03  0.7818608E-02  0.1341867E+00
          2   -1    0    0  502    0  0.00000000000E+00  0.00000000000E+00  0.44609487115E+03  0.44609487115E+03  0.00000000000E+00 0.  1.
          1   -1    0    0  501    0 -0.00000000000E+00 -0.00000000000E+00 -0.90396849561E+02  0.90396849561E+02  0.00000000000E+00 0. -1.
          2    1    1    2  501    0  0.22888605035E+00  0.41396986756E+02  0.14669885945E+03  0.15242807571E+03  0.00000000000E+00 0.  1.
          1    1    1    2  502    0  0.13044548134E+03 -0.59031048325E+02  0.10018957896E+03  0.17475308294E+03  0.00000000000E+00 0. -1.
         22    1    1    2    0    0  0.11465594784E+02  0.16978126115E+01  0.55453891487E+02  0.56652241901E+02  0.00000000000E+00 0. -1.
         22    1    1    2    0    0 -0.14213996217E+03  0.15936248957E+02  0.53355691700E+02  0.15265832016E+03  0.00000000000E+00 0.  1.
</event>
<event>
 6    1  0.8017648E-006  0.4840555E+02  0.7818608E-02  0.1499580E+00
          2   -1    0    0  502    0  0.00000000000E+00  0.00000000000E+00  0.20747277044E+03  0.20747277044E+03  0.00000000000E+00 0. -1.
          1   -1    0    0  501    0 -0.00000000000E+00 -0.00000000000E+00 -0.36617853611E+03  0.36617853611E+03  0.00000000000E+00 0. -1.
          2    1    1    2  501    0  0.18681788786E+02 -0.96153104504E+01  0.10589562855E+03  0.10795993504E+03  0.00000000000E+00 0. -1.
          1    1    1    2  502    0 -0.37302351418E+01  0.58404624287E+02 -0.31665242400E+03  0.32201517421E+03  0.00000000000E+00 0. -1.
         22    1    1    2    0    0 -0.28276416301E+01 -0.25239704673E+02 -0.40281436430E+02  0.47619663690E+02  0.00000000000E+00 0.  1.
         22    1    1    2    0    0 -0.12123912014E+02 -0.23549609164E+02  0.92332466205E+02  0.96056533613E+02  0.00000000000E+00 0.  1.
</event>
<event>
 6    1  0.8017648E-006  0.2161683E+03  0.7818608E-02  0.1223833E+00
          2   -1    0    0  502    0  0.00000000000E+00  0.00000000000E+00  0.10573137744E+04  0.10573137744E+04  0.00000000000E+00 0. -1.
          1   -1    0    0  501    0 -0.00000000000E+00 -0.00000000000E+00 -0.57783257398E+02  0.57783257398E+02  0.00000000000E+00 0. -1.
          2    1    1    2  501    0 -0.31908519448E+02  0.45822501649E+02  0.10693388983E+03  0.12063462216E+03  0.00000000000E+00 0. -1.
          1    1    1    2  502    0  0.14180998266E+03 -0.14399921715E+03  0.23617875650E+03  0.31084763268E+03  0.00000000000E+00 0. -1.
         22    1    1    2    0    0  0.20728511613E+02  0.22356787554E+02  0.49086410312E+02  0.57783845673E+02  0.00000000000E+00 0.  1.
         22    1    1    2    0    0 -0.13062997483E+03  0.75819927952E+02  0.60733146033E+03  0.62583093124E+03  0.00000000000E+00 0.  1.
</event>
<event>
 6    1  0.8017648E-006  0.4833595E+02  0.7818608E-02  0.1551132E+00
          2   -1    0    0  502    0  0.00000000000E+00  0.00000000000E+00  0.32370963127E+03  0.32370963127E+03  0.00000000000E+00 0.  1.
          1   -1    0    0  501    0 -0.00000000000E+00 -0.00000000000E+00 -0.14944681698E+03  0.14944681698E+03  0.00000000000E+00 0. -1.
          2    1    1    2  501    0  0.71000276447E+01 -0.22932374499E+02  0.21183204110E+03  0.21318798707E+03  0.00000000000E+00 0.  1.
          1    1    1    2  502    0 -0.26586372964E+02  0.46637630663E+02 -0.99312411476E+02  0.11289313041E+03  0.00000000000E+00 0. -1.
         22    1    1    2    0    0  0.12529944261E+02 -0.29077160716E+01 -0.40506796413E+02  0.42500057313E+02  0.00000000000E+00 0. -1.
         22    1    1    2    0    0  0.69564010577E+01 -0.20797540092E+02  0.10224998108E+03  0.10457527346E+03  0.00000000000E+00 0. -1.
</event>
<event>
 6    1  0.8017648E-006  0.2412753E+03  0.7818608E-02  0.1123691E+00
          2   -1    0    0  502    0  0.00000000000E+00  0.00000000000E+00  0.22413610736E+03  0.22413610736E+03  0.00000000000E+00 0.  1.
          1   -1    0    0  501    0 -0.00000000000E+00 -0.00000000000E+00 -0.23255317045E+03  0.23255317045E+03  0.00000000000E+00 0.  1.
          2    1    1    2  501    0 -0.68849217000E+02  0.17069049231E+03  0.58185466136E+01  0.18414481891E+03  0.00000000000E+00 0.  1.
          1    1    1    2  502    0 -0.69170215217E+01 -0.10780194846E+03  0.14908543081E+02  0.10904755813E+03  0.00000000000E+00 0.  1.
         22    1    1    2    0    0  0.98710959983E+02 -0.82240635976E+02 -0.34440840557E+02  0.13301709411E+03  0.00000000000E+00 0.  1.
         22    1    1    2    0    0 -0.22944721461E+02  0.19352092124E+02  0.52966877678E+01  0.30479806656E+02  0.00000000000E+00 0. -1.
</event>
<event>
 6    1  0.8017648E-006  0.8069367E+02  0.7818608E-02  0.1369837E+00
          2   -1    0    0  502    0  0.00000000000E+00  0.00000000000E+00  0.18585085195E+03  0.18585085195E+03  0.00000000000E+00 0. -1.
          1   -1    0    0  501    0 -0.00000000000E+00 -0.00000000000E+00 -0.47830934749E+03  0.47830934749E+03  0.00000000000E+00 0.  1.
          2    1    1    2  501    0  0.30879257127E+01  0.33409110362E+02  0.40469392957E+02  0.52568771212E+02  0.00000000000E+00 0. -1.
          1    1    1    2  502    0 -0.95591849694E+01 -0.24327669137E+02 -0.44131429248E+03  0.44208768163E+03  0.00000000000E+00 0.  1.
         22    1    1    2    0    0 -0.35201643835E+02 -0.16413072296E+02 -0.12996939600E+02  0.40956868897E+02  0.00000000000E+00 0.  1.
         22    1    1    2    0    0  0.41672903092E+02  0.73316310702E+01  0.12138334358E+03  0.12854687770E+03  0.00000000000E+00 0.  1.
</event>
<event>
 6    1  0.8017648E-006  0.2150044E+03  0.7818608E-02  0.1215001E+00
          2   -1    0    0  502    0  0.00000000000E+00  0.00000000000E+00  0.50898160399E+02  0.50898160399E+02  0.00000000000E+00 0. -1.
          1   -1    0    0  501    0 -0.00000000000E+00 -0.00000000000E+00 -0.96678476735E+03  0.96678476735E+03  0.00000000000E+00 0. -1.
          2    1    1    2  501    0  0.53686684848E+02  0.26851514656E+02 -0.59458504682E+03  0.59760743124E+03  0.00000000000E+00 0. -1.
          1    1    1    2  502    0 -0.79218556692E+02  0.50213835163E+02 -0.41392786767E+02  0.10252010419E+03  0.00000000000E+00 0. -1.
         22    1    1    2    0    0  0.60311767213E+02 -0.90559179466E+02 -0.17347694217E+03  0.20477481221E+03  0.00000000000E+00 0. -1.
         22    1    1    2    0    0 -0.34779895369E+02  0.13493829647E+02 -0.10643183119E+03  0.11278058012E+03  0.00000000000E+00 0. -1.
</event>
<event>
 6    1  0.8017648E-006  0.6750485E+02  0.7818608E-02  0.1472981E+00
          2   -1    0    0  502    0  0.00000000000E+00  0.00000000000E+00  0.33225136295E+03  0.33225136295E+03  0.00000000000E+00 0. -1.
          1   -1    0    0  501    0 -0.00000000000E+00 -0.00000000000E+00 -0.10869141222E+04  0.10869141222E+04  0.00000000000E+00 0.  1.
          2    1    1    2  501    0  0.29651912927E+01  0.25160902839E+02  0.17259125520E+03  0.17444083456E+03  0.00000000000E+00 0. -1.
          1    1    1    2  502    0 -0.27754990418E+02 -0.53563265074E+02 -0.10571337901E+04  0.10588537260E+04  0.00000000000E+00 0.  1.
         22    1    1    2    0    0  0.34803448118E+02  0.19212424008E+02  0.15353003545E+03  0.15859340788E+03  0.00000000000E+00 0.  1.
         22    1    1    2    0    0 -0.10013648992E+02  0.91899382265E+01 -0.23650259865E+02  0.27277516794E+02  0.00000000000E+00 0.  1.
</event>
<event>
 6    1  0.8017648E-006  0.2094026E+03  0.7818608E-02  0.1231636E+00
          2   -1    0    0  502    0  0.00000000000E+00  0.00000000000E+00  0.43818869926E+03  0.43818869926E+03  0.00000000000E+00 0. -1.
          1   -1    0    0  501    0 -0.00000000000E+00 -0.00000000000E+00 -0.19898340458E+03  0.19898340458E+03  0.00000000000E+00 0.  1.
          2    1    1    2  501    0 -0.50674837985E+02 -0.15302355690E+03  0.24790488239E+03  0.29570420843E+03  0.00000000000E+00 0. -1.
          1    1    1    2  502    0  0.17926477271E+02  0.20339871894E+03  0.88187938386E+01  0.20437751485E+03  0.00000000000E+00 0.  1.
         22    1    1    2    0    0  0.44736073633E+01 -0.46562924097E+02  0.47144370807E+02  0.66413182141E+02  0.00000000000E+00 0.  1.
         22    1    1    2    0    0  0.28274753350E+02 -0.38122379428E+01 -0.64662752348E+02  0.70677198419E+02  0.00000000000E+00 0.  1.
</event>
<event>
 6    1  0.8017648E-006  0.7931639E+02  0.7818608E-02  0.1341636E+00
          2   -1    0    0  502    0  0.00000000000E+00  0.00000000000E+00  0.30248906693E+03  0.30248906693E+03  0.00000000000E+00 0. -1.
          1   -1    0    0  501    0 -0.00000000000E+00 -0.00000000000E+00 -0.68293609321E+02  0.68293609321E+02  0.00000000000E+00 0. -1.
          2    1    1    2  501    0 -0.46783737056E+02  0.36275767970E+02  0.85711123410E+02  0.10416835446E+03  0.00000000000E+00 0. -1.
          1    1    1    2  502    0 -0.33293173044E+02 -0.40296305115E+02  0.88195804965E+02  0.10252183958E+03  0.00000000000E+00 0. -1.
         22    1    1    2    0    0  0.31401644995E+01  0.44668537403E+02  0.62695664491E+02  0.77044696201E+02  0.00000000000E+00 0. -1.
         22    1    1    2    0    0  0.76936745600E+02 -0.40648000258E+02 -0.24071352601E+01  0.87047786007E+02  0.00000000000E+00 0. -1.
</event>
<event>
 6    1  0.8017648E-006  0.8370331E+02  0.7818608E-02  0.1353457E+00
          2   -1    0    0  502    0  0.00000000000E+00  0.00000000000E+00  0.10009371960E+03  0.10009371960E+03  0.00000000000E+00 0. -1.
          1   -1    0    0  501    0 -0.00000000000E+00 -0.00000000000E+00 -0.23127845813E+03  0.23127845813E+03  0.00000000000E+00 0. -1.
          2    1    1    2  501    0  0.17356645855E+02 -0.19422084598E+02 -0.31843813768E+01  0.26241394975E+02  0.00000000000E+00 0. -1.
          1    1    1    2  502    0 -0.14483736822E+02  0.68544786444E+02 -0.15260546866E+03  0.16791841902E+03  0.00000000000E+00 0. -1.
         22    1    1    2    0    0 -0.37380749134E+02 -0.19013225481E+02  0.64191882322E+02  0.76677381965E+02  0.00000000000E+00 0. -1.
         22    1    1    2    0    0  0.34507840101E+02 -0.30109476365E+02 -0.39586770816E+02  0.60534981780E+02  0.00000000000E+00 0.  1.
</event>
<event>
 6    1  0.8017648E-006  0.5802693E+02  0.7818608E-02  0.1451572E+00
          2   -1    0    0  502    0  0.00000000000E+00  0.00000000000E+00  0.56982150463E+03  0.56982150463E+03  0.00000000000E+00 0.  1.
          1   -1    0    0  501    0 -0.00000000000E+00 -0.00000000000E+00 -0.44123120431E+02  0.44123120431E+02  0.00000000000E+00 0.  1.
          2    1    1    2  501    0  0.12679706791E+02  0.21572462762E+02  0.18207681083E+03  0.18378822366E+03  0.00000000000E+00 0.  1.
          1    1    1    2  502    0  0.59923905154E+01 -0.69017634021E+02  0.25865952512E+03  0.26777619850E+03  0.00000000000E+00 0.  1.
         22    1    1    2    0    0 -0.19912790639E+02  0.21324819895E+02 -0.31548128588E+02  0.42971520709E+02  0.00000000000E+00 0.  1.
         22    1    1    2    0    0  0.12406933327E+01  0.26120351364E+02  0.11651017684E+03  0.11940868219E+03  0.00000000000E+00 0.  1.
</event>
<event>
 6    1  0.8017648E-006  0.1082713E+03  0.7818608E-02  0.1346019E+00
          2   -1    0    0  502    0  0.00000000000E+00  0.00000000000E+00  0.36799335883E+03  0.36799335883E+03  0.00000000000E+00 0.  1.
          1   -1    0    0  501    0 -0.00000000000E+00 -0.00000000000E+00 -0.11628898164E+03  0.11628898164E+03  0.00000000000E+00 0.  1.
          2    1    1    2  501    0 -0.39768502178E+02  0.61227978567E+02  0.20361549135E+03  0.21630919408E+03  0.00000000000E+00 0.  1.
          1    1    1    2  502    0  0.91919654571E+02 -0.82709719308E+02 -0.66574550602E+01  0.12383231514E+03  0.00000000000E+00 0.  1.
         22    1    1    2    0    0 -0.23364998569E+02  0.55922647343E+01 -0.38436388636E+02  0.45327172363E+02  0.00000000000E+00 0.  1.
         22    1    1    2    0    0 -0.28786153824E+02  0.15889476007E+02  0.93182729538E+02  0.98813658893E+02  0.00000000000E+00 0.  1.
</event>
<event>
 6    1  0.8017648E-006  0.5633417E+02  0.7818608E-02  0.1511879E+00
          2   -1    0    0  502    0  0.00000000000E+00  0.00000000000E+00  0.63170923356E+02  0.63170923356E+02  0.00000000000E+00 0. -1.
          1   -1    0    0  501    0 -0.00000000000E+00 -0.00000000000E+00 -0.82806153293E+03  0.82806153293E+03  0.00000000000E+00 0. -1.
          2    1    1    2  501    0  0.72246945794E+02  0.30339637546E+02 -0.62124346323E+03  0.62616575712E+03  0.00000000000E+00 0. -1.
          1    1    1    2  502    0 -0.23871114434E+02 -0.32306597501E+02 -0.11887621597E+03  0.12547948466E+03  0.00000000000E+00 0. -1.
         22    1    1    2    0    0  0.59922727940E+01 -0.12236461635E+02 -0.67583632466E+02  0.68943351412E+02  0.00000000000E+00 0. -1.
         22    1    1    2    0    0 -0.54368104154E+02  0.14203421590E+02  0.42812702086E+02  0.70643863103E+02  0.00000000000E+00 0. -1.
</event>
<event>
 6    1  0.8017648E-006  0.7942879E+02  0.7818608E-02  0.1364187E+00
          2   -1    0    0  502    0  0.00000000000E+00  0.00000000000E+00  0.73758787528E+03  0.73758787528E+03  0.00000000000E+00 0. -1.
          1   -1    0    0  501    0 -0.00000000000E+00 -0.00000000000E+00 -0.76654431081E+02  0.76654431081E+02  0.00000000000E+00 0. -1.
          2    1    1    2  501    0 -0.44100140343E+01 -0.11807099957E+03  0.41630138556E+03  0.43274363402E+03  0.00000000000E+00 0. -1.
          1    1    1    2  502    0  0.25992995338E+02  0.12250890903E+03  0.25870064435E+02  0.12788013462E+03  0.00000000000E+00 0. -1.
         22    1    1    2    0    0 -0.47060164239E+02 -0.12844224587E+02  0.22135395554E+03  0.22666540714E+03  0.00000000000E+00 0.  1.
         22    1    1    2    0    0  0.25477182936E+02  0.84063151270E+01 -0.25919613346E+01  0.26953130578E+02  0.00000000000E+00 0.  1.
</event>
<event>
 6    1  0.8017648E-006  0.9433331E+02  0.7818608E-02  0.1359978E+00
          2   -1    0    0  502    0  0.00000000000E+00  0.00000000000E+00  0.70969105756E+02  0.70969105756E+02  0.00000000000E+00 0. -1.
          1   -1    0    0  501    0 -0.00000000000E+00 -0.00000000000E+00 -0.59125007353E+03  0.59125007353E+03  0.00000000000E+00 0. -1.
          2    1    1    2  501    0 -0.54350770301E+00 -0.44055159714E+02 -0.17017714731E+02  0.47230870336E+02  0.00000000000E+00 0. -1.
          1    1    1    2  502    0 -0.23517705744E+02  0.51251575340E+02 -0.48002539631E+03  0.48332617099E+03  0.00000000000E+00 0. -1.
         22    1    1    2    0    0  0.26459950241E+02  0.11005595546E+02 -0.73105757473E+02  0.78521996127E+02  0.00000000000E+00 0. -1.
         22    1    1    2    0    0 -0.23987367940E+01 -0.18202011173E+02  0.49867900746E+02  0.53140141831E+02  0.00000000000E+00 0. -1.
</event>
<event>
 6    1  0.8017648E-006  0.4821114E+02  0.7818608E-02  0.1478431E+00
          2   -1    0    0  502    0  0.00000000000E+00  0.00000000000E+00  0.91852694252E+02  0.91852694252E+02  0.00000000000E+00 0. -1.
          1   -1    0    0  501    0 -0.00000000000E+00 -0.00000000000E+00 -0.29591268150E+03  0.29591268150E+03  0.00000000000E+00 0. -1.
          2    1    1    2  501    0 -0.17339957484E+02 -0.29917326964E+02  0.47343045634E+02  0.58626653906E+02  0.00000000000E+00 0. -1.
          1    1    1    2  502    0 -0.10093860827E+02  0.17748876861E+02 -0.18045824516E+03  0.18160971038E+03  0.00000000000E+00 0. -1.
         22    1    1    2    0    0  0.34080817610E+01 -0.12631765257E+02  0.34328672375E+02  0.36737368739E+02  0.00000000000E+00 0. -1.
         22    1    1    2    0    0  0.24025736550E+02  0.24800215360E+02 -0.10527346010E+03  0.11079164274E+03  0.00000000000E+00 0.  1.
</event>
<event>
 6    1  0.8017648E-006  0.9615004E+02  0.7818608E-02  0.1418745E+00
          2   -1    0    0  502    0  0.00000000000E+00  0.00000000000E+00  0.16163749895E+03  0.16163749895E+03  0.00000000000E+00 0.  1.
          1   -1    0    0  501    0 -0.00000000000E+00 -0.00000000000E+00 -0.12508689448E+03  0.12508689448E+03  0.00000000000E+00 0. -1.
          2    1    1    2  501    0  0.30772714140E+00  0.34304696062E+02  0.32755757042E+02  0.47432546709E+02  0.00000000000E+00 0.  1.
          1    1    1    2  502    0 -0.38268216410E+02 -0.25970188915E+01 -0.74291595332E+02  0.83608863353E+02  0.00000000000E+00 0. -1.
         22    1    1    2    0    0  0.43153915902E+02 -0.40846291540E+02  0.10838981296E+03  0.12360837975E+03  0.00000000000E+00 0.  1.
         22    1    1    2    0    0 -0.51934266343E+01  0.91386143695E+01 -0.30303370198E+02  0.32074603632E+02  0.00000000000E+00 0. -1.
</event>
<event>
 6    1  0.8017648E-006  0.4857035E+02  0.7818608E-02  0.1515309E+00
          2   -1    0    0  502    0  0.00000000000E+00  0.00000000000E+00  0.10803538588E+03  0.10803538588E+03  0.00000000000E+00 0. -1.
          1   -1    0    0  501    0 -0.00000000000E+00 -0.00000000000E+00 -0.14047854751E+04  0.14047854751E+04  0.00000000000E+00 0. -1.
          2    1    1    2  501    0  0.50315604720E+02 -0.56822447664E+02  0.16270877685E+02  0.77622110880E+02  0.00000000000E+00 0. -1.
          1    1    1    2  502    0 -0.65584800012E+02  0.65437905206E+02 -0.13094295502E+04  0.13127030252E+04  0.00000000000E+00 0. -1.
         22    1    1    2    0    0  0.19422782400E+00  0.10003816084E+02 -0.60200350339E+02  0.61026193079E+02  0.00000000000E+00 0.  1.
         22    1    1    2    0    0  0.15074967468E+02 -0.18619273626E+02  0.56608933549E+02  0.61469531900E+02  0.00000000000E+00 0. -1.
</event>
<event>
 6    1  0.8017648E-006  0.1186266E+03  0.7818608E-02  0.1315333E+00
          2   -1    0    0  502    0  0.00000000000E+00  0.00000000000E+00  0.88780683013E+02  0.88780683013E+02  0.00000000000E+00 0. -1.
          1   -1    0    0  501    0 -0.00000000000E+00 -0.00000000000E+00 -0.22257775243E+03  0.22257775243E+03  0.00000000000E+00 0. -1.
          2    1    1    2  501    0 -0.10011145315E+02 -0.17677956240E+02  0.27697525074E+00  0.20317723363E+02  0.00000000000E+00 0. -1.
          1    1    1    2  502    0  0.78000557339E+02  0.68531579378E+02 -0.89202654911E+02  0.13688600352E+03  0.00000000000E+00 0. -1.
         22    1    1    2    0    0  0.29481411636E+02 -0.10591936270E+02 -0.36886868477E+02  0.48394047278E+02  0.00000000000E+00 0. -1.
         22    1    1    2    0    0 -0.97470823660E+02 -0.40261686868E+02 -0.79845212816E+01  0.10576066128E+03  0.00000000000E+00 0. -1.
</event>
<event>
 6    1  0.8017648E-006  0.2292182E+03  0.7818608E-02  0.1229773E+00
          2   -1    0    0  502    0  0.00000000000E+00  0.00000000000E+00  0.57288220861E+03  0.57288220861E+03  0.00000000000E+00 0. -1.
          1   -1    0    0  501    0 -0.00000000000E+00 -0.00000000000E+00 -0.17303375302E+03  0.17303375302E+03  0.00000000000E+00 0. -1.
          2    1    1    2  501    0 -0.58025258057E+02  0.30812446499E+02  0.24245269901E+03  0.25119643447E+03  0.00000000000E+00 0. -1.
          1    1    1    2  502    0  0.16398302436E+03  0.86133159773E+02 -0.61788304803E+02  0.19526174254E+03  0.00000000000E+00 0. -1.
         22    1    1    2    0    0  0.79051595785E+01 -0.21177143191E+02 -0.11184843171E+02  0.25220302505E+02  0.00000000000E+00 0. -1.
         22    1    1    2    0    0 -0.11386292588E+03 -0.95768463081E+02  0.23036890456E+03  0.27423748212E+03  0.00000000000E+00 0. -1.
</event>
<event>
 6    1  0.8017648E-006  0.1521664E+03  0.7818608E-02  0.1235517E+00
          2   -1    0    0  502    0  0.00000000000E+00  0.00000000000E+00  0.89954108007E+03  0.89954108007E+03  0.00000000000E+00 0.  1.
          1   -1    0    0  501    0 -0.00000000000E+00 -0.00000000000E+00 -0.52950458169E+02  0.52950458169E+02  0.00000000000E+00 0. -1.
          2    1    1    2  501    0 -0.12364158563E+03  0.80058071741E+02  0.39752479964E+03  0.42393690907E+03  0.00000000000E+00 0.  1.
          1    1    1    2  502    0  0.77547925405E+02 -0.10252061839E+03  0.29972076667E+03  0.32612374324E+03  0.00000000000E+00 0. -1.
         22    1    1    2    0    0 -0.22419829514E+02  0.17973547048E+02  0.12702366141E+03  0.13023328187E+03  0.00000000000E+00 0. -1.
         22    1    1    2    0    0  0.68513489735E+02  0.44889995989E+01  0.22321394178E+02  0.72197604054E+02  0.00000000000E+00 0. -1.
</event>
<event>
 6    1  0.8017648E-006  0.3324533E+02  0.7818608E-02  0.1642078E+00
          2   -1    0    0  502    0  0.00000000000E+00  0.00000000000E+00  0.15314567428E+03  0.15314567428E+03  0.00000000000E+00 0. -1.
          1   -1    0    0  501    0 -0.00000000000E+00 -0.00000000000E+00 -0.87632802958E+02  0.87632802958E+02  0.00000000000E+00 0. -1.
          2    1    1    2  501    0  0.35441360911E+02 -0.27391197123E+02  0.63468449566E+02  0.77682764068E+02  0.00000000000E+00 0. -1.
          1    1    1    2  502    0 -0.14206248673E+02  0.29643637470E+02  0.16257699007E+02  0.36672544510E+02  0.00000000000E+00 0. -1.
         22    1    1    2    0    0  0.60667690247E+01 -0.92519907265E+01  0.52682831185E+02  0.53832013900E+02  0.00000000000E+00 0. -1.
         22    1    1    2    0    0 -0.27301881262E+02  0.69995503794E+01 -0.66896108434E+02  0.72591154761E+02  0.00000000000E+00 0. -1.
</event>
<event>
 6    1  0.8017648E-006  0.1100681E+03  0.7818608E-02  0.1357889E+00
          2   -1    0    0  502    0  0.00000000000E+00  0.00000000000E+00  0.85029702255E+03  0.85029702255E+03  0.00000000000E+00 0. -1.
          1   -1    0    0  501    0 -0.00000000000E+00 -0.00000000000E+00 -0.26674651632E+02  0.26674651632E+02  0.00000000000E+00 0. -1.
          2    1    1    2  501    0 -0.18817565364E+01  0.22726031810E+02  0.64714569712E+02  0.68614787492E+02  0.00000000000E+00 0. -1.
          1    1    1    2  502    0  0.72940341683E+02 -0.74984843448E+02  0.48324817937E+03  0.49444091969E+03  0.00000000000E+00 0. -1.
         22    1    1    2    0    0 -0.75225369031E+02  0.34043057494E+02  0.28226697403E+03  0.29409595464E+03  0.00000000000E+00 0. -1.
         22    1    1    2    0    0  0.41667838848E+01  0.18215754144E+02 -0.66073521967E+01  0.19820012362E+02  0.00000000000E+00 0. -1.
</event>
<event>
 6    1  0.8017648E-006  0.1199263E+03  0.7818608E-02  0.1377266E+00
          2   -1    0    0  502    0  0.00000000000E+00  0.00000000000E+00  0.48961695375E+03  0.48961695375E+03  0.00000000000E+00 0. -1.
          1   -1    0    0  501    0 -0.00000000000E+00 -0.00000000000E+00 -0.29517337165E+03  0.29517337165E+03  0.00000000000E+00 0.  1.
          2    1    1    2  501    0  0.91473148751E+01  0.13258820149E+03  0.14982478758E+03  0.20027673733E+03  0.00000000000E+00 0. -1.
          1    1    1    2  502    0  0.86850132016E+02 -0.88809972640E+02 -0.23183273709E+03  0.26301440009E+03  0.00000000000E+00 0.  1.
         22    1    1    2    0    0  0.98804283394E+01  0.17034829806E+01 -0.91207068000E+01  0.13554040393E+02  0.00000000000E+00 0.  1.
         22    1    1    2    0    0 -0.10587787523E+03 -0.45481711829E+02  0.28557223841E+03  0.30794514759E+03  0.00000000000E+00 0.  1.
</event>
<event>
 6    1  0.8017648E-006  0.9162723E+02  0.7818608E-02  0.1376527E+00
          2   -1    0    0  502    0  0.00000000000E+00  0.00000000000E+00  0.21337330759E+03  0.21337330759E+03  0.00000000000E+00 0. -1.
          1   -1    0    0  501    0 -0.00000000000E+00 -0.00000000000E+00 -0.68327114211E+02  0.68327114211E+02  0.00000000000E+00 0. -1.
          2    1    1    2  501    0  0.23902405625E+02 -0.31199683628E+01  0.73992542237E+02  0.77820019943E+02  0.00000000000E+00 0. -1.
          1    1    1    2  502    0  0.19667375936E+02  0.30014075326E+02 -0.16570817786E+02  0.39525212156E+02  0.00000000000E+00 0. -1.
         22    1    1    2    0    0  0.25534287550E+01  0.23622680404E+02 -0.23786052682E+02  0.33620341017E+02  0.00000000000E+00 0.  1.
         22    1    1    2    0    0 -0.46123210316E+02 -0.50516787367E+02  0.11141052161E+03  0.13073484869E+03  0.00000000000E+00 0. -1.
</event>
<event>
 6    1  0.8017648E-006  0.7495100E+02  0.7818608E-02  0.1350071E+00
          2   -1    0    0  502    0  0.00000000000E+00  0.00000000000E+00  0.19115800031E+03  0.19115800031E+03  0.00000000000E+00 0.  1.
          1   -1    0    0  501    0 -0.00000000000E+00 -0.00000000000E+00 -0.10751180462E+03  0.10751180462E+03  0.00000000000E+00 0.  1.
          2    1    1    2  501    0  0.27843038832E+02  0.39639168388E+02  0.32646851461E+02  0.58415027109E+02  0.00000000000E+00 0.  1.
          1    1    1    2  502    0 -0.38579306310E+02  0.31943621078E+02  0.79841673638E+02  0.94252059141E+02  0.00000000000E+00 0.  1.
         22    1    1    2    0    0  0.28372349172E+02  0.84272116522E+01  0.32272072284E+02  0.43789208069E+02  0.00000000000E+00 0.  1.
         22    1    1    2    0    0 -0.17636081693E+02 -0.80010001118E+02 -0.61114401698E+02  0.10221351061E+03  0.00000000000E+00 0.  1.
</event>
<event>
 6    1  0.8017648E-006  0.1092458E+03  0.7818608E-02  0.1388957E+00
          2   -1    0    0  502    0  0.00000000000E+00  0.00000000000E+00  0.12489485022E+04  0.12489485022E+04  0.00000000000E+00 0.  1.
          1   -1    0    0  501    0 -0.00000000000E+00 -0.00000000000E+00 -0.47825441232E+02  0.47825441232E+02  0.00000000000E+00 0.  1.
          2    1    1    2  501    0 -0.11339571506E+03 -0.13230129916E+02  0.12201891030E+03  0.16709948833E+03  0.00000000000E+00 0.  1.
          1    1    1    2  502    0  0.10026009784E+03 -0.94766069063E+02  0.74636376419E+03  0.75900695883E+03  0.00000000000E+00 0.  1.
         22    1    1    2    0    0 -0.76444808923E+01  0.77274515932E+01 -0.88764611014E+01  0.14033643786E+02  0.00000000000E+00 0. -1.
         22    1    1    2    0    0  0.20780098116E+02  0.10026874739E+03  0.34161684762E+03  0.35663385252E+03  0.00000000000E+00 0.  1.
</event>
<event>
 6    1  0.8017648E-006  0.4654419E+02  0.7818608E-02  0.1518680E+00
          2   -1    0    0  502    0  0.00000000000E+00  0.00000000000E+00  0.32338245397E+03  0.32338245397E+03  0.00000000000E+00 0.  1.
          1   -1    0    0  501    0 -0.00000000000E+00 -0.00000000000E+00 -0.56499625425E+02  0.56499625425E+02  0.00000000000E+00 0.  1.
          2    1    1    2  501    0 -0.24112195889E+02 -0.41188816851E+02  0.93564543963E+02  0.10503447297E+03  0.00000000000E+00 0.  1.
          1    1    1    2  502    0 -0.65440497018E+01  0.54458383303E+02 -0.50039857009E+01  0.55077944509E+02  0.00000000000E+00 0.  1.
         22    1    1    2    0    0 -0.18312962433E+02 -0.13079086697E+02 -0.10404833806E+02  0.24792895523E+02  0.00000000000E+00 0. -1.
         22    1    1    2    0    0  0.48969208024E+02 -0.19047975475E+00  0.18872710409E+03  0.19497676640E+03  0.00000000000E+00 0. -1.
</event>
<event>
 6    1  0.8017648E-006  0.6177678E+02  0.7818608E-02  0.1499855E+00
          2   -1    0    0  502    0  0.00000000000E+00  0.00000000000E+00  0.36431600522E+03  0.36431600522E+03  0.00000000000E+00 0. -1.
          1   -1    0    0  501    0 -0.00000000000E+00 -0.00000000000E+00 -0.38885761224E+02  0.38885761224E+02  0.00000000000E+00 0.  1.
          2    1    1    2  501    0  0.43736999613E+00 -0.53426604103E+02  0.10067490221E+03  0.11397380950E+03  0.00000000000E+00 0. -1.
          1    1    1    2  502    0 -0.23020348956E+02 -0.25546568863E+02  0.27562227496E+02  0.44070852400E+02  0.00000000000E+00 0.  1.
         22    1    1    2    0    0  0.21782576901E+02  0.66827486655E+02  0.21352049665E+03  0.22479189514E+03  0.00000000000E+00 0.  1.
         22    1    1    2    0    0  0.80040205827E+00  0.12145686311E+02 -0.16327382358E+02  0.20365209404E+02  0.00000000000E+00 0.  1.
</event>
<event>
 6    1  0.8017648E-006  0.1707353E+03  0.7818608E-02  0.1205221E+00
          2   -1    0    0  502    0  0.00000000000E+00  0.00000000000E+00  0.31953784972E+04  0.31953784972E+04  0.00000000000E+00 0. -1.
          1   -1    0    0  501    0 -0.00000000000E+00 -0.00000000000E+00 -0.19156387305E+02  0.19156387305E+02  0.00000000000E+00 0. -1.
          2    1    1    2  501    0  0.72379674534E+02 -0.32095049529E+02  0.28256697890E+03  0.29345017814E+03  0.00000000000E+00 0. -1.
          1    1    1    2  502    0 -0.14318274583E+03  0.97068629376E+02  0.22962457022E+04  0.23027522538E+04  0.00000000000E+00 0. -1.
         22    1    1    2    0    0  0.15351621884E+02 -0.90503074932E+02  0.44056786122E+03  0.45002946482E+03  0.00000000000E+00 0. -1.
         22    1    1    2    0    0  0.55451449407E+02  0.25529495084E+02  0.15684156752E+03  0.16830298768E+03  0.00000000000E+00 0. -1.
</event>
<event>
 6    1  0.8017648E-006  0.1572146E+03  0.7818608E-02  0.1283246E+00
          2   -1    0    0  502    0  0.00000000000E+00  0.00000000000E+00  0.81738867968E+03  0.81738867968E+03  0.00000000000E+00 0. -1.
          1   -1    0    0  501    0 -0.00000000000E+00 -0.00000000000E+00 -0.40151069146E+02  0.40151069146E+02  0.00000000000E+00 0. -1.
          2    1    1    2  501    0 -0.16152890415E+02  0.17008875580E+02  0.22649960383E+02  0.32607336945E+02  0.00000000000E+00 0. -1.
          1    1    1    2  502    0  0.56223911771E+02 -0.13292995929E+03  0.45890208225E+03  0.48106405335E+03  0.00000000000E+00 0. -1.
         22    1    1    2    0    0 -0.79172462198E+01 -0.23009752533E+02  0.13824508082E+02  0.27986577551E+02  0.00000000000E+00 0. -1.
         22    1    1    2    0    0 -0.32153775136E+02  0.13893083624E+03  0.28186105981E+03  0.31588178097E+03  0.00000000000E+00 0. -1.
</event>
<event>
 6    1  0.8017648E-006  0.2462679E+03  0.7818608E-02  0.1180997E+00
          2   -1    0    0  502    0  0.00000000000E+00  0.00000000000E+00  0.42966605617E+03  0.42966605617E+03  0.00000000000E+00 0. -1.
          1   -1    0    0  501    0 -0.00000000000E+00 -0.00000000000E+00 -0.30060943337E+03  0.30060943337E+03  0.00000000000E+00 0. -1.
          2    1    1    2  501    0 -0.63521716230E+02  0.21067180693E+03 -0.35145186513E+01  0.22006810425E+03  0.00000000000E+00 0. -1.
          1    1    1    2  502    0  0.10780361612E+03 -0.20407696864E+03  0.24627347645E+03  0.33751985717E+03  0.00000000000E+00 0. -1.
         22    1    1    2    0    0 -0.69991850618E+01 -0.51622827348E+02 -0.99829015014E+02  0.11260433888E+03  0.00000000000E+00 0.  1.
         22    1    1    2    0    0 -0.37282714826E+02  0.45027989058E+02 -0.13873319993E+02  0.60083189255E+02  0.00000000000E+00 0.  1.
</event>
<event>
 6    1  0.8017648E-006  0.5930002E+02  0.7818608E-02  0.1469003E+00
          2   -1    0    0  502    0  0.00000000000E+00  0.00000000000E+00  0.19280931559E+03  0.19280931559E+03  0.00000000000E+00 0. -1.
          1   -1    0    0  501    0 -0.00000000000E+00 -0.00000000000E+00 -0.48863885631E+03  0.48863885631E+03  0.00000000000E+00 0.  1.
          2    1    1    2  501    0  0.20964620903E+02 -0.35507355971E+02  0.14529051010E+03  0.15102854030E+03  0.00000000000E+00 0. -1.
          1    1    1    2  502    0 -0.10469489533E+02  0.50459163087E+02 -0.38495350819E+03  0.38838761672E+03  0.00000000000E+00 0.  1.
         22    1    1    2    0    0  0.10680961901E+02 -0.13530009512E+02  0.39997401593E+02  0.43553831505E+02  0.00000000000E+00 0. -1.
         22    1    1    2    0    0 -0.21176093270E+02 -0.14217976035E+01 -0.96163944216E+02  0.98478183380E+02  0.00000000000E+00 0. -1.
</event>
<event>
 6    1  0.8017648E-006  0.4071557E+02  0.7818608E-02  0.1611203E+00
          2   -1    0    0  502    0  0.00000000000E+00  0.00000000000E+00  0.11062002062E+03  0.11062002062E+03  0.00000000000E+00 0.  1.
          1   -1    0    0  501    0 -0.00000000000E+00 -0.00000000000E+00 -0.93089294422E+02  0.93089294422E+02  0.00000000000E+00 0.  1.
          2    1    1    2  501    0 -0.29616497024E+02 -0.46211064646E+01 -0.93727942994E+00  0.29989498389E+02  0.00000000000E+00 0.  1.
          1    1    1    2  502    0 -0.23156544611E+02  0.18604292096E+02 -0.79904753241E+01  0.30760249326E+02  0.00000000000E+00 0.  1.
         22    1    1    2    0    0  0.44837965778E+02 -0.74817203218E+01  0.78069066892E+02  0.90339351998E+02  0.00000000000E+00 0.  1.
         22    1    1    2    0    0  0.79350758569E+01 -0.65014653098E+01 -0.51610585941E+02  0.52620215328E+02  0.00000000000E+00 0.  1.
</event>
<event>
 6    1  0.8017648E-006  0.9278728E+02  0.7818608E-02  0.1339267E+00
          2   -1    0    0  502    0  0.00000000000E+00  0.00000000000E+00  0.60510312660E+03  0.60510312660E+03  0.00000000000E+00 0. -1.
          1   -1    0    0  501    0 -0.00000000000E+00 -0.00000000000E+00 -0.10143003118E+03  0.10143003118E+03  0.00000000000E+00 0.  1.
          2    1    1    2  501    0  0.25253833005E+02 -0.54879031527E+02  0.40772826369E+03  0.41217933136E+03  0.00000000000E+00 0. -1.
          1    1    1    2  502    0 -0.57661775333E+02  0.57227182232E+02 -0.54157761644E+02  0.97636539610E+02  0.00000000000E+00 0.  1.
         22    1    1    2    0    0 -0.98863440500E+01  0.47630656641E+01 -0.19173924595E+02  0.22092215316E+02  0.00000000000E+00 0.  1.
         22    1    1    2    0    0  0.42294286378E+02 -0.71112163693E+01  0.16927651797E+03  0.17462507150E+03  0.00000000000E+00 0. -1.
</event>
<event>
 6    1  0.8017648E-006  0.2241328E+03  0.7818608E-02  0.1264374E+00
          2   -1    0    0  502    0  0.00000000000E+00  0.00000000000E+00  0.28474572240E+03  0.28474572240E+03  0.00000000000E+00 0.  1.
          1   -1    0    0  501    0 -0.00000000000E+00 -0.00000000000E+00 -0.13846598910E+03  0.13846598910E+03  0.00000000000E+00 0. -1.
          2    1    1    2  501    0 -0.35587494703E+02 -0.32886265501E+02 -0.92242926651E+01  0.49326096673E+02  0.00000000000E+00 0.  1.
          1    1    1    2  502    0  0.83816611009E+02 -0.10340641693E+03  0.65066154883E+01  0.13326832853E+03  0.00000000000E+00 0. -1.
         22    1    1    2    0    0 -0.54102812881E+02  0.14683728114E+03  0.16034472859E+03  0.22405073863E+03  0.00000000000E+00 0.  1.
         22    1    1    2    0    0  0.58736965745E+01 -0.10544598704E+02 -0.11347318116E+02  0.16566547670E+02  0.00000000000E+00 0.  1.
</event>
<event>
 6    1  0.8017648E-006  0.3707402E+02  0.7818608E-02  0.1611998E+00
          2   -1    0    0  502    0  0.00000000000E+00  0.00000000000E+00  0.32918113022E+02  0.32918113022E+02  0.00000000000E+00 0. -1.
          1   -1    0    0  501    0 -0.00000000000E+00 -0.00000000000E+00 -0.50258533645E+03  0.50258533645E+03  0.00000000000E+00 0.  1.
          2    1    1    2  501    0  0.17279426427E+02 -0.25784096110E+02 -0.85435324009E+01  0.32193013772E+02  0.00000000000E+00 0. -1.
          1    1    1    2  502    0 -0.43050712233E+02  0.40363542481E+01 -0.27618780746E+03  0.27955207202E+03  0.00000000000E+00 0.  1.
         22    1    1    2    0    0  0.87581608995E+01 -0.91662546387E+01  0.15622586998E+02  0.20119414280E+02  0.00000000000E+00 0.  1.
         22    1    1    2    0    0  0.17013124906E+02  0.30913996501E+02 -0.20055847056E+03  0.20363894940E+03  0.00000000000E+00 0.  1.
</event>
<event>
 6    1  0.8017648E-006  0.1871013E+03  0.7818608E-02  0.1189618E+00
          2   -1    0    0  502    0  0.00000000000E+00  0.00000000000E+00  0.47823596189E+03  0.47823596189E+03  0.00000000000E+00 0. -1.
          1   -1    0    0  501    0 -0.00000000000E+00 -0.00000000000E+00 -0.53218790439E+03  0.53218790439E+03  0.00000000000E+00 0.  1.
          2    1    1    2  501    0  0.89964311533E+01 -0.43950683947E+02  0.43446056280E+03  0.43677062518E+03  0.00000000000E+00 0. -1.
          1    1    1    2  502    0 -0.37333845365E+02  0.13612784896E+03 -0.25689554014E+03  0.29312100883E+03  0.00000000000E+00 0.  1.
         22    1    1    2    0    0  0.57832160617E+02 -0.79165311674E+02 -0.22789953674E+03  0.24809253157E+03  0.00000000000E+00 0.  1.
         22    1    1    2    0    0 -0.29494746404E+02 -0.13011853340E+02 -0.36174284197E+01  0.32439700695E+02  0.00000000000E+00 0.  1.
</event>
<event>
 6    1  0.8017648E-006  0.8327477E+02  0.7818608E-02  0.1362299E+00
          2   -1    0    0  502    0  0.00000000000E+00  0.00000000000E+00  0.11953436115E+03  0.11953436115E+03  0.00000000000E+00 0. -1.
          1   -1    0    0  501    0 -0.00000000000E+00 -0.00000000000E+00 -0.22443530663E+03  0.22443530663E+03  0.00000000000E+00 0. -1.
          2    1    1    2  501    0 -0.19851823357E+02  0.33109002915E+02  0.53880871159E+02  0.66283099215E+02  0.00000000000E+00 0. -1.
          1    1    1    2  502    0  0.77047900728E+02 -0.34258212198E+02 -0.29190731988E+02  0.89230616626E+02  0.00000000000E+00 0. -1.
         22    1    1    2    0    0 -0.26826010959E+02  0.27282657010E+02  0.12947533225E+02  0.40393277338E+02  0.00000000000E+00 0. -1.
         22    1    1    2    0    0 -0.30370066412E+02 -0.26133447727E+02 -0.14253861788E+03  0.14806267461E+03  0.00000000000E+00 0. -1.
</event>
<event>
 6    1  0.8017648E-006  0.2239507E+03  0.7818608E-02  0.1173632E+00
          2   -1    0    0  502    0  0.00000000000E+00  0.00000000000E+00  0.79787412368E+03  0.79787412368E+03  0.00000000000E+00 0.  1.
          1   -1    0    0  501    0 -0.00000000000E+00 -0.00000000000E+00 -0.16294799810E+03  0.16294799810E+03  0.00000000000E+00 0.  1.
          2    1    1    2  501    0  0.65030577172E+02 -0.20771380690E+02  0.98660640504E+02  0.11997644855E+03  0.00000000000E+00 0.  1.
          1    1    1    2  502    0 -0.23428477195E+03 -0.98200307279E+02  0.54475164740E+03  0.60107155320E+03  0.00000000000E+00 0.  1.
         22    1    1    2    0    0  0.17792186412E+03  0.12889159093E+03 -0.22123125000E+02  0.22081364225E+03  0.00000000000E+00 0.  1.
         22    1    1    2    0    0 -0.86676693380E+01 -0.99199029641E+01  0.13636962679E+02  0.18960477781E+02  0.00000000000E+00 0.  1.
</event>
<event>
 6    1  0.8017648E-006  0.4842212E+02  0.7818608E-02  0.1522154E+00
          2   -1    0    0  502    0  0.00000000000E+00  0.00000000000E+00  0.10700798300E+03  0.10700798300E+03  0.00000000000E+00 0. -1.
          1   -1    0    0  501    0 -0.00000000000E+00 -0.00000000000E+00 -0.22379870683E+03  0.22379870683E+03  0.00000000000E+00 0. -1.
          2    1    1    2  501    0  0.42833900143E+02  0.58052746175E+01  0.30375467428E+02  0.52830987463E+02  0.00000000000E+00 0. -1.
          1    1    1    2  502    0 -0.57379814048E+02  0.20380885197E+02 -0.13275015280E+03  0.14604939784E+03  0.00000000000E+00 0. -1.
         22    1    1    2    0    0  0.62459970250E+01  0.14507277072E+02 -0.64762423505E+02  0.66660671053E+02  0.00000000000E+00 0.  1.
         22    1    1    2    0    0  0.82999168794E+01 -0.40693436887E+02  0.50346385049E+02  0.65265633478E+02  0.00000000000E+00 0. -1.
</event>
<event>
 6    1  0.8017648E-006  0.1020196E+03  0.7818608E-02  0.1401878E+00
          2   -1    0    0  502    0  0.00000000000E+00  0.00000000000E+00  0.19169776283E+03  0.19169776283E+03  0.00000000000E+00 0. -1.
          1   -1    0    0  501    0 -0.00000000000E+00 -0.00000000000E+00 -0.26073595921E+03  0.26073595921E+03  0.00000000000E+00 0. -1.
          2    1    1    2  501    0 -0.25770553873E+02 -0.70835262307E+01  0.25902872548E+02  0.37219035413E+02  0.00000000000E+00 0. -1.
          1    1    1    2  502    0  0.10324122490E+03 -0.22935669194E+02 -0.20426636141E+03  0.23002074220E+03  0.00000000000E+00 0. -1.
         22    1    1    2    0    0 -0.10104357565E+02  0.53808156877E+01 -0.28007440455E+02  0.30256700747E+02  0.00000000000E+00 0.  1.
         22    1    1    2    0    0 -0.67366313459E+02  0.24638379737E+02  0.13733273293E+03  0.15493724368E+03  0.00000000000E+00 0.  1.
</event>
<event>
 6    1  0.8017648E-006  0.3349421E+02  0.7818608E-02  0.1574706E+00
          2   -1    0    0  502    0  0.00000000000E+00  0.00000000000E+00  0.58297853762E+03  0.58297853762E+03  0.00000000000E+00 0. -1.
          1   -1    0    0  501    0 -0.00000000000E+00 -0.00000000000E+00 -0.48145465889E+02  0.48145465889E+02  0.00000000000E+00 0. -1.
          2    1    1    2  501    0  0.12260200090E+02 -0.61970828339E+02  0.39896551330E+03  0.40393585738E+03  0.00000000000E+00 0. -1.
          1    1    1    2  502    0 -0.67931344528E+01  0.39001059640E+02  0.75535980937E+02  0.85281379825E+02  0.00000000000E+00 0. -1.
         22    1    1    2    0    0  0.13946312189E+02  0.12630244607E+02  0.97184498696E+02  0.98989138239E+02  0.00000000000E+00 0. -1.
         22    1    1    2    0    0 -0.19413377826E+02  0.10339524093E+02 -0.36852921207E+02  0.42917628063E+02  0.00000000000E+00 0. -1.
</event>
<event>
 6    1  0.8017648E-006  0.1326745E+03  0.7818608E-02  0.1346185E+00
          2   -1    0    0  502    0  0.00000000000E+00  0.00000000000E+00  0.93303569485E+03  0.93303569485E+03  0.00000000000E+00 0. -1.
          1   -1    0    0  501    0 -0.00000000000E+00 -0.00000000000E+00 -0.28354819573E+02  0.28354819573E+02  0.00000000000E+00 0.  1.
          2    1    1    2  501    0 -0.10244817926E+02 -0.50744845233E+02  0.21024410859E+03  0.21652385737E+03  0.00000000000E+00 0. -1.
          1    1    1    2  502    0  0.97734443070E+02  0.65777882156E+02  0.28106565600E+03  0.30475671301E+03  0.00000000000E+00 0.  1.
         22    1    1    2    0    0 -0.12418588194E+02 -0.39105568140E+01 -0.57071260078E+01  0.14215663002E+02  0.00000000000E+00 0.  1.
         22    1    1    2    0    0 -0.75071036949E+02 -0.11122480109E+02  0.41907823669E+03  0.42589428104E+03  0.00000000000E+00 0. -1.
</event>
<event>
 6    1  0.8017648E-006  0.3095967E+02  0.7818608E-02  0.1598173E+00
          2   -1    0    0  502    0  0.00000000000E+00  0.00000000000E+00  0.30028784417E+03  0.30028784417E+03  0.00000000000E+00 0.  1.
          1   -1    0    0  501    0 -0.00000000000E+00 -0.00000000000E+00 -0.86108067744E+02  0.86108067744E+02  0.00000000000E+00 0.  1.
          2    1    1    2  501    0 -0.41026837776E+02 -0.35841260598E+02  0.38263133100E+02  0.66572251980E+02  0.00000000000E+00 0.  1.
          1    1    1    2  502    0  0.86369513473E+01  0.44245123311E+02  0.18445960675E+03  0.18988832083E+03  0.00000000000E+00 0.  1.
         22    1    1    2    0    0  0.22866599231E+02  0.12434488065E+02 -0.64454423673E+02  0.69511657906E+02  0.00000000000E+00 0.  1.
         22    1    1    2    0    0  0.95232871987E+01 -0.20838350779E+02  0.55911460248E+02  0.60423681197E+02  0.00000000000E+00 0.  1.
</event>
<event>
 6    1  0.8017648E-006  0.8600364E+02  0.7818608E-02  0.1390745E+00
          2   -1    0    0  502    0  0.00000000000E+00  0.00000000000E+00  0.13777853153E+03  0.13777853153E+03  0.00000000000E+00 0. -1.
          1   -1    0    0  501    0 -0.00000000000E+00 -0.00000000000E+00 -0.13414456865E+03  0.13414456865E+03  0.00000000000E+00 0. -1.
          2    1    1    2  501    0  0.48736368911E+02  0.18289045681E+02  0.55797140484E+02  0.76308870603E+02  0.00000000000E+00 0. -1.
          1    1    1    2  502    0 -0.61229829853E+02 -0.45569685629E+01 -0.28239529301E+02  0.67582017146E+02  0.00000000000E+00 0. -1.
         22    1    1    2    0    0 -0.22273688996E+02  0.49369511680E+01 -0.66306718189E+02  0.70121833870E+02  0.00000000000E+00 0. -1.
         22    1    1    2    0    0  0.34767149939E+02 -0.18669028286E+02  0.42383069886E+02  0.57910378560E+02  0.00000000000E+00 0. -1.
</event>
<event>
 6    1  0.8017648E-006  0.7375891E+02  0.7818608E-02  0.1350587E+00
          2   -1    0    0  502    0  0.00000000000E+00  0.00000000000E+00  0.12867851458E+03  0.12867851458E+03  0.00000000000E+00 0. -1.
          1   -1    0    0  501    0 -0.00000000000E+00 -0.00000000000E+00 -0.19289288204E+03  0.19289288204E+03  0.00000000000E+00 0. -1.
          2    1    1    2  501    0  0.39368404018E+02  0.37179182788E+02  0.42390496734E+02  0.68768576261E+02  0.00000000000E+00 0. -1.
          1    1    1    2  502    0 -0.11222527018E+02  0.54421985035E+02  0.85243812939E+01  0.56217102774E+02  0.00000000000E+00 0. -1.
         22    1    1    2    0    0  0.70939616549E+01 -0.19176623955E+02  0.26611412042E+02  0.33559416698E+02  0.00000000000E+00 0. -1.
         22    1    1    2    0    0 -0.35239838655E+02 -0.72424543868E+02 -0.14174065753E+03  0.16302630088E+03  0.00000000000E+00 0. -1.
</event>
<event>
 6    1  0.8017648E-006  0.1149561E+03  0.7818608E-02  0.1251664E+00
          2   -1    0    0  502    0  0.00000000000E+00  0.00000000000E+00  0.34853331968E+03  0.34853331968E+03  0.00000000000E+00 0.  1.
          1   -1    0    0  501    0 -0.00000000000E+00 -0.00000000000E+00 -0.15373855878E+03  0.15373855878E+03  0.00000000000E+00 0. -1.
          2    1    1    2  501    0 -0.79627996199E+02  0.24234482869E+02  0.18615096764E+03  0.20391201703E+03  0.00000000000E+00 0.  1.
          1    1    1    2  502    0  0.88764995430E+02 -0.39701921719E+02 -0.95950908644E+02  0.13660909147E+03  0.00000000000E+00 0. -1.
         22    1    1    2    0    0  0.15330584067E+02  0.75899887061E+01 -0.24633631287E+02  0.29990840715E+02  0.00000000000E+00 0.  1.
         22    1    1    2    0    0 -0.24467583298E+02  0.78774501438E+01  0.12922833320E+03  0.13175992925E+03  0.00000000000E+00 0.  1.
</event>
<event>
 6    1  0.8017648E-006  0.6666821E+02  0.7818608E-02  0.1399366E+00
          2   -1    0    0  502    0  0.00000000000E+00  0.00000000000E+00  0.24574678905E+03  0.24574678905E+03  0.00000000000E+00 0. -1.
          1   -1    0    0  501    0 -0.00000000000E+00 -0.00000000000E+00 -0.89855933203E+02  0.89855933203E+02  0.00000000000E+00 0. -1.
          2    1    1    2  501    0  0.86448933351E+02  0.74467325088E+01  0.11200491723E+03  0.14168265026E+03  0.00000000000E+00 0. -1.
          1    1    1    2  502    0 -0.35689963766E+02 -0.11762399386E+02 -0.22397567360E+02  0.43746755041E+02  0.00000000000E+00 0. -1.
         22    1    1    2    0    0 -0.35232689218E+02  0.24096931277E+02  0.99641077597E+02  0.10839902597E+03  0.00000000000E+00 0. -1.
         22    1    1    2    0    0 -0.15526280367E+02 -0.19781264400E+02 -0.33357571612E+02  0.41774290983E+02  0.00000000000E+00 0.  1.
</event>
<event>
 6    1  0.8017648E-006  0.7338701E+02  0.7818608E-02  0.1425741E+00
          2   -1    0    0  502    0  0.00000000000E+00  0.00000000000E+00  0.86641321068E+02  0.86641321068E+02  0.00000000000E+00 0.  1.
          1   -1    0    0  501    0 -0.00000000000E+00 -0.00000000000E+00 -0.26647876213E+03  0.26647876213E+03  0.00000000000E+00 0. -1.
          2    1    1    2  501    0 -0.17165921055E+02  0.26298546775E+02  0.91639352291E+01  0.32714830231E+02  0.00000000000E+00 0.  1.
          1    1    1    2  502    0  0.83881976466E+02 -0.40641508371E+02 -0.14547235995E+03  0.17277188917E+03  0.00000000000E+00 0. -1.
         22    1    1    2    0    0 -0.40274043886E+01  0.20850050717E+02  0.38631661833E+02  0.44083442436E+02  0.00000000000E+00 0.  1.
         22    1    1    2    0    0 -0.62688651022E+02 -0.65070891209E+01 -0.82160678176E+02  0.10354992136E+03  0.00000000000E+00 0. -1.
</event>
<event>
 6    1  0.8017648E-006  0.1306703E+03  0.7818608E-02  0.1228423E+00
          2   -1    0    0  502    0  0.00000000000E+00  0.00000000000E+00  0.30626474720E+03  0.30626474720E+03  0.00000000000E+00 0. -1.
          1   -1    0    0  501    0 -0.00000000000E+00 -0.00000000000E+00 -0.85746657555E+02  0.85746657555E+02  0.00000000000E+00 0. -1.
          2    1    1    2  501    0 -0.21056062754E+02 -0.17271814609E+02  0.10034878155E+03  0.10397860990E+03  0.00000000000E+00 0. -1.
          1    1    1    2  502    0  0.84640727977E+02  0.41376326289E+02 -0.93160573845E+01  0.94672288104E+02  0.00000000000E+00 0. -1.
         22    1    1    2    0    0  0.16744484705E+02  0.26373166348E+02 -0.19054697028E+01  0.31297803215E+02  0.00000000000E+00 0.  1.
         22    1    1    2    0    0 -0.80329149928E+02 -0.50477678028E+02  0.13139083518E+03  0.16206270354E+03  0.00000000000E+00 0. -1.
</event>
<event>
 6    1  0.8017648E-006  0.4177857E+02  0.7818608E-02  0.1506002E+00
          2   -1    0    0  502    0  0.00000000000E+00  0.00000000000E+00  0.84466302011E+02  0.84466302011E+02  0.00000000000E+00 0. -1.
          1   -1    0    0  501    0 -0.00000000000E+00 -0.00000000000E+00 -0.29880043664E+03  0.29880043664E+03  0.00000000000E+00 0.  1.
          2    1    1    2  501    0 -0.76912039414E+01  0.27726788805E+02  0.44718186768E+02  0.53175611547E+02  0.00000000000E+00 0. -1.
          1    1    1    2  502    0 -0.11292036654E+02 -0.60816428993E+02 -0.14392378650E+03  0.15665313418E+03  0.00000000000E+00 0.  1.
         22    1    1    2    0    0 -0.81930986671E+01  0.92099509191E+01  0.25450495424E+02  0.28278574558E+02  0.00000000000E+00 0.  1.
         22    1    1    2    0    0  0.27176339263E+02  0.23879689269E+02 -0.14057903032E+03  0.14515941837E+03  0.00000000000E+00 0. -1.
</event>
<event>
 6    1  0.8017648E-006  0.3853129E+02  0.7818608E-02  0.1532455E+00
          2   -1    0    0  502    0  0.00000000000E+00  0.00000000000E+00  0.98426296823E+02  0.98426296823E+02  0.00000000000E+00 0. -1.
          1   -1    0    0  501    0 -0.00000000000E+00 -0.00000000000E+00 -0.18704997295E+03  0.18704997295E+03  0.00000000000E+00 0.  1.
          2    1    1    2  501    0  0.39127345774E+02  0.45718811242E+02  0.41494759289E+02  0.73095649235E+02  0.00000000000E+00 0. -1.
          1    1    1    2  502    0 -0.38853531455E+02 -0.18977733829E+02 -0.32293537409E+02  0.53968730263E+02  0.00000000000E+00 0.  1.
         22    1    1    2    0    0 -0.19636926644E+02 -0.16993155078E+02 -0.12269891721E+03  0.12541690672E+03  0.00000000000E+00 0.  1.
         22    1    1    2    0    0  0.19363112325E+02 -0.97479223345E+01  0.24874019199E+02  0.32994983555E+02  0.00000000000E+00 0. -1.
</event>
<event>
 6    1  0.8017648E-006  0.1120621E+03  0.7818608E-02  0.1295689E+00
          2   -1    0    0  502    0  0.00000000000E+00  0.00000000000E+00  0.60047208422E+02  0.60047208422E+02  0.00000000000E+00 0. -1.
          1   -1    0    0  501    0 -0.00000000000E+00 -0.00000000000E+00 -0.71214767635E+03  0.71214767635E+03  0.00000000000E+00 0. -1.
          2    1    1    2  501    0  0.25013751404E+02  0.26205612506E+02  0.72061930600E+01  0.36937123663E+02  0.00000000000E+00 0. -1.
          1    1    1    2  502    0 -0.11509605703E+03  0.34854289342E+02 -0.47196871701E+03  0.48704865636E+03  0.00000000000E+00 0. -1.
         22    1    1    2    0    0  0.78301004788E+02 -0.69351969300E+02 -0.20211155146E+03  0.22757377316E+03  0.00000000000E+00 0. -1.
         22    1    1    2    0    0  0.11781300838E+02  0.82920674521E+01  0.14773607475E+02  0.20635331592E+02  0.00000000000E+00 0. -1.
</event>
<event>
 6    1  0.8017648E-006  0.7881261E+02  0.7818608E-02  0.1413670E+00
          2   -1    0    0  502    0  0.00000000000E+00  0.00000000000E+00  0.26075201134E+03  0.26075201134E+03  0.00000000000E+00 0. -1.
          1   -1    0    0  501    0 -0.00000000000E+00 -0.00000000000E+00 -0.76738003194E+02  0.76738003194E+02  0.00000000000E+00 0. -1.
          2    1    1    2  501    0 -0.46276451785E+02 -0.17855392332E+02  0.11161153473E+03  0.12213705298E+03  0.00000000000E+00 0. -1.
          1    1    1    2  502    0  0.45902264616E+02  0.52956607764E+02  0.31898842816E+02  0.76999716725E+02  0.00000000000E+00 0. -1.
         22    1    1    2    0    0 -0.17958673699E+02 -0.25609028693E+02  0.84310548399E+02  0.89925551891E+02  0.00000000000E+00 0. -1.
         22    1    1    2    0    0  0.18332860868E+02 -0.94921867386E+01 -0.43806917798E+02  0.48427692941E+02  0.00000000000E+00 0. -1.
</event>
<event>
 6    1  0.8017648E-006  0.1446311E+03  0.7818608E-02  0.1226054E+00
          2   -1    0    0  502    0  0.00000000000E+00  0.00000000000E+00  0.11555514727E+04  0.11555514727E+04  0.00000000000E+00 0.  1.
          1   -1    0    0  501    0 -0.00000000000E+00 -0.00000000000E+00 -0.75511952259E+03  0.75511952259E+03  0.00000000000E+00 0.  1.
          2    1    1    2  501    0 -0.64241068291E+03  0.33478217517E+02  0.79489981548E+03  0.10225839786E+04  0.00000000000E+00 0.  1.
          1    1    1    2  502    0  0.64725485133E+03 -0.85906123705E+02 -0.27083621311E+03  0.70687407577E+03  0.00000000000E+00 0.  1.
         22    1    1    2    0    0 -0.95334653467E+01  0.31074247499E+02 -0.14621299741E+03  0.14978229679E+03  0.00000000000E+00 0.  1.
         22    1    1    2    0    0  0.46892969300E+01  0.21353658689E+02  0.22581345189E+02  0.31430644213E+02  0.00000000000E+00 0.  1.
</event>
<event>
 6    1  0.8017648E-006  0.4440090E+02  0.7818608E-02  0.1494589E+00
          2   -1    0    0  502    0  0.00000000000E+00  0.00000000000E+00  0.44308971017E+02  0.44308971017E+02  0.00000000000E+00 0. -1.
          1   -1    0    0  501    0 -0.00000000000E+00 -0.00000000000E+00 -0.22964826262E+03  0.22964826262E+03  0.00000000000E+00 0. -1.
          2    1    1    2  501    0 -0.25699708370E+02  0.11518931368E+02 -0.45968688931E+01  0.28535801965E+02  0.00000000000E+00 0. -1.
          1    1    1    2  502    0  0.32116624213E+02  0.33034030272E+01 -0.13578010410E+02  0.35025025183E+02  0.00000000000E+00 0. -1.
         22    1    1    2    0    0  0.15201845900E+02 -0.31808484881E+02 -0.17754277754E+03  0.18100915359E+03  0.00000000000E+00 0. -1.
         22    1    1    2    0    0 -0.21618761743E+02  0.16986150485E+02  0.10378365238E+02  0.29387252894E+02  0.00000000000E+00 0. -1.
</event>
<event>
 6    1  0.8017648E-006  0.9568425E+02  0.7818608E-02  0.1403312E+00
          2   -1    0    0  502    0  0.00000000000E+00  0.00000000000E+00  0.48528774667E+03  0.48528774667E+03  0.00000000000E+00 0. -1.
          1   -1    0    0  501    0 -0.00000000000E+00 -0.00000000000E+00 -0.26210048778E+03  0.26210048778E+03  0.00000000000E+00 0.  1.
          2    1    1    2  501    0 -0.47571544449E+02 -0.29498697060E+00  0.20930859908E+03  0.21464675285E+03  0.00000000000E+00 0. -1.
          1    1    1    2  502    0  0.70290080447E+02  0.47000430425E+02 -0.23496049728E+03  0.24971217662E+03  0.00000000000E+00 0.  1.
         22    1    1    2    0    0 -0.31114582378E+02 -0.36050897428E+02  0.26069777883E+03  0.26501153999E+03  0.00000000000E+00 0. -1.
         22    1    1    2    0    0  0.83960463792E+01 -0.10654546026E+02 -0.11858621745E+02  0.18017764998E+02  0.00000000000E+00 0. -1.
</event>
<event>
 6    1  0.8017648E-006  0.4980841E+02  0.7818608E-02  0.1518356E+00
          2   -1    0    0  502    0  0.00000000000E+00  0.00000000000E+00  0.14768342408E+03  0.14768342408E+03  0.00000000000E+00 0. -1.
          1   -1    0    0  501    0 -0.00000000000E+00 -0.00000000000E+00 -0.14731425342E+03  0.14731425342E+03  0.00000000000E+00 0. -1.
          2    1    1    2  501    0  0.45225502246E+02  0.55390680296E+02  0.49514897514E+02  0.86978150089E+02  0.00000000000E+00 0. -1.
          1    1    1    2  502    0 -0.59677680189E+02 -0.34391349448E+02 -0.37638680528E+02  0.78491150467E+02  0.00000000000E+00 0. -1.
         22    1    1    2    0    0  0.45853182713E+01  0.11141951161E+02  0.54304950043E+02  0.55625496119E+02  0.00000000000E+00 0. -1.
         22    1    1    2    0    0  0.98668596717E+01 -0.32141282008E+02 -0.65811996370E+02  0.73902880831E+02  0.00000000000E+00 0.  1.
</event>
<event>
 6    1  0.8017648E-006  0.6729008E+02  0.7818608E-02  0.1372986E+00
          2   -1    0    0  502    0  0.00000000000E+00  0.00000000000E+00  0.25598388550E+03  0.25598388550E+03  0.00000000000E+00 0.  1.
          1   -1    0    0  501    0 -0.00000000000E+00 -0.00000000000E+00 -0.12017664932E+03  0.12017664932E+03  0.00000000000E+00 0. -1.
          2    1    1    2  501    0 -0.12486707890E+01 -0.25912782744E+02  0.76634427722E+02  0.80906532496E+02  0.00000000000E+00 0.  1.
          1    1    1    2  502    0 -0.14738530070E+02  0.48227081430E+02 -0.85288242425E+02  0.99081582284E+02  0.00000000000E+00 0. -1.
         22    1    1    2    0    0  0.24530914408E+02 -0.32313261509E+02  0.16602731930E+03  0.17091220958E+03  0.00000000000E+00 0.  1.
         22    1    1    2    0    0 -0.85437135491E+01  0.99989628224E+01 -0.21566268418E+02  0.25260210455E+02  0.00000000000E+00 0. -1.
</event>
<event>
 6    1  0.8017648E-006  0.5028388E+02  0.7818608E-02  0.1501076E+00
          2   -1    0    0  502    0  0.00000000000E+00  0.00000000000E+00  0.13742432786E+03  0.13742432786E+03  0.00000000000E+00 0. -1.
          1   -1    0    0  501    0 -0.00000000000E+00 -0.00000000000E+00 -0.56723879328E+02  0.56723879328E+02  0.00000000000E+00 0.  1.
          2    1    1    2  501    0  0.18649917928E+02 -0.23159231485E+02  0.29205474579E+02  0.41678881788E+02  0.00000000000E+00 0. -1.
          1    1    1    2  502    0 -0.18394771537E+02  0.11393571534E+02  0.10782338057E+02  0.24175191957E+02  0.00000000000E+00 0.  1.
         22    1    1    2    0    0  0.18441591172E+02 -0.19596417606E+00  0.80580547994E+02  0.82664111935E+02  0.00000000000E+00 0. -1.
         22    1    1    2    0    0 -0.18696737562E+02  0.11961624127E+02 -0.39867912102E+02  0.45630021505E+02  0.00000000000E+00 0.  1.
</event>
<event>
 6    1  0.8017648E-006  0.2865602E+03  0.7818608E-02  0.1236864E+00
          2   -1    0    0  502    0  0.00000000000E+00  0.00000000000E+00  0.13347781056E+04  0.13347781056E+04  0.00000000000E+00 0.  1.
          1   -1    0    0  501    0 -0.00000000000E+00 -0.00000000000E+00 -0.15756290950E+03  0.15756290950E+03  0.00000000000E+00 0.  1.
          2    1    1    2  501    0  0.85612706773E+02 -0.13618354269E+03  0.11452820866E+04  0.11565234761E+04  0.00000000000E+00 0.  1.
          1    1    1    2  502    0 -0.43289178867E+02  0.17608513214E+03 -0.33236938565E+02  0.18434918186E+03  0.00000000000E+00 0.  1.
         22    1    1    2    0    0  0.87143006747E+01  0.49076843456E+01 -0.31655506787E+02  0.33197823902E+02  0.00000000000E+00 0.  1.
         22    1    1    2    0    0 -0.51037828581E+02 -0.44809273796E+02  0.96825554885E+02  0.11827053328E+03  0.00000000000E+00 0.  1.
</event>
<event>
 6    1  0.8017648E-006  0.7775741E+02  0.7818608E-02  0.1417410E+00
          2   -1    0    0  502    0  0.00000000000E+00  0.00000000000E+00  0.36490807985E+03  0.36490807985E+03  0.00000000000E+00 0.  1.
          1   -1    0    0  501    0 -0.00000000000E+00 -0.00000000000E+00 -0.19835768472E+03  0.19835768472E+03  0.00000000000E+00 0. -1.
          2    1    1    2  501    0  0.34222231958E+02 -0.14083114214E+03  0.86592002160E+02  0.16882756468E+03  0.00000000000E+00 0.  1.
          1    1    1    2  502    0 -0.59106211410E+02  0.84034456915E+02 -0.11371815716E+03  0.15325519059E+03  0.00000000000E+00 0. -1.
         22    1    1    2    0    0  0.15415089122E+02 -0.20264953539E+01 -0.16531707043E+02  0.22694250237E+02  0.00000000000E+00 0.  1.
         22    1    1    2    0    0  0.94688903293E+01  0.58823180580E+02  0.21020825717E+03  0.21848875907E+03  0.00000000000E+00 0.  1.
</event>
<event>
 6    1  0.8017648E-006  0.1164765E+03  0.7818608E-02  0.1342261E+00
          2   -1    0    0  502    0  0.00000000000E+00  0.00000000000E+00  0.18679653913E+03  0.18679653913E+03  0.00000000000E+00 0. -1.
          1   -1    0    0  501    0 -0.00000000000E+00 -0.00000000000E+00 -0.23892160093E+03  0.23892160093E+03  0.00000000000E+00 0. -1.
          2    1    1    2  501    0 -0.37820706186E+02  0.26981657922E+01  0.28649889146E+02  0.47523700016E+02  0.00000000000E+00 0. -1.
          1    1    1    2  502    0  0.59635925300E+02  0.52780826840E+02 -0.18547199972E+03  0.20184677840E+03  0.00000000000E+00 0. -1.
         22    1    1    2    0    0 -0.96930126659E+01  0.18162107452E+02 -0.21479041070E+02  0.29751736872E+02  0.00000000000E+00 0. -1.
         22    1    1    2    0    0 -0.12122206448E+02 -0.73641100083E+02  0.12617608984E+03  0.14659592477E+03  0.00000000000E+00 0. -1.
</event>
<event>
 6    1  0.8017648E-006  0.1270819E+03  0.7818608E-02  0.1261617E+00
          2   -1    0    0  502    0  0.00000000000E+00  0.00000000000E+00  0.79218668861E+03  0.79218668861E+03  0.00000000000E+00 0.  1.
          1   -1    0    0  501    0 -0.00000000000E+00 -0.00000000000E+00 -0.72976504124E+02  0.72976504124E+02  0.00000000000E+00 0. -1.
          2    1    1    2  501    0 -0.26364744782E+02  0.80304167232E+02  0.47825537993E+03  0.48566662174E+03  0.00000000000E+00 0.  1.
          1    1    1    2  502    0  0.95321571918E+02 -0.60995829454E+02  0.21939685272E+02  0.11527377444E+03  0.00000000000E+00 0. -1.
         22    1    1    2    0    0 -0.42757313747E+02 -0.55281920168E+02  0.41644556727E+02  0.81354457046E+02  0.00000000000E+00 0. -1.
         22    1    1    2    0    0 -0.26199513389E+02  0.35973582390E+02  0.17737056256E+03  0.18286833951E+03  0.00000000000E+00 0. -1.
</event>
<event>
 6    1  0.8017648E-006  0.5410815E+02  0.7818608E-02  0.1536714E+00
          2   -1    0    0  502    0  0.00000000000E+00  0.00000000000E+00  0.13789914665E+03  0.13789914665E+03  0.00000000000E+00 0.  1.
          1   -1    0    0  501    0 -0.00000000000E+00 -0.00000000000E+00 -0.97679982573E+02  0.97679982573E+02  0.00000000000E+00 0.  1.
          2    1    1    2  501    0  0.30117049384E+02  0.31714515790E+02  0.31507740699E+02  0.53903477618E+02  0.00000000000E+00 0.  1.
          1    1    1    2  502    0  0.14098089734E+02  0.27387442334E+02 -0.19694653352E+02  0.36561010687E+02  0.00000000000E+00 0.  1.
         22    1    1    2    0    0 -0.11019023485E+02 -0.85554454584E+00 -0.44627501033E+02  0.45975696661E+02  0.00000000000E+00 0. -1.
         22    1    1    2    0    0 -0.33196115633E+02 -0.58246413578E+02  0.73033577767E+02  0.99138944262E+02  0.00000000000E+00 0.  1.
</event>
<event>
 6    1  0.8017648E-006  0.4544820E+02  0.7818608E-02  0.1479395E+00
          2   -1    0    0  502    0  0.00000000000E+00  0.00000000000E+00  0.12010890384E+03  0.12010890384E+03  0.00000000000E+00 0. -1.
          1   -1    0    0  501    0 -0.00000000000E+00 -0.00000000000E+00 -0.19472697581E+03  0.19472697581E+03  0.00000000000E+00 0.  1.
          2    1    1    2  501    0  0.64155256928E+02  0.47157923799E+02  0.28626937216E+02  0.84612459501E+02  0.00000000000E+00 0. -1.
          1    1    1    2  502    0 -0.60465307105E+02 -0.48918616382E+02 -0.54378817853E+02  0.94900686104E+02  0.00000000000E+00 0.  1.
         22    1    1    2    0    0  0.14399307854E+02 -0.18452586725E+02 -0.86117583858E+02  0.89241673411E+02  0.00000000000E+00 0.  1.
         22    1    1    2    0    0 -0.18089257677E+02  0.20213279308E+02  0.37251392533E+02  0.46081060636E+02  0.00000000000E+00 0. -1.
</event>
<event>
 6    1  0.8017648E-006  0.2651384E+03  0.7818608E-02  0.1104104E+00
          2   -1    0    0  502    0  0.00000000000E+00  0.00000000000E+00  0.14306161066E+04  0.14306161066E+04  0.00000000000E+00 0.  1.
          1   -1    0    0  501    0 -0.00000000000E+00 -0.00000000000E+00 -0.70703039680E+03  0.70703039680E+03  0.00000000000E+00 0.  1.
          2    1    1    2  501    0 -0.20012610378E+03  0.11477909427E+03  0.12991087761E+04  0.13194348449E+04  0.00000000000E+00 0.  1.
          1    1    1    2  502    0  0.21345036524E+03 -0.11647807163E+03 -0.63709018028E+03  0.68191795504E+03  0.00000000000E+00 0.  1.
         22    1    1    2    0    0  0.96258043506E+01 -0.17623877203E+02 -0.32141888781E+02  0.37899316240E+02  0.00000000000E+00 0.  1.
         22    1    1    2    0    0 -0.22950065804E+02  0.19322854563E+02  0.93709002757E+02  0.98394387170E+02  0.00000000000E+00 0.  1.
</event>
<event>
 6    1  0.8017648E-006  0.6218660E+02  0.7818608E-02  0.1425195E+00
          2   -1    0    0  502    0  0.00000000000E+00  0.00000000000E+00  0.14830442465E+03  0.14830442465E+03  0.00000000000E+00 0. -1.
          1   -1    0    0  501    0 -0.00000000000E+00 -0.00000000000E+00 -0.13405062609E+03  0.13405062609E+03  0.00000000000E+00 0. -1.
          2    1    1    2  501    0  0.43456112474E+02 -0.17708776147E+02  0.78031653969E+02  0.91054782879E+02  0.00000000000E+00 0. -1.
          1    1    1    2  502    0 -0.20474540059E+02  0.33852966809E+02 -0.46169667929E+02  0.60801878170E+02  0.00000000000E+00 0. -1.
         22    1    1    2    0    0  0.11964232259E+02 -0.11985549121E+02  0.50810996072E+02  0.53558879405E+02  0.00000000000E+00 0. -1.
         22    1    1    2    0    0 -0.34945804674E+02 -0.41586415405E+01 -0.68419183552E+02  0.76939510277E+02  0.00000000000E+00 0. -1.
</event>
<event>
 6    1  0.8017648E-006  0.6791195E+02  0.7818608E-02  0.1433785E+00
          2   -1    0    0  502    0  0.00000000000E+00  0.00000000000E+00  0.56136718991E+03  0.56136718991E+03  0.00000000000E+00 0.  1.
          1   -1    0    0  501    0 -0.00000000000E+00 -0.00000000000E+00 -0.11100121788E+03  0.11100121788E+03  0.00000000000E+00 0. -1.
          2    1    1    2  501    0  0.58902939040E+02  0.42214595898E+02  0.39014056908E+03  0.39681392614E+03  0.00000000000E+00 0.  1.
          1    1    1    2  502    0 -0.42712140633E+02 -0.74884529721E+02 -0.54715217042E+02  0.10210668306E+03  0.00000000000E+00 0. -1.
         22    1    1    2    0    0 -0.30755481285E+02  0.43813280463E+02  0.13562363248E+03  0.14580559955E+03  0.00000000000E+00 0.  1.
         22    1    1    2    0    0  0.14564682878E+02 -0.11143346640E+02 -0.20683012498E+02  0.27642199038E+02  0.00000000000E+00 0.  1.
</event>
<event>
 6    1  0.8017648E-006  0.3417240E+02  0.7818608E-02  0.1575555E+00
          2   -1    0    0  502    0  0.00000000000E+00  0.00000000000E+00  0.16546318938E+03  0.16546318938E+03  0.00000000000E+00 0.  1.
          1   -1    0    0  501    0 -0.00000000000E+00 -0.00000000000E+00 -0.14891014219E+03  0.14891014219E+03  0.00000000000E+00 0.  1.
          2    1    1    2  501    0  0.58850180099E+02 -0.23890346043E+02  0.79824430596E+02  0.10200996055E+03  0.00000000000E+00 0.  1.
          1    1    1    2  502    0 -0.74287690592E+02  0.23908687742E+02 -0.41397211891E+02  0.88340338891E+02  0.00000000000E+00 0.  1.
         22    1    1    2    0    0  0.41474813209E+01 -0.12274375632E+02 -0.70987322834E+02  0.72159974373E+02  0.00000000000E+00 0.  1.
         22    1    1    2    0    0  0.11290029172E+02  0.12256033933E+02  0.49113151318E+02  0.51863057747E+02  0.00000000000E+00 0. -1.
</event>
<event>
 6    1  0.8017648E-006  0.5735016E+02  0.7818608E-02  0.1445114E+00
          2   -1    0    0  502    0  0.00000000000E+00  0.00000000000E+00  0.86254615477E+02  0.86254615477E+02  0.00000000000E+00 0.  1.
          1   -1    0    0  501    0 -0.00000000000E+00 -0.00000000000E+00 -0.32386306008E+03  0.32386306008E+03  0.00000000000E+00 0.  1.
          2    1    1    2  501    0 -0.34106971013E+02  0.17005706478E+02  0.42471246257E+02  0.57063878970E+02  0.00000000000E+00 0.  1.
          1    1    1    2  502    0  0.38923850542E+02 -0.21442714447E+01 -0.19251462266E+03  0.19642185209E+03  0.00000000000E+00 0.  1.
         22    1    1    2    0    0 -0.20739596787E+02 -0.25983975692E+02  0.25507205406E+02  0.41903644177E+02  0.00000000000E+00 0.  1.
         22    1    1    2    0    0  0.15922717258E+02  0.11122540659E+02 -0.11307227361E+03  0.11472830032E+03  0.00000000000E+00 0. -1.
</event>
<event>
 6    1  0.8017648E-006  0.1216683E+03  0.7818608E-02  0.1338122E+00
          2   -1    0    0  502    0  0.00000000000E+00  0.00000000000E+00  0.15704245373E+03  0.15704245373E+03  0.00000000000E+00 0.  1.
          1   -1    0    0  501    0 -0.00000000000E+00 -0.00000000000E+00 -0.46314075982E+03  0.46314075982E+03  0.00000000000E+00 0. -1.
          2    1    1    2  501    0  0.16304203043E+02 -0.23181421733E+02  0.78087836105E+02  0.83071749097E+02  0.00000000000E+00 0.  1.
          1    1    1    2  502    0 -0.61033279476E+02  0.63368320142E+02 -0.38432705425E+03  0.39426880402E+03  0.00000000000E+00 0. -1.
         22    1    1    2    0    0  0.56337346624E+02 -0.55736500958E+02  0.46990529598E+02  0.92133403473E+02  0.00000000000E+00 0.  1.
         22    1    1    2    0    0 -0.11608270191E+02  0.15549602550E+02 -0.46849617550E+02  0.50709256955E+02  0.00000000000E+00 0. -1.
</event>
<event>
 6    1  0.8017648E-006  0.5475506E+02  0.7818608E-02  0.1490746E+00
          2   -1    0    0  502    0  0.00000000000E+00  0.00000000000E+00  0.17121215640E+03  0.17121215640E+03  0.00000000000E+00 0.  1.
          1   -1    0    0  501    0 -0.00000000000E+00 -0.00000000000E+00 -0.16841631547E+03  0.16841631547E+03  0.00000000000E+00 0.  1.
          2    1    1    2  501    0  0.80451706205E+01 -0.73161313961E+02  0.83412842437E+02  0.11124299939E+03  0.00000000000E+00 0.  1.
          1    1    1    2  502    0 -0.29484511056E+02  0.81515131413E+02 -0.55829143467E+02  0.10310648041E+03  0.00000000000E+00 0.  1.
         22    1    1    2    0    0  0.33814447009E+02 -0.10110764478E+02  0.43408934868E+02  0.55946224281E+02  0.00000000000E+00 0.  1.
         22    1    1    2    0    0 -0.12375106573E+02  0.17569470259E+01 -0.68196792915E+02  0.69332767790E+02  0.00000000000E+00 0.  1.
</event>
<event>
 6    1  0.8017648E-006  0.1714461E+03  0.7818608E-02  0.1279256E+00
          2   -1    0    0  502    0  0.00000000000E+00  0.00000000000E+00  0.94837997086E+02  0.94837997086E+02  0.00000000000E+00 0. -1.
          1   -1    0    0  501    0 -0.00000000000E+00 -0.00000000000E+00 -0.55896028581E+03  0.55896028581E+03  0.00000000000E+00 0. -1.
          2    1    1    2  501    0 -0.17211452872E+02 -0.59564358768E+02  0.16407084542E+02  0.64135320757E+02  0.00000000000E+00 0. -1.
          1    1    1    2  502    0 -0.77757082169E+02  0.89538615202E+02 -0.38371843958E+03  0.40162565694E+03  0.00000000000E+00 0. -1.
         22    1    1    2    0    0  0.95257768207E+02 -0.50212452572E+02 -0.21179941363E+02  0.10974480723E+03  0.00000000000E+00 0. -1.
         22    1    1    2    0    0 -0.28923316586E+00  0.20238196138E+02 -0.75630992323E+02  0.78292497971E+02  0.00000000000E+00 0.  1.
</event>
<event>
 6    1  0.8017648E-006  0.1138323E+03  0.7818608E-02  0.1285379E+00
          2   -1    0    0  502    0  0.00000000000E+00  0.00000000000E+00  0.33255433241E+03  0.33255433241E+03  0.00000000000E+00 0. -1.
          1   -1    0    0  501    0 -0.00000000000E+00 -0.00000000000E+00 -0.87578671517E+02  0.87578671517E+02  0.00000000000E+00 0.  1.
          2    1    1    2  501    0 -0.53934052898E+02  0.96473826195E+02  0.13700926819E+03  0.17603301046E+03  0.00000000000E+00 0. -1.
          1    1    1    2  502    0  0.49268380333E+02 -0.66151150234E+02  0.62557195101E+02  0.10352173992E+03  0.00000000000E+00 0.  1.
         22    1    1    2    0    0  0.18094058062E+02 -0.58853559506E+02 -0.22620389317E+02  0.65595871948E+02  0.00000000000E+00 0.  1.
         22    1    1    2    0    0 -0.13428385498E+02  0.28530883545E+02  0.68029586920E+02  0.74982381593E+02  0.00000000000E+00 0. -1.
</event>
<event>
 6    1  0.8017648E-006  0.1454908E+03  0.7818608E-02  0.1315214E+00
          2   -1    0    0  502    0  0.00000000000E+00  0.00000000000E+00  0.86250187887E+03  0.86250187887E+03  0.00000000000E+00 0.  1.
          1   -1    0    0  501    0 -0.00000000000E+00 -0.00000000000E+00 -0.20785313476E+02  0.20785313476E+02  0.00000000000E+00 0.  1.
          2    1    1    2  501    0  0.21048931543E+02  0.33719972479E+02  0.21340207055E+03  0.21707265552E+03  0.00000000000E+00 0.  1.
          1    1    1    2  502    0  0.60318695050E+02  0.10406694914E+02  0.11185794857E+03  0.12751017579E+03  0.00000000000E+00 0.  1.
         22    1    1    2    0    0  0.15459497139E+02  0.71114508569E+01  0.84104770860E+01  0.18981699342E+02  0.00000000000E+00 0. -1.
         22    1    1    2    0    0 -0.96827123733E+02 -0.51238118250E+02  0.50804606920E+03  0.51972266169E+03  0.00000000000E+00 0.  1.
</event>
<event>
 6    1  0.8017648E-006  0.1523290E+03  0.7818608E-02  0.1292417E+00
          2   -1    0    0  502    0  0.00000000000E+00  0.00000000000E+00  0.62724277018E+03  0.62724277018E+03  0.00000000000E+00 0. -1.
          1   -1    0    0  501    0 -0.00000000000E+00 -0.00000000000E+00 -0.89921089499E+02  0.89921089499E+02  0.00000000000E+00 0. -1.
          2    1    1    2  501    0  0.20478418044E+02  0.62395932606E+02  0.12425685673E+02  0.66835736518E+02  0.00000000000E+00 0. -1.
          1    1    1    2  502    0 -0.20705367125E+02 -0.14139856111E+03  0.47533994355E+03  0.49635705620E+03  0.00000000000E+00 0. -1.
         22    1    1    2    0    0  0.13973438951E+02  0.96834840900E+02  0.72540136385E+02  0.12179620189E+03  0.00000000000E+00 0. -1.
         22    1    1    2    0    0 -0.13746489870E+02 -0.17832212398E+02 -0.22984084920E+02  0.32174865072E+02  0.00000000000E+00 0. -1.
</event>
<event>
 6    1  0.8017648E-006  0.5586680E+02  0.7818608E-02  0.1503825E+00
          2   -1    0    0  502    0  0.00000000000E+00  0.00000000000E+00  0.30695061553E+03  0.30695061553E+03  0.00000000000E+00 0. -1.
          1   -1    0    0  501    0 -0.00000000000E+00 -0.00000000000E+00 -0.13728347002E+03  0.13728347002E+03  0.00000000000E+00 0. -1.
          2    1    1    2  501    0 -0.21479576713E+02 -0.58343143220E+02  0.59497740872E+02  0.86053911854E+02  0.00000000000E+00 0. -1.
          1    1    1    2  502    0 -0.27688682573E+01  0.76693239983E+02 -0.92312165318E+02  0.12004605598E+03  0.00000000000E+00 0. -1.
         22    1    1    2    0    0  0.35248790683E+02 -0.21692520758E+02  0.21626233395E+03  0.22018728344E+03  0.00000000000E+00 0.  1.
         22    1    1    2    0    0 -0.11000345712E+02  0.33424239959E+01 -0.13780764006E+02  0.17946834276E+02  0.00000000000E+00 0. -1.
</event>
<event>
 6    1  0.8017648E-006  0.3069510E+03  0.7818608E-02  0.1193277E+00
          2   -1    0    0  502    0  0.00000000000E+00  0.00000000000E+00  0.19736610482E+03  0.19736610482E+03  0.00000000000E+00 0.  1.
          1   -1    0    0  501    0 -0.00000000000E+00 -0.00000000000E+00 -0.51536587230E+03  0.51536587230E+03  0.00000000000E+00 0.  1.
          2    1    1    2  501    0 -0.13970014347E+03  0.46336816932E+02 -0.11892253086E+03  0.18922420309E+03  0.00000000000E+00 0.  1.
          1    1    1    2  502    0  0.28616278569E+03 -0.59171374926E+02 -0.12389970343E+03  0.31739805928E+03  0.00000000000E+00 0.  1.
         22    1    1    2    0    0 -0.14639697762E+03  0.33317545929E+02 -0.25388340415E+02  0.15227180223E+03  0.00000000000E+00 0. -1.
         22    1    1    2    0    0 -0.65664593757E-01 -0.20482987935E+02 -0.49789192775E+02  0.53837912513E+02  0.00000000000E+00 0.  1.
</event>
<event>
 6    1  0.8017648E-006  0.9675731E+02  0.7818608E-02  0.1402487E+00
          2   -1    0    0  502    0  0.00000000000E+00  0.00000000000E+00  0.47784621911E+03  0.47784621911E+03  0.00000000000E+00 0.  1.
          1   -1    0    0  501    0 -0.00000000000E+00 -0.00000000000E+00 -0.25978800470E+02  0.25978800470E+02  0.00000000000E+00 0.  1.
          2    1    1    2  501    0 -0.28951213443E+02 -0.78911505340E+01  0.99578665497E+02  0.10400170017E+03  0.00000000000E+00 0.  1.
          1    1    1    2  502    0 -0.35891121131E+02 -0.23083851576E+02  0.52785431417E+02  0.67877378776E+02  0.00000000000E+00 0.  1.
         22    1    1    2    0    0  0.32262117977E+01  0.12893211893E+02 -0.95025725795E+01  0.16338367150E+02  0.00000000000E+00 0.  1.
         22    1    1    2    0    0  0.61616122776E+02  0.18081790216E+02  0.30900589431E+03  0.31560757348E+03  0.00000000000E+00 0.  1.
</event>
<event>
 6    1  0.8017648E-006  0.2287136E+02  0.7818608E-02  0.1710427E+00
          2   -1    0    0  502    0  0.00000000000E+00  0.00000000000E+00  0.23128866682E+03  0.23128866682E+03  0.00000000000E+00 0. -1.
          1   -1    0    0  501    0 -0.00000000000E+00 -0.00000000000E+00 -0.10998386504E+03  0.10998386504E+03  0.00000000000E+00 0. -1.
          2    1    1    2  501    0 -0.25057511223E+02 -0.10770282966E+01  0.11875215976E+03  0.12137180194E+03  0.00000000000E+00 0. -1.
          1    1    1    2  502    0  0.31967001227E+02  0.34942481819E+01  0.67753904811E+02  0.74997937004E+02  0.00000000000E+00 0. -1.
         22    1    1    2    0    0 -0.52661547756E+01 -0.17852527993E+02 -0.10267127659E+03  0.10434479469E+03  0.00000000000E+00 0. -1.
         22    1    1    2    0    0 -0.16433352285E+01  0.15435308107E+02  0.37470013787E+02  0.40557998228E+02  0.00000000000E+00 0.  1.
</event>
<event>
 6    1  0.8017648E-006  0.5894914E+02  0.7818608E-02  0.1441668E+00
          2   -1    0    0  502    0  0.00000000000E+00  0.00000000000E+00  0.24554002654E+03  0.24554002654E+03  0.00000000000E+00 0. -1.
          1   -1    0    0  501    0 -0.00000000000E+00 -0.00000000000E+00 -0.15516141312E+03  0.15516141312E+03  0.00000000000E+00 0.  1.
          2    1    1    2  501    0  0.38275344935E+02 -0.15822179102E+02  0.13608873478E+03  0.14225149249E+03  0.00000000000E+00 0. -1.
          1    1    1    2  502    0 -0.55819871677E+02 -0.18857361374E+02 -0.98501766257E+02  0.11477829110E+03  0.00000000000E+00 0.  1.
         22    1    1    2    0    0  0.15810982957E+02  0.25028477828E+01  0.91737349149E+02  0.93123534394E+02  0.00000000000E+00 0.  1.
         22    1    1    2    0    0  0.17335437845E+01  0.32176692693E+02 -0.38945704249E+02  0.50548121688E+02  0.00000000000E+00 0.  1.
</event>
<event>
 6    1  0.8017648E-006  0.1312361E+03  0.7818608E-02  0.1295128E+00
          2   -1    0    0  502    0  0.00000000000E+00  0.00000000000E+00  0.72979540444E+03  0.72979540444E+03  0.00000000000E+00 0. -1.
          1   -1    0    0  501    0 -0.00000000000E+00 -0.00000000000E+00 -0.41017793843E+02  0.41017793843E+02  0.00000000000E+00 0. -1.
          2    1    1    2  501    0  0.18721348403E+02 -0.10250932829E+02  0.24826233288E+03  0.24917816203E+03  0.00000000000E+00 0. -1.
          1    1    1    2  502    0 -0.46472602573E+02  0.82487204918E+02  0.53797488751E+02  0.10889449739E+03  0.00000000000E+00 0. -1.
         22    1    1    2    0    0  0.18872517039E+02  0.27650342277E+02  0.41869494735E+02  0.53607536007E+02  0.00000000000E+00 0. -1.
         22    1    1    2    0    0  0.88787371308E+01 -0.99886614366E+02  0.34484829423E+03  0.35913300285E+03  0.00000000000E+00 0. -1.
</event>
<event>
 6    1  0.8017648E-006  0.9673961E+02  0.7818608E-02  0.1364699E+00
          2   -1    0    0  502    0  0.00000000000E+00  0.00000000000E+00  0.48690917260E+03  0.48690917260E+03  0.00000000000E+00 0.  1.
          1   -1    0    0  501    0 -0.00000000000E+00 -0.00000000000E+00 -0.44415726297E+03  0.44415726297E+03  0.00000000000E+00 0.  1.
          2    1    1    2  501    0 -0.14602274794E+02 -0.65634498752E+02  0.37062172584E+03  0.37667171053E+03  0.00000000000E+00 0.  1.
          1    1    1    2  502    0  0.10835742521E+02  0.10718255598E+03 -0.39079771940E+03  0.40537435922E+03  0.00000000000E+00 0.  1.
         22    1    1    2    0    0  0.17338063462E+02 -0.17383372604E+02 -0.37508931446E+02  0.44829789492E+02  0.00000000000E+00 0.  1.
         22    1    1    2    0    0 -0.13571531189E+02 -0.24164684629E+02  0.10043683464E+03  0.10419057633E+03  0.00000000000E+00 0.  1.
</event>
<event>
 6    1  0.8017648E-006  0.4525031E+02  0.7818608E-02  0.1474611E+00
          2   -1    0    0  502    0  0.00000000000E+00  0.00000000000E+00  0.39084625241E+03  0.39084625241E+03  0.00000000000E+00 0.  1.
          1   -1    0    0  501    0 -0.00000000000E+00 -0.00000000000E+00 -0.13270618482E+03  0.13270618482E+03  0.00000000000E+00 0. -1.
          2    1    1    2  501    0  0.25357206207E+02 -0.80810424072E+02  0.29036984934E+03  0.30246977031E+03  0.00000000000E+00 0.  1.
          1    1    1    2  502    0 -0.25305791660E+02  0.82200389846E+02 -0.33360673348E+02  0.92250862916E+02  0.00000000000E+00 0. -1.
         22    1    1    2    0    0  0.24344887613E+02  0.19613678489E+01 -0.58999123726E+02  0.63854656190E+02  0.00000000000E+00 0. -1.
         22    1    1    2    0    0 -0.24396302160E+02 -0.33513336231E+01  0.60130015317E+02  0.64977147815E+02  0.00000000000E+00 0. -1.
</event>
<event>
 6    1  0.8017648E-006  0.7128557E+02  0.7818608E-02  0.1444163E+00
          2   -1    0    0  502    0  0.00000000000E+00  0.00000000000E+00  0.65775679184E+02  0.65775679184E+02  0.00000000000E+00 0. -1.
          1   -1    0    0  501    0 -0.00000000000E+00 -0.00000000000E+00 -0.15857999693E+03  0.15857999693E+03  0.00000000000E+00 0. -1.
          2    1    1    2  501    0 -0.23876547310E+02 -0.13038941875E+02 -0.53024821144E+01  0.27716778912E+02  0.00000000000E+00 0. -1.
          1    1    1    2  502    0  0.40851437335E+02 -0.19397249848E+02 -0.40541452493E+02  0.60734690287E+02  0.00000000000E+00 0. -1.
         22    1    1    2    0    0  0.14663099761E+02  0.96576551199E+01 -0.81773862172E+02  0.83637559335E+02  0.00000000000E+00 0. -1.
         22    1    1    2    0    0 -0.31637989785E+02  0.22778536603E+02  0.34813479030E+02  0.52266647583E+02  0.00000000000E+00 0.  1.
</event>
<event>
 6    1  0.8017648E-006  0.7544812E+02  0.7818608E-02  0.1405860E+00
          2   -1    0    0  502    0  0.00000000000E+00  0.00000000000E+00  0.10243311867E+03  0.10243311867E+03  0.00000000000E+00 0. -1.
          1   -1    0    0  501    0 -0.00000000000E+00 -0.00000000000E+00 -0.66488849630E+03  0.66488849630E+03  0.00000000000E+00 0. -1.
          2    1    1    2  501    0 -0.74981473470E+01 -0.19939492564E+02  0.46777239023E+02  0.51399568753E+02  0.00000000000E+00 0. -1.
          1    1    1    2  502    0  0.69902750131E+02  0.10129837295E+02 -0.56769068376E+03  0.57206793348E+03  0.00000000000E+00 0. -1.
         22    1    1    2    0    0 -0.41209850424E+02  0.25853881284E+02  0.36881107202E+02  0.61048267935E+02  0.00000000000E+00 0. -1.
         22    1    1    2    0    0 -0.21194752360E+02 -0.16044226015E+02 -0.78423040095E+02  0.82805844804E+02  0.00000000000E+00 0.  1.
</event>
<event>
 6    1  0.8017648E-006  0.1768295E+03  0.7818608E-02  0.1219236E+00
          2   -1    0    0  502    0  0.00000000000E+00  0.00000000000E+00  0.94470447856E+03  0.94470447856E+03  0.00000000000E+00 0.  1.
          1   -1    0    0  501    0 -0.00000000000E+00 -0.00000000000E+00 -0.71828618560E+02  0.71828618560E+02  0.00000000000E+00 0.  1.
          2    1    1    2  501    0  0.11665517017E+03 -0.66741767489E+02  0.55928883733E+03  0.57521030573E+03  0.00000000000E+00 0.  1.
          1    1    1    2  502    0 -0.16858363401E+03  0.56004385888E+02  0.19241035524E+03  0.26187530945E+03  0.00000000000E+00 0.  1.
         22    1    1    2    0    0  0.13552943852E+02 -0.37098296795E+02  0.11030747028E+03  0.11716528458E+03  0.00000000000E+00 0. -1.
         22    1    1    2    0    0  0.38375519986E+02  0.47835678396E+02  0.10869197158E+02  0.62282197365E+02  0.00000000000E+00 0.  1.
</event>
<event>
 6    1  0.8017648E-006  0.6523189E+02  0.7818608E-02  0.1400538E+00
          2   -1    0    0  502    0  0.00000000000E+00  0.00000000000E+00  0.38372683129E+03  0.38372683129E+03  0.00000000000E+00 0. -1.
          1   -1    0    0  501    0 -0.00000000000E+00 -0.00000000000E+00 -0.88304285681E+02  0.88304285681E+02  0.00000000000E+00 0. -1.
          2    1    1    2  501    0 -0.20369806422E+02 -0.74709047630E+02  0.15345024405E+03  0.17188178557E+03  0.00000000000E+00 0. -1.
          1    1    1    2  502    0  0.43391050749E+02  0.11738780305E+03  0.50297044853E+02  0.13487947328E+03  0.00000000000E+00 0. -1.
         22    1    1    2    0    0 -0.40289377966E+02 -0.18042583658E+02 -0.20829259965E+02  0.48812159065E+02  0.00000000000E+00 0. -1.
         22    1    1    2    0    0  0.17268133638E+02 -0.24636171765E+02  0.11250451666E+03  0.11645769905E+03  0.00000000000E+00 0.  1.
</event>
<event>
 6    1  0.8017648E-006  0.1428872E+03  0.7818608E-02  0.1297790E+00
          2   -1    0    0  502    0  0.00000000000E+00  0.00000000000E+00  0.10651125655E+04  0.10651125655E+04  0.00000000000E+00 0.  1.
          1   -1    0    0  501    0 -0.00000000000E+00 -0.00000000000E+00 -0.42186173371E+02  0.42186173371E+02  0.00000000000E+00 0. -1.
          2    1    1    2  501    0 -0.39946903150E+02 -0.66308342815E+02  0.60677234200E+03  0.61169046618E+03  0.00000000000E+00 0.  1.
          1    1    1    2  502    0  0.46097573353E+02  0.10977737492E+03  0.11693935129E+03  0.16688579986E+03  0.00000000000E+00 0. -1.
         22    1    1    2    0    0 -0.15271133026E+02  0.19398780935E+02  0.19718077154E+01  0.24767079588E+02  0.00000000000E+00 0.  1.
         22    1    1    2    0    0  0.91204628230E+01 -0.62867813045E+02  0.29724289115E+03  0.30395539327E+03  0.00000000000E+00 0.  1.
</event>
<event>
 6    1  0.8017648E-006  0.4621051E+02  0.7818608E-02  0.1540862E+00
          2   -1    0    0  502    0  0.00000000000E+00  0.00000000000E+00  0.20082448999E+03  0.20082448999E+03  0.00000000000E+00 0.  1.
          1   -1    0    0  501    0 -0.00000000000E+00 -0.00000000000E+00 -0.14763096321E+03  0.14763096321E+03  0.00000000000E+00 0. -1.
          2    1    1    2  501    0  0.53022923527E+02 -0.29939734352E+02  0.71982985130E+02  0.94283446376E+02  0.00000000000E+00 0.  1.
          1    1    1    2  502    0 -0.83802134871E+02  0.14262499872E+01  0.57872844626E+02  0.10185331680E+03  0.00000000000E+00 0. -1.
         22    1    1    2    0    0  0.97065856666E+01  0.58164829202E+01  0.34820876868E+02  0.36613423013E+02  0.00000000000E+00 0. -1.
         22    1    1    2    0    0  0.21072625677E+02  0.22697001444E+02 -0.11148317984E+03  0.11570526702E+03  0.00000000000E+00 0. -1.
</event>
<event>
 6    1  0.8017648E-006  0.1245709E+03  0.7818608E-02  0.1282592E+00
          2   -1    0    0  502    0  0.00000000000E+00  0.00000000000E+00  0.14779085199E+04  0.14779085199E+04  0.00000000000E+00 0. -1.
          1   -1    0    0  501    0 -0.00000000000E+00 -0.00000000000E+00 -0.17114722120E+02  0.17114722120E+02  0.00000000000E+00 0. -1.
          2    1    1    2  501    0  0.67809777472E+02  0.16616160679E+02  0.19752744849E+03  0.20950263870E+03  0.00000000000E+00 0. -1.
          1    1    1    2  502    0 -0.52672172152E+02 -0.70281538085E+02  0.73630692557E+03  0.74152662862E+03  0.00000000000E+00 0. -1.
         22    1    1    2    0    0  0.31678166422E+02  0.69818276486E+02  0.40794118072E+03  0.41508325055E+03  0.00000000000E+00 0.  1.
         22    1    1    2    0    0 -0.46815771741E+02 -0.16152899080E+02  0.11901824299E+03  0.12891072413E+03  0.00000000000E+00 0.  1.
</event>
<event>
 6    1  0.8017648E-006  0.1942214E+03  0.7818608E-02  0.1267371E+00
          2   -1    0    0  502    0  0.00000000000E+00  0.00000000000E+00  0.26130646371E+04  0.26130646371E+04  0.00000000000E+00 0.  1.
          1   -1    0    0  501    0 -0.00000000000E+00 -0.00000000000E+00 -0.47330305103E+02  0.47330305103E+02  0.00000000000E+00 0.  1.
          2    1    1    2  501    0  0.10494676698E+03 -0.16498067604E+03  0.95842483480E+03  0.97816696496E+03  0.00000000000E+00 0.  1.
          1    1    1    2  502    0 -0.52740361336E+01  0.27504628702E+03  0.64937838982E+03  0.70524504154E+03  0.00000000000E+00 0.  1.
         22    1    1    2    0    0  0.11510914935E+02  0.87520738349E+01  0.18092602110E+02  0.23161222121E+02  0.00000000000E+00 0.  1.
         22    1    1    2    0    0 -0.11118364578E+03 -0.11881768482E+03  0.93983850530E+03  0.95382171361E+03  0.00000000000E+00 0.  1.
</event>
<event>
 6    1  0.8017648E-006  0.6242357E+02  0.7818608E-02  0.1447992E+00
          2   -1    0    0  502    0  0.00000000000E+00  0.00000000000E+00  0.66380420797E+03  0.66380420797E+03  0.00000000000E+00 0. -1.
          1   -1    0    0  501    0 -0.00000000000E+00 -0.00000000000E+00 -0.32969826199E+02  0.32969826199E+02  0.00000000000E+00 0. -1.
          2    1    1    2  501    0 -0.54782511276E+02 -0.11064504943E+02  0.28847167773E+03  0.29383576308E+03  0.00000000000E+00 0. -1.
          1    1    1    2  502    0  0.68015896949E+02  0.50594926766E+02  0.14611406222E+03  0.16892403036E+03  0.00000000000E+00 0. -1.
         22    1    1    2    0    0 -0.14499111948E+01 -0.57077635333E+02  0.20374019970E+03  0.21158929007E+03  0.00000000000E+00 0. -1.
         22    1    1    2    0    0 -0.11783474478E+02  0.17547213510E+02 -0.74915578856E+01  0.22424950664E+02  0.00000000000E+00 0. -1.
</event>
<event>
 6    1  0.8017648E-006  0.3081401E+02  0.7818608E-02  0.1604094E+00
          2   -1    0    0  502    0  0.00000000000E+00  0.00000000000E+00  0.13982546899E+03  0.13982546899E+03  0.00000000000E+00 0.  1.
          1   -1    0    0  501    0 -0.00000000000E+00 -0.00000000000E+00 -0.11407536090E+03  0.11407536090E+03  0.00000000000E+00 0.  1.
          2    1    1    2  501    0  0.43624028756E+02 -0.31463083321E+01  0.57004177952E+02  0.71850062248E+02  0.00000000000E+00 0.  1.
          1    1    1    2  502    0 -0.30129189454E+02  0.40766561890E+02 -0.11679694094E+02  0.52020148785E+02  0.00000000000E+00 0.  1.
         22    1    1    2    0    0 -0.53851125523E+01 -0.17855536098E+02 -0.71494496209E+02  0.73886958218E+02  0.00000000000E+00 0.  1.
         22    1    1    2    0    0 -0.81097267502E+01 -0.19764717460E+02  0.51920120437E+02  0.56143660644E+02  0.00000000000E+00 0.  1.
</event>
<event>
 6    1  0.8017648E-006  0.2071350E+02  0.7818608E-02  0.1742901E+00
          2   -1    0    0  502    0  0.00000000000E+00  0.00000000000E+00  0.11549468540E+03  0.11549468540E+03  0.00000000000E+00 0.  1.
          1   -1    0    0  501    0 -0.00000000000E+00 -0.00000000000E+00 -0.24474499930E+03  0.24474499930E+03  0.00000000000E+00 0. -1.
          2    1    1    2  501    0 -0.36069202879E+01 -0.23339041070E+02  0.44403826785E+02  0.50293344939E+02  0.00000000000E+00 0.  1.
          1    1    1    2  502    0  0.14634963948E+01  0.28262880807E+02 -0.17809085255E+03  0.18032549463E+03  0.00000000000E+00 0. -1.
         22    1    1    2    0    0 -0.79025219187E+01 -0.97334310822E+01  0.65937890873E+02  0.67119259427E+02  0.00000000000E+00 0.  1.
         22    1    1    2    0    0  0.10045945812E+02  0.48095913451E+01 -0.61501179005E+02  0.62501585701E+02  0.00000000000E+00 0. -1.
</event>
<event>
 6    1  0.8017648E-006  0.1349785E+03  0.7818608E-02  0.1280127E+00
          2   -1    0    0  502    0  0.00000000000E+00  0.00000000000E+00  0.19642910984E+04  0.19642910984E+04  0.00000000000E+00 0.  1.
          1   -1    0    0  501    0 -0.00000000000E+00 -0.00000000000E+00 -0.23730971078E+02  0.23730971078E+02  0.00000000000E+00 0.  1.
          2    1    1    2  501    0  0.22775563021E+01 -0.30187538851E+02  0.15943269739E+04  0.15946143654E+04  0.00000000000E+00 0.  1.
          1    1    1    2  502    0  0.69037478144E+01  0.20539962584E+02 -0.18599104216E+01  0.21748817523E+02  0.00000000000E+00 0.  1.
         22    1    1    2    0    0 -0.27775795982E+02  0.45957681651E+02  0.31381147222E+03  0.31837280575E+03  0.00000000000E+00 0.  1.
         22    1    1    2    0    0  0.18594491865E+02 -0.36310105384E+02  0.34281591675E+02  0.53286080813E+02  0.00000000000E+00 0.  1.
</event>
<event>
 6    1  0.8017648E-006  0.1543264E+03  0.7818608E-02  0.1308014E+00
          2   -1    0    0  502    0  0.00000000000E+00  0.00000000000E+00  0.55387687538E+03  0.55387687538E+03  0.00000000000E+00 0.  1.
          1   -1    0    0  501    0 -0.00000000000E+00 -0.00000000000E+00 -0.66915285444E+02  0.66915285444E+02  0.00000000000E+00 0. -1.
          2    1    1    2  501    0 -0.24383977461E+02 -0.36993404299E+02  0.53360331545E+02  0.69357157533E+02  0.00000000000E+00 0.  1.
          1    1    1    2  502    0  0.90425482657E+02  0.79761157208E+02  0.34931906201E+02  0.12553425104E+03  0.00000000000E+00 0. -1.
         22    1    1    2    0    0  0.15944642382E+02 -0.30993113938E+01 -0.71901800096E+00  0.16258977173E+02  0.00000000000E+00 0. -1.
         22    1    1    2    0    0 -0.81986147578E+02 -0.39668441516E+02  0.39938837019E+03  0.40964177508E+03  0.00000000000E+00 0.  1.
</event>
<event>
 6    1  0.8017648E-006  0.5084111E+02  0.7818608E-02  0.1451288E+00
          2   -1    0    0  502    0  0.00000000000E+00  0.00000000000E+00  0.14919985633E+03  0.14919985633E+03  0.00000000000E+00 0.  1.
          1   -1    0    0  501    0 -0.00000000000E+00 -0.00000000000E+00 -0.93937897907E+02  0.93937897907E+02  0.00000000000E+00 0.  1.
          2    1    1    2  501    0 -0.19623278644E+02 -0.30384147174E+02  0.82673645260E+01  0.37102813646E+02  0.00000000000E+00 0.  1.
          1    1    1    2  502    0 -0.24046219173E+01  0.39269716386E+02  0.70291955200E+02  0.80553409596E+02  0.00000000000E+00 0.  1.
         22    1    1    2    0    0 -0.13912880924E+02 -0.33497433665E+02  0.36528122242E+02  0.51477665373E+02  0.00000000000E+00 0. -1.
         22    1    1    2    0    0  0.35940781485E+02  0.24611864453E+02 -0.59825483545E+02  0.74003865622E+02  0.00000000000E+00 0.  1.
</event>
<event>
 6    1  0.8017648E-006  0.8386427E+02  0.7818608E-02  0.1321481E+00
          2   -1    0    0  502    0  0.00000000000E+00  0.00000000000E+00  0.65234028998E+03  0.65234028998E+03  0.00000000000E+00 0. -1.
          1   -1    0    0  501    0 -0.00000000000E+00 -0.00000000000E+00 -0.69998640246E+03  0.69998640246E+03  0.00000000000E+00 0. -1.
          2    1    1    2  501    0 -0.14081352836E+03 -0.13190239816E+03  0.57850108269E+03  0.60982800451E+03  0.00000000000E+00 0. -1.
          1    1    1    2  502    0  0.12919996949E+03  0.10480590264E+03 -0.58062917328E+03  0.60399267066E+03  0.00000000000E+00 0. -1.
         22    1    1    2    0    0 -0.32043404857E+02  0.25305602430E+02 -0.75279272051E+02  0.85639489196E+02  0.00000000000E+00 0. -1.
         22    1    1    2    0    0  0.43656963720E+02  0.17908930906E+01  0.29761250164E+02  0.52866528075E+02  0.00000000000E+00 0. -1.
</event>
<event>
 6    1  0.8017648E-006  0.9865292E+02  0.7818608E-02  0.1342324E+00
          2   -1    0    0  502    0  0.00000000000E+00  0.00000000000E+00  0.88537625849E+03  0.88537625849E+03  0.00000000000E+00 0.  1.
          1   -1    0    0  501    0 -0.00000000000E+00 -0.00000000000E+00 -0.30817549967E+02  0.30817549967E+02  0.00000000000E+00 0. -1.
          2    1    1    2  501    0 -0.30149508189E+02  0.60582824173E+02  0.49475708903E+03  0.49936344337E+03  0.00000000000E+00 0.  1.
          1    1    1    2  502    0  0.19869245813E+02 -0.71334228316E+02  0.21898667262E+03  0.23116773530E+03  0.00000000000E+00 0. -1.
         22    1    1    2    0    0  0.20272658545E+02 -0.27102079931E+02 -0.54210586740E+01  0.34276687387E+02  0.00000000000E+00 0. -1.
         22    1    1    2    0    0 -0.99923961682E+01  0.37853484075E+02  0.14623600555E+03  0.15138594240E+03  0.00000000000E+00 0. -1.
</event>
<event>
 6    1  0.8017648E-006  0.6532749E+02  0.7818608E-02  0.1445968E+00
          2   -1    0    0  502    0  0.00000000000E+00  0.00000000000E+00  0.22956441825E+03  0.22956441825E+03  0.00000000000E+00 0.  1.
          1   -1    0    0  501    0 -0.00000000000E+00 -0.00000000000E+00 -0.46249879838E+02  0.46249879838E+02  0.00000000000E+00 0.  1.
          2    1    1    2  501    0  0.17937794914E+02  0.12283546270E+02  0.56094831465E+02  0.60160453061E+02  0.00000000000E+00 0.  1.
          1    1    1    2  502    0  0.16216898258E+02 -0.36409024134E+02  0.24101772355E+02  0.46577894522E+02  0.00000000000E+00 0.  1.
         22    1    1    2    0    0 -0.11781774064E+02 -0.18828130019E+02 -0.24206179517E+02  0.32851907204E+02  0.00000000000E+00 0.  1.
         22    1    1    2    0    0 -0.22372919108E+02  0.42953607883E+02  0.12732411411E+03  0.13622404330E+03  0.00000000000E+00 0.  1.
</event>
<event>
 6    1  0.8017648E-006  0.3947373E+02  0.7818608E-02  0.1536050E+00
          2   -1    0    0  502    0  0.00000000000E+00  0.00000000000E+00  0.30469244007E+03  0.30469244007E+03  0.00000000000E+00 0. -1.
          1   -1    0    0  501    0 -0.00000000000E+00 -0.00000000000E+00 -0.86955660660E+02  0.86955660660E+02  0.00000000000E+00 0. -1.
          2    1    1    2  501    0  0.10674779328E+02 -0.48876369713E+02  0.22419099000E+03  0.22970513801E+03  0.00000000000E+00 0. -1.
          1    1    1    2  502    0 -0.67391878683E+01  0.37322490255E+02 -0.10355723962E+02  0.39314449643E+02  0.00000000000E+00 0. -1.
         22    1    1    2    0    0 -0.24147965081E+02  0.15114757549E+02 -0.54078423806E+02  0.61123285535E+02  0.00000000000E+00 0. -1.
         22    1    1    2    0    0  0.20212373621E+02 -0.35608780917E+01  0.57979937179E+02  0.61505227546E+02  0.00000000000E+00 0. -1.
</event>
<event>
 6    1  0.8017648E-006  0.1138992E+03  0.7818608E-02  0.1360897E+00
          2   -1    0    0  502    0  0.00000000000E+00  0.00000000000E+00  0.36249145913E+03  0.36249145913E+03  0.00000000000E+00 0. -1.
          1   -1    0    0  501    0 -0.00000000000E+00 -0.00000000000E+00 -0.59948024725E+02  0.59948024725E+02  0.00000000000E+00 0. -1.
          2    1    1    2  501    0 -0.13099083036E+02  0.19230316344E+02  0.29206039675E+02  0.37341448774E+02  0.00000000000E+00 0. -1.
          1    1    1    2  502    0  0.88080830162E+02 -0.57431922729E+02  0.48830093451E+02  0.11593548386E+03  0.00000000000E+00 0. -1.
         22    1    1    2    0    0 -0.48608539587E+01 -0.15276394924E+02 -0.98137535846E+01  0.18796433239E+02  0.00000000000E+00 0. -1.
         22    1    1    2    0    0 -0.70120893167E+02  0.53478001310E+02  0.23432105487E+03  0.25036611799E+03  0.00000000000E+00 0. -1.
</event>
<event>
 6    1  0.8017648E-006  0.3428099E+02  0.7818608E-02  0.1618240E+00
          2   -1    0    0  502    0  0.00000000000E+00  0.00000000000E+00  0.99070971912E+03  0.99070971912E+03  0.00000000000E+00 0.  1.
          1   -1    0    0  501    0 -0.00000000000E+00 -0.00000000000E+00 -0.24770431507E+03  0.24770431507E+03  0.00000000000E+00 0. -1.
          2    1    1    2  501    0 -0.23608788822E+02 -0.17618881662E+02  0.90914216550E+03  0.90961930333E+03  0.00000000000E+00 0.  1.
          1    1    1    2  502    0  0.36286943098E+02  0.34123116375E+02 -0.19310369135E+03  0.19942458455E+03  0.00000000000E+00 0. -1.
         22    1    1    2    0    0 -0.41856934283E+01 -0.23432025126E+02  0.75734104788E+02  0.79386613853E+02  0.00000000000E+00 0. -1.
         22    1    1    2    0    0 -0.84924608476E+01  0.69277904129E+01 -0.48767174880E+02  0.49983532459E+02  0.00000000000E+00 0. -1.
</event>
<event>
 6    1  0.8017648E-006  0.4786402E+03  0.7818608E-02  0.1108539E+00
          2   -1    0    0  502    0  0.00000000000E+00  0.00000000000E+00  0.23365270513E+03  0.23365270513E+03  0.00000000000E+00 0. -1.
          1   -1    0    0  501    0 -0.00000000000E+00 -0.00000000000E+00 -0.14083456544E+04  0.14083456544E+04  0.00000000000E+00 0. -1.
          2    1    1    2  501    0  0.16554340444E+03 -0.26544342181E+03  0.66490237091E+02  0.31982148233E+03  0.00000000000E+00 0. -1.
          1    1    1    2  502    0 -0.18699366367E+03  0.19375726235E+03 -0.10199158414E+04  0.10548634179E+04  0.00000000000E+00 0. -1.
         22    1    1    2    0    0  0.58503593040E+02  0.87309106459E+02 -0.12713065706E+03  0.16494773243E+03  0.00000000000E+00 0.  1.
         22    1    1    2    0    0 -0.37053333810E+02 -0.15622947008E+02 -0.94136687968E+02  0.10236572689E+03  0.00000000000E+00 0.  1.
</event>
<event>
 6    1  0.8017648E-006  0.7284262E+02  0.7818608E-02  0.1377335E+00
          2   -1    0    0  502    0  0.00000000000E+00  0.00000000000E+00  0.31134206413E+03  0.31134206413E+03  0.00000000000E+00 0. -1.
          1   -1    0    0  501    0 -0.00000000000E+00 -0.00000000000E+00 -0.44937045708E+02  0.44937045708E+02  0.00000000000E+00 0.  1.
          2    1    1    2  501    0 -0.15705544085E+02 -0.26888298737E+02  0.72888951724E+02  0.79261869820E+02  0.00000000000E+00 0. -1.
          1    1    1    2  502    0 -0.14951819236E+01  0.44983465349E+02  0.66562717850E+00  0.45013228981E+02  0.00000000000E+00 0.  1.
         22    1    1    2    0    0 -0.21404981213E+02 -0.44315395054E+02  0.17541081085E+03  0.18218391812E+03  0.00000000000E+00 0. -1.
         22    1    1    2    0    0  0.38605707222E+02  0.26220228441E+02  0.17439628665E+02  0.49820092910E+02  0.00000000000E+00 0. -1.
</event>
<event>
 6    1  0.8017648E-006  0.3914812E+02  0.7818608E-02  0.1521150E+00
          2   -1    0    0  502    0  0.00000000000E+00  0.00000000000E+00  0.19430505155E+03  0.19430505155E+03  0.00000000000E+00 0. -1.
          1   -1    0    0  501    0 -0.00000000000E+00 -0.00000000000E+00 -0.11638072257E+03  0.11638072257E+03  0.00000000000E+00 0.  1.
          2    1    1    2  501    0  0.20501260503E+02 -0.10727243056E+02  0.13979122977E+03  0.14169320148E+03  0.00000000000E+00 0. -1.
          1    1    1    2  502    0 -0.10824271843E+00 -0.24264475765E+02 -0.46123694188E+01  0.24699199426E+02  0.00000000000E+00 0.  1.
         22    1    1    2    0    0  0.89598699133E+01 -0.68122616466E+01  0.36134947331E+02  0.37847332749E+02  0.00000000000E+00 0.  1.
         22    1    1    2    0    0 -0.29352887698E+02  0.41803980468E+02 -0.93389478701E+02  0.10644604047E+03  0.00000000000E+00 0.  1.
</event>
<event>
 6    1  0.8017648E-006  0.1061028E+03  0.7818608E-02  0.1367744E+00
          2   -1    0    0  502    0  0.00000000000E+00  0.00000000000E+00  0.85842232098E+03  0.85842232098E+03  0.00000000000E+00 0.  1.
          1   -1    0    0  501    0 -0.00000000000E+00 -0.00000000000E+00 -0.90269222820E+02  0.90269222820E+02  0.00000000000E+00 0.  1.
          2    1    1    2  501    0  0.60017440654E+02  0.64642055040E+02  0.75489376347E+03  0.76002979059E+03  0.00000000000E+00 0.  1.
          1    1    1    2  502    0 -0.34483150974E+02 -0.49272006045E+02 -0.12264612767E+02  0.61377838078E+02  0.00000000000E+00 0.  1.
         22    1    1    2    0    0 -0.18547454262E+01  0.17591088119E+02  0.66975493201E+02  0.69271950682E+02  0.00000000000E+00 0. -1.
         22    1    1    2    0    0 -0.23679544254E+02 -0.32961137114E+02 -0.41451545737E+02  0.58011964455E+02  0.00000000000E+00 0.  1.
</event>
<event>
 6    1  0.8017648E-006  0.2302691E+02  0.7818608E-02  0.1770682E+00
          2   -1    0    0  502    0  0.00000000000E+00  0.00000000000E+00  0.21504895203E+03  0.21504895203E+03  0.00000000000E+00 0. -1.
          1   -1    0    0  501    0 -0.00000000000E+00 -0.00000000000E+00 -0.85675282891E+02  0.85675282891E+02  0.00000000000E+00 0.  1.
          2    1    1    2  501    0 -0.19251013093E+02  0.11102266915E+02  0.10283337983E+03  0.10520725185E+03  0.00000000000E+00 0. -1.
          1    1    1    2  502    0 -0.16710762271E+02 -0.11638095124E+02 -0.41152189031E+02  0.45915111846E+02  0.00000000000E+00 0.  1.
         22    1    1    2    0    0  0.10149129597E+02  0.94698587785E+00 -0.38752713949E+02  0.40070867875E+02  0.00000000000E+00 0.  1.
         22    1    1    2    0    0  0.25812645766E+02 -0.41115766967E+00  0.10644519229E+03  0.10953100335E+03  0.00000000000E+00 0.  1.
</event>
<event>
 6    1  0.8017648E-006  0.5047944E+02  0.7818608E-02  0.1492758E+00
          2   -1    0    0  502    0  0.00000000000E+00  0.00000000000E+00  0.16722294366E+03  0.16722294366E+03  0.00000000000E+00 0. -1.
          1   -1    0    0  501    0 -0.00000000000E+00 -0.00000000000E+00 -0.84289731477E+02  0.84289731477E+02  0.00000000000E+00 0. -1.
          2    1    1    2  501    0 -0.31238719583E+02 -0.12017014354E+02  0.67380824338E+02  0.75235907142E+02  0.00000000000E+00 0. -1.
          1    1    1    2  502    0  0.15883035072E+02  0.31515664367E+02  0.31462024582E+02  0.47279666818E+02  0.00000000000E+00 0. -1.
         22    1    1    2    0    0 -0.88733273296E+01 -0.23797193372E+02  0.51398942991E+02  0.57331437195E+02  0.00000000000E+00 0.  1.
         22    1    1    2    0    0  0.24229011840E+02  0.42985433583E+01 -0.67308579725E+02  0.71665663985E+02  0.00000000000E+00 0. -1.
</event>
<event>
 6    1  0.8017648E-006  0.7697970E+02  0.7818608E-02  0.1407529E+00
          2   -1    0    0  502    0  0.00000000000E+00  0.00000000000E+00  0.21460218570E+03  0.21460218570E+03  0.00000000000E+00 0. -1.
          1   -1    0    0  501    0 -0.00000000000E+00 -0.00000000000E+00 -0.58192177447E+02  0.58192177447E+02  0.00000000000E+00 0. -1.
          2    1    1    2  501    0 -0.24963377843E+01 -0.25386541326E+02  0.34068242464E+02  0.42559996798E+02  0.00000000000E+00 0. -1.
          1    1    1    2  502    0  0.39762269145E+02  0.41922827376E+02  0.94681527441E+01  0.58550895972E+02  0.00000000000E+00 0. -1.
         22    1    1    2    0    0 -0.35997260562E+02 -0.40883993607E+02  0.13062298285E+03  0.14152620729E+03  0.00000000000E+00 0. -1.
         22    1    1    2    0    0 -0.12686707985E+01  0.24347707557E+02 -0.17749369800E+02  0.30157263092E+02  0.00000000000E+00 0.  1.
</event>
<event>
 6    1  0.8017648E-006  0.5599014E+02  0.7818608E-02  0.1419418E+00
          2   -1    0    0  502    0  0.00000000000E+00  0.00000000000E+00  0.10402041175E+03  0.10402041175E+03  0.00000000000E+00 0. -1.
          1   -1    0    0  501    0 -0.00000000000E+00 -0.00000000000E+00 -0.21062651015E+03  0.21062651015E+03  0.00000000000E+00 0. -1.
          2    1    1    2  501    0  0.88497871574E+01  0.39134170153E+02  0.64711068247E+02  0.76140162595E+02  0.00000000000E+00 0. -1.
          1    1    1    2  502    0  0.61808411147E+00 -0.28920842913E+02 -0.84344129060E+02  0.89166862060E+02  0.00000000000E+00 0. -1.
         22    1    1    2    0    0 -0.16968667862E+02 -0.19591558802E+02 -0.11550840774E+03  0.11838056059E+03  0.00000000000E+00 0. -1.
         22    1    1    2    0    0  0.75007965927E+01  0.93782315626E+01  0.28535370149E+02  0.30959336658E+02  0.00000000000E+00 0.  1.
</event>
<event>
 6    1  0.8017648E-006  0.2863024E+02  0.7818608E-02  0.1681460E+00
          2   -1    0    0  502    0  0.00000000000E+00  0.00000000000E+00  0.25028983864E+03  0.25028983864E+03  0.00000000000E+00 0. -1.
          1   -1    0    0  501    0 -0.00000000000E+00 -0.00000000000E+00 -0.69042408672E+02  0.69042408672E+02  0.00000000000E+00 0. -1.
          2    1    1    2  501    0 -0.24326815018E+02 -0.62520165092E+01  0.12236544430E+03  0.12491670664E+03  0.00000000000E+00 0. -1.
          1    1    1    2  502    0  0.12622364670E+02  0.26013315586E+02 -0.30180437315E+02  0.41795639415E+02  0.00000000000E+00 0. -1.
         22    1    1    2    0    0  0.15074244491E+01 -0.23242757322E+02  0.11876290225E+03  0.12102530746E+03  0.00000000000E+00 0.  1.
         22    1    1    2    0    0  0.10197025899E+02  0.34814582452E+01 -0.29700479261E+02  0.31594593795E+02  0.00000000000E+00 0. -1.
</event>
<event>
 6    1  0.8017648E-006  0.8483570E+02  0.7818608E-02  0.1349417E+00
          2   -1    0    0  502    0  0.00000000000E+00  0.00000000000E+00  0.42904892357E+03  0.42904892357E+03  0.00000000000E+00 0. -1.
          1   -1    0    0  501    0 -0.00000000000E+00 -0.00000000000E+00 -0.65418725022E+02  0.65418725022E+02  0.00000000000E+00 0. -1.
          2    1    1    2  501    0  0.13183926779E+02 -0.29837445541E+02  0.23249839535E+03  0.23477562251E+03  0.00000000000E+00 0. -1.
          1    1    1    2  502    0 -0.51221608850E+02  0.27511676779E+02 -0.18690926066E+02  0.61072876873E+02  0.00000000000E+00 0. -1.
         22    1    1    2    0    0  0.14843349314E+02  0.44720258976E+02  0.67433614751E+01  0.47599364552E+02  0.00000000000E+00 0. -1.
         22    1    1    2    0    0  0.23194332756E+02 -0.42394490214E+02  0.14307936778E+03  0.15101978466E+03  0.00000000000E+00 0. -1.
</event>
<event>
 6    1  0.8017648E-006  0.9789772E+02  0.7818608E-02  0.1363725E+00
          2   -1    0    0  502    0  0.00000000000E+00  0.00000000000E+00  0.51425903642E+03  0.51425903642E+03  0.00000000000E+00 0. -1.
          1   -1    0    0  501    0 -0.00000000000E+00 -0.00000000000E+00 -0.16365731638E+03  0.16365731638E+03  0.00000000000E+00 0.  1.
          2    1    1    2  501    0 -0.79945793121E+02 -0.31145862330E+02  0.41623884724E+03  0.42498961461E+03  0.00000000000E+00 0. -1.
          1    1    1    2  502    0  0.89833982615E+02  0.63093746733E+02 -0.38304109674E+02  0.11626766587E+03  0.00000000000E+00 0.  1.
         22    1    1    2    0    0 -0.81858501518E+01 -0.79289700016E+01  0.52267908933E+02  0.53495897153E+02  0.00000000000E+00 0.  1.
         22    1    1    2    0    0 -0.17023393415E+01 -0.24018914402E+02 -0.79600926459E+02  0.83163175152E+02  0.00000000000E+00 0.  1.
</event>
<event>
 6    1  0.8017648E-006  0.4849731E+02  0.7818608E-02  0.1482204E+00
          2   -1    0    0  502    0  0.00000000000E+00  0.00000000000E+00  0.33942193678E+03  0.33942193678E+03  0.00000000000E+00 0. -1.
          1   -1    0    0  501    0 -0.00000000000E+00 -0.00000000000E+00 -0.47941350253E+02  0.47941350253E+02  0.00000000000E+00 0. -1.
          2    1    1    2  501    0 -0.40527827110E+02  0.12252925673E+02  0.19744746400E+03  0.20193597995E+03  0.00000000000E+00 0. -1.
          1    1    1    2  502    0  0.24874624003E+02 -0.15004607570E+02  0.42867137895E+02  0.51782976730E+02  0.00000000000E+00 0. -1.
         22    1    1    2    0    0  0.30660960144E+02 -0.97110214157E+01 -0.33688764334E+02  0.46576080302E+02  0.00000000000E+00 0. -1.
         22    1    1    2    0    0 -0.15007757038E+02  0.12462703313E+02  0.84854748972E+02  0.87068250058E+02  0.00000000000E+00 0. -1.
</event>
<event>
 6    1  0.8017648E-006  0.1158404E+03  0.7818608E-02  0.1281470E+00
          2   -1    0    0  502    0  0.00000000000E+00  0.00000000000E+00  0.27977552227E+03  0.27977552227E+03  0.00000000000E+00 0. -1.
          1   -1    0    0  501    0 -0.00000000000E+00 -0.00000000000E+00 -0.57488640390E+03  0.57488640390E+03  0.00000000000E+00 0. -1.
          2    1    1    2  501    0 -0.15601097489E+03  0.12281042810E+03  0.16244956961E+03  0.25653788843E+03  0.00000000000E+00 0. -1.
          1    1    1    2  502    0  0.20852419955E+03 -0.95639282592E+02 -0.35778308827E+03  0.42501523787E+03  0.00000000000E+00 0. -1.
         22    1    1    2    0    0 -0.33952321487E+02 -0.57703655424E+02  0.18576048958E+00  0.66951523437E+02  0.00000000000E+00 0. -1.
         22    1    1    2    0    0 -0.18560903179E+02  0.30532509920E+02 -0.99963123461E+02  0.10615727644E+03  0.00000000000E+00 0.  1.
</event>
<event>
 6    1  0.8017648E-006  0.4034466E+02  0.7818608E-02  0.1505953E+00
          2   -1    0    0  502    0  0.00000000000E+00  0.00000000000E+00  0.17603188154E+03  0.17603188154E+03  0.00000000000E+00 0. -1.
          1   -1    0    0  501    0 -0.00000000000E+00 -0.00000000000E+00 -0.20251944301E+03  0.20251944301E+03  0.00000000000E+00 0. -1.
          2    1    1    2  501    0  0.45162882778E+01 -0.21993540874E+02  0.10078709086E+03  0.10325768922E+03  0.00000000000E+00 0. -1.
          1    1    1    2  502    0 -0.36200596550E+01  0.26440557865E+02 -0.14687463063E+03  0.14927948639E+03  0.00000000000E+00 0. -1.
         22    1    1    2    0    0  0.32692465554E+01  0.12743204945E+02 -0.51290255257E+02  0.52950614063E+02  0.00000000000E+00 0. -1.
         22    1    1    2    0    0 -0.41654751783E+01 -0.17190221936E+02  0.70890233566E+02  0.73063534877E+02  0.00000000000E+00 0. -1.
</event>
<event>
 6    1  0.8017648E-006  0.4240069E+02  0.7818608E-02  0.1502771E+00
          2   -1    0    0  502    0  0.00000000000E+00  0.00000000000E+00  0.85730984317E+02  0.85730984317E+02  0.00000000000E+00 0.  1.
          1   -1    0    0  501    0 -0.00000000000E+00 -0.00000000000E+00 -0.38993478331E+03  0.38993478331E+03  0.00000000000E+00 0. -1.
          2    1    1    2  501    0 -0.18710834510E+02 -0.12905288719E+02  0.32101443515E+02  0.39333757521E+02  0.00000000000E+00 0.  1.
          1    1    1    2  502    0 -0.34338589650E+02  0.22086735011E+02 -0.28300488607E+03  0.28593483199E+03  0.00000000000E+00 0. -1.
         22    1    1    2    0    0  0.59114079058E+02 -0.44517044090E+00 -0.92502104986E+02  0.10977846759E+03  0.00000000000E+00 0.  1.
         22    1    1    2    0    0 -0.60646548978E+01 -0.87362758510E+01  0.39201748556E+02  0.40618710524E+02  0.00000000000E+00 0.  1.
</event>
<event>
 6    1  0.8017648E-006  0.3743111E+02  0.7818608E-02  0.1537478E+00
          2   -1    0    0  502    0  0.00000000000E+00  0.00000000000E+00  0.11314815961E+03  0.11314815961E+03  0.00000000000E+00 0.  1.
          1   -1    0    0  501    0 -0.00000000000E+00 -0.00000000000E+00 -0.11115052356E+03  0.11115052356E+03  0.00000000000E+00 0.  1.
          2    1    1    2  501    0  0.32630883697E+02 -0.17383092449E+02 -0.11843888001E+00  0.36972428940E+02  0.00000000000E+00 0.  1.
          1    1    1    2  502    0 -0.51836312558E+02  0.34966784314E+02 -0.10172081535E+02  0.63349432102E+02  0.00000000000E+00 0.  1.
         22    1    1    2    0    0  0.22666535340E+02  0.12223766201E+02 -0.49213921117E+02  0.55544597542E+02  0.00000000000E+00 0. -1.
         22    1    1    2    0    0 -0.34611064787E+01 -0.29807458066E+02  0.61502077587E+02  0.68432224587E+02  0.00000000000E+00 0.  1.
</event>
<event>
 6    1  0.8017648E-006  0.5585074E+02  0.7818608E-02  0.1436892E+00
          2   -1    0    0  502    0  0.00000000000E+00  0.00000000000E+00  0.52337633370E+02  0.52337633370E+02  0.00000000000E+00 0.  1.
          1   -1    0    0  501    0 -0.00000000000E+00 -0.00000000000E+00 -0.46774998159E+03  0.46774998159E+03  0.00000000000E+00 0. -1.
          2    1    1    2  501    0 -0.57288457783E+02  0.13403649854E+02 -0.43497749088E+02  0.73168841732E+02  0.00000000000E+00 0.  1.
          1    1    1    2  502    0  0.14679649416E+02  0.65921076442E+02 -0.21004371994E+03  0.22063418754E+03  0.00000000000E+00 0. -1.
         22    1    1    2    0    0  0.15767243007E+02 -0.48735438636E+02 -0.17592478608E+03  0.18323012658E+03  0.00000000000E+00 0.  1.
         22    1    1    2    0    0  0.26841565360E+02 -0.30589287659E+02  0.14053906881E+02  0.43054459109E+02  0.00000000000E+00 0. -1.
</event>
<event>
 6    1  0.8017648E-006  0.9975822E+02  0.7818608E-02  0.1395023E+00
          2   -1    0    0  502    0  0.00000000000E+00  0.00000000000E+00  0.28191396193E+03  0.28191396193E+03  0.00000000000E+00 0. -1.
          1   -1    0    0  501    0 -0.00000000000E+00 -0.00000000000E+00 -0.27190936391E+03  0.27190936391E+03  0.00000000000E+00 0. -1.
          2    1    1    2  501    0  0.31098070818E+02 -0.52163850090E+02  0.11873503676E+03  0.13336478628E+03  0.00000000000E+00 0. -1.
          1    1    1    2  502    0 -0.26698123671E+02  0.94303251808E+02 -0.22562409013E+03  0.24599212011E+03  0.00000000000E+00 0. -1.
         22    1    1    2    0    0 -0.95396582035E+01 -0.97649279363E+01 -0.25189578295E+02  0.28650894418E+02  0.00000000000E+00 0.  1.
         22    1    1    2    0    0  0.51397110570E+01 -0.32374473781E+02  0.14208322969E+03  0.14581552504E+03  0.00000000000E+00 0.  1.
</event>
<event>
 6    1  0.8017648E-006  0.3935482E+02  0.7818608E-02  0.1613570E+00
          2   -1    0    0  502    0  0.00000000000E+00  0.00000000000E+00  0.30753025511E+03  0.30753025511E+03  0.00000000000E+00 0. -1.
          1   -1    0    0  501    0 -0.00000000000E+00 -0.00000000000E+00 -0.34633680098E+02  0.34633680098E+02  0.00000000000E+00 0. -1.
          2    1    1    2  501    0 -0.54905628262E+01  0.34552447773E+02  0.72667174608E+02  0.80650704850E+02  0.00000000000E+00 0. -1.
          1    1    1    2  502    0  0.21583583698E+02  0.18419404642E+02  0.63713288798E+02  0.69746030153E+02  0.00000000000E+00 0. -1.
         22    1    1    2    0    0  0.10590693262E+01 -0.10994719326E+02 -0.23223225765E+02  0.25716214648E+02  0.00000000000E+00 0. -1.
         22    1    1    2    0    0 -0.17152090198E+02 -0.41977133090E+02  0.15973933737E+03  0.16605098555E+03  0.00000000000E+00 0. -1.
</event>
<event>
 6    1  0.8017648E-006  0.8587224E+02  0.7818608E-02  0.1399886E+00
          2   -1    0    0  502    0  0.00000000000E+00  0.00000000000E+00  0.26197453697E+03  0.26197453697E+03  0.00000000000E+00 0.  1.
          1   -1    0    0  501    0 -0.00000000000E+00 -0.00000000000E+00 -0.61452602378E+02  0.61452602378E+02  0.00000000000E+00 0.  1.
          2    1    1    2  501    0  0.29126634690E+02 -0.53108057180E+01  0.42000145537E+02  0.51386552043E+02  0.00000000000E+00 0.  1.
          1    1    1    2  502    0 -0.60537351800E+02 -0.27008259526E+02  0.29822771583E+01  0.66355941878E+02  0.00000000000E+00 0.  1.
         22    1    1    2    0    0  0.48921753776E+02  0.23055172732E+02  0.17176471170E+03  0.18007774756E+03  0.00000000000E+00 0.  1.
         22    1    1    2    0    0 -0.17511036666E+02  0.92638925115E+01 -0.16225199802E+02  0.25606897863E+02  0.00000000000E+00 0.  1.
</event>
<event>
 6    1  0.8017648E-006  0.5405276E+02  0.7818608E-02  0.1513459E+00
          2   -1    0    0  502    0  0.00000000000E+00  0.00000000000E+00  0.71536247587E+02  0.71536247587E+02  0.00000000000E+00 0. -1.
          1   -1    0    0  501    0 -0.00000000000E+00 -0.00000000000E+00 -0.28690304028E+03  0.28690304028E+03  0.00000000000E+00 0.  1.
          2    1    1    2  501    0  0.17869648806E+02  0.11112464278E+02  0.20439757265E+02  0.29335897597E+02  0.00000000000E+00 0. -1.
          1    1    1    2  502    0 -0.55810245654E+01 -0.34414936634E+02 -0.18502114153E+03  0.18827734466E+03  0.00000000000E+00 0.  1.
         22    1    1    2    0    0 -0.11090174394E+02 -0.10245212036E+02 -0.88821224770E+02  0.90095317900E+02  0.00000000000E+00 0. -1.
         22    1    1    2    0    0 -0.11984498467E+01  0.33547684391E+02  0.38035816337E+02  0.50730727715E+02  0.00000000000E+00 0. -1.
</event>
<event>
 6    1  0.8017648E-006  0.6396387E+02  0.7818608E-02  0.1491068E+00
          2   -1    0    0  502    0  0.00000000000E+00  0.00000000000E+00  0.30402027357E+03  0.30402027357E+03  0.00000000000E+00 0. -1.
          1   -1    0    0  501    0 -0.00000000000E+00 -0.00000000000E+00 -0.15747301858E+03  0.15747301858E+03  0.00000000000E+00 0.  1.
          2    1    1    2  501    0 -0.55606922828E+02  0.20044387156E+02  0.18065515996E+03  0.19007944166E+03  0.00000000000E+00 0. -1.
          1    1    1    2  502    0  0.75679307693E+02  0.19389977692E+02 -0.96604431632E+02  0.12424067393E+03  0.00000000000E+00 0.  1.
         22    1    1    2    0    0 -0.19305761221E+02 -0.49611756848E+02  0.97296028442E+02  0.11090787161E+03  0.00000000000E+00 0.  1.
         22    1    1    2    0    0 -0.76662364434E+00  0.10177392001E+02 -0.34799501769E+02  0.36265304950E+02  0.00000000000E+00 0. -1.
</event>
<event>
 6    1  0.8017648E-006  0.5736913E+02  0.7818608E-02  0.1413459E+00
          2   -1    0    0  502    0  0.00000000000E+00  0.00000000000E+00  0.13052509980E+03  0.13052509980E+03  0.00000000000E+00 0. -1.
          1   -1    0    0  501    0 -0.00000000000E+00 -0.00000000000E+00 -0.10485102601E+03  0.10485102601E+03  0.00000000000E+00 0. -1.
          2    1    1    2  501    0  0.12649643022E+02 -0.22173057115E+02  0.31898281890E+02  0.40855334021E+02  0.00000000000E+00 0. -1.
          1    1    1    2  502    0  0.29656918624E+02  0.26956121709E+02 -0.39501821771E+02  0.56272188896E+02  0.00000000000E+00 0. -1.
         22    1    1    2    0    0  0.36145454389E+00 -0.37389636959E+02  0.65645392828E+02  0.75547555890E+02  0.00000000000E+00 0. -1.
         22    1    1    2    0    0 -0.42668016190E+02  0.32606572365E+02 -0.32367779162E+02  0.62701047000E+02  0.00000000000E+00 0. -1.
</event>
<event>
 6    1  0.8017648E-006  0.7235293E+02  0.7818608E-02  0.1477228E+00
          2   -1    0    0  502    0  0.00000000000E+00  0.00000000000E+00  0.25472686021E+03  0.25472686021E+03  0.00000000000E+00 0. -1.
          1   -1    0    0  501    0 -0.00000000000E+00 -0.00000000000E+00 -0.16777383516E+03  0.16777383516E+03  0.00000000000E+00 0. -1.
          2    1    1    2  501    0  0.58309454818E+02  0.19877042609E+02  0.18605809351E+03  0.19599159039E+03  0.00000000000E+00 0. -1.
          1    1    1    2  502    0 -0.46464236724E+02 -0.18491436472E+02 -0.86442964560E+02  0.99866133594E+02  0.00000000000E+00 0. -1.
         22    1    1    2    0    0 -0.18485809257E+02  0.66069130375E+01 -0.67774084072E+02  0.70559924288E+02  0.00000000000E+00 0. -1.
         22    1    1    2    0    0  0.66405911628E+01 -0.79925191744E+01  0.55111980171E+02  0.56083047101E+02  0.00000000000E+00 0.  1.
</event>
<event>
 6    1  0.8017648E-006  0.1175378E+03  0.7818608E-02  0.1315221E+00
          2   -1    0    0  502    0  0.00000000000E+00  0.00000000000E+00  0.43863171323E+03  0.43863171323E+03  0.00000000000E+00 0. -1.
          1   -1    0    0  501    0 -0.00000000000E+00 -0.00000000000E+00 -0.15407421751E+03  0.15407421751E+03  0.00000000000E+00 0.  1.
          2    1    1    2  501    0 -0.59695442577E+02 -0.46216877586E+02  0.30736582883E+03  0.31650165619E+03  0.00000000000E+00 0. -1.
          1    1    1    2  502    0  0.58335008003E+02  0.80223338966E+02 -0.85998367934E+02  0.13128014534E+03  0.00000000000E+00 0.  1.
         22    1    1    2    0    0  0.31303784969E+02 -0.78376095270E+01 -0.29714171828E+02  0.43866696752E+02  0.00000000000E+00 0.  1.
         22    1    1    2    0    0 -0.29943350395E+02 -0.26168851853E+02  0.92904206654E+02  0.10105743245E+03  0.00000000000E+00 0.  1.
</event>
<event>
 6    1  0.8017648E-006  0.6940474E+02  0.7818608E-02  0.1378157E+00
          2   -1    0    0  502    0  0.00000000000E+00  0.00000000000E+00  0.89174557012E+02  0.89174557012E+02  0.00000000000E+00 0.  1.
          1   -1    0    0  501    0 -0.00000000000E+00 -0.00000000000E+00 -0.21556778841E+03  0.21556778841E+03  0.00000000000E+00 0.  1.
          2    1    1    2  501    0  0.85116017935E+01  0.32468238533E+02  0.23254155911E+02  0.40833682734E+02  0.00000000000E+00 0.  1.
          1    1    1    2  502    0 -0.71858675985E+02 -0.22106539039E+02 -0.35862406948E+02  0.83297542669E+02  0.00000000000E+00 0.  1.
         22    1    1    2    0    0  0.37606149999E+02 -0.37674423678E+02 -0.12943061085E+03  0.13994951855E+03  0.00000000000E+00 0.  1.
         22    1    1    2    0    0  0.25740924193E+02  0.27312724184E+02  0.15645630490E+02  0.40661601470E+02  0.00000000000E+00 0.  1.
</event>
<event>
 6    1  0.8017648E-006  0.9738261E+02  0.7818608E-02  0.1286092E+00
          2   -1    0    0  502    0  0.00000000000E+00  0.00000000000E+00  0.26198287281E+02  0.26198287281E+02  0.00000000000E+00 0.  1.
          1   -1    0    0  501    0 -0.00000000000E+00 -0.00000000000E+00 -0.46206705282E+03  0.46206705282E+03  0.00000000000E+00 0. -1.
          2    1    1    2  501    0 -0.30109823031E+02  0.36184247624E+02 -0.79079192286E+02  0.92029451110E+02  0.00000000000E+00 0.  1.
          1    1    1    2  502    0  0.36455517815E+02 -0.14040246132E+02 -0.10779069954E+03  0.11465150761E+03  0.00000000000E+00 0. -1.
         22    1    1    2    0    0  0.26606372231E+02 -0.50358050404E+02 -0.22481691347E+03  0.23191911708E+03  0.00000000000E+00 0. -1.
         22    1    1    2    0    0 -0.32952067015E+02  0.28214048913E+02 -0.24181960239E+02  0.49665264297E+02  0.00000000000E+00 0.  1.
</event>
<event>
 6    1  0.8017648E-006  0.2192589E+03  0.7818608E-02  0.1236444E+00
          2   -1    0    0  502    0  0.00000000000E+00  0.00000000000E+00  0.85486255285E+03  0.85486255285E+03  0.00000000000E+00 0.  1.
          1   -1    0    0  501    0 -0.00000000000E+00 -0.00000000000E+00 -0.73738914563E+02  0.73738914563E+02  0.00000000000E+00 0. -1.
          2    1    1    2  501    0 -0.85879045075E+02  0.11600493370E+03  0.43079204416E+03  0.45432822974E+03  0.00000000000E+00 0.  1.
          1    1    1    2  502    0  0.58410871383E+02 -0.17023219929E+03  0.17005681251E+03  0.24760886707E+03  0.00000000000E+00 0. -1.
         22    1    1    2    0    0  0.32298414127E+01 -0.22286461410E+02 -0.64465721237E+01  0.23423845326E+02  0.00000000000E+00 0. -1.
         22    1    1    2    0    0  0.24238332279E+02  0.76513727006E+02  0.18672135374E+03  0.20324052528E+03  0.00000000000E+00 0. -1.
</event>
<event>
 6    1  0.1240258E-005  0.8029824E+02  0.7818608E-02  0.1441750E+00
          2   -1    0    0  502    0  0.00000000000E+00  0.00000000000E+00  0.32936803455E+03  0.32936803455E+03  0.00000000000E+00 0.  1.
          1   -1    0    0  501    0 -0.00000000000E+00 -0.00000000000E+00 -0.37007258961E+03  0.37007258961E+03  0.00000000000E+00 0.  1.
          2    1    1    2  501    0  0.52885373360E+02  0.74091685390E+02 -0.10614920732E+03  0.13983595666E+03  0.00000000000E+00 0.  1.
          1    1    1    2  502    0 -0.11257810395E+03 -0.26678248348E+02 -0.21390413876E+03  0.24318827892E+03  0.00000000000E+00 0.  1.
         22    1    1    2    0    0  0.67923924574E+01 -0.79807763698E+01 -0.13009325612E+02  0.16705446406E+02  0.00000000000E+00 0.  1.
         22    1    1    2    0    0  0.52900338136E+02 -0.39432660672E+02  0.29235811663E+03  0.29971094218E+03  0.00000000000E+00 0.  1.
</event>
<event>
 6    1  0.8017648E-006  0.1297893E+03  0.7818608E-02  0.1318494E+00
          2   -1    0    0  502    0  0.00000000000E+00  0.00000000000E+00  0.38523785433E+03  0.38523785433E+03  0.00000000000E+00 0. -1.
          1   -1    0    0  501    0 -0.00000000000E+00 -0.00000000000E+00 -0.84111510215E+02  0.84111510215E+02  0.00000000000E+00 0.  1.
          2    1    1    2  501    0  0.12149717050E+02  0.23826871132E+02  0.25286397049E+02  0.36806756011E+02  0.00000000000E+00 0. -1.
          1    1    1    2  502    0 -0.78193742358E+02  0.20274521559E+02 -0.34125426050E+02  0.87691859778E+02  0.00000000000E+00 0.  1.
         22    1    1    2    0    0 -0.20393061006E+02 -0.97382604676E+01  0.14806436012E+01  0.22647360985E+02  0.00000000000E+00 0.  1.
         22    1    1    2    0    0  0.86437086313E+02 -0.34363132223E+02  0.30848472951E+03  0.32220338777E+03  0.00000000000E+00 0. -1.
</event>
<event>
 6    1  0.8017648E-006  0.6943626E+02  0.7818608E-02  0.1362432E+00
          2   -1    0    0  502    0  0.00000000000E+00  0.00000000000E+00  0.44533947226E+03  0.44533947226E+03  0.00000000000E+00 0. -1.
          1   -1    0    0  501    0 -0.00000000000E+00 -0.00000000000E+00 -0.56136339011E+02  0.56136339011E+02  0.00000000000E+00 0. -1.
          2    1    1    2  501    0  0.21976145234E+02  0.26248385549E+02  0.29646266688E+03  0.29843264158E+03  0.00000000000E+00 0. -1.
          1    1    1    2  502    0 -0.23927696002E+02 -0.36923023953E+02 -0.62431916452E+01  0.44438966861E+02  0.00000000000E+00 0. -1.
         22    1    1    2    0    0 -0.98345116918E+01 -0.17197495633E+02 -0.24476596568E+02  0.31489287954E+02  0.00000000000E+00 0. -1.
         22    1    1    2    0    0  0.11786062460E+02  0.27872134037E+02  0.12346025458E+03  0.12711491488E+03  0.00000000000E+00 0.  1.
</event>
<event>
 6    1  0.8017648E-006  0.8432640E+02  0.7818608E-02  0.1443602E+00
          2   -1    0    0  502    0  0.00000000000E+00  0.00000000000E+00  0.91059648865E+02  0.91059648865E+02  0.00000000000E+00 0.  1.
          1   -1    0    0  501    0 -0.00000000000E+00 -0.00000000000E+00 -0.27829359260E+03  0.27829359260E+03  0.00000000000E+00 0. -1.
          2    1    1    2  501    0 -0.50122558860E+02  0.54904658603E+02  0.32499630662E+02  0.81135802431E+02  0.00000000000E+00 0.  1.
          1    1    1    2  502    0  0.39360108148E+02 -0.31278660285E+02 -0.11905690140E+03  0.12923667620E+03  0.00000000000E+00 0. -1.
         22    1    1    2    0    0  0.21373312037E+02 -0.24970759111E+02 -0.12667417936E+03  0.13086903757E+03  0.00000000000E+00 0. -1.
         22    1    1    2    0    0 -0.10610861324E+02  0.13447607930E+01  0.25997506372E+02  0.28111725262E+02  0.00000000000E+00 0.  1.
</event>
<event>
 6    1  0.8017648E-006  0.5459141E+02  0.7818608E-02  0.1464082E+00
          2   -1    0    0  502    0  0.00000000000E+00  0.00000000000E+00  0.97801595450E+02  0.97801595450E+02  0.00000000000E+00 0.  1.
          1   -1    0    0  501    0 -0.00000000000E+00 -0.00000000000E+00 -0.22769607354E+03  0.22769607354E+03  0.00000000000E+00 0. -1.
          2    1    1    2  501    0  0.37077167826E+02 -0.66201479824E+02  0.27898955083E+02  0.80843701050E+02  0.00000000000E+00 0.  1.
          1    1    1    2  502    0  0.23937461471E+02  0.29712211065E+02 -0.10683275173E+02  0.39622593510E+02  0.00000000000E+00 0. -1.
         22    1    1    2    0    0 -0.15751399590E+02  0.24587006121E+02 -0.15486284001E+03  0.15759164532E+03  0.00000000000E+00 0. -1.
         22    1    1    2    0    0 -0.45263229707E+02  0.11902262637E+02  0.77526820114E+01  0.47439729107E+02  0.00000000000E+00 0. -1.
</event>
<event>
 6    1  0.8017648E-006  0.1102678E+03  0.7818608E-02  0.1355830E+00
          2   -1    0    0  502    0  0.00000000000E+00  0.00000000000E+00  0.31865793147E+03  0.31865793147E+03  0.00000000000E+00 0. -1.
          1   -1    0    0  501    0 -0.00000000000E+00 -0.00000000000E+00 -0.79373864759E+02  0.79373864759E+02  0.00000000000E+00 0.  1.
          2    1    1    2  501    0 -0.34340491580E+02 -0.38578752221E+02  0.15635484430E+03  0.16466458885E+03  0.00000000000E+00 0. -1.
          1    1    1    2  502    0  0.64472260105E+02  0.22718471351E+02  0.74773505074E+02  0.10131080063E+03  0.00000000000E+00 0.  1.
         22    1    1    2    0    0 -0.46475507105E+02  0.26016844338E+02  0.57928886421E+02  0.78693105365E+02  0.00000000000E+00 0. -1.
         22    1    1    2    0    0  0.16343738580E+02 -0.10156563468E+02 -0.49773169091E+02  0.53363301375E+02  0.00000000000E+00 0.  1.
</event>
<event>
 6    1  0.8017648E-006  0.1720511E+02  0.7818608E-02  0.1819592E+00
          2   -1    0    0  502    0  0.00000000000E+00  0.00000000000E+00  0.11934396838E+03  0.11934396838E+03  0.00000000000E+00 0.  1.
          1   -1    0    0  501    0 -0.00000000000E+00 -0.00000000000E+00 -0.15482184914E+03  0.15482184914E+03  0.00000000000E+00 0. -1.
          2    1    1    2  501    0  0.26470189878E+02 -0.11558354809E+01  0.35417152900E+02  0.44231003011E+02  0.00000000000E+00 0.  1.
          1    1    1    2  502    0 -0.25021082832E+02  0.20216319461E+02 -0.97703684990E+02  0.10286284178E+03  0.00000000000E+00 0. -1.
         22    1    1    2    0    0  0.10061074829E+02 -0.91115795631E+01 -0.48437356354E+02  0.50303315988E+02  0.00000000000E+00 0. -1.
         22    1    1    2    0    0 -0.11510181875E+02 -0.99489044169E+01  0.75246007682E+02  0.76768656742E+02  0.00000000000E+00 0.  1.
</event>
<event>
 6    1  0.8017648E-006  0.5061796E+02  0.7818608E-02  0.1461552E+00
          2   -1    0    0  502    0  0.00000000000E+00  0.00000000000E+00  0.13950118021E+03  0.13950118021E+03  0.00000000000E+00 0.  1.
          1   -1    0    0  501    0 -0.00000000000E+00 -0.00000000000E+00 -0.10510879222E+03  0.10510879222E+03  0.00000000000E+00 0. -1.
          2    1    1    2  501    0  0.35539657797E+02  0.55268211936E+02  0.16592344531E+02  0.67771294985E+02  0.00000000000E+00 0.  1.
          1    1    1    2  502    0 -0.33700028847E+02 -0.37704393556E+02 -0.95871551123E+00  0.50578971650E+02  0.00000000000E+00 0. -1.
         22    1    1    2    0    0 -0.91924687894E+01  0.32714288164E+02  0.54436596773E+02  0.64172184011E+02  0.00000000000E+00 0. -1.
         22    1    1    2    0    0  0.73528398403E+01 -0.50278106544E+02 -0.35677837798E+02  0.62087521784E+02  0.00000000000E+00 0. -1.
</event>
<event>
 6    1  0.8017648E-006  0.9138748E+02  0.7818608E-02  0.1417942E+00
          2   -1    0    0  502    0  0.00000000000E+00  0.00000000000E+00  0.10890234477E+03  0.10890234477E+03  0.00000000000E+00 0. -1.
          1   -1    0    0  501    0 -0.00000000000E+00 -0.00000000000E+00 -0.17543944202E+03  0.17543944202E+03  0.00000000000E+00 0.  1.
          2    1    1    2  501    0 -0.27970069548E+02  0.17028199670E+02  0.14895330202E+02  0.35974369158E+02  0.00000000000E+00 0. -1.
          1    1    1    2  502    0  0.26334942043E+02 -0.63066198503E+02 -0.88099548804E+02  0.11150069536E+03  0.00000000000E+00 0.  1.
         22    1    1    2    0    0 -0.43390592787E+01 -0.11609971248E+02 -0.52559277013E+02  0.54000893214E+02  0.00000000000E+00 0. -1.
         22    1    1    2    0    0  0.59741867837E+01  0.57647970081E+02  0.59226398370E+02  0.82865829061E+02  0.00000000000E+00 0. -1.
</event>
<event>
 6    1  0.8017648E-006  0.1084838E+03  0.7818608E-02  0.1307352E+00
          2   -1    0    0  502    0  0.00000000000E+00  0.00000000000E+00  0.35132138197E+03  0.35132138197E+03  0.00000000000E+00 0. -1.
          1   -1    0    0  501    0 -0.00000000000E+00 -0.00000000000E+00 -0.11746410028E+03  0.11746410028E+03  0.00000000000E+00 0. -1.
          2    1    1    2  501    0 -0.37912109428E+02 -0.65669148210E+02  0.16689282822E+03  0.18331115945E+03  0.00000000000E+00 0. -1.
          1    1    1    2  502    0  0.87372498460E+02  0.49209781003E+02  0.10076510851E+03  0.14215893615E+03  0.00000000000E+00 0. -1.
         22    1    1    2    0    0 -0.23720081849E+02  0.40956931315E+02 -0.75139239743E+02  0.88803253628E+02  0.00000000000E+00 0. -1.
         22    1    1    2    0    0 -0.25740307183E+02 -0.24497564109E+02  0.41338584693E+02  0.54512133013E+02  0.00000000000E+00 0. -1.
</event>
<event>
 6    1  0.8017648E-006  0.6355008E+03  0.7818608E-02  0.1117927E+00
          2   -1    0    0  502    0  0.00000000000E+00  0.00000000000E+00  0.50702801827E+03  0.50702801827E+03  0.00000000000E+00 0.  1.
          1   -1    0    0  501    0 -0.00000000000E+00 -0.00000000000E+00 -0.76875362274E+03  0.76875362274E+03  0.00000000000E+00 0.  1.
          2    1    1    2  501    0 -0.19168595457E+03 -0.43780369329E+02  0.67347003129E+02  0.20783610069E+03  0.00000000000E+00 0.  1.
          1    1    1    2  502    0  0.49789180164E+03  0.30053577737E+03 -0.95030190146E+02  0.58927814881E+03  0.00000000000E+00 0.  1.
         22    1    1    2    0    0 -0.30674735238E+03 -0.24322053733E+03 -0.19501657230E+03  0.43735755561E+03  0.00000000000E+00 0.  1.
         22    1    1    2    0    0  0.54150531547E+00 -0.13534870705E+02 -0.39025845149E+02  0.41309835907E+02  0.00000000000E+00 0. -1.
</event>
<event>
 6    1  0.8017648E-006  0.7254520E+02  0.7818608E-02  0.1414196E+00
          2   -1    0    0  502    0  0.00000000000E+00  0.00000000000E+00  0.29615647279E+03  0.29615647279E+03  0.00000000000E+00 0. -1.
          1   -1    0    0  501    0 -0.00000000000E+00 -0.00000000000E+00 -0.36642207297E+03  0.36642207297E+03  0.00000000000E+00 0. -1.
          2    1    1    2  501    0  0.30152275479E+02  0.10938780315E+03  0.53546983239E+02  0.12546764765E+03  0.00000000000E+00 0. -1.
          1    1    1    2  502    0  0.28535292018E+01 -0.81012792757E+02  0.18413394869E+03  0.20118778860E+03  0.00000000000E+00 0. -1.
         22    1    1    2    0    0  0.19827210155E+02 -0.59925833086E+01  0.19079873009E+01  0.20800714718E+02  0.00000000000E+00 0.  1.
         22    1    1    2    0    0 -0.52833014836E+02 -0.22382427081E+02 -0.30985451941E+03  0.31512239479E+03  0.00000000000E+00 0. -1.
</event>
<event>
 6    1  0.8017648E-006  0.2961429E+02  0.7818608E-02  0.1620749E+00
          2   -1    0    0  502    0  0.00000000000E+00  0.00000000000E+00  0.99906310242E+02  0.99906310242E+02  0.00000000000E+00 0.  1.
          1   -1    0    0  501    0 -0.00000000000E+00 -0.00000000000E+00 -0.20629359570E+03  0.20629359570E+03  0.00000000000E+00 0.  1.
          2    1    1    2  501    0  0.23485138742E+02  0.17576046648E+02  0.27035139576E+02  0.39891953191E+02  0.00000000000E+00 0.  1.
          1    1    1    2  502    0 -0.42817982425E+02 -0.19679990941E+02 -0.13515922792E+03  0.14313873883E+03  0.00000000000E+00 0.  1.
         22    1    1    2    0    0  0.15963745212E+02 -0.14638510405E+02 -0.57539872471E+02  0.61481412411E+02  0.00000000000E+00 0.  1.
         22    1    1    2    0    0  0.33690984716E+01  0.16742454699E+02  0.59276675355E+02  0.61687801509E+02  0.00000000000E+00 0.  1.
</event>
<event>
 6    1  0.8017648E-006  0.9325683E+02  0.7818608E-02  0.1296659E+00
          2   -1    0    0  502    0  0.00000000000E+00  0.00000000000E+00  0.83733932265E+02  0.83733932265E+02  0.00000000000E+00 0. -1.
          1   -1    0    0  501    0 -0.00000000000E+00 -0.00000000000E+00 -0.17766042839E+03  0.17766042839E+03  0.00000000000E+00 0. -1.
          2    1    1    2  501    0  0.13707497002E+02 -0.25542392510E+02 -0.47328853237E+00  0.28991952180E+02  0.00000000000E+00 0. -1.
          1    1    1    2  502    0 -0.39285284677E+02  0.50636947835E+02 -0.82668816420E+02  0.10460194686E+03  0.00000000000E+00 0. -1.
         22    1    1    2    0    0 -0.23140700221E+02  0.10641615890E+02 -0.49760167035E+02  0.55900001957E+02  0.00000000000E+00 0. -1.
         22    1    1    2    0    0  0.48718487896E+02 -0.35736171216E+02  0.38975775859E+02  0.71900459664E+02  0.00000000000E+00 0. -1.
</event>
<event>
 6    1  0.8017648E-006  0.1162047E+03  0.7818608E-02  0.1355446E+00
          2   -1    0    0  502    0  0.00000000000E+00  0.00000000000E+00  0.43218089213E+03  0.43218089213E+03  0.00000000000E+00 0.  1.
          1   -1    0    0  501    0 -0.00000000000E+00 -0.00000000000E+00 -0.71773564582E+02  0.71773564582E+02  0.00000000000E+00 0.  1.
          2    1    1    2  501    0 -0.16928284595E+02  0.66839861748E+02  0.17172066667E+03  0.18504626799E+03  0.00000000000E+00 0.  1.
          1    1    1    2  502    0  0.35800398232E+02 -0.10268604683E+03  0.24475635651E+02  0.11146815450E+03  0.00000000000E+00 0.  1.
         22    1    1    2    0    0 -0.54894914582E+01  0.45580493492E+02  0.17927617940E+03  0.18506124501E+03  0.00000000000E+00 0.  1.
         22    1    1    2    0    0 -0.13382622179E+02 -0.97343084083E+01 -0.15065154166E+02  0.22378789213E+02  0.00000000000E+00 0.  1.
</event>
<event>
 6    1  0.8017648E-006  0.8212455E+02  0.7818608E-02  0.1432042E+00
          2   -1    0    0  502    0  0.00000000000E+00  0.00000000000E+00  0.16509327049E+03  0.16509327049E+03  0.00000000000E+00 0. -1.
          1   -1    0    0  501    0 -0.00000000000E+00 -0.00000000000E+00 -0.12826600924E+03  0.12826600924E+03  0.00000000000E+00 0. -1.
          2    1    1    2  501    0  0.11679214051E+02  0.27673181208E+02  0.33058237488E+02  0.44666050472E+02  0.00000000000E+00 0. -1.
          1    1    1    2  502    0 -0.40167420608E+01 -0.79058735271E+02 -0.56963782406E+02  0.97525844500E+02  0.00000000000E+00 0. -1.
         22    1    1    2    0    0 -0.19843415412E+02  0.44963177426E+02  0.98983631080E+02  0.11051338236E+03  0.00000000000E+00 0. -1.
         22    1    1    2    0    0  0.12180943422E+02  0.64223766368E+01 -0.38250824907E+02  0.40654002391E+02  0.00000000000E+00 0. -1.
</event>
<event>
 6    1  0.9135654E-006  0.1699456E+03  0.7818608E-02  0.1215352E+00
          2   -1    0    0  502    0  0.00000000000E+00  0.00000000000E+00  0.49679941305E+03  0.49679941305E+03  0.00000000000E+00 0.  1.
          1   -1    0    0  501    0 -0.00000000000E+00 -0.00000000000E+00 -0.21236383098E+03  0.21236383098E+03  0.00000000000E+00 0.  1.
          2    1    1    2  501    0 -0.15506431389E+02  0.15360947863E+03  0.34975024383E+03  0.38231080864E+03  0.00000000000E+00 0.  1.
          1    1    1    2  502    0  0.65993573554E+02 -0.11807063926E+03 -0.11293337346E+03  0.17620946185E+03  0.00000000000E+00 0.  1.
         22    1    1    2    0    0  0.98229272441E+00  0.18989476424E+02  0.69883558984E+02  0.72424284119E+02  0.00000000000E+00 0.  1.
         22    1    1    2    0    0 -0.51469434889E+02 -0.54528315795E+02 -0.22264847282E+02  0.78218689428E+02  0.00000000000E+00 0.  1.
</event>
<event>
 6    1  0.8017648E-006  0.6881001E+02  0.7818608E-02  0.1396405E+00
          2   -1    0    0  502    0  0.00000000000E+00  0.00000000000E+00  0.66914695965E+03  0.66914695965E+03  0.00000000000E+00 0. -1.
          1   -1    0    0  501    0 -0.00000000000E+00 -0.00000000000E+00 -0.22742437640E+03  0.22742437640E+03  0.00000000000E+00 0. -1.
          2    1    1    2  501    0  0.92008555330E+02  0.79332691594E+02  0.59880303482E+03  0.61100272071E+03  0.00000000000E+00 0. -1.
          1    1    1    2  502    0 -0.76983788218E+02 -0.79762611996E+02 -0.89514979290E+02  0.14248336548E+03  0.00000000000E+00 0. -1.
         22    1    1    2    0    0  0.18601220217E+02  0.82963387421E+01  0.31870727041E+02  0.37822980742E+02  0.00000000000E+00 0.  1.
         22    1    1    2    0    0 -0.33625987329E+02 -0.78664183401E+01 -0.99436199331E+02  0.10526226911E+03  0.00000000000E+00 0. -1.
</event>
<event>
 6    1  0.8017648E-006  0.6375829E+02  0.7818608E-02  0.1473653E+00
          2   -1    0    0  502    0  0.00000000000E+00  0.00000000000E+00  0.39879730024E+03  0.39879730024E+03  0.00000000000E+00 0.  1.
          1   -1    0    0  501    0 -0.00000000000E+00 -0.00000000000E+00 -0.50903789263E+02  0.50903789263E+02  0.00000000000E+00 0.  1.
          2    1    1    2  501    0 -0.17888997346E+02 -0.28879344722E+02  0.19746201927E+03  0.20036287538E+03  0.00000000000E+00 0.  1.
          1    1    1    2  502    0  0.49240693069E+02  0.44015921466E+02  0.23630934133E+02  0.70146049386E+02  0.00000000000E+00 0.  1.
         22    1    1    2    0    0 -0.28689016551E+02  0.61710573426E+00  0.14905740469E+03  0.15179443463E+03  0.00000000000E+00 0.  1.
         22    1    1    2    0    0 -0.26626791726E+01 -0.15753682478E+02 -0.22256847112E+02  0.27397730113E+02  0.00000000000E+00 0.  1.
</event>
<event>
 6    1  0.8017648E-006  0.1281109E+03  0.7818608E-02  0.1363830E+00
          2   -1    0    0  502    0  0.00000000000E+00  0.00000000000E+00  0.11731133630E+03  0.11731133630E+03  0.00000000000E+00 0.  1.
          1   -1    0    0  501    0 -0.00000000000E+00 -0.00000000000E+00 -0.20635413256E+03  0.20635413256E+03  0.00000000000E+00 0.  1.
          2    1    1    2  501    0  0.38093720787E+02 -0.95028133047E+01 -0.18091529150E+02  0.43228907586E+02  0.00000000000E+00 0.  1.
          1    1    1    2  502    0 -0.88549138148E+02 -0.65395730358E+01 -0.10598212870E+03  0.13826036122E+03  0.00000000000E+00 0.  1.
         22    1    1    2    0    0 -0.10523000771E+02 -0.20771399559E+01 -0.41382181499E+02  0.42749654984E+02  0.00000000000E+00 0.  1.
         22    1    1    2    0    0  0.60978418132E+02  0.18119526296E+02  0.76413043088E+02  0.99426545072E+02  0.00000000000E+00 0.  1.
</event>
<event>
 6    1  0.8017648E-006  0.9467749E+02  0.7818608E-02  0.1362381E+00
          2   -1    0    0  502    0  0.00000000000E+00  0.00000000000E+00  0.28430265188E+03  0.28430265188E+03  0.00000000000E+00 0. -1.
          1   -1    0    0  501    0 -0.00000000000E+00 -0.00000000000E+00 -0.26533993011E+03  0.26533993011E+03  0.00000000000E+00 0.  1.
          2    1    1    2  501    0  0.50052708392E+02 -0.56195072365E+02  0.18827533563E+03  0.20275788957E+03  0.00000000000E+00 0. -1.
          1    1    1    2  502    0 -0.72918791976E+02  0.39389705304E+02 -0.19932765433E+03  0.21587082454E+03  0.00000000000E+00 0.  1.
         22    1    1    2    0    0  0.73217473426E+01  0.26222806457E+02 -0.45674245823E+02  0.53173116272E+02  0.00000000000E+00 0.  1.
         22    1    1    2    0    0  0.15544336242E+02 -0.94174393951E+01  0.75689286289E+02  0.77840751621E+02  0.00000000000E+00 0.  1.
</event>
<event>
 6    1  0.8017648E-006  0.2832457E+03  0.7818608E-02  0.1225459E+00
          2   -1    0    0  502    0  0.00000000000E+00  0.00000000000E+00  0.39786571588E+03  0.39786571588E+03  0.00000000000E+00 0.  1.
          1   -1    0    0  501    0 -0.00000000000E+00 -0.00000000000E+00 -0.62689382202E+03  0.62689382202E+03  0.00000000000E+00 0.  1.
          2    1    1    2  501    0  0.25298141910E+03  0.78956781100E+02 -0.32486942194E+02  0.26700032416E+03  0.00000000000E+00 0.  1.
          1    1    1    2  502    0 -0.41031453151E+03  0.10484988187E+03 -0.23186817264E+03  0.48281918145E+03  0.00000000000E+00 0.  1.
         22    1    1    2    0    0  0.72706286606E+01  0.86102933542E+01 -0.21609128500E+02  0.24371163847E+02  0.00000000000E+00 0.  1.
         22    1    1    2    0    0  0.15006248375E+03 -0.19241695633E+03  0.56936137196E+02  0.25056886844E+03  0.00000000000E+00 0.  1.
</event>
<event>
 6    1  0.8017648E-006  0.3437405E+02  0.7818608E-02  0.1571287E+00
          2   -1    0    0  502    0  0.00000000000E+00  0.00000000000E+00  0.18211884601E+03  0.18211884601E+03  0.00000000000E+00 0.  1.
          1   -1    0    0  501    0 -0.00000000000E+00 -0.00000000000E+00 -0.53989106408E+03  0.53989106408E+03  0.00000000000E+00 0.  1.
          2    1    1    2  501    0  0.47918684524E+02  0.55893754664E+02  0.98650659719E+02  0.12309453603E+03  0.00000000000E+00 0.  1.
          1    1    1    2  502    0 -0.26868358966E+02 -0.73381966613E+02 -0.46513006821E+03  0.47164902427E+03  0.00000000000E+00 0.  1.
         22    1    1    2    0    0 -0.10774512149E+02  0.61015942608E+01 -0.57749834454E+02  0.59062364870E+02  0.00000000000E+00 0.  1.
         22    1    1    2    0    0 -0.10275813408E+02  0.11386617688E+02  0.66457024883E+02  0.68203984927E+02  0.00000000000E+00 0. -1.
</event>
<event>
 6    1  0.8017648E-006  0.7178101E+02  0.7818608E-02  0.1363642E+00
          2   -1    0    0  502    0  0.00000000000E+00  0.00000000000E+00  0.13158799515E+02  0.13158799515E+02  0.00000000000E+00 0. -1.
          1   -1    0    0  501    0 -0.00000000000E+00 -0.00000000000E+00 -0.93903672106E+03  0.93903672106E+03  0.00000000000E+00 0.  1.
          2    1    1    2  501    0  0.20666859051E+02 -0.12219362113E+02 -0.26952475041E+02  0.36095259859E+02  0.00000000000E+00 0. -1.
          1    1    1    2  502    0 -0.42568873530E+02 -0.11876115005E+02 -0.34147855288E+03  0.34432652117E+03  0.00000000000E+00 0.  1.
         22    1    1    2    0    0  0.32925248190E+02  0.70443640281E+02 -0.39027582350E+03  0.39794672612E+03  0.00000000000E+00 0.  1.
         22    1    1    2    0    0 -0.11023233711E+02 -0.46348163162E+02 -0.16717107013E+03  0.17382701343E+03  0.00000000000E+00 0.  1.
</event>
<event>
 6    1  0.8017648E-006  0.4642383E+02  0.7818608E-02  0.1532895E+00
          2   -1    0    0  502    0  0.00000000000E+00  0.00000000000E+00  0.40916491258E+03  0.40916491258E+03  0.00000000000E+00 0.  1.
          1   -1    0    0  501    0 -0.00000000000E+00 -0.00000000000E+00 -0.12161026189E+03  0.12161026189E+03  0.00000000000E+00 0.  1.
          2    1    1    2  501    0 -0.47947760291E+02 -0.77254560509E+02  0.16722904407E+03  0.19034917393E+03  0.00000000000E+00 0.  1.
          1    1    1    2  502    0  0.44875430890E+02  0.51379616796E+02  0.18729406441E+03  0.19933071987E+03  0.00000000000E+00 0.  1.
         22    1    1    2    0    0 -0.11490405164E+02  0.70692052263E+00  0.34066636998E+02  0.35959211668E+02  0.00000000000E+00 0.  1.
         22    1    1    2    0    0  0.14562734566E+02  0.25168023190E+02 -0.10103509478E+03  0.10513606901E+03  0.00000000000E+00 0.  1.
</event>
<event>
 6    1  0.8017648E-006  0.1765080E+03  0.7818608E-02  0.1301653E+00
          2   -1    0    0  502    0  0.00000000000E+00  0.00000000000E+00  0.10651111352E+03  0.10651111352E+03  0.00000000000E+00 0.  1.
          1   -1    0    0  501    0 -0.00000000000E+00 -0.00000000000E+00 -0.49615368733E+03  0.49615368733E+03  0.00000000000E+00 0. -1.
          2    1    1    2  501    0 -0.22610561070E+02  0.13474969301E+01 -0.12037112765E+02  0.25650444511E+02  0.00000000000E+00 0.  1.
          1    1    1    2  502    0  0.95737279039E+02 -0.13521769800E+03 -0.33644755247E+03  0.37502854293E+03  0.00000000000E+00 0. -1.
         22    1    1    2    0    0  0.93449057893E+01  0.78377900867E+01 -0.49652556348E+02  0.51128608132E+02  0.00000000000E+00 0. -1.
         22    1    1    2    0    0 -0.82471623758E+02  0.12603241098E+03  0.84946477717E+01  0.15085720527E+03  0.00000000000E+00 0.  1.
</event>
<event>
 6    1  0.8017648E-006  0.4398833E+02  0.7818608E-02  0.1503399E+00
          2   -1    0    0  502    0  0.00000000000E+00  0.00000000000E+00  0.81121379782E+02  0.81121379782E+02  0.00000000000E+00 0.  1.
          1   -1    0    0  501    0 -0.00000000000E+00 -0.00000000000E+00 -0.22824389745E+03  0.22824389745E+03  0.00000000000E+00 0.  1.
          2    1    1    2  501    0 -0.13189334381E+02 -0.17291709388E+02  0.35716230709E+02  0.41816395003E+02  0.00000000000E+00 0.  1.
          1    1    1    2  502    0  0.47118808950E+02  0.44665602491E+01 -0.50168644254E+01  0.47595180911E+02  0.00000000000E+00 0.  1.
         22    1    1    2    0    0 -0.15873186111E+02 -0.13734393554E+02  0.14149752306E+02  0.25314167850E+02  0.00000000000E+00 0.  1.
         22    1    1    2    0    0 -0.18056288457E+02  0.26559542693E+02 -0.19197163626E+03  0.19463953347E+03  0.00000000000E+00 0.  1.
</event>
<event>
 6    1  0.8017648E-006  0.5823394E+02  0.7818608E-02  0.1410193E+00
          2   -1    0    0  502    0  0.00000000000E+00  0.00000000000E+00  0.26056428364E+03  0.26056428364E+03  0.00000000000E+00 0.  1.
          1   -1    0    0  501    0 -0.00000000000E+00 -0.00000000000E+00 -0.69302567259E+02  0.69302567259E+02  0.00000000000E+00 0. -1.
          2    1    1    2  501    0  0.20087753514E+02  0.22455395392E+02  0.97481556025E+02  0.10203144804E+03  0.00000000000E+00 0.  1.
          1    1    1    2  502    0 -0.18544369420E+02 -0.33228326592E+02 -0.32696172077E+02  0.50170260053E+02  0.00000000000E+00 0. -1.
         22    1    1    2    0    0 -0.16410061949E+01  0.25884382610E+02  0.14861462250E+03  0.15086086366E+03  0.00000000000E+00 0.  1.
         22    1    1    2    0    0  0.97622100780E-01 -0.15111451410E+02 -0.22138290063E+02  0.26804279149E+02  0.00000000000E+00 0.  1.
</event>
<event>
 6    1  0.8017648E-006  0.4334319E+02  0.7818608E-02  0.1572614E+00
          2   -1    0    0  502    0  0.00000000000E+00  0.00000000000E+00  0.41955042509E+03  0.41955042509E+03  0.00000000000E+00 0.  1.
          1   -1    0    0  501    0 -0.00000000000E+00 -0.00000000000E+00 -0.72604301387E+02  0.72604301387E+02  0.00000000000E+00 0. -1.
          2    1    1    2  501    0  0.17878621916E+02  0.22111197810E+02  0.28215311541E+03  0.28358231737E+03  0.00000000000E+00 0.  1.
          1    1    1    2  502    0 -0.22906752252E+02 -0.61961459694E+02  0.24869546834E+02  0.70586373656E+02  0.00000000000E+00 0. -1.
         22    1    1    2    0    0 -0.85675699105E+01  0.39810663455E+02 -0.39900946831E+02  0.57012084131E+02  0.00000000000E+00 0. -1.
         22    1    1    2    0    0  0.13595700246E+02  0.39598429326E-01  0.79824408289E+02  0.80973951318E+02  0.00000000000E+00 0. -1.
</event>
<event>
 6    1  0.8017648E-006  0.3610006E+02  0.7818608E-02  0.1632560E+00
          2   -1    0    0  502    0  0.00000000000E+00  0.00000000000E+00  0.15452226437E+03  0.15452226437E+03  0.00000000000E+00 0. -1.
          1   -1    0    0  501    0 -0.00000000000E+00 -0.00000000000E+00 -0.25053083134E+03  0.25053083134E+03  0.00000000000E+00 0.  1.
          2    1    1    2  501    0 -0.35209050905E+02  0.12465715054E+02  0.11016368490E+03  0.11632329426E+03  0.00000000000E+00 0. -1.
          1    1    1    2  502    0  0.88422611092E+01 -0.44512271357E+02 -0.13604851024E+03  0.14341800801E+03  0.00000000000E+00 0.  1.
         22    1    1    2    0    0  0.24280302121E+02  0.21833215787E+02 -0.10445134671E+03  0.10943631121E+03  0.00000000000E+00 0.  1.
         22    1    1    2    0    0  0.20864876748E+01  0.10213340516E+02  0.34327605065E+02  0.35875482224E+02  0.00000000000E+00 0. -1.
</event>
<event>
 6    1  0.1157142E-005  0.2730674E+03  0.7818608E-02  0.1196117E+00
          2   -1    0    0  502    0  0.00000000000E+00  0.00000000000E+00  0.11650728946E+04  0.11650728946E+04  0.00000000000E+00 0.  1.
          1   -1    0    0  501    0 -0.00000000000E+00 -0.00000000000E+00 -0.23052752386E+03  0.23052752386E+03  0.00000000000E+00 0. -1.
          2    1    1    2  501    0 -0.48984212539E+02 -0.31028640187E+02  0.20897490575E+03  0.21687033182E+03  0.00000000000E+00 0.  1.
          1    1    1    2  502    0 -0.17893659556E+03  0.10868971876E+03 -0.15276192883E+03  0.25916783576E+03  0.00000000000E+00 0. -1.
         22    1    1    2    0    0  0.25944863241E+02 -0.86152168509E+01  0.17038300963E+02  0.32212755078E+02  0.00000000000E+00 0.  1.
         22    1    1    2    0    0  0.20197594486E+03 -0.69045861720E+02  0.86129409290E+03  0.88734949585E+03  0.00000000000E+00 0.  1.
</event>
<event>
 6    1  0.8017648E-006  0.2062509E+03  0.7818608E-02  0.1159103E+00
          2   -1    0    0  502    0  0.00000000000E+00  0.00000000000E+00  0.19684203428E+03  0.19684203428E+03  0.00000000000E+00 0. -1.
          1   -1    0    0  501    0 -0.00000000000E+00 -0.00000000000E+00 -0.69201941620E+03  0.69201941620E+03  0.00000000000E+00 0.  1.
          2    1    1    2  501    0 -0.23660942895E+03  0.15345331970E+03 -0.15445992925E+03  0.32154286330E+03  0.00000000000E+00 0. -1.
          1    1    1    2  502    0  0.10318546392E+03 -0.14175831438E+03  0.67608244817E+01  0.17546614604E+03  0.00000000000E+00 0.  1.
         22    1    1    2    0    0  0.14452317124E+03 -0.22908998108E+02 -0.34639931321E+03  0.37603756915E+03  0.00000000000E+00 0.  1.
         22    1    1    2    0    0 -0.11099206214E+02  0.11213992779E+02 -0.10789639459E+01  0.15814871983E+02  0.00000000000E+00 0. -1.
</event>
<event>
 6    1  0.8017648E-006  0.5035007E+02  0.7818608E-02  0.1538606E+00
          2   -1    0    0  502    0  0.00000000000E+00  0.00000000000E+00  0.17272136389E+03  0.17272136389E+03  0.00000000000E+00 0. -1.
          1   -1    0    0  501    0 -0.00000000000E+00 -0.00000000000E+00 -0.17395768973E+04  0.17395768973E+04  0.00000000000E+00 0.  1.
          2    1    1    2  501    0  0.13045590834E+02 -0.30244918935E+02  0.95612458251E+02  0.10112707221E+03  0.00000000000E+00 0. -1.
          1    1    1    2  502    0 -0.93834311368E+01  0.56607776814E+02 -0.16776177993E+04  0.16785988115E+04  0.00000000000E+00 0.  1.
         22    1    1    2    0    0 -0.83197717727E+01 -0.10480889309E+02 -0.56999415550E+02  0.58549133351E+02  0.00000000000E+00 0.  1.
         22    1    1    2    0    0  0.46576120753E+01 -0.15881968570E+02  0.72149223186E+02  0.74023244202E+02  0.00000000000E+00 0.  1.
</event>
<event>
 6    1  0.8017648E-006  0.7280418E+02  0.7818608E-02  0.1370671E+00
          2   -1    0    0  502    0  0.00000000000E+00  0.00000000000E+00  0.10860310503E+03  0.10860310503E+03  0.00000000000E+00 0. -1.
          1   -1    0    0  501    0 -0.00000000000E+00 -0.00000000000E+00 -0.47118093050E+03  0.47118093050E+03  0.00000000000E+00 0. -1.
          2    1    1    2  501    0 -0.23588096595E+01 -0.59001695193E+02  0.73710971731E+02  0.94446129472E+02  0.00000000000E+00 0. -1.
          1    1    1    2  502    0 -0.46887089895E+02  0.65035262633E+02 -0.15146253845E+03  0.17137352520E+03  0.00000000000E+00 0. -1.
         22    1    1    2    0    0 -0.24226577306E+01 -0.13176074465E+02  0.86120806992E+01  0.15926272092E+02  0.00000000000E+00 0. -1.
         22    1    1    2    0    0  0.51668557285E+02  0.71425070254E+01 -0.29343833945E+03  0.29803810877E+03  0.00000000000E+00 0.  1.
</event>
<event>
 6    1  0.8017648E-006  0.4062510E+02  0.7818608E-02  0.1556803E+00
          2   -1    0    0  502    0  0.00000000000E+00  0.00000000000E+00  0.97639386949E+02  0.97639386949E+02  0.00000000000E+00 0.  1.
          1   -1    0    0  501    0 -0.00000000000E+00 -0.00000000000E+00 -0.29477568560E+03  0.29477568560E+03  0.00000000000E+00 0.  1.
          2    1    1    2  501    0  0.12512558872E+02 -0.71416875155E+02 -0.79314608540E+02  0.10746041743E+03  0.00000000000E+00 0.  1.
          1    1    1    2  502    0  0.25168616980E+01  0.66936603151E+02 -0.14111590462E+03  0.15620672832E+03  0.00000000000E+00 0.  1.
         22    1    1    2    0    0  0.81469941726E+01  0.82776802158E+01 -0.50234467163E+02  0.51559627568E+02  0.00000000000E+00 0.  1.
         22    1    1    2    0    0 -0.23176414742E+02 -0.37974082117E+01  0.73528681675E+02  0.77188299232E+02  0.00000000000E+00 0.  1.
</event>
<event>
 6    1  0.8017648E-006  0.5538607E+02  0.7818608E-02  0.1424108E+00
          2   -1    0    0  502    0  0.00000000000E+00  0.00000000000E+00  0.24574791092E+03  0.24574791092E+03  0.00000000000E+00 0. -1.
          1   -1    0    0  501    0 -0.00000000000E+00 -0.00000000000E+00 -0.10124993453E+03  0.10124993453E+03  0.00000000000E+00 0. -1.
          2    1    1    2  501    0  0.27046503204E+02 -0.71470629616E+02  0.12911397583E+02  0.77500118844E+02  0.00000000000E+00 0. -1.
          1    1    1    2  502    0 -0.48288908981E+02  0.70228184913E+02  0.10957229209E+03  0.13881607933E+03  0.00000000000E+00 0. -1.
         22    1    1    2    0    0 -0.25097965677E+00 -0.41532323874E+02  0.57614484103E+02  0.71024120520E+02  0.00000000000E+00 0. -1.
         22    1    1    2    0    0  0.21493385433E+02  0.42774768578E+02 -0.35600197388E+02  0.59657526753E+02  0.00000000000E+00 0. -1.
</event>
<event>
 6    1  0.8017648E-006  0.4067274E+02  0.7818608E-02  0.1529025E+00
          2   -1    0    0  502    0  0.00000000000E+00  0.00000000000E+00  0.39672755680E+03  0.39672755680E+03  0.00000000000E+00 0.  1.
          1   -1    0    0  501    0 -0.00000000000E+00 -0.00000000000E+00 -0.25029806166E+03  0.25029806166E+03  0.00000000000E+00 0.  1.
          2    1    1    2  501    0 -0.49329600831E+02  0.35116106169E+02  0.31152786912E+03  0.31735810005E+03  0.00000000000E+00 0.  1.
          1    1    1    2  502    0  0.63636551502E+02 -0.40551613755E+01 -0.18869668709E+03  0.19917955402E+03  0.00000000000E+00 0.  1.
         22    1    1    2    0    0 -0.15111086087E+02 -0.73754519026E+01  0.73417851449E+02  0.75318809901E+02  0.00000000000E+00 0. -1.
         22    1    1    2    0    0  0.80413541573E+00 -0.23685492891E+02 -0.49819538338E+02  0.55169154492E+02  0.00000000000E+00 0. -1.
</event>
<event>
 6    1  0.8017648E-006  0.3198767E+02  0.7818608E-02  0.1657089E+00
          2   -1    0    0  502    0  0.00000000000E+00  0.00000000000E+00  0.82188348027E+02  0.82188348027E+02  0.00000000000E+00 0. -1.
          1   -1    0    0  501    0 -0.00000000000E+00 -0.00000000000E+00 -0.22245106063E+03  0.22245106063E+03  0.00000000000E+00 0. -1.
          2    1    1    2  501    0 -0.32884307032E+01  0.21372699584E+02 -0.63380202180E+02  0.66967574933E+02  0.00000000000E+00 0. -1.
          1    1    1    2  502    0  0.19757871324E+02  0.17256450521E+02 -0.98654163048E+02  0.10208233173E+03  0.00000000000E+00 0. -1.
         22    1    1    2    0    0 -0.10594014215E+02 -0.65734676542E+01 -0.52776466236E+02  0.54229134260E+02  0.00000000000E+00 0. -1.
         22    1    1    2    0    0 -0.58754264049E+01 -0.32055682450E+02  0.74548118862E+02  0.81360367739E+02  0.00000000000E+00 0. -1.
</event>
<event>
 6    1  0.8017648E-006  0.3959542E+02  0.7818608E-02  0.1546950E+00
          2   -1    0    0  502    0  0.00000000000E+00  0.00000000000E+00  0.62668525874E+02  0.62668525874E+02  0.00000000000E+00 0.  1.
          1   -1    0    0  501    0 -0.00000000000E+00 -0.00000000000E+00 -0.18306165195E+03  0.18306165195E+03  0.00000000000E+00 0. -1.
          2    1    1    2  501    0  0.12667863183E+02 -0.17369198471E+02  0.24396556211E+02  0.32517007367E+02  0.00000000000E+00 0.  1.
          1    1    1    2  502    0  0.86593018927E+01  0.22415675710E+02 -0.58284671922E+02  0.63044024363E+02  0.00000000000E+00 0. -1.
         22    1    1    2    0    0 -0.19736104483E+02  0.14840167316E+02 -0.11375083062E+03  0.11640015400E+03  0.00000000000E+00 0.  1.
         22    1    1    2    0    0 -0.15910605934E+01 -0.19886644555E+02  0.27245820253E+02  0.33768992089E+02  0.00000000000E+00 0. -1.
</event>
<event>
 6    1  0.8017648E-006  0.7186147E+02  0.7818608E-02  0.1475050E+00
          2   -1    0    0  502    0  0.00000000000E+00  0.00000000000E+00  0.15253215892E+03  0.15253215892E+03  0.00000000000E+00 0. -1.
          1   -1    0    0  501    0 -0.00000000000E+00 -0.00000000000E+00 -0.11328514877E+03  0.11328514877E+03  0.00000000000E+00 0. -1.
          2    1    1    2  501    0  0.20253886263E+02 -0.14407787587E+02  0.22036201720E+02  0.33217441776E+02  0.00000000000E+00 0. -1.
          1    1    1    2  502    0 -0.64039051207E+02  0.38129675702E+02 -0.44684189228E+02  0.86899649111E+02  0.00000000000E+00 0. -1.
         22    1    1    2    0    0  0.59221328808E+01 -0.91973757468E+01 -0.37122161047E+02  0.38700364588E+02  0.00000000000E+00 0.  1.
         22    1    1    2    0    0  0.37863032063E+02 -0.14524512368E+02  0.99017158700E+02  0.10699985221E+03  0.00000000000E+00 0. -1.
</event>
<event>
 6    1  0.8017648E-006  0.7541727E+02  0.7818608E-02  0.1468641E+00
          2   -1    0    0  502    0  0.00000000000E+00  0.00000000000E+00  0.65097050277E+03  0.65097050277E+03  0.00000000000E+00 0.  1.
          1   -1    0    0  501    0 -0.00000000000E+00 -0.00000000000E+00 -0.30086118456E+02  0.30086118456E+02  0.00000000000E+00 0.  1.
          2    1    1    2  501    0 -0.27302488322E+02  0.29724851911E+01  0.87833527139E+02  0.92027115713E+02  0.00000000000E+00 0.  1.
          1    1    1    2  502    0  0.70789178080E+02  0.24930501040E+02  0.38164395793E+03  0.38895340112E+03  0.00000000000E+00 0.  1.
         22    1    1    2    0    0 -0.41874138260E+02 -0.17657950566E+02  0.17152442214E+03  0.17744259371E+03  0.00000000000E+00 0.  1.
         22    1    1    2    0    0 -0.16125514981E+01 -0.10245035666E+02 -0.20117522899E+02  0.22633510680E+02  0.00000000000E+00 0.  1.
</event>
<event>
 6    1  0.8017648E-006  0.1074433E+03  0.7818608E-02  0.1393778E+00
          2   -1    0    0  502    0  0.00000000000E+00  0.00000000000E+00  0.76432174324E+03  0.76432174324E+03  0.00000000000E+00 0. -1.
          1   -1    0    0  501    0 -0.00000000000E+00 -0.00000000000E+00 -0.83863562722E+02  0.83863562722E+02  0.00000000000E+00 0. -1.
          2    1    1    2  501    0  0.30449962363E+02  0.12001286113E+03  0.57411625494E+03  0.58731572534E+03  0.00000000000E+00 0. -1.
          1    1    1    2  502    0  0.47512483879E+02 -0.59554886707E+02  0.12889715807E+02  0.77268139803E+02  0.00000000000E+00 0. -1.
         22    1    1    2    0    0 -0.73011299099E+02 -0.50472024931E+02  0.12319487191E+03  0.15183890003E+03  0.00000000000E+00 0.  1.
         22    1    1    2    0    0 -0.49511471433E+01 -0.99859494942E+01 -0.29742662149E+02  0.31762540783E+02  0.00000000000E+00 0. -1.
</event>
<event>
 6    1  0.8017648E-006  0.7516549E+02  0.7818608E-02  0.1381371E+00
          2   -1    0    0  502    0  0.00000000000E+00  0.00000000000E+00  0.12776379082E+03  0.12776379082E+03  0.00000000000E+00 0. -1.
          1   -1    0    0  501    0 -0.00000000000E+00 -0.00000000000E+00 -0.26406808249E+03  0.26406808249E+03  0.00000000000E+00 0. -1.
          2    1    1    2  501    0 -0.11514344455E+02 -0.10485594831E+03 -0.26994949946E+02  0.10888561588E+03  0.00000000000E+00 0. -1.
          1    1    1    2  502    0  0.67987264632E+02  0.99251805507E+02 -0.33653343999E+02  0.12492292268E+03  0.00000000000E+00 0. -1.
         22    1    1    2    0    0 -0.76226791922E+01  0.26976513757E+02 -0.96714009041E+02  0.10069477185E+03  0.00000000000E+00 0. -1.
         22    1    1    2    0    0 -0.48850240985E+02 -0.21372370958E+02  0.21058011317E+02  0.57328562910E+02  0.00000000000E+00 0.  1.
</event>
<event>
 6    1  0.8017648E-006  0.5291284E+02  0.7818608E-02  0.1450436E+00
          2   -1    0    0  502    0  0.00000000000E+00  0.00000000000E+00  0.22307546910E+03  0.22307546910E+03  0.00000000000E+00 0. -1.
          1   -1    0    0  501    0 -0.00000000000E+00 -0.00000000000E+00 -0.87896365321E+03  0.87896365321E+03  0.00000000000E+00 0.  1.
          2    1    1    2  501    0 -0.20428661113E+02  0.48840395834E+01  0.83630782624E+02  0.86228138329E+02  0.00000000000E+00 0. -1.
          1    1    1    2  502    0 -0.50193575049E+01 -0.68845763452E+02 -0.83850427374E+03  0.84134080501E+03  0.00000000000E+00 0.  1.
         22    1    1    2    0    0  0.61829026950E+01  0.38637173170E+02 -0.25022249623E+02  0.46445370195E+02  0.00000000000E+00 0. -1.
         22    1    1    2    0    0  0.19265115923E+02  0.25324550698E+02  0.12400755663E+03  0.12802480877E+03  0.00000000000E+00 0. -1.
</event>
<event>
 6    1  0.8017648E-006  0.3948258E+02  0.7818608E-02  0.1568815E+00
          2   -1    0    0  502    0  0.00000000000E+00  0.00000000000E+00  0.23620980963E+03  0.23620980963E+03  0.00000000000E+00 0.  1.
          1   -1    0    0  501    0 -0.00000000000E+00 -0.00000000000E+00 -0.10540144034E+03  0.10540144034E+03  0.00000000000E+00 0.  1.
          2    1    1    2  501    0 -0.26418493996E+02  0.40283607463E+02  0.13983270703E+03  0.14789824816E+03  0.00000000000E+00 0.  1.
          1    1    1    2  502    0  0.64741466360E+01 -0.45140087853E+02 -0.41575681808E+02  0.61709638014E+02  0.00000000000E+00 0.  1.
         22    1    1    2    0    0 -0.21189366185E+01 -0.13265592305E+02 -0.46264472155E+02  0.48175379764E+02  0.00000000000E+00 0.  1.
         22    1    1    2    0    0  0.22063283978E+02  0.18122072695E+02  0.78815816230E+02  0.83827984031E+02  0.00000000000E+00 0. -1.
</event>
<event>
 6    1  0.8017648E-006  0.4560318E+02  0.7818608E-02  0.1556630E+00
          2   -1    0    0  502    0  0.00000000000E+00  0.00000000000E+00  0.64916574769E+03  0.64916574769E+03  0.00000000000E+00 0.  1.
          1   -1    0    0  501    0 -0.00000000000E+00 -0.00000000000E+00 -0.20625083359E+03  0.20625083359E+03  0.00000000000E+00 0. -1.
          2    1    1    2  501    0 -0.14234924448E+02  0.27071760232E+02  0.59657006231E+03  0.59735362435E+03  0.00000000000E+00 0.  1.
          1    1    1    2  502    0  0.85544843166E+01 -0.29841954764E+02 -0.13237432811E+03  0.13596574645E+03  0.00000000000E+00 0. -1.
         22    1    1    2    0    0 -0.38786123276E+01  0.13740387275E+02  0.48632937530E+02  0.50685347871E+02  0.00000000000E+00 0.  1.
         22    1    1    2    0    0  0.95590524594E+01 -0.10970192744E+02 -0.69913757644E+02  0.71411862605E+02  0.00000000000E+00 0.  1.
</event>
<event>
 6    1  0.8017648E-006  0.6143937E+02  0.7818608E-02  0.1468167E+00
          2   -1    0    0  502    0  0.00000000000E+00  0.00000000000E+00  0.65626162972E+02  0.65626162972E+02  0.00000000000E+00 0. -1.
          1   -1    0    0  501    0 -0.00000000000E+00 -0.00000000000E+00 -0.16699503771E+03  0.16699503771E+03  0.00000000000E+00 0. -1.
          2    1    1    2  501    0 -0.33229235644E+00 -0.27756007647E+02  0.29766540994E+01  0.27917142553E+02  0.00000000000E+00 0. -1.
          1    1    1    2  502    0  0.15241653791E+02  0.27798365852E+02 -0.68124027564E+02  0.75139472222E+02  0.00000000000E+00 0. -1.
         22    1    1    2    0    0  0.74774253460E+01  0.17807090822E+02 -0.77197392101E+02  0.79576640546E+02  0.00000000000E+00 0. -1.
         22    1    1    2    0    0 -0.22386786781E+02 -0.17849449027E+02  0.40975890823E+02  0.49987945364E+02  0.00000000000E+00 0. -1.
</event>
<event>
 6    1  0.8017648E-006  0.7102085E+02  0.7818608E-02  0.1359509E+00
          2   -1    0    0  502    0  0.00000000000E+00  0.00000000000E+00  0.41988982125E+03  0.41988982125E+03  0.00000000000E+00 0.  1.
          1   -1    0    0  501    0 -0.00000000000E+00 -0.00000000000E+00 -0.13401011748E+03  0.13401011748E+03  0.00000000000E+00 0.  1.
          2    1    1    2  501    0 -0.51133517844E+02 -0.75558714142E+01  0.31978797422E+03  0.32393838348E+03  0.00000000000E+00 0.  1.
          1    1    1    2  502    0  0.54321903401E+02  0.78228388141E+01 -0.78308012417E+02  0.95625366953E+02  0.00000000000E+00 0.  1.
         22    1    1    2    0    0  0.12116916074E+02 -0.46417381450E+01 -0.43300576921E+02  0.45202935190E+02  0.00000000000E+00 0.  1.
         22    1    1    2    0    0 -0.15305301631E+02  0.43747707452E+01  0.87700318890E+02  0.89133253113E+02  0.00000000000E+00 0.  1.
</event>
<event>
 6    1  0.8017648E-006  0.9083978E+02  0.7818608E-02  0.1379044E+00
          2   -1    0    0  502    0  0.00000000000E+00  0.00000000000E+00  0.23947871396E+03  0.23947871396E+03  0.00000000000E+00 0. -1.
          1   -1    0    0  501    0 -0.00000000000E+00 -0.00000000000E+00 -0.32618572737E+03  0.32618572737E+03  0.00000000000E+00 0. -1.
          2    1    1    2  501    0  0.10594995056E+02  0.47365471148E+02  0.15518459032E+03  0.16259765942E+03  0.00000000000E+00 0. -1.
          1    1    1    2  502    0 -0.11609487614E+02 -0.65826185008E+02 -0.26624235855E+03  0.27450475464E+03  0.00000000000E+00 0. -1.
         22    1    1    2    0    0 -0.12984723849E+02  0.37210848359E+02  0.68252227995E+02  0.78813811704E+02  0.00000000000E+00 0. -1.
         22    1    1    2    0    0  0.13999216407E+02 -0.18750134499E+02 -0.43901473180E+02  0.49748215557E+02  0.00000000000E+00 0.  1.
</event>
<event>
 6    1  0.8017648E-006  0.1453032E+03  0.7818608E-02  0.1258456E+00
          2   -1    0    0  502    0  0.00000000000E+00  0.00000000000E+00  0.41149928962E+03  0.41149928962E+03  0.00000000000E+00 0.  1.
          1   -1    0    0  501    0 -0.00000000000E+00 -0.00000000000E+00 -0.18245414645E+03  0.18245414645E+03  0.00000000000E+00 0. -1.
          2    1    1    2  501    0 -0.71559287431E+02 -0.52297653502E+02  0.23993107282E+03  0.25577860717E+03  0.00000000000E+00 0.  1.
          1    1    1    2  502    0  0.13661957577E+03  0.11433616922E+03  0.20202650208E+02  0.17929254070E+03  0.00000000000E+00 0. -1.
         22    1    1    2    0    0 -0.29478649286E+02 -0.40077018055E+02 -0.80202488150E+02  0.94380068051E+02  0.00000000000E+00 0. -1.
         22    1    1    2    0    0 -0.35581639057E+02 -0.21961497660E+02  0.49113908288E+02  0.64502220154E+02  0.00000000000E+00 0.  1.
</event>
<event>
 6    1  0.8017648E-006  0.1664753E+03  0.7818608E-02  0.1286785E+00
          2   -1    0    0  502    0  0.00000000000E+00  0.00000000000E+00  0.58812089968E+03  0.58812089968E+03  0.00000000000E+00 0.  1.
          1   -1    0    0  501    0 -0.00000000000E+00 -0.00000000000E+00 -0.15608509927E+03  0.15608509927E+03  0.00000000000E+00 0.  1.
          2    1    1    2  501    0  0.10362610136E+03 -0.13606519001E+02  0.28769494143E+03  0.30609130266E+03  0.00000000000E+00 0.  1.
          1    1    1    2  502    0 -0.36194227209E+02  0.17927207723E+03  0.91116096251E+01  0.18311614125E+03  0.00000000000E+00 0.  1.
         22    1    1    2    0    0 -0.12982333391E+02 -0.14105032577E+02  0.83765259248E+02  0.85930853487E+02  0.00000000000E+00 0.  1.
         22    1    1    2    0    0 -0.54449540762E+02 -0.15156052565E+03  0.51463990110E+02  0.16906770154E+03  0.00000000000E+00 0.  1.
</event>
<event>
 6    1  0.8017648E-006  0.3539400E+02  0.7818608E-02  0.1609951E+00
          2   -1    0    0  502    0  0.00000000000E+00  0.00000000000E+00  0.84626177500E+03  0.84626177500E+03  0.00000000000E+00 0.  1.
          1   -1    0    0  501    0 -0.00000000000E+00 -0.00000000000E+00 -0.82980436368E+02  0.82980436368E+02  0.00000000000E+00 0.  1.
          2    1    1    2  501    0  0.26915989628E+02  0.11759218249E+02  0.72810049150E+03  0.72869271674E+03  0.00000000000E+00 0.  1.
          1    1    1    2  502    0 -0.37955446247E+02 -0.46319279984E+02 -0.18197302536E+02  0.62587805663E+02  0.00000000000E+00 0.  1.
         22    1    1    2    0    0  0.36009111649E+01  0.10771981746E+02 -0.39861619310E+02  0.41448170598E+02  0.00000000000E+00 0.  1.
         22    1    1    2    0    0  0.74385454540E+01  0.23788079989E+02  0.93239768975E+02  0.96513518361E+02  0.00000000000E+00 0.  1.
</event>
<event>
 6    1  0.8017648E-006  0.2471572E+03  0.7818608E-02  0.1244741E+00
          2   -1    0    0  502    0  0.00000000000E+00  0.00000000000E+00  0.11661176443E+04  0.11661176443E+04  0.00000000000E+00 0.  1.
          1   -1    0    0  501    0 -0.00000000000E+00 -0.00000000000E+00 -0.64988638770E+02  0.64988638770E+02  0.00000000000E+00 0.  1.
          2    1    1    2  501    0  0.11140713005E+02 -0.38588123588E+02  0.92557567473E+02  0.10089629361E+03  0.00000000000E+00 0.  1.
          1    1    1    2  502    0  0.15215017831E+03  0.15773586668E+03  0.73903188305E+03  0.77084265875E+03  0.00000000000E+00 0.  1.
         22    1    1    2    0    0 -0.16080051981E+03 -0.13219828797E+03  0.27508456939E+03  0.34497059996E+03  0.00000000000E+00 0.  1.
         22    1    1    2    0    0 -0.24903715019E+01  0.13050544878E+02 -0.55450143796E+01  0.14396730751E+02  0.00000000000E+00 0.  1.
</event>
<event>
 6    1  0.8017648E-006  0.1770300E+03  0.7818608E-02  0.1247587E+00
          2   -1    0    0  502    0  0.00000000000E+00  0.00000000000E+00  0.93932707746E+03  0.93932707746E+03  0.00000000000E+00 0. -1.
          1   -1    0    0  501    0 -0.00000000000E+00 -0.00000000000E+00 -0.60830194686E+02  0.60830194686E+02  0.00000000000E+00 0. -1.
          2    1    1    2  501    0  0.73623751292E+02 -0.76600503214E+02  0.50529804407E+03  0.51634698332E+03  0.00000000000E+00 0. -1.
          1    1    1    2  502    0 -0.59004401554E+02  0.14326965487E+03  0.12461404045E+03  0.19883755301E+03  0.00000000000E+00 0. -1.
         22    1    1    2    0    0  0.19379207010E+02 -0.69830222533E+02  0.23865150792E+03  0.24941202031E+03  0.00000000000E+00 0. -1.
         22    1    1    2    0    0 -0.33998556748E+02  0.31610708748E+01  0.99332903345E+01  0.35560715500E+02  0.00000000000E+00 0. -1.
</event>
<event>
 6    1  0.8017648E-006  0.1650088E+03  0.7818608E-02  0.1183979E+00
          2   -1    0    0  502    0  0.00000000000E+00  0.00000000000E+00  0.62956243267E+03  0.62956243267E+03  0.00000000000E+00 0. -1.
          1   -1    0    0  501    0 -0.00000000000E+00 -0.00000000000E+00 -0.61448825962E+02  0.61448825962E+02  0.00000000000E+00 0. -1.
          2    1    1    2  501    0 -0.22454460731E+02  0.69515259576E+02  0.15674149525E+03  0.17292909082E+03  0.00000000000E+00 0. -1.
          1    1    1    2  502    0  0.52005451202E+02 -0.12977571722E+03  0.91150663604E+02  0.16689741523E+03  0.00000000000E+00 0. -1.
         22    1    1    2    0    0 -0.97946185890E+01 -0.20548923618E+02  0.26728240967E+01  0.22920226958E+02  0.00000000000E+00 0.  1.
         22    1    1    2    0    0 -0.19756371882E+02  0.80809381262E+02  0.31754862376E+03  0.32826452562E+03  0.00000000000E+00 0. -1.
</event>
<event>
 6    1  0.8017648E-006  0.1463580E+03  0.7818608E-02  0.1310327E+00
          2   -1    0    0  502    0  0.00000000000E+00  0.00000000000E+00  0.70226668915E+03  0.70226668915E+03  0.00000000000E+00 0.  1.
          1   -1    0    0  501    0 -0.00000000000E+00 -0.00000000000E+00 -0.15643844878E+03  0.15643844878E+03  0.00000000000E+00 0. -1.
          2    1    1    2  501    0  0.57509820102E+02 -0.12234510664E+03  0.69022648903E+02  0.15178876963E+03  0.00000000000E+00 0.  1.
          1    1    1    2  502    0 -0.85095600815E+02  0.24377150171E+03  0.78110150033E+02  0.26975359471E+03  0.00000000000E+00 0. -1.
         22    1    1    2    0    0  0.14957502439E+02 -0.11439639078E+03  0.40520661818E+03  0.42131065085E+03  0.00000000000E+00 0.  1.
         22    1    1    2    0    0  0.12628278274E+02 -0.70300042947E+01 -0.65111767489E+01  0.15852122735E+02  0.00000000000E+00 0. -1.
</event>
<event>
 6    1  0.8017648E-006  0.1686304E+03  0.7818608E-02  0.1179417E+00
          2   -1    0    0  502    0  0.00000000000E+00  0.00000000000E+00  0.69647869020E+03  0.69647869020E+03  0.00000000000E+00 0.  1.
          1   -1    0    0  501    0 -0.00000000000E+00 -0.00000000000E+00 -0.39891355121E+03  0.39891355121E+03  0.00000000000E+00 0.  1.
          2    1    1    2  501    0  0.13531643214E+03  0.49361219440E+02  0.59348008049E+03  0.61070915560E+03  0.00000000000E+00 0.  1.
          1    1    1    2  502    0 -0.14262143985E+03 -0.50387343756E+02 -0.32550336744E+03  0.35893202940E+03  0.00000000000E+00 0.  1.
         22    1    1    2    0    0 -0.14975766512E+02  0.83102465581E+01 -0.44691094098E+02  0.47860502213E+02  0.00000000000E+00 0. -1.
         22    1    1    2    0    0  0.22280774227E+02 -0.72841222425E+01  0.74279520038E+02  0.77890554204E+02  0.00000000000E+00 0. -1.
</event>
<event>
 6    1  0.8017648E-006  0.1205168E+03  0.7818608E-02  0.1361138E+00
          2   -1    0    0  502    0  0.00000000000E+00  0.00000000000E+00  0.48165147112E+03  0.48165147112E+03  0.00000000000E+00 0. -1.
          1   -1    0    0  501    0 -0.00000000000E+00 -0.00000000000E+00 -0.24305820091E+03  0.24305820091E+03  0.00000000000E+00 0. -1.
          2    1    1    2  501    0  0.77863810655E+02  0.42042108825E+02  0.31041620274E+03  0.32278248225E+03  0.00000000000E+00 0. -1.
          1    1    1    2  502    0 -0.11343448026E+03 -0.32055144888E+02 -0.19112546133E+03  0.22455256755E+03  0.00000000000E+00 0. -1.
         22    1    1    2    0    0  0.45039841613E+01 -0.12703333341E+02 -0.25719705810E+02  0.29037283245E+02  0.00000000000E+00 0. -1.
         22    1    1    2    0    0  0.31066685443E+02  0.27163694041E+01  0.14502223460E+03  0.14833733898E+03  0.00000000000E+00 0. -1.
</event>
<event>
 6    1  0.8017648E-006  0.1118177E+03  0.7818608E-02  0.1296914E+00
          2   -1    0    0  502    0  0.00000000000E+00  0.00000000000E+00  0.74661365309E+03  0.74661365309E+03  0.00000000000E+00 0.  1.
          1   -1    0    0  501    0 -0.00000000000E+00 -0.00000000000E+00 -0.62008593217E+02  0.62008593217E+02  0.00000000000E+00 0. -1.
          2    1    1    2  501    0  0.70279754475E+02 -0.14094492484E+02  0.26770540260E+03  0.27713549248E+03  0.00000000000E+00 0.  1.
          1    1    1    2  502    0 -0.14335910949E+03 -0.37213236555E+01  0.33002355860E+03  0.35983500629E+03  0.00000000000E+00 0. -1.
         22    1    1    2    0    0  0.20811817730E+02  0.14724078774E+02  0.11108084447E+03  0.11396878634E+03  0.00000000000E+00 0.  1.
         22    1    1    2    0    0  0.52267537281E+02  0.30917373652E+01 -0.24204745795E+02  0.57682961197E+02  0.00000000000E+00 0.  1.
</event>
<event>
 6    1  0.8017648E-006  0.8871925E+02  0.7818608E-02  0.1341726E+00
          2   -1    0    0  502    0  0.00000000000E+00  0.00000000000E+00  0.89235125515E+03  0.89235125515E+03  0.00000000000E+00 0. -1.
          1   -1    0    0  501    0 -0.00000000000E+00 -0.00000000000E+00 -0.45633995263E+02  0.45633995263E+02  0.00000000000E+00 0.  1.
          2    1    1    2  501    0 -0.85170729334E+02 -0.98069363944E+02  0.30862580212E+03  0.33484554501E+03  0.00000000000E+00 0. -1.
          1    1    1    2  502    0  0.11308984695E+03  0.84495220851E+02  0.24695486498E+03  0.28445643105E+03  0.00000000000E+00 0.  1.
         22    1    1    2    0    0  0.30576875489E+02 -0.27845512507E+01  0.11919531712E+02  0.32935911655E+02  0.00000000000E+00 0. -1.
         22    1    1    2    0    0 -0.58495993108E+02  0.16358694343E+02  0.27921706108E+03  0.28574736269E+03  0.00000000000E+00 0. -1.
</event>
<event>
 6    1  0.8017648E-006  0.1196942E+03  0.7818608E-02  0.1300938E+00
          2   -1    0    0  502    0  0.00000000000E+00  0.00000000000E+00  0.79188451307E+03  0.79188451307E+03  0.00000000000E+00 0. -1.
          1   -1    0    0  501    0 -0.00000000000E+00 -0.00000000000E+00 -0.34903605108E+02  0.34903605108E+02  0.00000000000E+00 0. -1.
          2    1    1    2  501    0 -0.92368013209E+02  0.16761398842E+02  0.37308233109E+03  0.38471186637E+03  0.00000000000E+00 0. -1.
          1    1    1    2  502    0  0.55561484998E+02 -0.26732141000E+02  0.24562029988E+03  0.25324102687E+03  0.00000000000E+00 0. -1.
         22    1    1    2    0    0  0.18809465422E+02 -0.25336969933E+02  0.14521395199E+03  0.14860299420E+03  0.00000000000E+00 0. -1.
         22    1    1    2    0    0  0.17997062789E+02  0.35307712092E+02 -0.69356749918E+01  0.40232230733E+02  0.00000000000E+00 0. -1.
</event>
<event>
 6    1  0.8017648E-006  0.7555493E+02  0.7818608E-02  0.1442795E+00
          2   -1    0    0  502    0  0.00000000000E+00  0.00000000000E+00  0.15713470810E+03  0.15713470810E+03  0.00000000000E+00 0.  1.
          1   -1    0    0  501    0 -0.00000000000E+00 -0.00000000000E+00 -0.11915840563E+04  0.11915840563E+04  0.00000000000E+00 0. -1.
          2    1    1    2  501    0 -0.12165509430E+02  0.40602195697E+02  0.56192972955E+02  0.70385993810E+02  0.00000000000E+00 0.  1.
          1    1    1    2  502    0  0.22480976218E+02 -0.56064431322E+02 -0.11398571231E+04  0.11414564712E+04  0.00000000000E+00 0. -1.
         22    1    1    2    0    0 -0.18374973059E+01  0.27896578059E+02  0.89556556088E+02  0.93818826480E+02  0.00000000000E+00 0.  1.
         22    1    1    2    0    0 -0.84779694820E+01 -0.12434342433E+02 -0.40341754176E+02  0.43057472851E+02  0.00000000000E+00 0. -1.
</event>
<event>
 6    1  0.8017648E-006  0.9213280E+02  0.7818608E-02  0.1378906E+00
          2   -1    0    0  502    0  0.00000000000E+00  0.00000000000E+00  0.57752231907E+03  0.57752231907E+03  0.00000000000E+00 0. -1.
          1   -1    0    0  501    0 -0.00000000000E+00 -0.00000000000E+00 -0.29396129002E+02  0.29396129002E+02  0.00000000000E+00 0. -1.
          2    1    1    2  501    0 -0.10793097107E+02  0.23652658871E+02  0.97522018253E+02  0.10092810937E+03  0.00000000000E+00 0. -1.
          1    1    1    2  502    0  0.21272825483E+02 -0.86122444590E+02  0.15959141453E+03  0.18258978109E+03  0.00000000000E+00 0. -1.
         22    1    1    2    0    0  0.11774491915E+02  0.65639560091E+02  0.29331847329E+03  0.30080378535E+03  0.00000000000E+00 0. -1.
         22    1    1    2    0    0 -0.22254220291E+02 -0.31697743721E+01 -0.23057160057E+01  0.22596772261E+02  0.00000000000E+00 0. -1.
</event>
<event>
 6    1  0.8017648E-006  0.2761833E+02  0.7818608E-02  0.1677493E+00
          2   -1    0    0  502    0  0.00000000000E+00  0.00000000000E+00  0.12742236953E+03  0.12742236953E+03  0.00000000000E+00 0.  1.
          1   -1    0    0  501    0 -0.00000000000E+00 -0.00000000000E+00 -0.11959881042E+03  0.11959881042E+03  0.00000000000E+00 0. -1.
          2    1    1    2  501    0 -0.26665997501E+02 -0.21634390361E+02  0.64869946516E+02  0.73397767201E+02  0.00000000000E+00 0.  1.
          1    1    1    2  502    0  0.30213216172E+02 -0.45509629575E+00 -0.53048306960E+00  0.30221299714E+02  0.00000000000E+00 0. -1.
         22    1    1    2    0    0  0.80898057306E+01  0.19665506863E+02 -0.97983545350E+02  0.10026441181E+03  0.00000000000E+00 0. -1.
         22    1    1    2    0    0 -0.11637024402E+02  0.24239797936E+01  0.41467641015E+02  0.43137701217E+02  0.00000000000E+00 0. -1.
</event>
<event>
 6    1  0.8017648E-006  0.3103349E+02  0.7818608E-02  0.1625511E+00
          2   -1    0    0  502    0  0.00000000000E+00  0.00000000000E+00  0.16532208242E+03  0.16532208242E+03  0.00000000000E+00 0.  1.
          1   -1    0    0  501    0 -0.00000000000E+00 -0.00000000000E+00 -0.10691742698E+03  0.10691742698E+03  0.00000000000E+00 0. -1.
          2    1    1    2  501    0  0.18552230354E+02 -0.40143203623E+02  0.30336214177E+01  0.44326796717E+02  0.00000000000E+00 0.  1.
          1    1    1    2  502    0 -0.44657503078E+02  0.12423139760E+02 -0.42865572330E+02  0.63135443879E+02  0.00000000000E+00 0. -1.
         22    1    1    2    0    0  0.10510910084E+02  0.10441915879E+02 -0.30524127585E+02  0.33929857100E+02  0.00000000000E+00 0. -1.
         22    1    1    2    0    0  0.15594362640E+02  0.17278147985E+02  0.12876073394E+03  0.13084741170E+03  0.00000000000E+00 0.  1.
</event>
<event>
 6    1  0.8017648E-006  0.8240957E+02  0.7818608E-02  0.1391160E+00
          2   -1    0    0  502    0  0.00000000000E+00  0.00000000000E+00  0.77967883522E+03  0.77967883522E+03  0.00000000000E+00 0. -1.
          1   -1    0    0  501    0 -0.00000000000E+00 -0.00000000000E+00 -0.18182316536E+02  0.18182316536E+02  0.00000000000E+00 0. -1.
          2    1    1    2  501    0 -0.24042911625E+02 -0.35265615581E+01  0.54153301957E+02  0.59355525006E+02  0.00000000000E+00 0. -1.
          1    1    1    2  502    0  0.69118395283E+02  0.27649512789E+00  0.39135070335E+03  0.39740760188E+03  0.00000000000E+00 0. -1.
         22    1    1    2    0    0  0.22917020947E+02 -0.11761530011E+02  0.10577256803E+02  0.27846037398E+02  0.00000000000E+00 0.  1.
         22    1    1    2    0    0 -0.67992504605E+02  0.15011596441E+02  0.30541525658E+03  0.31325198748E+03  0.00000000000E+00 0. -1.
</event>
<event>
 6    1  0.8017648E-006  0.6475693E+02  0.7818608E-02  0.1470851E+00
          2   -1    0    0  502    0  0.00000000000E+00  0.00000000000E+00  0.14881182884E+03  0.14881182884E+03  0.00000000000E+00 0.  1.
          1   -1    0    0  501    0 -0.00000000000E+00 -0.00000000000E+00 -0.41613189478E+03  0.41613189478E+03  0.00000000000E+00 0.  1.
          2    1    1    2  501    0 -0.17859537970E+02  0.37212421713E+02  0.92351091432E+02  0.10115558074E+03  0.00000000000E+00 0.  1.
          1    1    1    2  502    0  0.18883185951E+02 -0.46964691677E+02 -0.33435661313E+03  0.33816652957E+03  0.00000000000E+00 0.  1.
         22    1    1    2    0    0  0.96223603430E+01  0.21524246313E+02  0.46466986422E+02  0.52106274335E+02  0.00000000000E+00 0. -1.
         22    1    1    2    0    0 -0.10646008325E+02 -0.11771976349E+02 -0.71781530668E+02  0.73515338981E+02  0.00000000000E+00 0. -1.
</event>
<event>
 6    1  0.8017648E-006  0.1466825E+03  0.7818608E-02  0.1206161E+00
          2   -1    0    0  502    0  0.00000000000E+00  0.00000000000E+00  0.38696927449E+03  0.38696927449E+03  0.00000000000E+00 0. -1.
          1   -1    0    0  501    0 -0.00000000000E+00 -0.00000000000E+00 -0.12091980156E+03  0.12091980156E+03  0.00000000000E+00 0. -1.
          2    1    1    2  501    0  0.14045295931E+02  0.42871617264E+02  0.58299751288E+02  0.73716395089E+02  0.00000000000E+00 0. -1.
          1    1    1    2  502    0 -0.61839177518E+02 -0.11356629222E+03 -0.46006041929E+02  0.13725138433E+03  0.00000000000E+00 0. -1.
         22    1    1    2    0    0 -0.10449841869E+02 -0.35707684856E+01 -0.11157069327E+02  0.15698082005E+02  0.00000000000E+00 0. -1.
         22    1    1    2    0    0  0.58243723456E+02  0.74265443444E+02  0.26491283290E+03  0.28122321463E+03  0.00000000000E+00 0. -1.
</event>
<event>
 6    1  0.8017648E-006  0.3937499E+02  0.7818608E-02  0.1552474E+00
          2   -1    0    0  502    0  0.00000000000E+00  0.00000000000E+00  0.57267050520E+02  0.57267050520E+02  0.00000000000E+00 0. -1.
          1   -1    0    0  501    0 -0.00000000000E+00 -0.00000000000E+00 -0.77306283363E+03  0.77306283363E+03  0.00000000000E+00 0.  1.
          2    1    1    2  501    0  0.23953273864E+02 -0.50054011720E+02 -0.95498779820E+02  0.11044989980E+03  0.00000000000E+00 0. -1.
          1    1    1    2  502    0 -0.16413603034E+02  0.71259712132E+02 -0.58032942531E+03  0.58491845142E+03  0.00000000000E+00 0.  1.
         22    1    1    2    0    0 -0.20332519107E+02 -0.14044417682E+02  0.43600881387E+02  0.50116802163E+02  0.00000000000E+00 0. -1.
         22    1    1    2    0    0  0.12792848277E+02 -0.71612827304E+01 -0.83568459367E+02  0.84844730764E+02  0.00000000000E+00 0. -1.
</event>
<event>
 6    1  0.8017648E-006  0.7340992E+02  0.7818608E-02  0.1450990E+00
          2   -1    0    0  502    0  0.00000000000E+00  0.00000000000E+00  0.20923444835E+03  0.20923444835E+03  0.00000000000E+00 0. -1.
          1   -1    0    0  501    0 -0.00000000000E+00 -0.00000000000E+00 -0.65544620392E+02  0.65544620392E+02  0.00000000000E+00 0. -1.
          2    1    1    2  501    0 -0.28381483320E+02 -0.34842090434E+01  0.81670815299E+02  0.86531903826E+02  0.00000000000E+00 0. -1.
          1    1    1    2  502    0 -0.15455022569E+02  0.19226015790E+02 -0.21651906985E+02  0.32822286360E+02  0.00000000000E+00 0. -1.
         22    1    1    2    0    0  0.35913369222E+02 -0.27925881591E+02  0.11348121177E+03  0.12226042032E+03  0.00000000000E+00 0. -1.
         22    1    1    2    0    0  0.79231366674E+01  0.12184074844E+02 -0.29810292119E+02  0.33164458245E+02  0.00000000000E+00 0.  1.
</event>
<event>
 6    1  0.8017648E-006  0.1149809E+03  0.7818608E-02  0.1344029E+00
          2   -1    0    0  502    0  0.00000000000E+00  0.00000000000E+00  0.24265170232E+03  0.24265170232E+03  0.00000000000E+00 0. -1.
          1   -1    0    0  501    0 -0.00000000000E+00 -0.00000000000E+00 -0.39982571154E+03  0.39982571154E+03  0.00000000000E+00 0.  1.
          2    1    1    2  501    0 -0.69749928156E+02 -0.74409440941E+02  0.17920437648E+03  0.20619414620E+03  0.00000000000E+00 0. -1.
          1    1    1    2  502    0  0.96925001396E+02  0.66559141161E+02 -0.26081747696E+03  0.28609496929E+03  0.00000000000E+00 0.  1.
         22    1    1    2    0    0 -0.16694842564E+02  0.12336143392E+02 -0.11101885799E+03  0.11294283967E+03  0.00000000000E+00 0.  1.
         22    1    1    2    0    0 -0.10480230675E+02 -0.44858436118E+01  0.35457949252E+02  0.37245458691E+02  0.00000000000E+00 0. -1.
</event>
<event>
 6    1  0.8017648E-006  0.5227168E+02  0.7818608E-02  0.1544744E+00
          2   -1    0    0  502    0  0.00000000000E+00  0.00000000000E+00  0.15099393250E+03  0.15099393250E+03  0.00000000000E+00 0.  1.
          1   -1    0    0  501    0 -0.00000000000E+00 -0.00000000000E+00 -0.79791750430E+02  0.79791750430E+02  0.00000000000E+00 0.  1.
          2    1    1    2  501    0  0.17239091938E+02 -0.10600104249E+02  0.28942540283E+02  0.35315989848E+02  0.00000000000E+00 0.  1.
          1    1    1    2  502    0 -0.79976673230E+01  0.38657482741E+02 -0.29849233724E+02  0.49490811353E+02  0.00000000000E+00 0.  1.
         22    1    1    2    0    0  0.17866449853E+01 -0.27486102124E+02  0.10642402357E+03  0.10993066316E+03  0.00000000000E+00 0.  1.
         22    1    1    2    0    0 -0.11028069600E+02 -0.57127636930E+00 -0.34315148057E+02  0.36048218569E+02  0.00000000000E+00 0.  1.
</event>
<event>
 6    1  0.8017648E-006  0.1018554E+03  0.7818608E-02  0.1278660E+00
          2   -1    0    0  502    0  0.00000000000E+00  0.00000000000E+00  0.58143205095E+03  0.58143205095E+03  0.00000000000E+00 0. -1.
          1   -1    0    0  501    0 -0.00000000000E+00 -0.00000000000E+00 -0.75268831308E+02  0.75268831308E+02  0.00000000000E+00 0. -1.
          2    1    1    2  501    0 -0.57667083997E+01  0.82069731566E+02  0.45073498039E+03  0.45818197074E+03  0.00000000000E+00 0. -1.
          1    1    1    2  502    0 -0.68321902220E+01 -0.60443211716E+02 -0.33543259649E+01  0.60920539791E+02  0.00000000000E+00 0. -1.
         22    1    1    2    0    0  0.83081941705E+01  0.12883825740E+02  0.89739626067E+02  0.91039659175E+02  0.00000000000E+00 0. -1.
         22    1    1    2    0    0  0.42907044512E+01 -0.34510345589E+02 -0.30957060853E+02  0.46558712547E+02  0.00000000000E+00 0. -1.
</event>
<event>
 6    1  0.8017648E-006  0.4798509E+02  0.7818608E-02  0.1465782E+00
          2   -1    0    0  502    0  0.00000000000E+00  0.00000000000E+00  0.21301275995E+03  0.21301275995E+03  0.00000000000E+00 0. -1.
          1   -1    0    0  501    0 -0.00000000000E+00 -0.00000000000E+00 -0.75594400059E+02  0.75594400059E+02  0.00000000000E+00 0. -1.
          2    1    1    2  501    0 -0.29371880700E+02 -0.17687947079E+02  0.10739263416E+03  0.11273308618E+03  0.00000000000E+00 0. -1.
          1    1    1    2  502    0  0.23419481972E+01 -0.33333033590E+02  0.20395984895E+00  0.33415826330E+02  0.00000000000E+00 0. -1.
         22    1    1    2    0    0  0.43721868425E+02  0.49293422889E+02 -0.35618414072E+02  0.74900699194E+02  0.00000000000E+00 0. -1.
         22    1    1    2    0    0 -0.16691935922E+02  0.17275577797E+01  0.65440179957E+02  0.67557548309E+02  0.00000000000E+00 0.  1.
</event>
<event>
 6    1  0.8017648E-006  0.2580042E+03  0.7818608E-02  0.1178208E+00
          2   -1    0    0  502    0  0.00000000000E+00  0.00000000000E+00  0.37618362455E+03  0.37618362455E+03  0.00000000000E+00 0. -1.
          1   -1    0    0  501    0 -0.00000000000E+00 -0.00000000000E+00 -0.51748883088E+03  0.51748883088E+03  0.00000000000E+00 0. -1.
          2    1    1    2  501    0  0.21836681596E+03  0.11272428152E+03  0.26018292230E+03  0.35789102114E+03  0.00000000000E+00 0. -1.
          1    1    1    2  502    0 -0.20795826430E+03 -0.65739284477E+02 -0.23106161929E+03  0.31773851691E+03  0.00000000000E+00 0. -1.
         22    1    1    2    0    0 -0.27511267446E+02 -0.39623975277E+02 -0.18699639997E+03  0.19311805420E+03  0.00000000000E+00 0. -1.
         22    1    1    2    0    0  0.17102715788E+02 -0.73610217706E+01  0.16569890635E+02  0.24924863179E+02  0.00000000000E+00 0.  1.
</event>
<event>
 6    1  0.8017648E-006  0.5244481E+02  0.7818608E-02  0.1496004E+00
          2   -1    0    0  502    0  0.00000000000E+00  0.00000000000E+00  0.10858297246E+03  0.10858297246E+03  0.00000000000E+00 0. -1.
          1   -1    0    0  501    0 -0.00000000000E+00 -0.00000000000E+00 -0.18732751862E+03  0.18732751862E+03  0.00000000000E+00 0.  1.
          2    1    1    2  501    0 -0.46490482904E+02  0.34246814834E+02  0.25429215758E+02  0.63094011927E+02  0.00000000000E+00 0. -1.
          1    1    1    2  502    0 -0.93186194665E+01 -0.69887833384E+02 -0.42855202694E+02  0.82508874200E+02  0.00000000000E+00 0.  1.
         22    1    1    2    0    0  0.13117159224E+02  0.14586275431E+02  0.36547274328E+02  0.41479182223E+02  0.00000000000E+00 0. -1.
         22    1    1    2    0    0  0.42691943146E+02  0.21054743119E+02 -0.97865833550E+02  0.10882842273E+03  0.00000000000E+00 0.  1.
</event>
<event>
 6    1  0.8017648E-006  0.1487486E+03  0.7818608E-02  0.1307925E+00
          2   -1    0    0  502    0  0.00000000000E+00  0.00000000000E+00  0.51100237814E+03  0.51100237814E+03  0.00000000000E+00 0. -1.
          1   -1    0    0  501    0 -0.00000000000E+00 -0.00000000000E+00 -0.92610929231E+02  0.92610929231E+02  0.00000000000E+00 0.  1.
          2    1    1    2  501    0 -0.88816200668E+02 -0.43572598846E+02  0.39586203887E+03  0.40803632521E+03  0.00000000000E+00 0. -1.
          1    1    1    2  502    0  0.59623502147E+02  0.18642450277E+01  0.15764333309E+02  0.61700499370E+02  0.00000000000E+00 0.  1.
         22    1    1    2    0    0  0.18054262160E+02  0.20411910259E+01 -0.55956752661E+02  0.58832652595E+02  0.00000000000E+00 0.  1.
         22    1    1    2    0    0  0.11138436361E+02  0.39667162792E+02  0.62721829385E+02  0.75043830193E+02  0.00000000000E+00 0. -1.
</event>
<event>
 6    1  0.8017648E-006  0.2451391E+03  0.7818608E-02  0.1242195E+00
          2   -1    0    0  502    0  0.00000000000E+00  0.00000000000E+00  0.69975213439E+03  0.69975213439E+03  0.00000000000E+00 0.  1.
          1   -1    0    0  501    0 -0.00000000000E+00 -0.00000000000E+00 -0.47686249085E+03  0.47686249085E+03  0.00000000000E+00 0. -1.
          2    1    1    2  501    0 -0.10604590084E+03 -0.17727989876E+03  0.60175026018E+03  0.63622108674E+03  0.00000000000E+00 0.  1.
          1    1    1    2  502    0  0.12973624774E+03  0.17755646476E+03 -0.35116089501E+03  0.41433291728E+03  0.00000000000E+00 0. -1.
         22    1    1    2    0    0  0.57983218118E+01  0.13110303525E+02 -0.70750918170E+02  0.72188593394E+02  0.00000000000E+00 0. -1.
         22    1    1    2    0    0 -0.29488668714E+02 -0.13386869523E+02  0.43051196551E+02  0.53872027831E+02  0.00000000000E+00 0. -1.
</event>
<event>
 6    1  0.8017648E-006  0.1303156E+03  0.7818608E-02  0.1227000E+00
          2   -1    0    0  502    0  0.00000000000E+00  0.00000000000E+00  0.29632745621E+03  0.29632745621E+03  0.00000000000E+00 0.  1.
          1   -1    0    0  501    0 -0.00000000000E+00 -0.00000000000E+00 -0.93945756975E+02  0.93945756975E+02  0.00000000000E+00 0.  1.
          2    1    1    2  501    0 -0.30561826188E+02 -0.35902964846E+02  0.12371340623E+03  0.13239356097E+03  0.00000000000E+00 0.  1.
          1    1    1    2  502    0  0.70780766695E+02  0.67479511544E+02 -0.88175897763E+00  0.97796620142E+02  0.00000000000E+00 0.  1.
         22    1    1    2    0    0 -0.67089880459E+02 -0.38617300977E+02  0.99366879507E+02  0.12596080635E+03  0.00000000000E+00 0.  1.
         22    1    1    2    0    0  0.26870939952E+02  0.70407542790E+01 -0.19816827527E+02  0.34122225718E+02  0.00000000000E+00 0. -1.
</event>
<event>
 6    1  0.8017648E-006  0.6894795E+02  0.7818608E-02  0.1366980E+00
          2   -1    0    0  502    0  0.00000000000E+00  0.00000000000E+00  0.63187859370E+03  0.63187859370E+03  0.00000000000E+00 0. -1.
          1   -1    0    0  501    0 -0.00000000000E+00 -0.00000000000E+00 -0.18333005545E+03  0.18333005545E+03  0.00000000000E+00 0.  1.
          2    1    1    2  501    0 -0.23368488422E+03  0.13558368131E+02  0.37798467739E+03  0.44459517631E+03  0.00000000000E+00 0. -1.
          1    1    1    2  502    0  0.23470273559E+03 -0.14217467236E+02  0.39453009627E+02  0.23841990361E+03  0.00000000000E+00 0.  1.
         22    1    1    2    0    0 -0.16237238210E+02  0.11321849876E+02  0.78675637117E+02  0.81127603595E+02  0.00000000000E+00 0. -1.
         22    1    1    2    0    0  0.15219386839E+02 -0.10662750771E+02 -0.47564785881E+02  0.51065965630E+02  0.00000000000E+00 0.  1.
</event>
<event>
 6    1  0.8017648E-006  0.5548472E+02  0.7818608E-02  0.1496286E+00
          2   -1    0    0  502    0  0.00000000000E+00  0.00000000000E+00  0.26318551362E+03  0.26318551362E+03  0.00000000000E+00 0. -1.
          1   -1    0    0  501    0 -0.00000000000E+00 -0.00000000000E+00 -0.90578635991E+02  0.90578635991E+02  0.00000000000E+00 0.  1.
          2    1    1    2  501    0  0.26933594957E+02  0.26684004713E+02  0.16981745389E+03  0.17399833991E+03  0.00000000000E+00 0. -1.
          1    1    1    2  502    0 -0.46589856198E+02 -0.10913926528E+02 -0.22020543976E+02  0.52674783814E+02  0.00000000000E+00 0.  1.
         22    1    1    2    0    0  0.18006744370E+02  0.17998532275E+01  0.73294135220E+02  0.75495116213E+02  0.00000000000E+00 0. -1.
         22    1    1    2    0    0  0.16495168709E+01 -0.17569931413E+02 -0.48484167510E+02  0.51595909672E+02  0.00000000000E+00 0.  1.
</event>
<event>
 6    1  0.8017648E-006  0.2423995E+03  0.7818608E-02  0.1205215E+00
          2   -1    0    0  502    0  0.00000000000E+00  0.00000000000E+00  0.13781369922E+04  0.13781369922E+04  0.00000000000E+00 0.  1.
          1   -1    0    0  501    0 -0.00000000000E+00 -0.00000000000E+00 -0.87832789746E+02  0.87832789746E+02  0.00000000000E+00 0.  1.
          2    1    1    2  501    0  0.21268355986E+03 -0.56807646523E+02  0.90665529005E+03  0.93299797445E+03  0.00000000000E+00 0.  1.
          1    1    1    2  502    0 -0.22389171859E+03  0.47619412277E+02  0.30211379834E+03  0.37903543004E+03  0.00000000000E+00 0.  1.
         22    1    1    2    0    0  0.77711036701E+01 -0.22708709971E+02  0.10905716710E+03  0.11166710016E+03  0.00000000000E+00 0. -1.
         22    1    1    2    0    0  0.34370550566E+01  0.31896944217E+02 -0.27522053058E+02  0.42269277287E+02  0.00000000000E+00 0.  1.
</event>
<event>
 6    1  0.8017648E-006  0.4826636E+02  0.7818608E-02  0.1535549E+00
          2   -1    0    0  502    0  0.00000000000E+00  0.00000000000E+00  0.25408706075E+03  0.25408706075E+03  0.00000000000E+00 0. -1.
          1   -1    0    0  501    0 -0.00000000000E+00 -0.00000000000E+00 -0.56663608059E+02  0.56663608059E+02  0.00000000000E+00 0.  1.
          2    1    1    2  501    0 -0.19643805267E+02  0.56996082564E+01  0.12111828290E+03  0.12283323277E+03  0.00000000000E+00 0. -1.
          1    1    1    2  502    0  0.25038745666E+02 -0.28128408699E+02  0.42829108158E+02  0.57030506451E+02  0.00000000000E+00 0.  1.
         22    1    1    2    0    0  0.15321220315E+02  0.38996124542E+01 -0.44967129876E+02  0.47665391413E+02  0.00000000000E+00 0.  1.
         22    1    1    2    0    0 -0.20716160715E+02  0.18529187988E+02  0.78443191500E+02  0.83221538168E+02  0.00000000000E+00 0. -1.
</event>
<event>
 6    1  0.8017648E-006  0.6822980E+02  0.7818608E-02  0.1368377E+00
          2   -1    0    0  502    0  0.00000000000E+00  0.00000000000E+00  0.84257014004E+02  0.84257014004E+02  0.00000000000E+00 0. -1.
          1   -1    0    0  501    0 -0.00000000000E+00 -0.00000000000E+00 -0.19764371482E+03  0.19764371482E+03  0.00000000000E+00 0. -1.
          2    1    1    2  501    0  0.36339609730E+02  0.50379081292E+02  0.14099665255E+02  0.63697877731E+02  0.00000000000E+00 0. -1.
          1    1    1    2  502    0 -0.35012210459E+02  0.34700358151E+01 -0.38237685295E+02  0.51961684023E+02  0.00000000000E+00 0. -1.
         22    1    1    2    0    0 -0.20130646781E+02 -0.66484376148E+02 -0.11349027360E+03  0.13306185559E+03  0.00000000000E+00 0.  1.
         22    1    1    2    0    0  0.18803247510E+02  0.12635259041E+02  0.24241592821E+02  0.33179311482E+02  0.00000000000E+00 0.  1.
</event>
<event>
 6    1  0.8017648E-006  0.9558463E+02  0.7818608E-02  0.1304290E+00
          2   -1    0    0  502    0  0.00000000000E+00  0.00000000000E+00  0.11874406608E+03  0.11874406608E+03  0.00000000000E+00 0.  1.
          1   -1    0    0  501    0 -0.00000000000E+00 -0.00000000000E+00 -0.16211953021E+03  0.16211953021E+03  0.00000000000E+00 0.  1.
          2    1    1    2  501    0 -0.58608382408E+02  0.17474132584E+02 -0.40619844340E+01  0.61292638348E+02  0.00000000000E+00 0.  1.
          1    1    1    2  502    0  0.61507014670E+02 -0.59718441375E+02 -0.97481483299E+01  0.86281118964E+02  0.00000000000E+00 0.  1.
         22    1    1    2    0    0 -0.48047149494E+02 -0.15339812840E+02  0.79515877426E+01  0.51059437718E+02  0.00000000000E+00 0.  1.
         22    1    1    2    0    0  0.45148517232E+02  0.57584121632E+02 -0.37516919103E+02  0.82230401260E+02  0.00000000000E+00 0.  1.
</event>
<event>
 6    1  0.8017648E-006  0.7155816E+02  0.7818608E-02  0.1396926E+00
          2   -1    0    0  502    0  0.00000000000E+00  0.00000000000E+00  0.11615588348E+04  0.11615588348E+04  0.00000000000E+00 0. -1.
          1   -1    0    0  501    0 -0.00000000000E+00 -0.00000000000E+00 -0.94355624784E+02  0.94355624784E+02  0.00000000000E+00 0.  1.
          2    1    1    2  501    0  0.10189329733E+03 -0.27362904738E+01  0.95439491383E+03  0.95982257885E+03  0.00000000000E+00 0. -1.
          1    1    1    2  502    0 -0.72045503617E+02 -0.55394448971E+02 -0.32017098719E+02  0.96354523395E+02  0.00000000000E+00 0.  1.
         22    1    1    2    0    0 -0.22915023007E+02  0.96831924288E+01 -0.17355595213E+02  0.30332806995E+02  0.00000000000E+00 0. -1.
         22    1    1    2    0    0 -0.69327707108E+01  0.48447547016E+02  0.16218099014E+03  0.16940455036E+03  0.00000000000E+00 0.  1.
</event>
<event>
 6    1  0.8017648E-006  0.5000284E+02  0.7818608E-02  0.1511348E+00
          2   -1    0    0  502    0  0.00000000000E+00  0.00000000000E+00  0.60418304266E+02  0.60418304266E+02  0.00000000000E+00 0. -1.
          1   -1    0    0  501    0 -0.00000000000E+00 -0.00000000000E+00 -0.11159121337E+04  0.11159121337E+04  0.00000000000E+00 0.  1.
          2    1    1    2  501    0  0.10206099195E+02 -0.22406631472E+02  0.11774164028E+02  0.27291986612E+02  0.00000000000E+00 0. -1.
          1    1    1    2  502    0  0.45780472637E+02 -0.18346482270E+02 -0.98016284952E+03  0.98140290232E+03  0.00000000000E+00 0.  1.
         22    1    1    2    0    0 -0.53127806024E+02  0.21338531686E+02 -0.11793067244E+03  0.13109363146E+03  0.00000000000E+00 0. -1.
         22    1    1    2    0    0 -0.28587658079E+01  0.19414582055E+02  0.30825528461E+02  0.36541917618E+02  0.00000000000E+00 0. -1.
</event>
<event>
 6    1  0.8017648E-006  0.3413145E+03  0.7818608E-02  0.1189234E+00
          2   -1    0    0  502    0  0.00000000000E+00  0.00000000000E+00  0.12724973809E+04  0.12724973809E+04  0.00000000000E+00 0. -1.
          1   -1    0    0  501    0 -0.00000000000E+00 -0.00000000000E+00 -0.10520748384E+03  0.10520748384E+03  0.00000000000E+00 0. -1.
          2    1    1    2  501    0  0.21118018805E+02  0.22253555554E+03  0.58120442794E+03  0.62270910645E+03  0.00000000000E+00 0. -1.
          1    1    1    2  502    0  0.45319136216E+02 -0.30628563975E+03  0.33307049453E+03  0.45475341840E+03  0.00000000000E+00 0. -1.
         22    1    1    2    0    0 -0.70058730340E+02  0.99629782740E+02  0.25617184897E+03  0.28365178567E+03  0.00000000000E+00 0. -1.
         22    1    1    2    0    0  0.36215753198E+01 -0.15879698525E+02 -0.31568743995E+01  0.16590554210E+02  0.00000000000E+00 0.  1.
</event>
<event>
 6    1  0.8017648E-006  0.1635320E+03  0.7818608E-02  0.1298183E+00
          2   -1    0    0  502    0  0.00000000000E+00  0.00000000000E+00  0.33970225378E+03  0.33970225378E+03  0.00000000000E+00 0.  1.
          1   -1    0    0  501    0 -0.00000000000E+00 -0.00000000000E+00 -0.29759905595E+03  0.29759905595E+03  0.00000000000E+00 0.  1.
          2    1    1    2  501    0 -0.94351332052E+02  0.88246360833E+02  0.20097800989E+03  0.23891788238E+03  0.00000000000E+00 0.  1.
          1    1    1    2  502    0  0.12461676517E+03 -0.10240925643E+03 -0.20483802903E+03  0.26072133035E+03  0.00000000000E+00 0.  1.
         22    1    1    2    0    0 -0.12555481005E+02 -0.10472751625E+02 -0.41756551436E+02  0.44843374290E+02  0.00000000000E+00 0.  1.
         22    1    1    2    0    0 -0.17709952111E+02  0.24635647225E+02  0.87719768402E+02  0.92818722715E+02  0.00000000000E+00 0. -1.
</event>
<event>
 6    1  0.8017648E-006  0.1947418E+03  0.7818608E-02  0.1248099E+00
          2   -1    0    0  502    0  0.00000000000E+00  0.00000000000E+00  0.43906748853E+03  0.43906748853E+03  0.00000000000E+00 0. -1.
          1   -1    0    0  501    0 -0.00000000000E+00 -0.00000000000E+00 -0.75249374425E+02  0.75249374425E+02  0.00000000000E+00 0. -1.
          2    1    1    2  501    0  0.22511908247E+02  0.35993332871E+02  0.71140679563E+01  0.43045510648E+02  0.00000000000E+00 0. -1.
          1    1    1    2  502    0  0.74748595491E+02  0.30906571868E+02  0.47789082505E+01  0.81027197142E+02  0.00000000000E+00 0. -1.
         22    1    1    2    0    0 -0.18721394619E+02 -0.17148323719E+02 -0.87143178769E+00  0.25403051317E+02  0.00000000000E+00 0. -1.
         22    1    1    2    0    0 -0.78539109120E+02 -0.49751581020E+02  0.35279656969E+03  0.36484110385E+03  0.00000000000E+00 0. -1.
</event>
<event>
 6    1  0.8017648E-006  0.1072006E+03  0.7818608E-02  0.1350433E+00
          2   -1    0    0  502    0  0.00000000000E+00  0.00000000000E+00  0.26563112175E+03  0.26563112175E+03  0.00000000000E+00 0. -1.
          1   -1    0    0  501    0 -0.00000000000E+00 -0.00000000000E+00 -0.17688081081E+03  0.17688081081E+03  0.00000000000E+00 0.  1.
          2    1    1    2  501    0  0.29291887591E+02 -0.19864148854E+02  0.11330815519E+03  0.11870693796E+03  0.00000000000E+00 0. -1.
          1    1    1    2  502    0 -0.92447752992E+02  0.14850257847E+02 -0.11910548638E+03  0.15150324774E+03  0.00000000000E+00 0.  1.
         22    1    1    2    0    0  0.66670924309E+02 -0.17666908580E+02  0.11976370344E+03  0.13820447340E+03  0.00000000000E+00 0.  1.
         22    1    1    2    0    0 -0.35150589081E+01  0.22680799587E+02 -0.25216061309E+02  0.34097273453E+02  0.00000000000E+00 0.  1.
</event>
<event>
 6    1  0.8017648E-006  0.5796529E+02  0.7818608E-02  0.1423825E+00
          2   -1    0    0  502    0  0.00000000000E+00  0.00000000000E+00  0.30502681330E+03  0.30502681330E+03  0.00000000000E+00 0. -1.
          1   -1    0    0  501    0 -0.00000000000E+00 -0.00000000000E+00 -0.53705721991E+02  0.53705721991E+02  0.00000000000E+00 0. -1.
          2    1    1    2  501    0 -0.22317782121E+02 -0.34547928389E+02  0.14829592364E+03  0.15389387163E+03  0.00000000000E+00 0. -1.
          1    1    1    2  502    0 -0.89620267122E+01  0.45053836132E+02  0.82356581993E+01  0.46668963338E+02  0.00000000000E+00 0. -1.
         22    1    1    2    0    0 -0.12799204230E+02 -0.15611767108E+02  0.10955832677E+03  0.11140275520E+03  0.00000000000E+00 0. -1.
         22    1    1    2    0    0  0.44079013063E+02  0.51058593644E+01 -0.14768817301E+02  0.46766945132E+02  0.00000000000E+00 0.  1.
</event>
<event>
 6    1  0.8017648E-006  0.5989410E+02  0.7818608E-02  0.1484366E+00
          2   -1    0    0  502    0  0.00000000000E+00  0.00000000000E+00  0.23036674802E+02  0.23036674802E+02  0.00000000000E+00 0.  1.
          1   -1    0    0  501    0 -0.00000000000E+00 -0.00000000000E+00 -0.58078318768E+03  0.58078318768E+03  0.00000000000E+00 0. -1.
          2    1    1    2  501    0  0.22592451317E+02 -0.10600821890E+02 -0.29485415431E+02  0.38628823493E+02  0.00000000000E+00 0.  1.
          1    1    1    2  502    0  0.75875353262E+01  0.54666969244E+02 -0.24173071731E+03  0.24795118050E+03  0.00000000000E+00 0. -1.
         22    1    1    2    0    0  0.93743654953E+01  0.13654832335E+02  0.51014994757E+01  0.17330853165E+02  0.00000000000E+00 0.  1.
         22    1    1    2    0    0 -0.39554352139E+02 -0.57720979689E+02 -0.29163187961E+03  0.29990900532E+03  0.00000000000E+00 0.  1.
</event>
<event>
 6    1  0.8017648E-006  0.2996999E+02  0.7818608E-02  0.1689011E+00
          2   -1    0    0  502    0  0.00000000000E+00  0.00000000000E+00  0.34528909424E+03  0.34528909424E+03  0.00000000000E+00 0.  1.
          1   -1    0    0  501    0 -0.00000000000E+00 -0.00000000000E+00 -0.52422554650E+02  0.52422554650E+02  0.00000000000E+00 0. -1.
          2    1    1    2  501    0 -0.28628062840E+02  0.21093924333E+02  0.14469594598E+03  0.14900146445E+03  0.00000000000E+00 0.  1.
          1    1    1    2  502    0 -0.12685495168E+02 -0.30092888013E+02 -0.18587214255E+02  0.37576431848E+02  0.00000000000E+00 0. -1.
         22    1    1    2    0    0  0.30735181309E+02  0.10458668165E+02  0.18616925732E+03  0.18897890751E+03  0.00000000000E+00 0.  1.
         22    1    1    2    0    0  0.10578376698E+02 -0.14597044843E+01 -0.19411449457E+02  0.22154845086E+02  0.00000000000E+00 0. -1.
</event>
<event>
 6    1  0.8017648E-006  0.1011489E+03  0.7818608E-02  0.1324756E+00
          2   -1    0    0  502    0  0.00000000000E+00  0.00000000000E+00  0.18092310414E+03  0.18092310414E+03  0.00000000000E+00 0. -1.
          1   -1    0    0  501    0 -0.00000000000E+00 -0.00000000000E+00 -0.24427221755E+03  0.24427221755E+03  0.00000000000E+00 0. -1.
          2    1    1    2  501    0 -0.13232507175E+02 -0.72149253173E+02  0.91352252804E+02  0.11715736457E+03  0.00000000000E+00 0. -1.
          1    1    1    2  502    0  0.71504086209E+02  0.97291995225E+02 -0.96506140285E+02  0.15457037812E+03  0.00000000000E+00 0. -1.
         22    1    1    2    0    0 -0.15915725301E+02 -0.19713762832E+02  0.39454452890E+02  0.46889195021E+02  0.00000000000E+00 0.  1.
         22    1    1    2    0    0 -0.42355853732E+02 -0.54289792193E+01 -0.97649678810E+02  0.10657838398E+03  0.00000000000E+00 0. -1.
</event>
<event>
 6    1  0.8017648E-006  0.1398453E+03  0.7818608E-02  0.1262073E+00
          2   -1    0    0  502    0  0.00000000000E+00  0.00000000000E+00  0.27458701376E+03  0.27458701376E+03  0.00000000000E+00 0. -1.
          1   -1    0    0  501    0 -0.00000000000E+00 -0.00000000000E+00 -0.24947788867E+03  0.24947788867E+03  0.00000000000E+00 0. -1.
          2    1    1    2  501    0 -0.71216816890E+02 -0.53138497399E+02 -0.12985321656E+03  0.15734482122E+03  0.00000000000E+00 0. -1.
          1    1    1    2  502    0  0.99970599245E+02  0.55030831368E+02  0.20232936871E+03  0.23229224386E+03  0.00000000000E+00 0. -1.
         22    1    1    2    0    0 -0.56726450643E+02 -0.45702402331E+02 -0.19319718745E+02  0.75364788288E+02  0.00000000000E+00 0. -1.
         22    1    1    2    0    0  0.27972668288E+02  0.43810068363E+02 -0.28047308317E+02  0.59063049065E+02  0.00000000000E+00 0.  1.
</event>
<event>
 6    1  0.8017648E-006  0.9543112E+02  0.7818608E-02  0.1416358E+00
          2   -1    0    0  502    0  0.00000000000E+00  0.00000000000E+00  0.20065118228E+03  0.20065118228E+03  0.00000000000E+00 0. -1.
          1   -1    0    0  501    0 -0.00000000000E+00 -0.00000000000E+00 -0.96241270606E+02  0.96241270606E+02  0.00000000000E+00 0.  1.
          2    1    1    2  501    0 -0.28576784259E+02 -0.37832548981E+01  0.89534569148E+01  0.30184598837E+02  0.00000000000E+00 0. -1.
          1    1    1    2  502    0  0.51380328931E+02  0.11172843499E+02 -0.48865278461E+02  0.71781516228E+02  0.00000000000E+00 0.  1.
         22    1    1    2    0    0  0.11038822229E+02  0.15996556367E+01 -0.22156345563E+02  0.24805607089E+02  0.00000000000E+00 0. -1.
         22    1    1    2    0    0 -0.33842366901E+02 -0.89892442380E+01  0.16647807879E+03  0.17012073073E+03  0.00000000000E+00 0. -1.
</event>
<event>
 6    1  0.8017648E-006  0.9775866E+02  0.7818608E-02  0.1417592E+00
          2   -1    0    0  502    0  0.00000000000E+00  0.00000000000E+00  0.25571050318E+03  0.25571050318E+03  0.00000000000E+00 0.  1.
          1   -1    0    0  501    0 -0.00000000000E+00 -0.00000000000E+00 -0.63645509300E+02  0.63645509300E+02  0.00000000000E+00 0.  1.
          2    1    1    2  501    0  0.35388472799E+02  0.17748863898E+02  0.35060018364E+02  0.52882615900E+02  0.00000000000E+00 0.  1.
          1    1    1    2  502    0 -0.68172336658E+02 -0.36515752028E+02  0.25805752520E+02  0.81527936897E+02  0.00000000000E+00 0.  1.
         22    1    1    2    0    0 -0.77381101641E+01 -0.66149860665E+01 -0.22116311779E+02  0.24346819839E+02  0.00000000000E+00 0.  1.
         22    1    1    2    0    0  0.40521974023E+02  0.25381874196E+02  0.15331553477E+03  0.16059863984E+03  0.00000000000E+00 0.  1.
</event>
<event>
 6    1  0.8017648E-006  0.6569504E+02  0.7818608E-02  0.1464093E+00
          2   -1    0    0  502    0  0.00000000000E+00  0.00000000000E+00  0.88087705503E+02  0.88087705503E+02  0.00000000000E+00 0. -1.
          1   -1    0    0  501    0 -0.00000000000E+00 -0.00000000000E+00 -0.23066427101E+03  0.23066427101E+03  0.00000000000E+00 0. -1.
          2    1    1    2  501    0 -0.27437124981E+02  0.20230071736E+02  0.24882154858E+02  0.42203948394E+02  0.00000000000E+00 0. -1.
          1    1    1    2  502    0  0.70036628786E+02 -0.61604696613E+01 -0.10457790485E+03  0.12601436006E+03  0.00000000000E+00 0. -1.
         22    1    1    2    0    0 -0.28988242544E+02 -0.43031640343E+01  0.38159330554E+02  0.48114134460E+02  0.00000000000E+00 0. -1.
         22    1    1    2    0    0 -0.13611261261E+02 -0.97664380407E+01 -0.10104014608E+03  0.10241953361E+03  0.00000000000E+00 0. -1.
</event>
<event>
 6    1  0.8017648E-006  0.3919988E+02  0.7818608E-02  0.1536887E+00
          2   -1    0    0  502    0  0.00000000000E+00  0.00000000000E+00  0.27388479804E+03  0.27388479804E+03  0.00000000000E+00 0.  1.
          1   -1    0    0  501    0 -0.00000000000E+00 -0.00000000000E+00 -0.17879194324E+03  0.17879194324E+03  0.00000000000E+00 0.  1.
          2    1    1    2  501    0  0.69727085082E+02  0.10767084019E+01  0.22043358001E+03  0.23120118704E+03  0.00000000000E+00 0.  1.
          1    1    1    2  502    0 -0.51128648510E+02 -0.23832843192E+02 -0.52871046529E+02  0.77314233322E+02  0.00000000000E+00 0.  1.
         22    1    1    2    0    0 -0.20419302826E+02  0.69028741953E+01 -0.10539304284E+03  0.10757458380E+03  0.00000000000E+00 0. -1.
         22    1    1    2    0    0  0.18208662535E+01  0.15853260595E+02  0.32923364162E+02  0.36586737121E+02  0.00000000000E+00 0.  1.
</event>
<event>
 6    1  0.8017648E-006  0.7650804E+02  0.7818608E-02  0.1440277E+00
          2   -1    0    0  502    0  0.00000000000E+00  0.00000000000E+00  0.57390957334E+03  0.57390957334E+03  0.00000000000E+00 0.  1.
          1   -1    0    0  501    0 -0.00000000000E+00 -0.00000000000E+00 -0.18237580800E+03  0.18237580800E+03  0.00000000000E+00 0. -1.
          2    1    1    2  501    0  0.58301741003E+02  0.20591520780E+02  0.49229194301E+03  0.49615971308E+03  0.00000000000E+00 0.  1.
          1    1    1    2  502    0 -0.82356353173E+02 -0.33090247884E+02 -0.99821193776E+02  0.13357321640E+03  0.00000000000E+00 0. -1.
         22    1    1    2    0    0  0.94618255769E+01  0.88222220523E+01  0.61234230626E+02  0.62585851001E+02  0.00000000000E+00 0.  1.
         22    1    1    2    0    0  0.14592786593E+02  0.36765050514E+01 -0.62171214519E+02  0.63966600853E+02  0.00000000000E+00 0.  1.
</event>
<event>
 6    1  0.8017648E-006  0.6472075E+02  0.7818608E-02  0.1412778E+00
          2   -1    0    0  502    0  0.00000000000E+00  0.00000000000E+00  0.41572482490E+03  0.41572482490E+03  0.00000000000E+00 0.  1.
          1   -1    0    0  501    0 -0.00000000000E+00 -0.00000000000E+00 -0.13318857289E+03  0.13318857289E+03  0.00000000000E+00 0.  1.
          2    1    1    2  501    0  0.45739602665E+02 -0.13864329829E+02  0.32023681474E+03  0.32378379887E+03  0.00000000000E+00 0.  1.
          1    1    1    2  502    0 -0.83826780753E+02 -0.14485990017E+02 -0.40502339524E+02  0.94218960858E+02  0.00000000000E+00 0.  1.
         22    1    1    2    0    0  0.23231511820E+02  0.29816802392E+02 -0.57487442044E+02  0.68800805512E+02  0.00000000000E+00 0.  1.
         22    1    1    2    0    0  0.14855666268E+02 -0.14664825468E+01  0.60289218837E+02  0.62109832550E+02  0.00000000000E+00 0.  1.
</event>
<event>
 6    1  0.8017648E-006  0.7591026E+02  0.7818608E-02  0.1428067E+00
          2   -1    0    0  502    0  0.00000000000E+00  0.00000000000E+00  0.26184488618E+03  0.26184488618E+03  0.00000000000E+00 0.  1.
          1   -1    0    0  501    0 -0.00000000000E+00 -0.00000000000E+00 -0.15997680487E+03  0.15997680487E+03  0.00000000000E+00 0.  1.
          2    1    1    2  501    0 -0.38072731963E+02  0.23304365051E+02  0.20157903128E+03  0.20646242322E+03  0.00000000000E+00 0.  1.
          1    1    1    2  502    0  0.50421939944E+02 -0.20514151122E+02 -0.73719573172E+02  0.91639390508E+02  0.00000000000E+00 0.  1.
         22    1    1    2    0    0 -0.22038138842E+02  0.12992781833E+02  0.44230866839E+02  0.51096590147E+02  0.00000000000E+00 0.  1.
         22    1    1    2    0    0  0.96889308606E+01 -0.15782995761E+02 -0.70222243642E+02  0.72623287164E+02  0.00000000000E+00 0.  1.
</event>
<event>
 6    1  0.8017648E-006  0.8291635E+02  0.7818608E-02  0.1446662E+00
          2   -1    0    0  502    0  0.00000000000E+00  0.00000000000E+00  0.87488853929E+02  0.87488853929E+02  0.00000000000E+00 0. -1.
          1   -1    0    0  501    0 -0.00000000000E+00 -0.00000000000E+00 -0.15263125459E+03  0.15263125459E+03  0.00000000000E+00 0.  1.
          2    1    1    2  501    0 -0.24639648917E+02  0.47595027394E+01  0.54725434070E+00  0.25101088670E+02  0.00000000000E+00 0. -1.
          1    1    1    2  502    0 -0.17051102738E+00  0.24993249865E+02 -0.81561691910E+02  0.85305340982E+02  0.00000000000E+00 0.  1.
         22    1    1    2    0    0 -0.41121845557E+01  0.99338691830E+01 -0.47975433207E+02  0.49165374098E+02  0.00000000000E+00 0.  1.
         22    1    1    2    0    0  0.28922344500E+02 -0.39686621787E+02  0.63847470118E+02  0.80548304766E+02  0.00000000000E+00 0. -1.
</event>
<event>
 6    1  0.8017648E-006  0.3618553E+02  0.7818608E-02  0.1600836E+00
          2   -1    0    0  502    0  0.00000000000E+00  0.00000000000E+00  0.19040721180E+03  0.19040721180E+03  0.00000000000E+00 0. -1.
          1   -1    0    0  501    0 -0.00000000000E+00 -0.00000000000E+00 -0.16283636462E+03  0.16283636462E+03  0.00000000000E+00 0. -1.
          2    1    1    2  501    0 -0.18410075158E+02 -0.37483727676E+02  0.69361405732E+02  0.80962740275E+02  0.00000000000E+00 0. -1.
          1    1    1    2  502    0 -0.36147772829E+02  0.26614414389E+02 -0.10808808988E+03  0.11703855650E+03  0.00000000000E+00 0. -1.
         22    1    1    2    0    0  0.16248696760E+02  0.30860725518E+01 -0.39301487628E+02  0.42639780956E+02  0.00000000000E+00 0.  1.
         22    1    1    2    0    0  0.38309151227E+02  0.77832407355E+01  0.10559901896E+03  0.11260249869E+03  0.00000000000E+00 0. -1.
</event>
<event>
 6    1  0.8017648E-006  0.2891020E+02  0.7818608E-02  0.1626346E+00
          2   -1    0    0  502    0  0.00000000000E+00  0.00000000000E+00  0.44563868061E+02  0.44563868061E+02  0.00000000000E+00 0. -1.
          1   -1    0    0  501    0 -0.00000000000E+00 -0.00000000000E+00 -0.23360400740E+03  0.23360400740E+03  0.00000000000E+00 0. -1.
          2    1    1    2  501    0  0.16415005720E+02 -0.19584215955E+02 -0.18496067658E+02  0.31545181030E+02  0.00000000000E+00 0. -1.
          1    1    1    2  502    0 -0.47276715516E+02 -0.53141603279E+01 -0.34120492111E+02  0.58545163010E+02  0.00000000000E+00 0. -1.
         22    1    1    2    0    0  0.75532886622E+01  0.26835682471E+02 -0.15544824248E+03  0.15792834487E+03  0.00000000000E+00 0. -1.
         22    1    1    2    0    0  0.23308421133E+02 -0.19373061878E+01  0.19024662908E+02  0.30149186552E+02  0.00000000000E+00 0. -1.
</event>
<event>
 6    1  0.8017648E-006  0.5585302E+02  0.7818608E-02  0.1457969E+00
          2   -1    0    0  502    0  0.00000000000E+00  0.00000000000E+00  0.79854860291E+02  0.79854860291E+02  0.00000000000E+00 0. -1.
          1   -1    0    0  501    0 -0.00000000000E+00 -0.00000000000E+00 -0.21442116560E+03  0.21442116560E+03  0.00000000000E+00 0. -1.
          2    1    1    2  501    0 -0.24983940372E+02  0.17409001877E+02 -0.11417174886E+01  0.30472514528E+02  0.00000000000E+00 0. -1.
          1    1    1    2  502    0  0.39610115932E+02 -0.26473799952E+02 -0.13207934697E+03  0.14040932043E+03  0.00000000000E+00 0. -1.
         22    1    1    2    0    0  0.14372222486E+02  0.22261571209E+01 -0.57777494837E+02  0.59579824306E+02  0.00000000000E+00 0. -1.
         22    1    1    2    0    0 -0.28998398047E+02  0.68386409547E+01  0.56432253980E+02  0.63814366632E+02  0.00000000000E+00 0. -1.
</event>
<event>
 6    1  0.8017648E-006  0.8428649E+02  0.7818608E-02  0.1423976E+00
          2   -1    0    0  502    0  0.00000000000E+00  0.00000000000E+00  0.12923637086E+04  0.12923637086E+04  0.00000000000E+00 0. -1.
          1   -1    0    0  501    0 -0.00000000000E+00 -0.00000000000E+00 -0.26743064133E+02  0.26743064133E+02  0.00000000000E+00 0. -1.
          2    1    1    2  501    0  0.17056502128E+02  0.40705565172E+02  0.15395989114E+03  0.16016090465E+03  0.00000000000E+00 0. -1.
          1    1    1    2  502    0 -0.58876115732E+02 -0.53566294802E+02  0.92079930848E+03  0.92423325597E+03  0.00000000000E+00 0. -1.
         22    1    1    2    0    0  0.10790133919E+02 -0.95353564066E+01 -0.17615807846E+02  0.22752289948E+02  0.00000000000E+00 0. -1.
         22    1    1    2    0    0  0.31029479685E+02  0.22396086036E+02  0.20847725274E+03  0.21196032221E+03  0.00000000000E+00 0. -1.
</event>
<event>
 6    1  0.8017648E-006  0.1091978E+03  0.7818608E-02  0.1302492E+00
          2   -1    0    0  502    0  0.00000000000E+00  0.00000000000E+00  0.54569730818E+02  0.54569730818E+02  0.00000000000E+00 0. -1.
          1   -1    0    0  501    0 -0.00000000000E+00 -0.00000000000E+00 -0.24349248396E+03  0.24349248396E+03  0.00000000000E+00 0. -1.
          2    1    1    2  501    0  0.35382883184E+02  0.21924869641E+01  0.92758249440E+01  0.36644185758E+02  0.00000000000E+00 0. -1.
          1    1    1    2  502    0 -0.18177084993E+02  0.20366832113E+02 -0.81091014822E+02  0.85562649293E+02  0.00000000000E+00 0. -1.
         22    1    1    2    0    0 -0.24376733839E+02 -0.72772032244E+02 -0.49457044847E+02  0.91301659977E+02  0.00000000000E+00 0. -1.
         22    1    1    2    0    0  0.71709356487E+01  0.50212713167E+02 -0.67650518422E+02  0.84553719755E+02  0.00000000000E+00 0. -1.
</event>
<event>
 6    1  0.8017648E-006  0.9608274E+02  0.7818608E-02  0.1390365E+00
          2   -1    0    0  502    0  0.00000000000E+00  0.00000000000E+00  0.91035124623E+03  0.91035124623E+03  0.00000000000E+00 0. -1.
          1   -1    0    0  501    0 -0.00000000000E+00 -0.00000000000E+00 -0.11682078864E+03  0.11682078864E+03  0.00000000000E+00 0. -1.
          2    1    1    2  501    0 -0.66054039350E+02 -0.15322843942E+03  0.54943205651E+03  0.57421048012E+03  0.00000000000E+00 0. -1.
          1    1    1    2  502    0  0.71737188326E+02  0.82468090351E+02  0.28324934715E+03  0.30360731673E+03  0.00000000000E+00 0. -1.
         22    1    1    2    0    0  0.60213909153E+01  0.68899967848E+02 -0.80621867205E+02  0.10622310572E+03  0.00000000000E+00 0. -1.
         22    1    1    2    0    0 -0.11704539891E+02  0.18603812244E+01  0.41470921136E+02  0.43131132285E+02  0.00000000000E+00 0.  1.
</event>
<event>
 6    1  0.8017648E-006  0.6118426E+02  0.7818608E-02  0.1482687E+00
          2   -1    0    0  502    0  0.00000000000E+00  0.00000000000E+00  0.26314447415E+03  0.26314447415E+03  0.00000000000E+00 0. -1.
          1   -1    0    0  501    0 -0.00000000000E+00 -0.00000000000E+00 -0.58178316230E+02  0.58178316230E+02  0.00000000000E+00 0. -1.
          2    1    1    2  501    0 -0.17156452937E+02  0.11572841411E+02  0.97983621865E+02  0.10014521801E+03  0.00000000000E+00 0. -1.
          1    1    1    2  502    0  0.53626327642E+02  0.14100000838E+02  0.72217853948E+01  0.55917324903E+02  0.00000000000E+00 0. -1.
         22    1    1    2    0    0  0.20773945025E+01 -0.15772007622E+02 -0.27583329805E+02  0.31841982908E+02  0.00000000000E+00 0. -1.
         22    1    1    2    0    0 -0.38547269208E+02 -0.99008346268E+01  0.12734408047E+03  0.13341826457E+03  0.00000000000E+00 0. -1.
</event>
<event>
 6    1  0.8017648E-006  0.1803723E+03  0.7818608E-02  0.1268064E+00
          2   -1    0    0  502    0  0.00000000000E+00  0.00000000000E+00  0.11357859513E+04  0.11357859513E+04  0.00000000000E+00 0. -1.
          1   -1    0    0  501    0 -0.00000000000E+00 -0.00000000000E+00 -0.71200954941E+02  0.71200954941E+02  0.00000000000E+00 0. -1.
          2    1    1    2  501    0  0.53317960093E+02 -0.12987115455E+02  0.73672303188E+03  0.73876403252E+03  0.00000000000E+00 0. -1.
          1    1    1    2  502    0  0.38572774162E+01  0.91621030530E+02 -0.13872745853E+02  0.92745592359E+02  0.00000000000E+00 0. -1.
         22    1    1    2    0    0  0.13914574259E+02 -0.16461340142E+02  0.65527043482E+00  0.21564333410E+02  0.00000000000E+00 0. -1.
         22    1    1    2    0    0 -0.71089811768E+02 -0.62172574933E+02  0.34107943993E+03  0.35391294799E+03  0.00000000000E+00 0. -1.
</event>
<event>
 6    1  0.8017648E-006  0.2265181E+02  0.7818608E-02  0.1772090E+00
          2   -1    0    0  502    0  0.00000000000E+00  0.00000000000E+00  0.14116206467E+03  0.14116206467E+03  0.00000000000E+00 0.  1.
          1   -1    0    0  501    0 -0.00000000000E+00 -0.00000000000E+00 -0.63085496160E+02  0.63085496160E+02  0.00000000000E+00 0.  1.
          2    1    1    2  501    0 -0.20991141994E+02 -0.13314407163E+02  0.38568490811E+02  0.45884964463E+02  0.00000000000E+00 0.  1.
          1    1    1    2  502    0  0.12220287025E+02 -0.19492243437E+02 -0.48864255471E+01  0.23519356364E+02  0.00000000000E+00 0.  1.
         22    1    1    2    0    0  0.71596256077E+01  0.77649213367E+01 -0.42813358772E+02  0.44096915216E+02  0.00000000000E+00 0.  1.
         22    1    1    2    0    0  0.16112293620E+01  0.25041729263E+02  0.87207862019E+02  0.90746324788E+02  0.00000000000E+00 0.  1.
</event>
<event>
 6    1  0.8017648E-006  0.1103407E+03  0.7818608E-02  0.1292547E+00
          2   -1    0    0  502    0  0.00000000000E+00  0.00000000000E+00  0.39930280448E+03  0.39930280448E+03  0.00000000000E+00 0. -1.
          1   -1    0    0  501    0 -0.00000000000E+00 -0.00000000000E+00 -0.16413755765E+03  0.16413755765E+03  0.00000000000E+00 0. -1.
          2    1    1    2  501    0  0.66914063608E+02  0.22634970766E+02  0.26793088142E+03  0.27708625197E+03  0.00000000000E+00 0. -1.
          1    1    1    2  502    0 -0.49098917700E+02 -0.61120154285E+02 -0.10616304718E+03  0.13197336688E+03  0.00000000000E+00 0. -1.
         22    1    1    2    0    0 -0.54079267949E+02  0.23831927937E+02 -0.12134156053E+02  0.60330471191E+02  0.00000000000E+00 0.  1.
         22    1    1    2    0    0  0.36264122041E+02  0.14653255583E+02  0.85531568636E+02  0.94050272089E+02  0.00000000000E+00 0.  1.
</event>
<event>
 6    1  0.8017648E-006  0.1534803E+03  0.7818608E-02  0.1221050E+00
          2   -1    0    0  502    0  0.00000000000E+00  0.00000000000E+00  0.67107434682E+03  0.67107434682E+03  0.00000000000E+00 0. -1.
          1   -1    0    0  501    0 -0.00000000000E+00 -0.00000000000E+00 -0.72106849549E+03  0.72106849549E+03  0.00000000000E+00 0.  1.
          2    1    1    2  501    0  0.42233767544E+03 -0.22748148350E+03  0.35811695372E+03  0.59863569053E+03  0.00000000000E+00 0. -1.
          1    1    1    2  502    0 -0.46760306289E+03  0.26526175121E+03 -0.31204608301E+03  0.62160210665E+03  0.00000000000E+00 0.  1.
         22    1    1    2    0    0  0.46067454065E+02 -0.10036475233E+02 -0.12391774155E+03  0.13258411606E+03  0.00000000000E+00 0.  1.
         22    1    1    2    0    0 -0.80206661318E+00 -0.27743792473E+02  0.27852722163E+02  0.39320929078E+02  0.00000000000E+00 0. -1.
</event>
<event>
 6    1  0.8017648E-006  0.3063897E+03  0.7818608E-02  0.1083954E+00
          2   -1    0    0  502    0  0.00000000000E+00  0.00000000000E+00  0.39891498814E+03  0.39891498814E+03  0.00000000000E+00 0. -1.
          1   -1    0    0  501    0 -0.00000000000E+00 -0.00000000000E+00 -0.26686720537E+03  0.26686720537E+03  0.00000000000E+00 0.  1.
          2    1    1    2  501    0  0.70617635557E+02  0.23317071823E+03  0.12182153841E+03  0.27238928303E+03  0.00000000000E+00 0. -1.
          1    1    1    2  502    0 -0.92926933345E+02 -0.23805155938E+03 -0.43507152779E+02  0.25922351785E+03  0.00000000000E+00 0.  1.
         22    1    1    2    0    0 -0.18793693850E+02 -0.25082725247E+02 -0.25233912232E+02  0.40237996482E+02  0.00000000000E+00 0.  1.
         22    1    1    2    0    0  0.41102991639E+02  0.29963566395E+02  0.78967309367E+02  0.93931396143E+02  0.00000000000E+00 0.  1.
</event>
<event>
 6    1  0.8017648E-006  0.6273137E+02  0.7818608E-02  0.1450631E+00
          2   -1    0    0  502    0  0.00000000000E+00  0.00000000000E+00  0.68210655290E+02  0.68210655290E+02  0.00000000000E+00 0. -1.
          1   -1    0    0  501    0 -0.00000000000E+00 -0.00000000000E+00 -0.47815867961E+03  0.47815867961E+03  0.00000000000E+00 0. -1.
          2    1    1    2  501    0 -0.14527528035E+02  0.56430074720E+02 -0.17585588295E+02  0.60865879763E+02  0.00000000000E+00 0. -1.
          1    1    1    2  502    0 -0.28018314498E+02 -0.81810064018E+02 -0.31998920280E+03  0.33146795084E+03  0.00000000000E+00 0. -1.
         22    1    1    2    0    0  0.29446659081E+02  0.37328820605E+02  0.25922999987E+02  0.54153010139E+02  0.00000000000E+00 0. -1.
         22    1    1    2    0    0  0.13099183451E+02 -0.11948831307E+02 -0.98296233215E+02  0.99882494166E+02  0.00000000000E+00 0. -1.
</event>
<event>
 6    1  0.8017648E-006  0.6426249E+02  0.7818608E-02  0.1488427E+00
          2   -1    0    0  502    0  0.00000000000E+00  0.00000000000E+00  0.24536810629E+03  0.24536810629E+03  0.00000000000E+00 0.  1.
          1   -1    0    0  501    0 -0.00000000000E+00 -0.00000000000E+00 -0.47373832896E+02  0.47373832896E+02  0.00000000000E+00 0.  1.
          2    1    1    2  501    0 -0.24614774547E+02 -0.44983860560E+01  0.80594822580E+02  0.84389857387E+02  0.00000000000E+00 0.  1.
          1    1    1    2  502    0 -0.20310517216E+02  0.28255778653E+02  0.92471935851E+01  0.36005787397E+02  0.00000000000E+00 0.  1.
         22    1    1    2    0    0  0.33769885111E+02 -0.17753602520E+02  0.13626805252E+03  0.14150822478E+03  0.00000000000E+00 0.  1.
         22    1    1    2    0    0  0.11155406653E+02 -0.60037900771E+01 -0.28115795294E+02  0.30838069620E+02  0.00000000000E+00 0.  1.
</event>
<event>
 6    1  0.8017648E-006  0.6376393E+02  0.7818608E-02  0.1421090E+00
          2   -1    0    0  502    0  0.00000000000E+00  0.00000000000E+00  0.20306692696E+03  0.20306692696E+03  0.00000000000E+00 0.  1.
          1   -1    0    0  501    0 -0.00000000000E+00 -0.00000000000E+00 -0.88996513703E+02  0.88996513703E+02  0.00000000000E+00 0.  1.
          2    1    1    2  501    0 -0.29158502728E+02 -0.19933182272E+02  0.34712787445E+02  0.49523001212E+02  0.00000000000E+00 0.  1.
          1    1    1    2  502    0  0.46197506934E+02  0.33587937721E+02 -0.40935800204E+02  0.70271608389E+02  0.00000000000E+00 0.  1.
         22    1    1    2    0    0  0.14290711050E+02  0.14081722830E+01 -0.21733759915E+02  0.26049255105E+02  0.00000000000E+00 0.  1.
         22    1    1    2    0    0 -0.31329715256E+02 -0.15062927732E+02  0.14202718593E+03  0.14621957596E+03  0.00000000000E+00 0.  1.
</event>
<event>
 6    1  0.8017648E-006  0.7191844E+02  0.7818608E-02  0.1406081E+00
          2   -1    0    0  502    0  0.00000000000E+00  0.00000000000E+00  0.11370317163E+03  0.11370317163E+03  0.00000000000E+00 0.  1.
          1   -1    0    0  501    0 -0.00000000000E+00 -0.00000000000E+00 -0.27267288367E+03  0.27267288367E+03  0.00000000000E+00 0. -1.
          2    1    1    2  501    0  0.53819321429E+02  0.46456217881E+02 -0.25122922761E+02  0.75404646985E+02  0.00000000000E+00 0.  1.
          1    1    1    2  502    0 -0.23492130987E+02 -0.12208850232E+03 -0.97948894901E+02  0.15827655742E+03  0.00000000000E+00 0. -1.
         22    1    1    2    0    0 -0.23570808314E+02  0.51145953003E+02 -0.82342033230E+02  0.99758217454E+02  0.00000000000E+00 0. -1.
         22    1    1    2    0    0 -0.67563821282E+01  0.24486331436E+02  0.46444138852E+02  0.52936633444E+02  0.00000000000E+00 0.  1.
</event>
<event>
 6    1  0.8017648E-006  0.7921612E+02  0.7818608E-02  0.1343609E+00
          2   -1    0    0  502    0  0.00000000000E+00  0.00000000000E+00  0.60830680226E+02  0.60830680226E+02  0.00000000000E+00 0.  1.
          1   -1    0    0  501    0 -0.00000000000E+00 -0.00000000000E+00 -0.18542568442E+04  0.18542568442E+04  0.00000000000E+00 0.  1.
          2    1    1    2  501    0 -0.35120631003E+02  0.15545850365E+03 -0.13475102910E+03  0.20870707923E+03  0.00000000000E+00 0.  1.
          1    1    1    2  502    0  0.42676675251E+02 -0.15298083957E+03 -0.14846420497E+04  0.14931130070E+04  0.00000000000E+00 0.  1.
         22    1    1    2    0    0  0.30457183326E+02 -0.10833070335E-01 -0.17247377614E+03  0.17514235236E+03  0.00000000000E+00 0.  1.
         22    1    1    2    0    0 -0.38013227574E+02 -0.24668310122E+01 -0.15593090292E+01  0.38125085843E+02  0.00000000000E+00 0.  1.
</event>
<event>
 6    1  0.8017648E-006  0.5825421E+02  0.7818608E-02  0.1450976E+00
          2   -1    0    0  502    0  0.00000000000E+00  0.00000000000E+00  0.76347856251E+03  0.76347856251E+03  0.00000000000E+00 0. -1.
          1   -1    0    0  501    0 -0.00000000000E+00 -0.00000000000E+00 -0.26449138022E+02  0.26449138022E+02  0.00000000000E+00 0. -1.
          2    1    1    2  501    0 -0.16220536231E+02 -0.52648815807E+02  0.39975357180E+03  0.40353181011E+03  0.00000000000E+00 0. -1.
          1    1    1    2  502    0 -0.98083771512E+01 -0.35325016982E+02  0.75197683185E+02  0.83658547940E+02  0.00000000000E+00 0. -1.
         22    1    1    2    0    0  0.80817341810E+01  0.65079820084E+02  0.26546991285E+03  0.27345012715E+03  0.00000000000E+00 0. -1.
         22    1    1    2    0    0  0.17947179201E+02  0.22894012706E+02 -0.33917433489E+01  0.29287215333E+02  0.00000000000E+00 0. -1.
</event>
<event>
 6    1  0.8017648E-006  0.1349596E+03  0.7818608E-02  0.1250433E+00
          2   -1    0    0  502    0  0.00000000000E+00  0.00000000000E+00  0.21341682773E+03  0.21341682773E+03  0.00000000000E+00 0. -1.
          1   -1    0    0  501    0 -0.00000000000E+00 -0.00000000000E+00 -0.23161697757E+03  0.23161697757E+03  0.00000000000E+00 0.  1.
          2    1    1    2  501    0 -0.99577613786E+02  0.53743284555E+02  0.74912319812E+02  0.13570518583E+03  0.00000000000E+00 0. -1.
          1    1    1    2  502    0  0.11029035645E+03  0.11915497343E+02  0.35093855662E+02  0.11635085091E+03  0.00000000000E+00 0.  1.
         22    1    1    2    0    0 -0.41778527495E+02  0.17833448190E+00  0.40859648698E+01  0.41978235691E+02  0.00000000000E+00 0. -1.
         22    1    1    2    0    0  0.31065784829E+02 -0.65837116380E+02 -0.13229229018E+03  0.15099953286E+03  0.00000000000E+00 0.  1.
</event>
<event>
 6    1  0.8017648E-006  0.9157459E+02  0.7818608E-02  0.1357520E+00
          2   -1    0    0  502    0  0.00000000000E+00  0.00000000000E+00  0.12312601151E+03  0.12312601151E+03  0.00000000000E+00 0. -1.
          1   -1    0    0  501    0 -0.00000000000E+00 -0.00000000000E+00 -0.29275773212E+03  0.29275773212E+03  0.00000000000E+00 0. -1.
          2    1    1    2  501    0  0.47605230728E+02  0.82089985548E-01  0.60263643365E+02  0.76798251563E+02  0.00000000000E+00 0. -1.
          1    1    1    2  502    0 -0.72518720347E+02  0.13721325690E+02 -0.18641513009E+03  0.20049399070E+03  0.00000000000E+00 0. -1.
         22    1    1    2    0    0 -0.17083247854E+02 -0.27823752521E+02 -0.76620686199E+02  0.83287022490E+02  0.00000000000E+00 0. -1.
         22    1    1    2    0    0  0.41996737472E+02  0.14020336846E+02  0.33140452320E+02  0.55304478874E+02  0.00000000000E+00 0. -1.
</event>
<event>
 6    1  0.8017648E-006  0.2404352E+02  0.7818608E-02  0.1698959E+00
          2   -1    0    0  502    0  0.00000000000E+00  0.00000000000E+00  0.14286135655E+03  0.14286135655E+03  0.00000000000E+00 0.  1.
          1   -1    0    0  501    0 -0.00000000000E+00 -0.00000000000E+00 -0.99216248412E+02  0.99216248412E+02  0.00000000000E+00 0.  1.
          2    1    1    2  501    0 -0.27772426688E+02 -0.15671025301E+02  0.47627348189E+02  0.57317126704E+02  0.00000000000E+00 0.  1.
          1    1    1    2  502    0  0.37341592287E+02 -0.14489222960E+02  0.31730850698E+02  0.51099696501E+02  0.00000000000E+00 0.  1.
         22    1    1    2    0    0 -0.40244023997E+00  0.14278414943E+02  0.46905182909E+02  0.49031941377E+02  0.00000000000E+00 0. -1.
         22    1    1    2    0    0 -0.91667253586E+01  0.15881833318E+02 -0.82618273653E+02  0.84628840384E+02  0.00000000000E+00 0.  1.
</event>
<event>
 6    1  0.8017648E-006  0.1518369E+03  0.7818608E-02  0.1304868E+00
          2   -1    0    0  502    0  0.00000000000E+00  0.00000000000E+00  0.12284045743E+04  0.12284045743E+04  0.00000000000E+00 0. -1.
          1   -1    0    0  501    0 -0.00000000000E+00 -0.00000000000E+00 -0.98886327190E+02  0.98886327190E+02  0.00000000000E+00 0. -1.
          2    1    1    2  501    0  0.11531148945E+03 -0.57303446205E+02  0.92356782914E+03  0.93250091666E+03  0.00000000000E+00 0. -1.
          1    1    1    2  502    0 -0.14769275419E+03  0.69888080843E+02  0.20934818182E+03  0.26556384301E+03  0.00000000000E+00 0. -1.
         22    1    1    2    0    0  0.16476031281E+02 -0.74035675468E+01 -0.63925998146E+02  0.66428951957E+02  0.00000000000E+00 0. -1.
         22    1    1    2    0    0  0.15905233463E+02 -0.51810670912E+01  0.60528234305E+02  0.62797189872E+02  0.00000000000E+00 0. -1.
</event>
<event>
 6    1  0.8017648E-006  0.1717462E+03  0.7818608E-02  0.1184484E+00
          2   -1    0    0  502    0  0.00000000000E+00  0.00000000000E+00  0.18654416240E+03  0.18654416240E+03  0.00000000000E+00 0. -1.
          1   -1    0    0  501    0 -0.00000000000E+00 -0.00000000000E+00 -0.41095591923E+03  0.41095591923E+03  0.00000000000E+00 0. -1.
          2    1    1    2  501    0  0.74608100923E+02  0.69656950858E+02 -0.29825880969E+02  0.10633928108E+03  0.00000000000E+00 0. -1.
          1    1    1    2  502    0 -0.18428815629E+03 -0.15663405261E+03 -0.18615291291E+03  0.30520363361E+03  0.00000000000E+00 0. -1.
         22    1    1    2    0    0  0.13240701217E+03  0.51478131348E+02 -0.16579886629E+02  0.14302624765E+03  0.00000000000E+00 0. -1.
         22    1    1    2    0    0 -0.22726956793E+02  0.35498970405E+02  0.81469236704E+01  0.42930919280E+02  0.00000000000E+00 0. -1.
</event>
<event>
 6    1  0.8017648E-006  0.6816265E+02  0.7818608E-02  0.1475757E+00
          2   -1    0    0  502    0  0.00000000000E+00  0.00000000000E+00  0.27463733781E+03  0.27463733781E+03  0.00000000000E+00 0. -1.
          1   -1    0    0  501    0 -0.00000000000E+00 -0.00000000000E+00 -0.67619315730E+02  0.67619315730E+02  0.00000000000E+00 0. -1.
          2    1    1    2  501    0  0.66272922816E+00 -0.30050077964E+02  0.10512578816E+03  0.10933836350E+03  0.00000000000E+00 0. -1.
          1    1    1    2  502    0 -0.13030533281E+02  0.53813289014E+02 -0.17933692585E+02  0.58200362558E+02  0.00000000000E+00 0. -1.
         22    1    1    2    0    0 -0.51365977017E+01  0.11604055031E+02 -0.23147871244E+02  0.26398156607E+02  0.00000000000E+00 0. -1.
         22    1    1    2    0    0  0.17504401754E+02 -0.35367266081E+02  0.14297379774E+03  0.14831977087E+03  0.00000000000E+00 0. -1.
</event>
<event>
 6    1  0.8017648E-006  0.1205013E+03  0.7818608E-02  0.1323296E+00
          2   -1    0    0  502    0  0.00000000000E+00  0.00000000000E+00  0.39037689552E+02  0.39037689552E+02  0.00000000000E+00 0. -1.
          1   -1    0    0  501    0 -0.00000000000E+00 -0.00000000000E+00 -0.48957630818E+03  0.48957630818E+03  0.00000000000E+00 0. -1.
          2    1    1    2  501    0 -0.20022528515E+02  0.17475659504E+02 -0.75810399630E+02  0.80333785017E+02  0.00000000000E+00 0. -1.
          1    1    1    2  502    0  0.60328218394E+02 -0.81357691490E+02 -0.14165306041E+03  0.17413832841E+03  0.00000000000E+00 0. -1.
         22    1    1    2    0    0  0.19993865496E+02 -0.16493893669E+02 -0.12045768803E+03  0.12321468172E+03  0.00000000000E+00 0.  1.
         22    1    1    2    0    0 -0.60299555375E+02  0.80375925655E+02 -0.11261747056E+03  0.15092720258E+03  0.00000000000E+00 0. -1.
</event>
<event>
 6    1  0.8017648E-006  0.3591677E+02  0.7818608E-02  0.1591955E+00
          2   -1    0    0  502    0  0.00000000000E+00  0.00000000000E+00  0.16429046084E+03  0.16429046084E+03  0.00000000000E+00 0.  1.
          1   -1    0    0  501    0 -0.00000000000E+00 -0.00000000000E+00 -0.19472028214E+03  0.19472028214E+03  0.00000000000E+00 0. -1.
          2    1    1    2  501    0  0.33191167885E+02  0.45478398452E+01  0.46807767340E+01  0.33826707549E+02  0.00000000000E+00 0.  1.
          1    1    1    2  502    0 -0.25424892716E+02  0.14403119264E+02 -0.14925102633E+03  0.15208466022E+03  0.00000000000E+00 0. -1.
         22    1    1    2    0    0 -0.22939761521E+02 -0.30101580520E+02  0.13777625509E+03  0.14287978960E+03  0.00000000000E+00 0.  1.
         22    1    1    2    0    0  0.15173486352E+02  0.11150621410E+02 -0.23635826799E+02  0.30219585609E+02  0.00000000000E+00 0.  1.
</event>
<event>
 6    1  0.8017648E-006  0.1596206E+03  0.7818608E-02  0.1272920E+00
          2   -1    0    0  502    0  0.00000000000E+00  0.00000000000E+00  0.69228400884E+03  0.69228400884E+03  0.00000000000E+00 0. -1.
          1   -1    0    0  501    0 -0.00000000000E+00 -0.00000000000E+00 -0.40424635043E+02  0.40424635043E+02  0.00000000000E+00 0. -1.
          2    1    1    2  501    0  0.20412387698E+02 -0.10344080362E+02  0.20135747658E+02  0.30481369782E+02  0.00000000000E+00 0. -1.
          1    1    1    2  502    0  0.11297893068E+03 -0.89560911091E+01  0.17100174831E+03  0.20514884418E+03  0.00000000000E+00 0. -1.
         22    1    1    2    0    0 -0.17830641313E+02  0.21996890295E+02  0.74219432267E+01  0.29272516010E+02  0.00000000000E+00 0. -1.
         22    1    1    2    0    0 -0.11556067706E+03 -0.26967188233E+01  0.45329993461E+03  0.46780591391E+03  0.00000000000E+00 0. -1.
</event>
<event>
 6    1  0.8017648E-006  0.2566139E+03  0.7818608E-02  0.1249168E+00
          2   -1    0    0  502    0  0.00000000000E+00  0.00000000000E+00  0.14162856095E+04  0.14162856095E+04  0.00000000000E+00 0. -1.
          1   -1    0    0  501    0 -0.00000000000E+00 -0.00000000000E+00 -0.69680298002E+02  0.69680298002E+02  0.00000000000E+00 0.  1.
          2    1    1    2  501    0 -0.70429570423E+02  0.35271930537E+02  0.88989905146E+03  0.89337828229E+03  0.00000000000E+00 0. -1.
          1    1    1    2  502    0 -0.80042310196E+02 -0.43825728494E+02 -0.57119357127E+01  0.91433539302E+02  0.00000000000E+00 0.  1.
         22    1    1    2    0    0  0.13961082910E+03  0.85155038737E+01  0.46834231078E+03  0.48878238253E+03  0.00000000000E+00 0. -1.
         22    1    1    2    0    0  0.10861051520E+02  0.38294083566E-01 -0.59241150040E+01  0.12371703405E+02  0.00000000000E+00 0. -1.
</event>
<event>
 6    1  0.8017648E-006  0.6998112E+02  0.7818608E-02  0.1464146E+00
          2   -1    0    0  502    0  0.00000000000E+00  0.00000000000E+00  0.31985537621E+03  0.31985537621E+03  0.00000000000E+00 0.  1.
          1   -1    0    0  501    0 -0.00000000000E+00 -0.00000000000E+00 -0.45084960613E+02  0.45084960613E+02  0.00000000000E+00 0. -1.
          2    1    1    2  501    0  0.18414914211E+02  0.19335416182E+02  0.58479165230E+02  0.64286702749E+02  0.00000000000E+00 0.  1.
          1    1    1    2  502    0 -0.30696916242E+02 -0.65703746386E+02  0.80609881871E+02  0.10843078904E+03  0.00000000000E+00 0. -1.
         22    1    1    2    0    0 -0.60314029431E+01  0.12466294943E+02 -0.24135549563E+02  0.27826445762E+02  0.00000000000E+00 0. -1.
         22    1    1    2    0    0  0.18313404974E+02  0.33902035261E+02  0.15981691806E+03  0.16439639927E+03  0.00000000000E+00 0.  1.
</event>
<event>
 6    1  0.8017648E-006  0.1401724E+03  0.7818608E-02  0.1334140E+00
          2   -1    0    0  502    0  0.00000000000E+00  0.00000000000E+00  0.26304011402E+03  0.26304011402E+03  0.00000000000E+00 0.  1.
          1   -1    0    0  501    0 -0.00000000000E+00 -0.00000000000E+00 -0.92046206274E+02  0.92046206274E+02  0.00000000000E+00 0.  1.
          2    1    1    2  501    0 -0.68871781610E+01 -0.24713205762E+02 -0.88444269029E+00  0.25670177267E+02  0.00000000000E+00 0.  1.
          1    1    1    2  502    0 -0.58704001271E+02 -0.17306800707E+02 -0.40185718787E+02  0.73215962128E+02  0.00000000000E+00 0.  1.
         22    1    1    2    0    0  0.74943415596E+02  0.32143875619E+02  0.22382622684E+03  0.23821822790E+03  0.00000000000E+00 0.  1.
         22    1    1    2    0    0 -0.93522361636E+01  0.98761308491E+01 -0.11762157620E+02  0.17981953000E+02  0.00000000000E+00 0.  1.
</event>
<event>
 6    1  0.8017648E-006  0.5498256E+02  0.7818608E-02  0.1428566E+00
          2   -1    0    0  502    0  0.00000000000E+00  0.00000000000E+00  0.26452710224E+03  0.26452710224E+03  0.00000000000E+00 0. -1.
          1   -1    0    0  501    0 -0.00000000000E+00 -0.00000000000E+00 -0.18393435143E+03  0.18393435143E+03  0.00000000000E+00 0. -1.
          2    1    1    2  501    0 -0.87368359429E+02 -0.27793356817E+00  0.19378046070E+03  0.21256569438E+03  0.00000000000E+00 0. -1.
          1    1    1    2  502    0  0.79099312701E+02  0.61800644785E+00 -0.21845169846E+02  0.82062748231E+02  0.00000000000E+00 0. -1.
         22    1    1    2    0    0  0.20425713489E+02  0.25274173497E+02 -0.11336608895E+03  0.11793160620E+03  0.00000000000E+00 0. -1.
         22    1    1    2    0    0 -0.12156666761E+02 -0.25614246377E+02  0.22023548903E+02  0.35901404854E+02  0.00000000000E+00 0.  1.
</event>
<event>
 6    1  0.8017648E-006  0.2918462E+02  0.7818608E-02  0.1664846E+00
          2   -1    0    0  502    0  0.00000000000E+00  0.00000000000E+00  0.10193732347E+03  0.10193732347E+03  0.00000000000E+00 0. -1.
          1   -1    0    0  501    0 -0.00000000000E+00 -0.00000000000E+00 -0.38550249292E+03  0.38550249292E+03  0.00000000000E+00 0. -1.
          2    1    1    2  501    0  0.35644596436E+02 -0.22316881902E+02  0.47688705816E+02  0.63582962619E+02  0.00000000000E+00 0. -1.
          1    1    1    2  502    0 -0.28164436704E+02  0.90155896426E+01 -0.29180970692E+03  0.29330431535E+03  0.00000000000E+00 0. -1.
         22    1    1    2    0    0 -0.22974109211E+01 -0.14107108322E+02 -0.80034969487E+02  0.81301198902E+02  0.00000000000E+00 0. -1.
         22    1    1    2    0    0 -0.51827488113E+01  0.27408400582E+02  0.40590801140E+02  0.49251339523E+02  0.00000000000E+00 0. -1.
</event>
<event>
 6    1  0.8017648E-006  0.4193424E+02  0.7818608E-02  0.1541339E+00
          2   -1    0    0  502    0  0.00000000000E+00  0.00000000000E+00  0.25088447971E+03  0.25088447971E+03  0.00000000000E+00 0.  1.
          1   -1    0    0  501    0 -0.00000000000E+00 -0.00000000000E+00 -0.67347586244E+02  0.67347586244E+02  0.00000000000E+00 0.  1.
          2    1    1    2  501    0 -0.15775454789E+01  0.48682628726E+02  0.10790726116E+03  0.11839114832E+03  0.00000000000E+00 0.  1.
          1    1    1    2  502    0 -0.35143190302E+02 -0.27312699563E+02 -0.19774385236E+01  0.44552639036E+02  0.00000000000E+00 0.  1.
         22    1    1    2    0    0  0.19583349337E+02 -0.28895888238E+02 -0.30023558396E+02  0.46042306492E+02  0.00000000000E+00 0. -1.
         22    1    1    2    0    0  0.17137386443E+02  0.75259590752E+01  0.10763062923E+03  0.10924597211E+03  0.00000000000E+00 0.  1.
</event>
<event>
 6    1  0.8017648E-006  0.6816145E+02  0.7818608E-02  0.1387598E+00
          2   -1    0    0  502    0  0.00000000000E+00  0.00000000000E+00  0.12819510017E+03  0.12819510017E+03  0.00000000000E+00 0. -1.
          1   -1    0    0  501    0 -0.00000000000E+00 -0.00000000000E+00 -0.18657554639E+03  0.18657554639E+03  0.00000000000E+00 0. -1.
          2    1    1    2  501    0 -0.55975409301E+02 -0.84157594126E-01 -0.61340254874E+02  0.83041437830E+02  0.00000000000E+00 0. -1.
          1    1    1    2  502    0  0.69140591387E+01  0.35061707093E+02 -0.65635048582E+02  0.74733440443E+02  0.00000000000E+00 0. -1.
         22    1    1    2    0    0 -0.74160360291E+01  0.94223487287E+01 -0.31547792111E+02  0.33749687895E+02  0.00000000000E+00 0. -1.
         22    1    1    2    0    0  0.56477386191E+02 -0.44399898227E+02  0.10014264935E+03  0.12324608040E+03  0.00000000000E+00 0. -1.
</event>
<event>
 6    1  0.8017648E-006  0.9530397E+02  0.7818608E-02  0.1297775E+00
          2   -1    0    0  502    0  0.00000000000E+00  0.00000000000E+00  0.11122754701E+04  0.11122754701E+04  0.00000000000E+00 0. -1.
          1   -1    0    0  501    0 -0.00000000000E+00 -0.00000000000E+00 -0.57636904089E+02  0.57636904089E+02  0.00000000000E+00 0. -1.
          2    1    1    2  501    0  0.42880288457E+02  0.10723657055E+02  0.11332826130E+03  0.12164296432E+03  0.00000000000E+00 0. -1.
          1    1    1    2  502    0 -0.67081174359E+02 -0.10022373691E+03  0.86518658386E+03  0.87355166206E+03  0.00000000000E+00 0. -1.
         22    1    1    2    0    0  0.37695468381E+02 -0.50621836244E+01  0.69179458837E+02  0.78945370761E+02  0.00000000000E+00 0. -1.
         22    1    1    2    0    0 -0.13494582478E+02  0.94562263483E+02  0.69442620154E+01  0.95772377053E+02  0.00000000000E+00 0. -1.
</event>
<event>
 6    1  0.8017648E-006  0.3400426E+02  0.7818608E-02  0.1605221E+00
          2   -1    0    0  502    0  0.00000000000E+00  0.00000000000E+00  0.35476550169E+03  0.35476550169E+03  0.00000000000E+00 0.  1.
          1   -1    0    0  501    0 -0.00000000000E+00 -0.00000000000E+00 -0.25488281364E+03  0.25488281364E+03  0.00000000000E+00 0. -1.
          2    1    1    2  501    0 -0.18487219914E+02 -0.44266567631E+02  0.28656369111E+03  0.29055129559E+03  0.00000000000E+00 0.  1.
          1    1    1    2  502    0 -0.63959700707E+01  0.55707152586E+02 -0.18538831170E+03  0.19368278550E+03  0.00000000000E+00 0. -1.
         22    1    1    2    0    0  0.14108548843E+02 -0.13963399085E+02  0.59964972725E+02  0.63165066440E+02  0.00000000000E+00 0. -1.
         22    1    1    2    0    0  0.10774641142E+02  0.25228141296E+01 -0.61257664085E+02  0.62249167802E+02  0.00000000000E+00 0.  1.
</event>
<event>
 6    1  0.8017648E-006  0.4047417E+02  0.7818608E-02  0.1611544E+00
          2   -1    0    0  502    0  0.00000000000E+00  0.00000000000E+00  0.10797132804E+03  0.10797132804E+03  0.00000000000E+00 0. -1.
          1   -1    0    0  501    0 -0.00000000000E+00 -0.00000000000E+00 -0.14453951433E+03  0.14453951433E+03  0.00000000000E+00 0. -1.
          2    1    1    2  501    0  0.40644070682E+02 -0.14577105828E+02  0.54133382386E+01  0.43517085459E+02  0.00000000000E+00 0. -1.
          1    1    1    2  502    0  0.89792829023E+01  0.27714185996E+02 -0.68627333025E+02  0.74554774931E+02  0.00000000000E+00 0. -1.
         22    1    1    2    0    0 -0.39350215517E+02 -0.14762427806E+02  0.74462283870E+02  0.85504388513E+02  0.00000000000E+00 0. -1.
         22    1    1    2    0    0 -0.10273138068E+02  0.16253476368E+01 -0.47816475369E+02  0.48934593463E+02  0.00000000000E+00 0. -1.
</event>
<event>
 6    1  0.8017648E-006  0.4044202E+02  0.7818608E-02  0.1530362E+00
          2   -1    0    0  502    0  0.00000000000E+00  0.00000000000E+00  0.43343476435E+03  0.43343476435E+03  0.00000000000E+00 0. -1.
          1   -1    0    0  501    0 -0.00000000000E+00 -0.00000000000E+00 -0.35983902992E+03  0.35983902992E+03  0.00000000000E+00 0. -1.
          2    1    1    2  501    0  0.59205280177E+02 -0.16479428401E+02  0.39483522416E+03  0.39958940301E+03  0.00000000000E+00 0. -1.
          1    1    1    2  502    0 -0.66162618077E+02  0.69677809100E+01 -0.23187619331E+03  0.24123144701E+03  0.00000000000E+00 0. -1.
         22    1    1    2    0    0  0.95885853364E+01 -0.12416277859E+02  0.28503209093E+02  0.32535178703E+02  0.00000000000E+00 0. -1.
         22    1    1    2    0    0 -0.26312474362E+01  0.21927925350E+02 -0.11786650552E+03  0.11991776555E+03  0.00000000000E+00 0. -1.
</event>
<event>
 6    1  0.8017648E-006  0.1438171E+03  0.7818608E-02  0.1311353E+00
          2   -1    0    0  502    0  0.00000000000E+00  0.00000000000E+00  0.49317068344E+02  0.49317068344E+02  0.00000000000E+00 0. -1.
          1   -1    0    0  501    0 -0.00000000000E+00 -0.00000000000E+00 -0.12184582365E+04  0.12184582365E+04  0.00000000000E+00 0. -1.
          2    1    1    2  501    0 -0.11204588853E+02 -0.25094561512E+02 -0.41187570774E+02  0.49514602039E+02  0.00000000000E+00 0. -1.
          1    1    1    2  502    0  0.88103750380E+02  0.99457832956E+02 -0.10076853265E+04  0.10164073241E+04  0.00000000000E+00 0. -1.
         22    1    1    2    0    0 -0.13844899634E+02  0.12851076849E+02 -0.87264927365E+02  0.89286051374E+02  0.00000000000E+00 0. -1.
         22    1    1    2    0    0 -0.63054261892E+02 -0.87214348292E+02 -0.33003343556E+02  0.11256732731E+03  0.00000000000E+00 0. -1.
</event>
<event>
 6    1  0.8017648E-006  0.4099428E+02  0.7818608E-02  0.1605651E+00
          2   -1    0    0  502    0  0.00000000000E+00  0.00000000000E+00  0.17971213032E+03  0.17971213032E+03  0.00000000000E+00 0. -1.
          1   -1    0    0  501    0 -0.00000000000E+00 -0.00000000000E+00 -0.67770838039E+02  0.67770838039E+02  0.00000000000E+00 0. -1.
          2    1    1    2  501    0  0.35776655464E+01  0.24834500278E+02  0.44768197332E+02  0.51320011566E+02  0.00000000000E+00 0. -1.
          1    1    1    2  502    0 -0.63760132754E+01 -0.33752226002E+02  0.64719556073E+02  0.73269961400E+02  0.00000000000E+00 0. -1.
         22    1    1    2    0    0  0.65527506450E+01  0.18977093238E+02  0.60560889468E+02  0.63801958763E+02  0.00000000000E+00 0. -1.
         22    1    1    2    0    0 -0.37544029160E+01 -0.10059367514E+02 -0.58107350596E+02  0.59091036625E+02  0.00000000000E+00 0. -1.
</event>
<event>
 6    1  0.8017648E-006  0.1056988E+03  0.7818608E-02  0.1314817E+00
          2   -1    0    0  502    0  0.00000000000E+00  0.00000000000E+00  0.16139764287E+03  0.16139764287E+03  0.00000000000E+00 0. -1.
          1   -1    0    0  501    0 -0.00000000000E+00 -0.00000000000E+00 -0.28850135067E+03  0.28850135067E+03  0.00000000000E+00 0.  1.
          2    1    1    2  501    0  0.19266676213E+02  0.22541099036E+02 -0.21628813245E+02  0.36703017865E+02  0.00000000000E+00 0. -1.
          1    1    1    2  502    0 -0.10705398036E+03  0.56806481269E+01 -0.20401950540E+03  0.23047078569E+03  0.00000000000E+00 0.  1.
         22    1    1    2    0    0  0.87276618327E+02 -0.41040979776E+02  0.12228453973E+03  0.15574042116E+03  0.00000000000E+00 0. -1.
         22    1    1    2    0    0  0.51068581539E+00  0.12819232613E+02 -0.23739928876E+02  0.26984768812E+02  0.00000000000E+00 0.  1.
</event>
<event>
 6    1  0.8017648E-006  0.6375530E+02  0.7818608E-02  0.1385823E+00
          2   -1    0    0  502    0  0.00000000000E+00  0.00000000000E+00  0.72940908910E+02  0.72940908910E+02  0.00000000000E+00 0. -1.
          1   -1    0    0  501    0 -0.00000000000E+00 -0.00000000000E+00 -0.34559981236E+03  0.34559981236E+03  0.00000000000E+00 0. -1.
          2    1    1    2  501    0  0.74722599934E+02  0.35732342512E+02 -0.29771236887E+02  0.88014736198E+02  0.00000000000E+00 0. -1.
          1    1    1    2  502    0 -0.45043482506E+02 -0.12160805438E+02  0.90353279289E+01  0.47523022378E+02  0.00000000000E+00 0. -1.
         22    1    1    2    0    0 -0.47941275930E+02 -0.44455937703E+02 -0.24612469734E+03  0.25466068204E+03  0.00000000000E+00 0. -1.
         22    1    1    2    0    0  0.18262158502E+02  0.20884400629E+02 -0.57982971507E+01  0.28342280654E+02  0.00000000000E+00 0. -1.
</event>
<event>
 6    1  0.8017648E-006  0.2098533E+03  0.7818608E-02  0.1189519E+00
          2   -1    0    0  502    0  0.00000000000E+00  0.00000000000E+00  0.11222627095E+03  0.11222627095E+03  0.00000000000E+00 0. -1.
          1   -1    0    0  501    0 -0.00000000000E+00 -0.00000000000E+00 -0.97713820540E+03  0.97713820540E+03  0.00000000000E+00 0. -1.
          2    1    1    2  501    0  0.16429896088E+03 -0.46738756211E+02 -0.25170216547E+03  0.30419178158E+03  0.00000000000E+00 0. -1.
          1    1    1    2  502    0 -0.20869291808E+03  0.85360602315E+02 -0.60863927556E+03  0.64906157970E+03  0.00000000000E+00 0. -1.
         22    1    1    2    0    0 -0.58756285360E+01  0.95651335096E+01 -0.51128012851E+02  0.52345854543E+02  0.00000000000E+00 0. -1.
         22    1    1    2    0    0  0.50269585740E+02 -0.48186979614E+02  0.46557519431E+02  0.83765260522E+02  0.00000000000E+00 0. -1.
</event>
<event>
 6    1  0.8017648E-006  0.9490069E+02  0.7818608E-02  0.1415573E+00
          2   -1    0    0  502    0  0.00000000000E+00  0.00000000000E+00  0.12158616992E+04  0.12158616992E+04  0.00000000000E+00 0. -1.
          1   -1    0    0  501    0 -0.00000000000E+00 -0.00000000000E+00 -0.54838997773E+02  0.54838997773E+02  0.00000000000E+00 0. -1.
          2    1    1    2  501    0  0.75099029208E+02  0.10050173640E+02  0.33029697201E+03  0.33887602437E+03  0.00000000000E+00 0. -1.
          1    1    1    2  502    0 -0.83796841749E+02  0.13709158002E+02  0.79115712693E+03  0.79570060399E+03  0.00000000000E+00 0. -1.
         22    1    1    2    0    0  0.62411055501E+01 -0.96361064226E+01 -0.46997289041E+02  0.48379242684E+02  0.00000000000E+00 0. -1.
         22    1    1    2    0    0  0.24567069913E+01 -0.14123225220E+02  0.86565891527E+02  0.87744825920E+02  0.00000000000E+00 0.  1.
</event>
<event>
 6    1  0.8017648E-006  0.2767200E+02  0.7818608E-02  0.1672168E+00
          2   -1    0    0  502    0  0.00000000000E+00  0.00000000000E+00  0.14119845130E+03  0.14119845130E+03  0.00000000000E+00 0. -1.
          1   -1    0    0  501    0 -0.00000000000E+00 -0.00000000000E+00 -0.13109122761E+03  0.13109122761E+03  0.00000000000E+00 0.  1.
          2    1    1    2  501    0  0.26401789642E+02 -0.11063917834E+02  0.49243370478E+02  0.56959409321E+02  0.00000000000E+00 0. -1.
          1    1    1    2  502    0 -0.19359508497E+02  0.20698207633E+02  0.53465932705E+02  0.60512910428E+02  0.00000000000E+00 0.  1.
         22    1    1    2    0    0 -0.19969157449E+02 -0.19667921052E+02 -0.11982242323E+03  0.12305692779E+03  0.00000000000E+00 0.  1.
         22    1    1    2    0    0  0.12926876305E+02  0.10033631253E+02  0.27220343745E+02  0.31760431368E+02  0.00000000000E+00 0.  1.
</event>
<event>
 6    1  0.8017648E-006  0.8344385E+02  0.7818608E-02  0.1396083E+00
          2   -1    0    0  502    0  0.00000000000E+00  0.00000000000E+00  0.39932964786E+03  0.39932964786E+03  0.00000000000E+00 0.  1.
          1   -1    0    0  501    0 -0.00000000000E+00 -0.00000000000E+00 -0.63246398526E+02  0.63246398526E+02  0.00000000000E+00 0.  1.
          2    1    1    2  501    0 -0.29109883416E+02  0.44267947989E+02  0.22706319314E+03  0.23316245455E+03  0.00000000000E+00 0.  1.
          1    1    1    2  502    0  0.34602354557E+02 -0.56670721105E+02  0.80750619710E+02  0.10454451757E+03  0.00000000000E+00 0.  1.
         22    1    1    2    0    0 -0.28279597987E+02  0.15004341104E+02  0.70155658677E+02  0.77114735029E+02  0.00000000000E+00 0.  1.
         22    1    1    2    0    0  0.22787126846E+02 -0.26015679886E+01 -0.41886222194E+02  0.47754339232E+02  0.00000000000E+00 0.  1.
</event>
<event>
 6    1  0.8017648E-006  0.1912691E+03  0.7818608E-02  0.1188958E+00
          2   -1    0    0  502    0  0.00000000000E+00  0.00000000000E+00  0.83117210208E+02  0.83117210208E+02  0.00000000000E+00 0. -1.
          1   -1    0    0  501    0 -0.00000000000E+00 -0.00000000000E+00 -0.56326337413E+03  0.56326337413E+03  0.00000000000E+00 0. -1.
          2    1    1    2  501    0 -0.41538807846E+02  0.14082161828E+03 -0.11705204026E+03  0.18776948863E+03  0.00000000000E+00 0. -1.
          1    1    1    2  502    0 -0.19083612198E+02 -0.11062747711E+03 -0.64969297933E+02  0.12970594674E+03  0.00000000000E+00 0. -1.
         22    1    1    2    0    0  0.90730761309E+02 -0.20948562516E+02 -0.14321416012E+03  0.17082508299E+03  0.00000000000E+00 0.  1.
         22    1    1    2    0    0 -0.30108341265E+02 -0.92455786586E+01 -0.15491066561E+03  0.15808006598E+03  0.00000000000E+00 0. -1.
</event>
<event>
 6    1  0.8017648E-006  0.1277707E+03  0.7818608E-02  0.1235756E+00
          2   -1    0    0  502    0  0.00000000000E+00  0.00000000000E+00  0.28985330027E+03  0.28985330027E+03  0.00000000000E+00 0. -1.
          1   -1    0    0  501    0 -0.00000000000E+00 -0.00000000000E+00 -0.97726240756E+02  0.97726240756E+02  0.00000000000E+00 0. -1.
          2    1    1    2  501    0  0.52003956275E+02  0.14448894440E+02  0.56765958557E+02  0.78329790436E+02  0.00000000000E+00 0. -1.
          1    1    1    2  502    0 -0.80493568594E+02 -0.52716378922E+02 -0.26098030087E+02  0.99696230451E+02  0.00000000000E+00 0. -1.
         22    1    1    2    0    0 -0.15609401504E+02 -0.78695348349E+01 -0.14287562752E+02  0.22576922802E+02  0.00000000000E+00 0. -1.
         22    1    1    2    0    0  0.44099013823E+02  0.46137019317E+02  0.17574669380E+03  0.18697659734E+03  0.00000000000E+00 0. -1.
</event>
<event>
 6    1  0.8017648E-006  0.3618400E+02  0.7818608E-02  0.1618622E+00
          2   -1    0    0  502    0  0.00000000000E+00  0.00000000000E+00  0.26369770294E+03  0.26369770294E+03  0.00000000000E+00 0. -1.
          1   -1    0    0  501    0 -0.00000000000E+00 -0.00000000000E+00 -0.46246851942E+02  0.46246851942E+02  0.00000000000E+00 0. -1.
          2    1    1    2  501    0  0.35185631949E+02 -0.11363620681E+02  0.58333827008E+02  0.69065157236E+02  0.00000000000E+00 0. -1.
          1    1    1    2  502    0 -0.52377165483E+02  0.20113823101E+02  0.49063758267E+02  0.74533118269E+02  0.00000000000E+00 0. -1.
         22    1    1    2    0    0 -0.64308041914E+01  0.82796533336E+01 -0.25567953030E+02  0.27633822103E+02  0.00000000000E+00 0. -1.
         22    1    1    2    0    0  0.23622337725E+02 -0.17029855754E+02  0.13562121875E+03  0.13871245727E+03  0.00000000000E+00 0. -1.
</event>
<event>
 6    1  0.8017648E-006  0.8600424E+02  0.7818608E-02  0.1313745E+00
          2   -1    0    0  502    0  0.00000000000E+00  0.00000000000E+00  0.32537672476E+03  0.32537672476E+03  0.00000000000E+00 0.  1.
          1   -1    0    0  501    0 -0.00000000000E+00 -0.00000000000E+00 -0.24447417727E+03  0.24447417727E+03  0.00000000000E+00 0. -1.
          2    1    1    2  501    0 -0.56635507067E+02 -0.46444782865E+02  0.26177400139E+03  0.27182775120E+03  0.00000000000E+00 0.  1.
          1    1    1    2  502    0  0.39710379271E+02  0.41851369282E+02 -0.16194525521E+03  0.17191485398E+03  0.00000000000E+00 0. -1.
         22    1    1    2    0    0 -0.11029356344E+02  0.11682945290E+01  0.50228603854E+02  0.51438548371E+02  0.00000000000E+00 0.  1.
         22    1    1    2    0    0  0.27954484140E+02  0.34251190535E+01 -0.69154802545E+02  0.74669748487E+02  0.00000000000E+00 0.  1.
</event>
<event>
 6    1  0.8017648E-006  0.5190584E+02  0.7818608E-02  0.1449715E+00
          2   -1    0    0  502    0  0.00000000000E+00  0.00000000000E+00  0.32246443156E+03  0.32246443156E+03  0.00000000000E+00 0. -1.
          1   -1    0    0  501    0 -0.00000000000E+00 -0.00000000000E+00 -0.74536851999E+02  0.74536851999E+02  0.00000000000E+00 0.  1.
          2    1    1    2  501    0 -0.10484421555E+02  0.25355452991E+02  0.17198281312E+03  0.17415771617E+03  0.00000000000E+00 0. -1.
          1    1    1    2  502    0  0.49408966598E+02  0.24109209227E+01  0.77540733189E+02  0.91976213357E+02  0.00000000000E+00 0.  1.
         22    1    1    2    0    0 -0.35455488683E+02 -0.40790457138E+02 -0.54213498174E+02  0.76551005582E+02  0.00000000000E+00 0.  1.
         22    1    1    2    0    0 -0.34690563603E+01  0.13024083224E+02  0.52617531426E+02  0.54316348453E+02  0.00000000000E+00 0. -1.
</event>
<event>
 6    1  0.8017648E-006  0.5733874E+02  0.7818608E-02  0.1528106E+00
          2   -1    0    0  502    0  0.00000000000E+00  0.00000000000E+00  0.14708607649E+03  0.14708607649E+03  0.00000000000E+00 0.  1.
          1   -1    0    0  501    0 -0.00000000000E+00 -0.00000000000E+00 -0.94839653641E+02  0.94839653641E+02  0.00000000000E+00 0. -1.
          2    1    1    2  501    0 -0.16950662500E+02  0.11297650648E+02  0.34174015970E+02  0.39784736230E+02  0.00000000000E+00 0.  1.
          1    1    1    2  502    0  0.34197044355E+02  0.94836529671E+01 -0.43682098986E+02  0.56280576472E+02  0.00000000000E+00 0. -1.
         22    1    1    2    0    0  0.95642543798E+01  0.40862944413E+01 -0.38113993928E+02  0.39507585313E+02  0.00000000000E+00 0. -1.
         22    1    1    2    0    0 -0.26810636234E+02 -0.24867598056E+02  0.99868499797E+02  0.10635283212E+03  0.00000000000E+00 0.  1.
</event>
<event>
 6    1  0.8017648E-006  0.8710764E+02  0.7818608E-02  0.1312910E+00
          2   -1    0    0  502    0  0.00000000000E+00  0.00000000000E+00  0.72228738055E+02  0.72228738055E+02  0.00000000000E+00 0. -1.
          1   -1    0    0  501    0 -0.00000000000E+00 -0.00000000000E+00 -0.65120379207E+03  0.65120379207E+03  0.00000000000E+00 0.  1.
          2    1    1    2  501    0  0.37697260833E+02  0.66879951692E+02  0.13874674939E+02  0.78016139466E+02  0.00000000000E+00 0. -1.
          1    1    1    2  502    0 -0.62757844886E+02  0.46205650568E+02 -0.26245484252E+03  0.27378103221E+03  0.00000000000E+00 0.  1.
         22    1    1    2    0    0  0.11062858855E+02  0.40949139228E+01  0.73277874480E+01  0.13887103189E+02  0.00000000000E+00 0.  1.
         22    1    1    2    0    0  0.13997725198E+02 -0.11718051618E+03 -0.33772267389E+03  0.35774825526E+03  0.00000000000E+00 0.  1.
</event>
<event>
 6    1  0.8017648E-006  0.1017970E+03  0.7818608E-02  0.1350124E+00
          2   -1    0    0  502    0  0.00000000000E+00  0.00000000000E+00  0.32780188896E+04  0.32780188896E+04  0.00000000000E+00 0. -1.
          1   -1    0    0  501    0 -0.00000000000E+00 -0.00000000000E+00 -0.28045024876E+03  0.28045024876E+03  0.00000000000E+00 0.  1.
          2    1    1    2  501    0  0.41368239437E+02 -0.23409642425E+03  0.30503944940E+04  0.30596436126E+04  0.00000000000E+00 0. -1.
          1    1    1    2  502    0 -0.57103900012E+02  0.25974690558E+03 -0.17953011596E+03  0.32087438803E+03  0.00000000000E+00 0.  1.
         22    1    1    2    0    0 -0.96279085122E+01  0.32041908380E+01 -0.22073088281E+02  0.24293717038E+02  0.00000000000E+00 0. -1.
         22    1    1    2    0    0  0.25363569087E+02 -0.28854672173E+02  0.14877735106E+03  0.15365742069E+03  0.00000000000E+00 0. -1.
</event>
<event>
 6    1  0.8017648E-006  0.4179338E+02  0.7818608E-02  0.1506359E+00
          2   -1    0    0  502    0  0.00000000000E+00  0.00000000000E+00  0.13103457340E+03  0.13103457340E+03  0.00000000000E+00 0. -1.
          1   -1    0    0  501    0 -0.00000000000E+00 -0.00000000000E+00 -0.16058955953E+03  0.16058955953E+03  0.00000000000E+00 0. -1.
          2    1    1    2  501    0 -0.38027892541E+02  0.69355748736E+02  0.45954205947E+01  0.79230413253E+02  0.00000000000E+00 0. -1.
          1    1    1    2  502    0  0.21883613047E+02 -0.81757233376E+02 -0.91165726270E+00  0.84640231854E+02  0.00000000000E+00 0. -1.
         22    1    1    2    0    0  0.86481077591E-01  0.22106515472E+02  0.43478116906E+02  0.48775528239E+02  0.00000000000E+00 0. -1.
         22    1    1    2    0    0  0.16057798416E+02 -0.97050308319E+01 -0.76716866372E+02  0.78977959580E+02  0.00000000000E+00 0. -1.
</event>
<event>
 6    1  0.8017648E-006  0.5179713E+02  0.7818608E-02  0.1453913E+00
          2   -1    0    0  502    0  0.00000000000E+00  0.00000000000E+00  0.25428881859E+03  0.25428881859E+03  0.00000000000E+00 0. -1.
          1   -1    0    0  501    0 -0.00000000000E+00 -0.00000000000E+00 -0.71485863073E+02  0.71485863073E+02  0.00000000000E+00 0.  1.
          2    1    1    2  501    0  0.16986879239E+02 -0.15637879106E+02  0.12590148530E+03  0.12800109894E+03  0.00000000000E+00 0. -1.
          1    1    1    2  502    0 -0.30164913864E+02 -0.34349722669E+02 -0.86553326062E+01  0.46526769266E+02  0.00000000000E+00 0.  1.
         22    1    1    2    0    0  0.75703429151E+01  0.65509019306E+02 -0.16146884568E+02  0.67893030449E+02  0.00000000000E+00 0.  1.
         22    1    1    2    0    0  0.56076917097E+01 -0.15521417531E+02  0.81703687385E+02  0.83353783003E+02  0.00000000000E+00 0.  1.
</event>
<event>
 6    1  0.8017648E-006  0.9328941E+02  0.7818608E-02  0.1417751E+00
          2   -1    0    0  502    0  0.00000000000E+00  0.00000000000E+00  0.28415844062E+03  0.28415844062E+03  0.00000000000E+00 0.  1.
          1   -1    0    0  501    0 -0.00000000000E+00 -0.00000000000E+00 -0.22082102954E+03  0.22082102954E+03  0.00000000000E+00 0.  1.
          2    1    1    2  501    0  0.16567999679E+02 -0.40017422224E+02  0.90995919590E+02  0.10077772609E+03  0.00000000000E+00 0.  1.
          1    1    1    2  502    0 -0.39888109164E+02  0.79397171995E+02 -0.18168749459E+03  0.20225063131E+03  0.00000000000E+00 0.  1.
         22    1    1    2    0    0  0.33130405440E+02 -0.33029993303E+02  0.17325070424E+03  0.17945587408E+03  0.00000000000E+00 0.  1.
         22    1    1    2    0    0 -0.98102959553E+01 -0.63497564683E+01 -0.19221718169E+02  0.22495238681E+02  0.00000000000E+00 0.  1.
</event>
<event>
 6    1  0.8017648E-006  0.3748980E+02  0.7818608E-02  0.1539591E+00
          2   -1    0    0  502    0  0.00000000000E+00  0.00000000000E+00  0.13046762806E+03  0.13046762806E+03  0.00000000000E+00 0. -1.
          1   -1    0    0  501    0 -0.00000000000E+00 -0.00000000000E+00 -0.13039513959E+03  0.13039513959E+03  0.00000000000E+00 0.  1.
          2    1    1    2  501    0 -0.25239866247E+02 -0.28411611068E+02  0.22856296603E+02  0.44347274844E+02  0.00000000000E+00 0. -1.
          1    1    1    2  502    0  0.54285463863E+02  0.61827902921E+02 -0.43377912140E+01  0.82391853961E+02  0.00000000000E+00 0.  1.
         22    1    1    2    0    0 -0.18270024652E+02 -0.11256867569E+02  0.53730283798E+02  0.57857188536E+02  0.00000000000E+00 0. -1.
         22    1    1    2    0    0 -0.10775572964E+02 -0.22159424283E+02 -0.72176300717E+02  0.76266450308E+02  0.00000000000E+00 0.  1.
</event>
<event>
 6    1  0.8017648E-006  0.1538020E+03  0.7818608E-02  0.1231666E+00
          2   -1    0    0  502    0  0.00000000000E+00  0.00000000000E+00  0.24904449531E+03  0.24904449531E+03  0.00000000000E+00 0.  1.
          1   -1    0    0  501    0 -0.00000000000E+00 -0.00000000000E+00 -0.14940812008E+04  0.14940812008E+04  0.00000000000E+00 0.  1.
          2    1    1    2  501    0  0.35006394736E+03 -0.15891418251E+01 -0.11409226484E+04  0.11934202036E+04  0.00000000000E+00 0.  1.
          1    1    1    2  502    0 -0.38479356580E+03 -0.18246701402E+02 -0.97141608968E+01  0.38534840770E+03  0.00000000000E+00 0.  1.
         22    1    1    2    0    0  0.67568923878E+02  0.26373128213E+02 -0.95750336470E+01  0.73162713421E+02  0.00000000000E+00 0.  1.
         22    1    1    2    0    0 -0.32839305432E+02 -0.65372849859E+01 -0.84824862539E+02  0.91194371433E+02  0.00000000000E+00 0. -1.
</event>
<event>
 6    1  0.8017648E-006  0.7458949E+02  0.7818608E-02  0.1368116E+00
          2   -1    0    0  502    0  0.00000000000E+00  0.00000000000E+00  0.88102497785E+03  0.88102497785E+03  0.00000000000E+00 0.  1.
          1   -1    0    0  501    0 -0.00000000000E+00 -0.00000000000E+00 -0.18930041912E+02  0.18930041912E+02  0.00000000000E+00 0. -1.
          2    1    1    2  501    0  0.84473360738E+02 -0.86239143218E+01  0.32128115281E+03  0.33231265357E+03  0.00000000000E+00 0.  1.
          1    1    1    2  502    0 -0.26713095807E+02  0.20424284279E+02  0.16259686405E+03  0.16603758935E+03  0.00000000000E+00 0. -1.
         22    1    1    2    0    0  0.27917303864E+02  0.17533446057E+02  0.18875302809E+03  0.19161028991E+03  0.00000000000E+00 0.  1.
         22    1    1    2    0    0 -0.85677568795E+02 -0.29333816013E+02  0.18946389098E+03  0.20999448693E+03  0.00000000000E+00 0. -1.
</event>
<event>
 6    1  0.8017648E-006  0.3473470E+03  0.7818608E-02  0.1205394E+00
          2   -1    0    0  502    0  0.00000000000E+00  0.00000000000E+00  0.20163860009E+03  0.20163860009E+03  0.00000000000E+00 0.  1.
          1   -1    0    0  501    0 -0.00000000000E+00 -0.00000000000E+00 -0.41385403817E+03  0.41385403817E+03  0.00000000000E+00 0.  1.
          2    1    1    2  501    0 -0.58633046205E+02  0.10585930869E+02 -0.77440537837E+02  0.97708407725E+02  0.00000000000E+00 0.  1.
          1    1    1    2  502    0 -0.17911198970E+03 -0.69155544028E+02 -0.14834686252E+03  0.24263220261E+03  0.00000000000E+00 0.  1.
         22    1    1    2    0    0  0.24513685922E+03  0.66527804597E+02  0.29671584839E+02  0.25573117033E+03  0.00000000000E+00 0.  1.
         22    1    1    2    0    0 -0.73918233183E+01 -0.79581914387E+01 -0.16099622566E+02  0.19420857595E+02  0.00000000000E+00 0.  1.
</event>
<event>
 6    1  0.8017648E-006  0.9562571E+02  0.7818608E-02  0.1360617E+00
          2   -1    0    0  502    0  0.00000000000E+00  0.00000000000E+00  0.13315328840E+03  0.13315328840E+03  0.00000000000E+00 0.  1.
          1   -1    0    0  501    0 -0.00000000000E+00 -0.00000000000E+00 -0.90724528983E+02  0.90724528983E+02  0.00000000000E+00 0.  1.
          2    1    1    2  501    0 -0.32744570597E+01 -0.30232978178E+02 -0.21710207688E+02  0.37364263092E+02  0.00000000000E+00 0.  1.
          1    1    1    2  502    0  0.22967564012E+02  0.29508333046E+02  0.39226940714E+02  0.54194128774E+02  0.00000000000E+00 0.  1.
         22    1    1    2    0    0  0.12349498336E+02  0.24254473710E+02 -0.44596310412E+02  0.52245770226E+02  0.00000000000E+00 0.  1.
         22    1    1    2    0    0 -0.32042605289E+02 -0.23529828578E+02  0.69508336802E+02  0.80073655290E+02  0.00000000000E+00 0.  1.
</event>
<event>
 6    1  0.8017648E-006  0.8928374E+02  0.7818608E-02  0.1307204E+00
          2   -1    0    0  502    0  0.00000000000E+00  0.00000000000E+00  0.11382348523E+04  0.11382348523E+04  0.00000000000E+00 0. -1.
          1   -1    0    0  501    0 -0.00000000000E+00 -0.00000000000E+00 -0.15991343543E+02  0.15991343543E+02  0.00000000000E+00 0. -1.
          2    1    1    2  501    0  0.10699025130E+01 -0.72138683368E+02  0.47372471561E+03  0.47918706213E+03  0.00000000000E+00 0. -1.
          1    1    1    2  502    0  0.32643985656E+02  0.47098400243E+02  0.17519387787E+03  0.18432792503E+03  0.00000000000E+00 0. -1.
         22    1    1    2    0    0  0.34915805181E+02 -0.25327473084E+02  0.19214437895E+03  0.19692652616E+03  0.00000000000E+00 0. -1.
         22    1    1    2    0    0 -0.68629693350E+02  0.50367756209E+02  0.28118053637E+03  0.29378468256E+03  0.00000000000E+00 0. -1.
</event>
<event>
 6    1  0.8017648E-006  0.1491329E+03  0.7818608E-02  0.1307784E+00
          2   -1    0    0  502    0  0.00000000000E+00  0.00000000000E+00  0.10244844324E+04  0.10244844324E+04  0.00000000000E+00 0. -1.
          1   -1    0    0  501    0 -0.00000000000E+00 -0.00000000000E+00 -0.74634808774E+02  0.74634808774E+02  0.00000000000E+00 0. -1.
          2    1    1    2  501    0 -0.21792543201E+02  0.96829161776E+02  0.66479850442E+03  0.67216653665E+03  0.00000000000E+00 0. -1.
          1    1    1    2  502    0  0.62071793639E+02 -0.14313636162E+03  0.73645884758E+02  0.17252432270E+03  0.00000000000E+00 0. -1.
         22    1    1    2    0    0 -0.17296612778E+02  0.52483740640E+01 -0.14812185254E+02  0.23369190741E+02  0.00000000000E+00 0. -1.
         22    1    1    2    0    0 -0.22982637660E+02  0.41058825775E+02  0.22621741974E+03  0.23105919112E+03  0.00000000000E+00 0. -1.
</event>
<event>
 6    1  0.8017648E-006  0.7707251E+02  0.7818608E-02  0.1338047E+00
          2   -1    0    0  502    0  0.00000000000E+00  0.00000000000E+00  0.26658078899E+03  0.26658078899E+03  0.00000000000E+00 0. -1.
          1   -1    0    0  501    0 -0.00000000000E+00 -0.00000000000E+00 -0.10796585346E+03  0.10796585346E+03  0.00000000000E+00 0. -1.
          2    1    1    2  501    0 -0.41886398770E+02 -0.36585593842E+02  0.16838345500E+03  0.17733009895E+03  0.00000000000E+00 0. -1.
          1    1    1    2  502    0  0.33169897977E+02  0.39396142834E+02 -0.45378719139E+02  0.68640559094E+02  0.00000000000E+00 0. -1.
         22    1    1    2    0    0  0.12564987331E+02  0.18025872103E+02 -0.42391388512E+02  0.47747678390E+02  0.00000000000E+00 0. -1.
         22    1    1    2    0    0 -0.38484865378E+01 -0.20836421096E+02  0.78001588191E+02  0.80828306014E+02  0.00000000000E+00 0. -1.
</event>
<event>
 6    1  0.8017648E-006  0.7040774E+02  0.7818608E-02  0.1388932E+00
          2   -1    0    0  502    0  0.00000000000E+00  0.00000000000E+00  0.39963774211E+03  0.39963774211E+03  0.00000000000E+00 0. -1.
          1   -1    0    0  501    0 -0.00000000000E+00 -0.00000000000E+00 -0.49858399370E+02  0.49858399370E+02  0.00000000000E+00 0.  1.
          2    1    1    2  501    0  0.10655635045E+02  0.66150693620E+02  0.21533239278E+03  0.22551606640E+03  0.00000000000E+00 0. -1.
          1    1    1    2  502    0 -0.25103161030E+02 -0.42198054106E+02  0.67650474396E+02  0.83590855661E+02  0.00000000000E+00 0.  1.
         22    1    1    2    0    0  0.94840922344E+01 -0.41746543337E+02 -0.23078921511E+02  0.48634951467E+02  0.00000000000E+00 0.  1.
         22    1    1    2    0    0  0.49634337513E+01  0.17793903822E+02  0.89875397076E+02  0.91754267952E+02  0.00000000000E+00 0. -1.
</event>
<event>
 6    1  0.8017648E-006  0.2445206E+02  0.7818608E-02  0.1711105E+00
          2   -1    0    0  502    0  0.00000000000E+00  0.00000000000E+00  0.12605868169E+03  0.12605868169E+03  0.00000000000E+00 0.  1.
          1   -1    0    0  501    0 -0.00000000000E+00 -0.00000000000E+00 -0.18655604684E+03  0.18655604684E+03  0.00000000000E+00 0.  1.
          2    1    1    2  501    0  0.22079094104E+02 -0.12255243639E+02  0.62782576828E+02  0.67670742174E+02  0.00000000000E+00 0.  1.
          1    1    1    2  502    0 -0.31506033192E+02  0.82964229538E+01 -0.11781087568E+03  0.12223282370E+03  0.00000000000E+00 0.  1.
         22    1    1    2    0    0  0.10792218570E+02  0.16020341769E+02 -0.61975323152E+02  0.64915822508E+02  0.00000000000E+00 0.  1.
         22    1    1    2    0    0 -0.13652794828E+01 -0.12061521084E+02  0.56506256858E+02  0.57795340150E+02  0.00000000000E+00 0.  1.
</event>
<event>
 6    1  0.8017648E-006  0.3882824E+02  0.7818608E-02  0.1517795E+00
          2   -1    0    0  502    0  0.00000000000E+00  0.00000000000E+00  0.24112966955E+03  0.24112966955E+03  0.00000000000E+00 0. -1.
          1   -1    0    0  501    0 -0.00000000000E+00 -0.00000000000E+00 -0.17227288267E+03  0.17227288267E+03  0.00000000000E+00 0.  1.
          2    1    1    2  501    0  0.22658894811E+02  0.35904968996E+01  0.14177354005E+03  0.14361773512E+03  0.00000000000E+00 0. -1.
          1    1    1    2  502    0 -0.22667634487E+02 -0.12425273693E+02 -0.12648982467E+03  0.12910416270E+03  0.00000000000E+00 0.  1.
         22    1    1    2    0    0 -0.12015161440E+02 -0.15436251142E+01 -0.42043456935E+02  0.43753847305E+02  0.00000000000E+00 0.  1.
         22    1    1    2    0    0  0.12023901116E+02  0.10378401907E+02  0.95616528433E+02  0.96926807096E+02  0.00000000000E+00 0. -1.
</event>
<event>
 6    1  0.8017648E-006  0.3022695E+02  0.7818608E-02  0.1630105E+00
          2   -1    0    0  502    0  0.00000000000E+00  0.00000000000E+00  0.23270162938E+03  0.23270162938E+03  0.00000000000E+00 0. -1.
          1   -1    0    0  501    0 -0.00000000000E+00 -0.00000000000E+00 -0.64306049821E+02  0.64306049821E+02  0.00000000000E+00 0. -1.
          2    1    1    2  501    0  0.39233300941E+02  0.29917679857E+02  0.85373056454E+02  0.98604656275E+02  0.00000000000E+00 0. -1.
          1    1    1    2  502    0 -0.51226223947E+02 -0.22387652111E+02  0.44433038148E+02  0.71411678779E+02  0.00000000000E+00 0. -1.
         22    1    1    2    0    0 -0.49126583427E+01 -0.10047621049E+02 -0.42588971510E+02  0.44033048895E+02  0.00000000000E+00 0. -1.
         22    1    1    2    0    0  0.16905581349E+02  0.25175933025E+01  0.81178456463E+02  0.82958295248E+02  0.00000000000E+00 0. -1.
</event>
<event>
 6    1  0.8017648E-006  0.8150787E+02  0.7818608E-02  0.1325140E+00
          2   -1    0    0  502    0  0.00000000000E+00  0.00000000000E+00  0.78799518578E+02  0.78799518578E+02  0.00000000000E+00 0. -1.
          1   -1    0    0  501    0 -0.00000000000E+00 -0.00000000000E+00 -0.34262418558E+03  0.34262418558E+03  0.00000000000E+00 0. -1.
          2    1    1    2  501    0 -0.20832583446E+02  0.12371518425E+02  0.24078945081E+02  0.34159136368E+02  0.00000000000E+00 0. -1.
          1    1    1    2  502    0  0.42245110935E+02 -0.44726610081E+02 -0.23331732373E+03  0.24129254568E+03  0.00000000000E+00 0. -1.
         22    1    1    2    0    0  0.19197565321E+02 -0.53933661512E+01 -0.81809355620E+02  0.84204546075E+02  0.00000000000E+00 0. -1.
         22    1    1    2    0    0 -0.40610092809E+02  0.37748457808E+02  0.27223067265E+02  0.61767476039E+02  0.00000000000E+00 0. -1.
</event>
<event>
 6    1  0.8017648E-006  0.1483376E+03  0.7818608E-02  0.1205044E+00
          2   -1    0    0  502    0  0.00000000000E+00  0.00000000000E+00  0.49904680635E+03  0.49904680635E+03  0.00000000000E+00 0. -1.
          1   -1    0    0  501    0 -0.00000000000E+00 -0.00000000000E+00 -0.20997687528E+03  0.20997687528E+03  0.00000000000E+00 0. -1.
          2    1    1    2  501    0 -0.11277031077E+02 -0.63051589039E+02  0.17330307915E+03  0.18476101199E+03  0.00000000000E+00 0. -1.
          1    1    1    2  502    0 -0.23452265406E+02  0.12605121344E+03 -0.16474661632E+03  0.20875910700E+03  0.00000000000E+00 0. -1.
         22    1    1    2    0    0  0.42354463200E+02 -0.71685174340E+02  0.28926274351E+03  0.30100764036E+03  0.00000000000E+00 0. -1.
         22    1    1    2    0    0 -0.76251667163E+01  0.86855499361E+01 -0.87492752648E+01  0.14495922282E+02  0.00000000000E+00 0. -1.
</event>
<event>
 6    1  0.8017648E-006  0.2162106E+03  0.7818608E-02  0.1263657E+00
          2   -1    0    0  502    0  0.00000000000E+00  0.00000000000E+00  0.19956225887E+04  0.19956225887E+04  0.00000000000E+00 0. -1.
          1   -1    0    0  501    0 -0.00000000000E+00 -0.00000000000E+00 -0.55525934565E+02  0.55525934565E+02  0.00000000000E+00 0. -1.
          2    1    1    2  501    0  0.17387509155E+03 -0.41648367019E+02  0.14383341704E+04  0.14494041257E+04  0.00000000000E+00 0. -1.
          1    1    1    2  502    0 -0.20258147853E+03  0.35978784254E+02  0.30180530417E+03  0.36526725830E+03  0.00000000000E+00 0. -1.
         22    1    1    2    0    0  0.30575313143E+02  0.19176715147E+02  0.21393020276E+03  0.21695328490E+03  0.00000000000E+00 0. -1.
         22    1    1    2    0    0 -0.18689261547E+01 -0.13507132381E+02 -0.13973023205E+02  0.19523854323E+02  0.00000000000E+00 0. -1.
</event>
<event>
 6    1  0.8017648E-006  0.3287784E+02  0.7818608E-02  0.1601974E+00
          2   -1    0    0  502    0  0.00000000000E+00  0.00000000000E+00  0.27811745127E+03  0.27811745127E+03  0.00000000000E+00 0.  1.
          1   -1    0    0  501    0 -0.00000000000E+00 -0.00000000000E+00 -0.77970444153E+02  0.77970444153E+02  0.00000000000E+00 0. -1.
          2    1    1    2  501    0 -0.11047654646E+02  0.23926692002E+02  0.17128197013E+03  0.17329757804E+03  0.00000000000E+00 0.  1.
          1    1    1    2  502    0 -0.33568952982E+02  0.19674308227E+01 -0.17869107330E+02  0.38079527113E+02  0.00000000000E+00 0. -1.
         22    1    1    2    0    0  0.21434493397E+02  0.36953281109E+01  0.86969857074E+02  0.89648474591E+02  0.00000000000E+00 0.  1.
         22    1    1    2    0    0  0.23182114231E+02 -0.29589450936E+02 -0.40235712756E+02  0.55062315678E+02  0.00000000000E+00 0. -1.
</event>
<event>
 6    1  0.8017648E-006  0.1326104E+03  0.7818608E-02  0.1243264E+00
          2   -1    0    0  502    0  0.00000000000E+00  0.00000000000E+00  0.22644808015E+03  0.22644808015E+03  0.00000000000E+00 0.  1.
          1   -1    0    0  501    0 -0.00000000000E+00 -0.00000000000E+00 -0.21916202105E+03  0.21916202105E+03  0.00000000000E+00 0. -1.
          2    1    1    2  501    0 -0.16351151827E+03  0.34301408955E+02  0.72145019986E+02  0.18198216168E+03  0.00000000000E+00 0.  1.
          1    1    1    2  502    0  0.48205685093E+02 -0.35761579598E+02 -0.70318185723E+02  0.92451749005E+02  0.00000000000E+00 0. -1.
         22    1    1    2    0    0  0.11055019126E+03  0.29502129424E+02  0.44590107143E+02  0.12280064366E+03  0.00000000000E+00 0. -1.
         22    1    1    2    0    0  0.47556419097E+01 -0.28041958781E+02 -0.39130882308E+02  0.48375546844E+02  0.00000000000E+00 0.  1.
</event>
<event>
 6    1  0.8017648E-006  0.1199388E+03  0.7818608E-02  0.1379889E+00
          2   -1    0    0  502    0  0.00000000000E+00  0.00000000000E+00  0.26574914358E+03  0.26574914358E+03  0.00000000000E+00 0. -1.
          1   -1    0    0  501    0 -0.00000000000E+00 -0.00000000000E+00 -0.13459148266E+03  0.13459148266E+03  0.00000000000E+00 0. -1.
          2    1    1    2  501    0  0.59898474411E+02 -0.44830708563E+02  0.11719986821E+03  0.13904470063E+03  0.00000000000E+00 0. -1.
          1    1    1    2  502    0 -0.10766749618E+03  0.40809645937E+02 -0.35389178976E+02  0.12045792180E+03  0.00000000000E+00 0. -1.
         22    1    1    2    0    0  0.34514638897E+01  0.94142003128E+01 -0.39850026467E+02  0.41092144991E+02  0.00000000000E+00 0.  1.
         22    1    1    2    0    0  0.44317557880E+02 -0.53931376870E+01  0.89196998159E+02  0.99745858817E+02  0.00000000000E+00 0.  1.
</event>
<event>
 6    1  0.8017648E-006  0.7706940E+02  0.7818608E-02  0.1384444E+00
          2   -1    0    0  502    0  0.00000000000E+00  0.00000000000E+00  0.12967566528E+04  0.12967566528E+04  0.00000000000E+00 0. -1.
          1   -1    0    0  501    0 -0.00000000000E+00 -0.00000000000E+00 -0.34915489621E+02  0.34915489621E+02  0.00000000000E+00 0.  1.
          2    1    1    2  501    0 -0.26961025015E+02 -0.90002225824E+02  0.82597978277E+03  0.83130614040E+03  0.00000000000E+00 0. -1.
          1    1    1    2  502    0 -0.59303739789E+02  0.69930089554E+02  0.14750626708E+03  0.17368146074E+03  0.00000000000E+00 0.  1.
         22    1    1    2    0    0  0.62426995331E+02  0.12230502646E+01  0.28961459321E+03  0.29626886134E+03  0.00000000000E+00 0.  1.
         22    1    1    2    0    0  0.23837769474E+02  0.18849086005E+02 -0.12594798793E+01  0.30415679941E+02  0.00000000000E+00 0.  1.
</event>
<event>
 6    1  0.8017648E-006  0.5803762E+02  0.7818608E-02  0.1465551E+00
          2   -1    0    0  502    0  0.00000000000E+00  0.00000000000E+00  0.47784563382E+03  0.47784563382E+03  0.00000000000E+00 0. -1.
          1   -1    0    0  501    0 -0.00000000000E+00 -0.00000000000E+00 -0.31353551144E+02  0.31353551144E+02  0.00000000000E+00 0.  1.
          2    1    1    2  501    0 -0.18651931209E+01 -0.25609868732E+02  0.23629449914E+03  0.23768557939E+03  0.00000000000E+00 0. -1.
          1    1    1    2  502    0 -0.18777353683E+02  0.36858993717E+02  0.29607791878E+02  0.50870382042E+02  0.00000000000E+00 0.  1.
         22    1    1    2    0    0  0.10964259119E+02  0.21114228580E+02 -0.10919602524E+02  0.26177535137E+02  0.00000000000E+00 0.  1.
         22    1    1    2    0    0  0.96782876849E+01 -0.32363353565E+02  0.19150939418E+03  0.19446568840E+03  0.00000000000E+00 0. -1.
</event>
<event>
 6    1  0.8017648E-006  0.1216748E+03  0.7818608E-02  0.1241670E+00
          2   -1    0    0  502    0  0.00000000000E+00  0.00000000000E+00  0.45658167754E+02  0.45658167754E+02  0.00000000000E+00 0. -1.
          1   -1    0    0  501    0 -0.00000000000E+00 -0.00000000000E+00 -0.22783092593E+04  0.22783092593E+04  0.00000000000E+00 0. -1.
          2    1    1    2  501    0  0.75063034337E+02 -0.58643100087E+02 -0.48426375893E+02  0.10685778490E+03  0.00000000000E+00 0. -1.
          1    1    1    2  502    0 -0.18408933692E+02  0.14345844613E+03 -0.17148568289E+04  0.17209454257E+04  0.00000000000E+00 0. -1.
         22    1    1    2    0    0 -0.83143233410E+02 -0.84414762298E+02 -0.44380812145E+03  0.45935204149E+03  0.00000000000E+00 0. -1.
         22    1    1    2    0    0  0.26489132764E+02 -0.40058374545E+00 -0.25559765240E+02  0.36812174903E+02  0.00000000000E+00 0. -1.
</event>
<event>
 6    1  0.8017648E-006  0.7380928E+02  0.7818608E-02  0.1354774E+00
          2   -1    0    0  502    0  0.00000000000E+00  0.00000000000E+00  0.12571303249E+03  0.12571303249E+03  0.00000000000E+00 0.  1.
          1   -1    0    0  501    0 -0.00000000000E+00 -0.00000000000E+00 -0.28204649137E+03  0.28204649137E+03  0.00000000000E+00 0. -1.
          2    1    1    2  501    0  0.46835309743E+02 -0.55111382025E+02  0.83670656390E+02  0.11059651626E+03  0.00000000000E+00 0.  1.
          1    1    1    2  502    0 -0.29917514646E+02 -0.10276965490E+02 -0.56665673437E+02  0.64897397855E+02  0.00000000000E+00 0. -1.
         22    1    1    2    0    0 -0.18751632241E+02  0.76186786764E+02 -0.19856756118E+03  0.21350673652E+03  0.00000000000E+00 0. -1.
         22    1    1    2    0    0  0.18338371447E+01 -0.10798439250E+02  0.15229119345E+02  0.18758873232E+02  0.00000000000E+00 0. -1.
</event>
<event>
 6    1  0.8017648E-006  0.3127071E+02  0.7818608E-02  0.1643355E+00
          2   -1    0    0  502    0  0.00000000000E+00  0.00000000000E+00  0.25124453445E+03  0.25124453445E+03  0.00000000000E+00 0.  1.
          1   -1    0    0  501    0 -0.00000000000E+00 -0.00000000000E+00 -0.62947334678E+02  0.62947334678E+02  0.00000000000E+00 0. -1.
          2    1    1    2  501    0 -0.94509681068E+01  0.25730769101E+02  0.13316136945E+03  0.13595346112E+03  0.00000000000E+00 0.  1.
          1    1    1    2  502    0 -0.26674914078E+02 -0.32552185487E+02  0.36555727107E+01  0.42244041390E+02  0.00000000000E+00 0. -1.
         22    1    1    2    0    0  0.12648184591E+02 -0.41254109044E+01 -0.39352233450E+02  0.41540268007E+02  0.00000000000E+00 0. -1.
         22    1    1    2    0    0  0.23477697594E+02  0.10946827290E+02  0.90832491062E+02  0.94454098612E+02  0.00000000000E+00 0. -1.
</event>
<event>
 6    1  0.8017648E-006  0.7438145E+02  0.7818608E-02  0.1446498E+00
          2   -1    0    0  502    0  0.00000000000E+00  0.00000000000E+00  0.38535526073E+03  0.38535526073E+03  0.00000000000E+00 0.  1.
          1   -1    0    0  501    0 -0.00000000000E+00 -0.00000000000E+00 -0.14084498166E+03  0.14084498166E+03  0.00000000000E+00 0.  1.
          2    1    1    2  501    0  0.54074262661E+02  0.19058136251E+02  0.31090928224E+03  0.31615157792E+03  0.00000000000E+00 0.  1.
          1    1    1    2  502    0 -0.48687304172E+02 -0.36334234464E+02 -0.63373697349E+02  0.87788699143E+02  0.00000000000E+00 0.  1.
         22    1    1    2    0    0 -0.14481250625E+02  0.36309384464E+01 -0.60591546492E+02  0.62403732580E+02  0.00000000000E+00 0.  1.
         22    1    1    2    0    0  0.90942921367E+01  0.13645159767E+02  0.57566240666E+02  0.59856232750E+02  0.00000000000E+00 0. -1.
</event>
<event>
 6    1  0.8017648E-006  0.5495313E+02  0.7818608E-02  0.1488885E+00
          2   -1    0    0  502    0  0.00000000000E+00  0.00000000000E+00  0.76260066922E+02  0.76260066922E+02  0.00000000000E+00 0. -1.
          1   -1    0    0  501    0 -0.00000000000E+00 -0.00000000000E+00 -0.14640194016E+03  0.14640194016E+03  0.00000000000E+00 0. -1.
          2    1    1    2  501    0 -0.17515289208E+02  0.13615574451E+02  0.65210237080E+01  0.23123429112E+02  0.00000000000E+00 0. -1.
          1    1    1    2  502    0  0.48931974259E+02 -0.18641161973E+02 -0.24915982771E+02  0.57988250724E+02  0.00000000000E+00 0. -1.
         22    1    1    2    0    0 -0.11972175484E+02 -0.16182642011E+02 -0.90821218550E+02  0.93025290255E+02  0.00000000000E+00 0. -1.
         22    1    1    2    0    0 -0.19444509566E+02  0.21208229533E+02  0.39074304377E+02  0.48525036988E+02  0.00000000000E+00 0. -1.
</event>
<event>
 6    1  0.8017648E-006  0.9225423E+02  0.7818608E-02  0.1366745E+00
          2   -1    0    0  502    0  0.00000000000E+00  0.00000000000E+00  0.55392285187E+03  0.55392285187E+03  0.00000000000E+00 0. -1.
          1   -1    0    0  501    0 -0.00000000000E+00 -0.00000000000E+00 -0.39688340173E+02  0.39688340173E+02  0.00000000000E+00 0.  1.
          2    1    1    2  501    0  0.94634358021E+01 -0.35946552824E+02  0.26044894668E+03  0.26308813182E+03  0.00000000000E+00 0. -1.
          1    1    1    2  502    0 -0.22614996405E+02  0.10436768474E+02 -0.16261974408E+02  0.29745857026E+02  0.00000000000E+00 0.  1.
         22    1    1    2    0    0  0.33344586002E+02  0.43971874173E+02  0.26768558030E+03  0.27331475818E+03  0.00000000000E+00 0. -1.
         22    1    1    2    0    0 -0.20193025399E+02 -0.18462089823E+02  0.23619591142E+01  0.27462445016E+02  0.00000000000E+00 0. -1.
</event>
<event>
 6    1  0.8017648E-006  0.8830654E+02  0.7818608E-02  0.1433060E+00
          2   -1    0    0  502    0  0.00000000000E+00  0.00000000000E+00  0.25123118461E+03  0.25123118461E+03  0.00000000000E+00 0. -1.
          1   -1    0    0  501    0 -0.00000000000E+00 -0.00000000000E+00 -0.50189158768E+02  0.50189158768E+02  0.00000000000E+00 0. -1.
          2    1    1    2  501    0  0.21730559916E+02  0.19498264539E+02  0.37942843161E+02  0.47875451971E+02  0.00000000000E+00 0. -1.
          1    1    1    2  502    0  0.19931311222E+02 -0.41824742443E+02  0.43071877521E+01  0.46530829714E+02  0.00000000000E+00 0. -1.
         22    1    1    2    0    0  0.79049630750E+01  0.75152085346E+01 -0.18967427665E+02  0.21879902028E+02  0.00000000000E+00 0. -1.
         22    1    1    2    0    0 -0.49566834214E+02  0.14811269370E+02  0.17775942259E+03  0.18513415967E+03  0.00000000000E+00 0. -1.
</event>
<event>
 6    1  0.8017648E-006  0.5957230E+02  0.7818608E-02  0.1464921E+00
          2   -1    0    0  502    0  0.00000000000E+00  0.00000000000E+00  0.18966942048E+03  0.18966942048E+03  0.00000000000E+00 0.  1.
          1   -1    0    0  501    0 -0.00000000000E+00 -0.00000000000E+00 -0.10028063699E+03  0.10028063699E+03  0.00000000000E+00 0. -1.
          2    1    1    2  501    0  0.15759319359E+01  0.25100716831E+02  0.11276288104E+03  0.11553353144E+03  0.00000000000E+00 0.  1.
          1    1    1    2  502    0 -0.14860790725E+02 -0.36847725562E+02 -0.22782048647E+02  0.45799778609E+02  0.00000000000E+00 0. -1.
         22    1    1    2    0    0  0.30264306856E+02 -0.25551472209E+01  0.58268346453E+02  0.65708882544E+02  0.00000000000E+00 0. -1.
         22    1    1    2    0    0 -0.16979448067E+02  0.14302155951E+02 -0.58860395352E+02  0.62907864870E+02  0.00000000000E+00 0. -1.
</event>
<event>
 6    1  0.8017648E-006  0.4693643E+02  0.7818608E-02  0.1465077E+00
          2   -1    0    0  502    0  0.00000000000E+00  0.00000000000E+00  0.21522321438E+03  0.21522321438E+03  0.00000000000E+00 0.  1.
          1   -1    0    0  501    0 -0.00000000000E+00 -0.00000000000E+00 -0.45128337709E+02  0.45128337709E+02  0.00000000000E+00 0.  1.
          2    1    1    2  501    0 -0.38601663052E+01  0.20087416856E+02  0.28807272221E+02  0.35330781659E+02  0.00000000000E+00 0.  1.
          1    1    1    2  502    0 -0.96541267700E+01 -0.32318588090E+02  0.81401924362E+02  0.88113373500E+02  0.00000000000E+00 0.  1.
         22    1    1    2    0    0  0.18055906726E+02  0.59797844846E+02  0.63391508634E+02  0.88995962733E+02  0.00000000000E+00 0.  1.
         22    1    1    2    0    0 -0.45416136505E+01 -0.47566673612E+02 -0.35058285440E+01  0.47911434197E+02  0.00000000000E+00 0.  1.
</event>
<event>
 6    1  0.8017648E-006  0.5399718E+02  0.7818608E-02  0.1540263E+00
          2   -1    0    0  502    0  0.00000000000E+00  0.00000000000E+00  0.30484311483E+03  0.30484311483E+03  0.00000000000E+00 0. -1.
          1   -1    0    0  501    0 -0.00000000000E+00 -0.00000000000E+00 -0.87632379148E+02  0.87632379148E+02  0.00000000000E+00 0. -1.
          2    1    1    2  501    0 -0.31184757669E+02  0.82351126084E+01  0.17047488139E+03  0.17349925468E+03  0.00000000000E+00 0. -1.
          1    1    1    2  502    0  0.42986984043E+02 -0.35148816921E+02 -0.33962295999E+02  0.65090380837E+02  0.00000000000E+00 0. -1.
         22    1    1    2    0    0  0.21181827667E+01  0.10403996087E+02 -0.34801313188E+02  0.36384903908E+02  0.00000000000E+00 0. -1.
         22    1    1    2    0    0 -0.13920409140E+02  0.16509708225E+02  0.11549946348E+03  0.11750095455E+03  0.00000000000E+00 0. -1.
</event>
<event>
 6    1  0.8017648E-006  0.7947462E+02  0.7818608E-02  0.1354227E+00
          2   -1    0    0  502    0  0.00000000000E+00  0.00000000000E+00  0.22880231297E+03  0.22880231297E+03  0.00000000000E+00 0. -1.
          1   -1    0    0  501    0 -0.00000000000E+00 -0.00000000000E+00 -0.19689548498E+03  0.19689548498E+03  0.00000000000E+00 0.  1.
          2    1    1    2  501    0 -0.58233161899E+02 -0.19247520711E+02  0.13141549604E+03  0.14502275959E+03  0.00000000000E+00 0. -1.
          1    1    1    2  502    0  0.73137748165E+02 -0.32520496095E+02 -0.11416717569E+03  0.13943047327E+03  0.00000000000E+00 0.  1.
         22    1    1    2    0    0 -0.16802969903E+02 -0.10067423800E+01  0.65687061780E+02  0.67809611509E+02  0.00000000000E+00 0. -1.
         22    1    1    2    0    0  0.18983836369E+01  0.52774759186E+02 -0.51028554148E+02  0.73434953571E+02  0.00000000000E+00 0.  1.
</event>
<event>
 6    1  0.8017648E-006  0.3626857E+03  0.7818608E-02  0.1194240E+00
          2   -1    0    0  502    0  0.00000000000E+00  0.00000000000E+00  0.11399163177E+03  0.11399163177E+03  0.00000000000E+00 0. -1.
          1   -1    0    0  501    0 -0.00000000000E+00 -0.00000000000E+00 -0.77813873155E+03  0.77813873155E+03  0.00000000000E+00 0. -1.
          2    1    1    2  501    0 -0.65762174419E+02 -0.55152894091E+02 -0.23551642333E+03  0.25066808925E+03  0.00000000000E+00 0. -1.
          1    1    1    2  502    0 -0.86388500181E+02 -0.40490886480E+01 -0.42420251565E+03  0.43292856497E+03  0.00000000000E+00 0. -1.
         22    1    1    2    0    0  0.70362634414E+01  0.99141345409E+01 -0.47748989728E+02  0.49272356215E+02  0.00000000000E+00 0. -1.
         22    1    1    2    0    0  0.14511441116E+03  0.49287848198E+02  0.43320828930E+02  0.15926135289E+03  0.00000000000E+00 0. -1.
</event>
<event>
 6    1  0.8017648E-006  0.4830197E+02  0.7818608E-02  0.1498671E+00
          2   -1    0    0  502    0  0.00000000000E+00  0.00000000000E+00  0.11512335658E+03  0.11512335658E+03  0.00000000000E+00 0.  1.
          1   -1    0    0  501    0 -0.00000000000E+00 -0.00000000000E+00 -0.91672296711E+02  0.91672296711E+02  0.00000000000E+00 0. -1.
          2    1    1    2  501    0 -0.24118370920E+02 -0.25163410306E+01  0.33500632940E+02  0.41356017644E+02  0.00000000000E+00 0.  1.
          1    1    1    2  502    0  0.25725405261E+02  0.50435232971E+01 -0.24979433206E+02  0.36210574234E+02  0.00000000000E+00 0. -1.
         22    1    1    2    0    0 -0.12511350873E+02  0.20946776527E+02  0.66878148300E+02  0.71189803115E+02  0.00000000000E+00 0.  1.
         22    1    1    2    0    0  0.10904316533E+02 -0.23473958793E+02 -0.51948288164E+02  0.58039258297E+02  0.00000000000E+00 0. -1.
</event>
<event>
 6    1  0.8017648E-006  0.3334512E+02  0.7818608E-02  0.1655300E+00
          2   -1    0    0  502    0  0.00000000000E+00  0.00000000000E+00  0.20098955558E+03  0.20098955558E+03  0.00000000000E+00 0.  1.
          1   -1    0    0  501    0 -0.00000000000E+00 -0.00000000000E+00 -0.57638484022E+02  0.57638484022E+02  0.00000000000E+00 0.  1.
          2    1    1    2  501    0 -0.26768329951E+02 -0.22000055842E+02  0.78489198777E+02  0.85796854663E+02  0.00000000000E+00 0.  1.
          1    1    1    2  502    0  0.19579251038E+02 -0.15179473333E+02  0.11111165455E+02  0.27151822768E+02  0.00000000000E+00 0.  1.
         22    1    1    2    0    0  0.10557870478E+02 -0.38241443418E+01 -0.40932016359E+02  0.42444347941E+02  0.00000000000E+00 0.  1.
         22    1    1    2    0    0 -0.33687915648E+01  0.41003673516E+02  0.94682723684E+02  0.10323501423E+03  0.00000000000E+00 0.  1.
</event>
<event>
 6    1  0.8017648E-006  0.1112772E+03  0.7818608E-02  0.1369635E+00
          2   -1    0    0  502    0  0.00000000000E+00  0.00000000000E+00  0.28623262500E+03  0.28623262500E+03  0.00000000000E+00 0. -1.
          1   -1    0    0  501    0 -0.00000000000E+00 -0.00000000000E+00 -0.20714795969E+03  0.20714795969E+03  0.00000000000E+00 0. -1.
          2    1    1    2  501    0 -0.93106700495E+02 -0.94624754940E+02 -0.70351738524E+02  0.15024003807E+03  0.00000000000E+00 0. -1.
          1    1    1    2  502    0  0.15234390854E+03  0.36965620580E+02  0.86213093033E+02  0.17890729718E+03  0.00000000000E+00 0. -1.
         22    1    1    2    0    0 -0.69819677012E+02  0.64291842457E+02  0.92421403221E+02  0.13247620193E+03  0.00000000000E+00 0. -1.
         22    1    1    2    0    0  0.10582468968E+02 -0.66327080974E+01 -0.29198092414E+02  0.31757047514E+02  0.00000000000E+00 0. -1.
</event>
<event>
 6    1  0.8017648E-006  0.2620512E+03  0.7818608E-02  0.1210922E+00
          2   -1    0    0  502    0  0.00000000000E+00  0.00000000000E+00  0.18229894873E+03  0.18229894873E+03  0.00000000000E+00 0. -1.
          1   -1    0    0  501    0 -0.00000000000E+00 -0.00000000000E+00 -0.48771384802E+03  0.48771384802E+03  0.00000000000E+00 0. -1.
          2    1    1    2  501    0 -0.12405734749E+03 -0.15183691917E+03 -0.10715794100E+03  0.22344462358E+03  0.00000000000E+00 0. -1.
          1    1    1    2  502    0  0.17448065930E+03  0.16730868998E+03 -0.47290610236E+02  0.24631707215E+03  0.00000000000E+00 0. -1.
         22    1    1    2    0    0 -0.71627077332E+02 -0.80371554447E+01 -0.31447149901E+02  0.78638141583E+02  0.00000000000E+00 0. -1.
         22    1    1    2    0    0  0.21203765515E+02 -0.74346153723E+01 -0.11951919815E+03  0.12161295944E+03  0.00000000000E+00 0. -1.
</event>
<event>
 6    1  0.8017648E-006  0.1964308E+03  0.7818608E-02  0.1242609E+00
          2   -1    0    0  502    0  0.00000000000E+00  0.00000000000E+00  0.62135439751E+03  0.62135439751E+03  0.00000000000E+00 0.  1.
          1   -1    0    0  501    0 -0.00000000000E+00 -0.00000000000E+00 -0.10336820799E+03  0.10336820799E+03  0.00000000000E+00 0. -1.
          2    1    1    2  501    0 -0.13512224413E+03 -0.24614952862E+01  0.24476253331E+03  0.27959395117E+03  0.00000000000E+00 0.  1.
          1    1    1    2  502    0  0.17902126518E+03 -0.34775606834E+02  0.63327814467E+02  0.19305017043E+03  0.00000000000E+00 0. -1.
         22    1    1    2    0    0 -0.47292278723E+02  0.98162371089E+01  0.21799828195E+03  0.22328495039E+03  0.00000000000E+00 0. -1.
         22    1    1    2    0    0  0.33932576706E+01  0.27420865011E+02 -0.81024401951E+01  0.28793533522E+02  0.00000000000E+00 0.  1.
</event>
<event>
 6    1  0.8017648E-006  0.4275440E+02  0.7818608E-02  0.1505613E+00
          2   -1    0    0  502    0  0.00000000000E+00  0.00000000000E+00  0.61017034707E+02  0.61017034707E+02  0.00000000000E+00 0. -1.
          1   -1    0    0  501    0 -0.00000000000E+00 -0.00000000000E+00 -0.41947107222E+03  0.41947107222E+03  0.00000000000E+00 0.  1.
          2    1    1    2  501    0  0.56648117110E+00 -0.44193806871E+02  0.81368728789E+01  0.44940206574E+02  0.00000000000E+00 0. -1.
          1    1    1    2  502    0 -0.44866311516E+02  0.68655567580E+02 -0.23881204080E+03  0.25250299740E+03  0.00000000000E+00 0.  1.
         22    1    1    2    0    0  0.12128502415E+02 -0.22937702436E+02 -0.14446160769E+03  0.14677327706E+03  0.00000000000E+00 0.  1.
         22    1    1    2    0    0  0.32171327930E+02 -0.15240582723E+01  0.16682738091E+02  0.36271625888E+02  0.00000000000E+00 0. -1.
</event>
<event>
 6    1  0.8017648E-006  0.1669726E+03  0.7818608E-02  0.1299121E+00
          2   -1    0    0  502    0  0.00000000000E+00  0.00000000000E+00  0.15004844911E+03  0.15004844911E+03  0.00000000000E+00 0.  1.
          1   -1    0    0  501    0 -0.00000000000E+00 -0.00000000000E+00 -0.21490712518E+03  0.21490712518E+03  0.00000000000E+00 0.  1.
          2    1    1    2  501    0 -0.34183696236E+02 -0.33718326444E+02 -0.26013279622E+02  0.54608985920E+02  0.00000000000E+00 0.  1.
          1    1    1    2  502    0  0.12694963277E+03  0.44328614012E+02 -0.72538588367E+02  0.15278443011E+03  0.00000000000E+00 0.  1.
         22    1    1    2    0    0 -0.95843271916E+02 -0.25389034748E+02  0.67901355623E+02  0.12017125260E+03  0.00000000000E+00 0.  1.
         22    1    1    2    0    0  0.30773353773E+01  0.14778747181E+02 -0.34208163708E+02  0.37390905653E+02  0.00000000000E+00 0.  1.
</event>
<event>
 6    1  0.8017648E-006  0.1558769E+03  0.7818608E-02  0.1265263E+00
          2   -1    0    0  502    0  0.00000000000E+00  0.00000000000E+00  0.74289397694E+03  0.74289397694E+03  0.00000000000E+00 0.  1.
          1   -1    0    0  501    0 -0.00000000000E+00 -0.00000000000E+00 -0.66895607685E+02  0.66895607685E+02  0.00000000000E+00 0.  1.
          2    1    1    2  501    0  0.30871872556E+02  0.11205522528E+03  0.28921684848E+03  0.31169830200E+03  0.00000000000E+00 0.  1.
          1    1    1    2  502    0 -0.51802142643E+02 -0.13587950447E+03  0.32282596739E+03  0.35406681141E+03  0.00000000000E+00 0.  1.
         22    1    1    2    0    0 -0.56489966662E+01  0.47002622245E+02  0.88974577934E+02  0.10078508411E+03  0.00000000000E+00 0.  1.
         22    1    1    2    0    0  0.26579266754E+02 -0.23178343057E+02 -0.25019024545E+02  0.43239387105E+02  0.00000000000E+00 0.  1.
</event>
<event>
 6    1  0.8017648E-006  0.8068970E+02  0.7818608E-02  0.1385380E+00
          2   -1    0    0  502    0  0.00000000000E+00  0.00000000000E+00  0.13669437919E+03  0.13669437919E+03  0.00000000000E+00 0. -1.
          1   -1    0    0  501    0 -0.00000000000E+00 -0.00000000000E+00 -0.11647523609E+03  0.11647523609E+03  0.00000000000E+00 0.  1.
          2    1    1    2  501    0  0.34935636473E+02 -0.16924472951E+02  0.49062318671E+02  0.62562349651E+02  0.00000000000E+00 0. -1.
          1    1    1    2  502    0 -0.35005059543E+02  0.49002670372E+02 -0.17378247239E+02  0.62678699527E+02  0.00000000000E+00 0.  1.
         22    1    1    2    0    0 -0.29280107010E+02  0.70626714986E+01 -0.54826751346E+02  0.62555404709E+02  0.00000000000E+00 0.  1.
         22    1    1    2    0    0  0.29349530080E+02 -0.39140868920E+02  0.43361823016E+02  0.65373161397E+02  0.00000000000E+00 0. -1.
</event>
<event>
 6    1  0.8017648E-006  0.2213677E+02  0.7818608E-02  0.1739656E+00
          2   -1    0    0  502    0  0.00000000000E+00  0.00000000000E+00  0.16319050800E+03  0.16319050800E+03  0.00000000000E+00 0.  1.
          1   -1    0    0  501    0 -0.00000000000E+00 -0.00000000000E+00 -0.62579214946E+02  0.62579214946E+02  0.00000000000E+00 0.  1.
          2    1    1    2  501    0 -0.22258321890E+02  0.91638027355E+01  0.47111133354E+02  0.52904319860E+02  0.00000000000E+00 0.  1.
          1    1    1    2  502    0  0.28397900634E+02 -0.25584369596E+02  0.13999409689E+02  0.40706070797E+02  0.00000000000E+00 0.  1.
         22    1    1    2    0    0  0.63719469271E+01  0.83349860631E+01 -0.45075904095E+02  0.46280782516E+02  0.00000000000E+00 0.  1.
         22    1    1    2    0    0 -0.12511525671E+02  0.80855807976E+01  0.84576654101E+02  0.85878549769E+02  0.00000000000E+00 0.  1.
</event>
<event>
 6    1  0.8017648E-006  0.5889656E+02  0.7818608E-02  0.1410893E+00
          2   -1    0    0  502    0  0.00000000000E+00  0.00000000000E+00  0.78535197857E+03  0.78535197857E+03  0.00000000000E+00 0.  1.
          1   -1    0    0  501    0 -0.00000000000E+00 -0.00000000000E+00 -0.42683798098E+02  0.42683798098E+02  0.00000000000E+00 0.  1.
          2    1    1    2  501    0 -0.98126640141E+02 -0.62931550334E+02  0.36242708587E+03  0.38071329121E+03  0.00000000000E+00 0.  1.
          1    1    1    2  502    0  0.69606716378E+02  0.78032345864E+02  0.22660837404E+03  0.24957062558E+03  0.00000000000E+00 0.  1.
         22    1    1    2    0    0  0.28969304794E+02  0.12319562772E+02 -0.90648681591E+01  0.32759183169E+02  0.00000000000E+00 0.  1.
         22    1    1    2    0    0 -0.44938103181E+00 -0.27420358301E+02  0.16269758872E+03  0.16499267671E+03  0.00000000000E+00 0. -1.
</event>
<event>
 6    1  0.8017648E-006  0.6289383E+02  0.7818608E-02  0.1485227E+00
          2   -1    0    0  502    0  0.00000000000E+00  0.00000000000E+00  0.19099106950E+03  0.19099106950E+03  0.00000000000E+00 0. -1.
          1   -1    0    0  501    0 -0.00000000000E+00 -0.00000000000E+00 -0.88217241764E+02  0.88217241764E+02  0.00000000000E+00 0. -1.
          2    1    1    2  501    0 -0.21222775620E+02 -0.41366420584E+02  0.91574627445E+02  0.10270101922E+03  0.00000000000E+00 0. -1.
          1    1    1    2  502    0  0.18974711967E+02  0.50106223105E+02  0.15803389323E+02  0.55860723252E+02  0.00000000000E+00 0. -1.
         22    1    1    2    0    0  0.12690740640E+02  0.62187496216E+01 -0.60354655445E+02  0.61987193668E+02  0.00000000000E+00 0.  1.
         22    1    1    2    0    0 -0.10442676987E+02 -0.14958552143E+02  0.55750466409E+02  0.58659375122E+02  0.00000000000E+00 0.  1.
</event>
<event>
 6    1  0.8017648E-006  0.9732415E+02  0.7818608E-02  0.1386430E+00
          2   -1    0    0  502    0  0.00000000000E+00  0.00000000000E+00  0.23221892546E+03  0.23221892546E+03  0.00000000000E+00 0. -1.
          1   -1    0    0  501    0 -0.00000000000E+00 -0.00000000000E+00 -0.19289997607E+03  0.19289997607E+03  0.00000000000E+00 0.  1.
          2    1    1    2  501    0  0.83050811992E+01  0.24559820447E+02  0.11835083079E+03  0.12115724618E+03  0.00000000000E+00 0. -1.
          1    1    1    2  502    0 -0.66647774352E+01 -0.73996939944E+02 -0.13941597519E+03  0.15797715188E+03  0.00000000000E+00 0.  1.
         22    1    1    2    0    0 -0.12205208480E+02 -0.11654763491E+02 -0.31151264546E+02  0.35428828783E+02  0.00000000000E+00 0.  1.
         22    1    1    2    0    0  0.10564904716E+02  0.61091882988E+02  0.91535358334E+02  0.11055567468E+03  0.00000000000E+00 0. -1.
</event>
<event>
 6    1  0.8017648E-006  0.3192736E+02  0.7818608E-02  0.1634796E+00
          2   -1    0    0  502    0  0.00000000000E+00  0.00000000000E+00  0.62521572370E+02  0.62521572370E+02  0.00000000000E+00 0. -1.
          1   -1    0    0  501    0 -0.00000000000E+00 -0.00000000000E+00 -0.41564093622E+03  0.41564093622E+03  0.00000000000E+00 0.  1.
          2    1    1    2  501    0  0.46042404035E+02 -0.10821610146E+02 -0.31444191821E+02  0.56795663697E+02  0.00000000000E+00 0. -1.
          1    1    1    2  502    0 -0.17772430560E+02  0.32762798408E+02 -0.28657373489E+03  0.28898748377E+03  0.00000000000E+00 0.  1.
         22    1    1    2    0    0 -0.19283796149E+02 -0.13254037528E+02 -0.81258234424E+02  0.84560244597E+02  0.00000000000E+00 0. -1.
         22    1    1    2    0    0 -0.89861773266E+01 -0.86871507338E+01  0.46156797278E+02  0.47819116531E+02  0.00000000000E+00 0. -1.
</event>
<event>
 6    1  0.8017648E-006  0.4703525E+02  0.7818608E-02  0.1474431E+00
          2   -1    0    0  502    0  0.00000000000E+00  0.00000000000E+00  0.42490603279E+02  0.42490603279E+02  0.00000000000E+00 0. -1.
          1   -1    0    0  501    0 -0.00000000000E+00 -0.00000000000E+00 -0.28672965037E+03  0.28672965037E+03  0.00000000000E+00 0. -1.
          2    1    1    2  501    0 -0.39259886436E+02  0.13504059444E+02  0.59602455259E+00  0.41521723829E+02  0.00000000000E+00 0. -1.
          1    1    1    2  502    0  0.13913967413E+02 -0.16565738490E+02 -0.25433426991E+02  0.33389839613E+02  0.00000000000E+00 0. -1.
         22    1    1    2    0    0 -0.10857796729E+02  0.18498980377E+02  0.84710157655E+01  0.23062136347E+02  0.00000000000E+00 0.  1.
         22    1    1    2    0    0  0.36203715752E+02 -0.15437301330E+02 -0.22787266042E+03  0.23124655386E+03  0.00000000000E+00 0. -1.
</event>
<event>
 6    1  0.8017648E-006  0.7826767E+02  0.7818608E-02  0.1438907E+00
          2   -1    0    0  502    0  0.00000000000E+00  0.00000000000E+00  0.19590622626E+03  0.19590622626E+03  0.00000000000E+00 0. -1.
          1   -1    0    0  501    0 -0.00000000000E+00 -0.00000000000E+00 -0.95273590702E+03  0.95273590702E+03  0.00000000000E+00 0.  1.
          2    1    1    2  501    0 -0.10886956665E+02  0.54570081464E+02  0.13285702398E+03  0.14403960719E+03  0.00000000000E+00 0. -1.
          1    1    1    2  502    0  0.20741313977E+02 -0.85581008674E+02 -0.87099045389E+03  0.87543056944E+03  0.00000000000E+00 0.  1.
         22    1    1    2    0    0 -0.14319751876E+02  0.17376230604E+02  0.52194398098E+02  0.56844031143E+02  0.00000000000E+00 0.  1.
         22    1    1    2    0    0  0.44653945639E+01  0.13634696605E+02 -0.70890648945E+02  0.72327925506E+02  0.00000000000E+00 0. -1.
</event>
<event>
 6    1  0.8017648E-006  0.7345281E+02  0.7818608E-02  0.1421512E+00
          2   -1    0    0  502    0  0.00000000000E+00  0.00000000000E+00  0.59031183775E+03  0.59031183775E+03  0.00000000000E+00 0. -1.
          1   -1    0    0  501    0 -0.00000000000E+00 -0.00000000000E+00 -0.39228761029E+02  0.39228761029E+02  0.00000000000E+00 0. -1.
          2    1    1    2  501    0 -0.82250171290E+01 -0.27455122190E+02  0.37339172441E+03  0.37449007263E+03  0.00000000000E+00 0. -1.
          1    1    1    2  502    0  0.37897111380E+02  0.41778551208E+02  0.45870514222E+02  0.72703111811E+02  0.00000000000E+00 0. -1.
         22    1    1    2    0    0 -0.13800331814E+02  0.17889791422E+02 -0.17619997434E+02  0.28652366480E+02  0.00000000000E+00 0. -1.
         22    1    1    2    0    0 -0.15871762438E+02 -0.32213220440E+02  0.14944083552E+03  0.15369504786E+03  0.00000000000E+00 0. -1.
</event>
<event>
 6    1  0.8017648E-006  0.4267437E+02  0.7818608E-02  0.1534554E+00
          2   -1    0    0  502    0  0.00000000000E+00  0.00000000000E+00  0.84346943541E+02  0.84346943541E+02  0.00000000000E+00 0.  1.
          1   -1    0    0  501    0 -0.00000000000E+00 -0.00000000000E+00 -0.22966398288E+03  0.22966398288E+03  0.00000000000E+00 0.  1.
          2    1    1    2  501    0 -0.99448137483E+01  0.51762860375E+02  0.17355796674E+02  0.55493393417E+02  0.00000000000E+00 0.  1.
          1    1    1    2  502    0  0.35960515264E+02 -0.49383428204E+02 -0.93457559985E+02  0.11165212563E+03  0.00000000000E+00 0.  1.
         22    1    1    2    0    0  0.38484750617E+01  0.19056914037E+02 -0.98166196385E+02  0.10007286768E+03  0.00000000000E+00 0.  1.
         22    1    1    2    0    0 -0.29864176578E+02 -0.21436346208E+02  0.28950920359E+02  0.46792539694E+02  0.00000000000E+00 0.  1.
</event>
<event>
 6    1  0.8017648E-006  0.6457409E+02  0.7818608E-02  0.1381607E+00
          2   -1    0    0  502    0  0.00000000000E+00  0.00000000000E+00  0.38434270088E+03  0.38434270088E+03  0.00000000000E+00 0.  1.
          1   -1    0    0  501    0 -0.00000000000E+00 -0.00000000000E+00 -0.43383509798E+02  0.43383509798E+02  0.00000000000E+00 0.  1.
          2    1    1    2  501    0  0.19614907577E+02  0.13383728143E+02  0.17711969399E+02  0.29624021304E+02  0.00000000000E+00 0.  1.
          1    1    1    2  502    0 -0.60722181325E+02  0.83327637512E+01  0.21850637818E+03  0.22693976196E+03  0.00000000000E+00 0.  1.
         22    1    1    2    0    0  0.61083497517E+01  0.30037003928E+02  0.10427201137E+03  0.10868388058E+03  0.00000000000E+00 0. -1.
         22    1    1    2    0    0  0.34998923996E+02 -0.51753495822E+02  0.46883213454E+00  0.62478546832E+02  0.00000000000E+00 0.  1.
</event>
<event>
 6    1  0.8017648E-006  0.9076109E+02  0.7818608E-02  0.1301670E+00
          2   -1    0    0  502    0  0.00000000000E+00  0.00000000000E+00  0.59720141221E+02  0.59720141221E+02  0.00000000000E+00 0.  1.
          1   -1    0    0  501    0 -0.00000000000E+00 -0.00000000000E+00 -0.20419209475E+03  0.20419209475E+03  0.00000000000E+00 0.  1.
          2    1    1    2  501    0  0.45550517539E+02  0.70593716038E+01 -0.11879954180E+02  0.47600605950E+02  0.00000000000E+00 0.  1.
          1    1    1    2  502    0 -0.30541222401E+02 -0.24698727057E+02 -0.36759275062E+02  0.53796260902E+02  0.00000000000E+00 0.  1.
         22    1    1    2    0    0  0.25815097891E+02  0.31047318571E+02  0.15443923220E+02  0.43230429492E+02  0.00000000000E+00 0. -1.
         22    1    1    2    0    0 -0.40824393029E+02 -0.13407963118E+02 -0.11127664751E+03  0.11928493963E+03  0.00000000000E+00 0.  1.
</event>
<event>
 6    1  0.8017648E-006  0.1170795E+03  0.7818608E-02  0.1346215E+00
          2   -1    0    0  502    0  0.00000000000E+00  0.00000000000E+00  0.23078284433E+03  0.23078284433E+03  0.00000000000E+00 0.  1.
          1   -1    0    0  501    0 -0.00000000000E+00 -0.00000000000E+00 -0.19641827293E+03  0.19641827293E+03  0.00000000000E+00 0. -1.
          2    1    1    2  501    0  0.22514363577E+02 -0.47995788420E+02  0.11779813354E+03  0.12917775559E+03  0.00000000000E+00 0.  1.
          1    1    1    2  502    0 -0.60515578834E+02  0.85580612656E+02 -0.12140146443E+03  0.16038856602E+03  0.00000000000E+00 0. -1.
         22    1    1    2    0    0  0.54168058238E+02 -0.27724679025E+02  0.74676488365E+02  0.96329716468E+02  0.00000000000E+00 0. -1.
         22    1    1    2    0    0 -0.16166842981E+02 -0.98601452112E+01 -0.36708586064E+02  0.41305079184E+02  0.00000000000E+00 0.  1.
</event>
<event>
 6    1  0.8017648E-006  0.1095644E+03  0.7818608E-02  0.1370136E+00
          2   -1    0    0  502    0  0.00000000000E+00  0.00000000000E+00  0.74168373312E+03  0.74168373312E+03  0.00000000000E+00 0.  1.
          1   -1    0    0  501    0 -0.00000000000E+00 -0.00000000000E+00 -0.14615836518E+03  0.14615836518E+03  0.00000000000E+00 0. -1.
          2    1    1    2  501    0 -0.68885106208E+02  0.59195536061E+02  0.65714734797E+03  0.66339423143E+03  0.00000000000E+00 0.  1.
          1    1    1    2  502    0  0.75932577026E+02 -0.50856875393E+02 -0.29331508318E+02  0.95981849371E+02  0.00000000000E+00 0. -1.
         22    1    1    2    0    0 -0.13932966314E+02  0.54808849969E+01  0.46151288725E+02  0.48519162211E+02  0.00000000000E+00 0. -1.
         22    1    1    2    0    0  0.68854954968E+01 -0.13819545665E+02 -0.78441760438E+02  0.79946855293E+02  0.00000000000E+00 0.  1.
</event>
<event>
 6    1  0.8017648E-006  0.3513666E+02  0.7818608E-02  0.1599430E+00
          2   -1    0    0  502    0  0.00000000000E+00  0.00000000000E+00  0.33493098258E+03  0.33493098258E+03  0.00000000000E+00 0. -1.
          1   -1    0    0  501    0 -0.00000000000E+00 -0.00000000000E+00 -0.10254339856E+03  0.10254339856E+03  0.00000000000E+00 0.  1.
          2    1    1    2  501    0 -0.26333471231E+02 -0.13577305182E+02  0.23416370741E+03  0.23603058444E+03  0.00000000000E+00 0. -1.
          1    1    1    2  502    0  0.32277464049E+01 -0.22956404632E+02 -0.55141123456E+02  0.59816037619E+02  0.00000000000E+00 0.  1.
         22    1    1    2    0    0 -0.13742732296E+02 -0.10296490846E+02  0.75976332958E+02  0.77892769782E+02  0.00000000000E+00 0. -1.
         22    1    1    2    0    0  0.36848457122E+02  0.46830200659E+02 -0.22611332887E+02  0.63734989299E+02  0.00000000000E+00 0.  1.
</event>
<event>
 6    1  0.8017648E-006  0.7142961E+02  0.7818608E-02  0.1375618E+00
          2   -1    0    0  502    0  0.00000000000E+00  0.00000000000E+00  0.12080446299E+03  0.12080446299E+03  0.00000000000E+00 0.  1.
          1   -1    0    0  501    0 -0.00000000000E+00 -0.00000000000E+00 -0.38519359650E+03  0.38519359650E+03  0.00000000000E+00 0.  1.
          2    1    1    2  501    0 -0.40056836586E+01  0.81813834529E+02  0.41489577649E+02  0.91820118032E+02  0.00000000000E+00 0.  1.
          1    1    1    2  502    0 -0.70162903713E+02 -0.10795130977E+03 -0.17768272385E+03  0.21942531461E+03  0.00000000000E+00 0.  1.
         22    1    1    2    0    0  0.21451015793E+02  0.32667335018E+02 -0.13559941800E+03  0.14111875502E+03  0.00000000000E+00 0.  1.
         22    1    1    2    0    0  0.52717571579E+02 -0.65298597738E+01  0.74034306908E+01  0.53633871833E+02  0.00000000000E+00 0.  1.
</event>
<event>
 6    1  0.8017648E-006  0.4757313E+02  0.7818608E-02  0.1489095E+00
          2   -1    0    0  502    0  0.00000000000E+00  0.00000000000E+00  0.61917066688E+02  0.61917066688E+02  0.00000000000E+00 0. -1.
          1   -1    0    0  501    0 -0.00000000000E+00 -0.00000000000E+00 -0.64595278637E+03  0.64595278637E+03  0.00000000000E+00 0. -1.
          2    1    1    2  501    0  0.41946860811E+01  0.76380012586E+02 -0.54261972474E+02  0.93786264297E+02  0.00000000000E+00 0. -1.
          1    1    1    2  502    0  0.21296007898E+02 -0.46546060528E+02 -0.45877099156E+03  0.46161767557E+03  0.00000000000E+00 0. -1.
         22    1    1    2    0    0  0.12813226299E+02 -0.21320398565E+02  0.32989897335E+02  0.41316721667E+02  0.00000000000E+00 0.  1.
         22    1    1    2    0    0 -0.38303920278E+02 -0.85135534929E+01 -0.10399265298E+03  0.11114919152E+03  0.00000000000E+00 0.  1.
</event>
<event>
 6    1  0.8017648E-006  0.5685452E+02  0.7818608E-02  0.1471150E+00
          2   -1    0    0  502    0  0.00000000000E+00  0.00000000000E+00  0.15739955433E+03  0.15739955433E+03  0.00000000000E+00 0.  1.
          1   -1    0    0  501    0 -0.00000000000E+00 -0.00000000000E+00 -0.50595842148E+03  0.50595842148E+03  0.00000000000E+00 0.  1.
          2    1    1    2  501    0 -0.39077836502E+02 -0.17953378642E+02  0.11772786712E+03  0.12533655415E+03  0.00000000000E+00 0.  1.
          1    1    1    2  502    0  0.34553136920E+02 -0.51057255634E+01 -0.38249543465E+03  0.38408689802E+03  0.00000000000E+00 0.  1.
         22    1    1    2    0    0 -0.12218200882E+02  0.67796488145E+01  0.32471111815E+02  0.35349981235E+02  0.00000000000E+00 0.  1.
         22    1    1    2    0    0  0.16742900464E+02  0.16279455391E+02 -0.11626241143E+03  0.11858454240E+03  0.00000000000E+00 0. -1.
</event>
<event>
 6    1  0.8017648E-006  0.9922231E+02  0.7818608E-02  0.1373740E+00
          2   -1    0    0  502    0  0.00000000000E+00  0.00000000000E+00  0.80614985856E+03  0.80614985856E+03  0.00000000000E+00 0.  1.
          1   -1    0    0  501    0 -0.00000000000E+00 -0.00000000000E+00 -0.72308634430E+02  0.72308634430E+02  0.00000000000E+00 0.  1.
          2    1    1    2  501    0  0.31918083178E+02 -0.54229286691E+02  0.59067500140E+03  0.59401728666E+03  0.00000000000E+00 0.  1.
          1    1    1    2  502    0 -0.66131360739E+02  0.87391345162E+02  0.62109506628E+02  0.12596902356E+03  0.00000000000E+00 0.  1.
         22    1    1    2    0    0  0.14343094732E+02 -0.13340155287E+02 -0.34436476311E+02  0.39617609850E+02  0.00000000000E+00 0.  1.
         22    1    1    2    0    0  0.19870182829E+02 -0.19821903184E+02  0.11549319242E+03  0.11885457293E+03  0.00000000000E+00 0.  1.
</event>
<event>
 6    1  0.8017648E-006  0.4103445E+02  0.7818608E-02  0.1590437E+00
          2   -1    0    0  502    0  0.00000000000E+00  0.00000000000E+00  0.48521799682E+03  0.48521799682E+03  0.00000000000E+00 0.  1.
          1   -1    0    0  501    0 -0.00000000000E+00 -0.00000000000E+00 -0.57507897175E+02  0.57507897175E+02  0.00000000000E+00 0. -1.
          2    1    1    2  501    0  0.24305522522E+02  0.58328330070E+02  0.30558467920E+03  0.31204959330E+03  0.00000000000E+00 0.  1.
          1    1    1    2  502    0 -0.40199435254E+02 -0.22466944618E+02 -0.91816928477E+01  0.46958084274E+02  0.00000000000E+00 0. -1.
         22    1    1    2    0    0 -0.23371695895E+01 -0.97985931352E+01 -0.23557618276E+02  0.25621010283E+02  0.00000000000E+00 0. -1.
         22    1    1    2    0    0  0.18231082321E+02 -0.26062792317E+02  0.15486473157E+03  0.15809720614E+03  0.00000000000E+00 0.  1.
</event>
<event>
 6    1  0.8017648E-006  0.5243271E+02  0.7818608E-02  0.1498679E+00
          2   -1    0    0  502    0  0.00000000000E+00  0.00000000000E+00  0.28001262633E+03  0.28001262633E+03  0.00000000000E+00 0. -1.
          1   -1    0    0  501    0 -0.00000000000E+00 -0.00000000000E+00 -0.68673676276E+02  0.68673676276E+02  0.00000000000E+00 0.  1.
          2    1    1    2  501    0  0.17505101148E+02 -0.47283159679E+02  0.65325142428E+02  0.82519694551E+02  0.00000000000E+00 0. -1.
          1    1    1    2  502    0 -0.48145904128E+02  0.55106605989E+02  0.50645875939E+01  0.73351320066E+02  0.00000000000E+00 0.  1.
         22    1    1    2    0    0 -0.40062189979E+01  0.15292549072E+02 -0.20609390804E+02  0.25974195600E+02  0.00000000000E+00 0.  1.
         22    1    1    2    0    0  0.34647021978E+02 -0.23115995382E+02  0.16155861084E+03  0.16684109239E+03  0.00000000000E+00 0. -1.
</event>
<event>
 6    1  0.8017648E-006  0.2608569E+02  0.7818608E-02  0.1706006E+00
          2   -1    0    0  502    0  0.00000000000E+00  0.00000000000E+00  0.92698154558E+02  0.92698154558E+02  0.00000000000E+00 0.  1.
          1   -1    0    0  501    0 -0.00000000000E+00 -0.00000000000E+00 -0.11673297847E+03  0.11673297847E+03  0.00000000000E+00 0.  1.
          2    1    1    2  501    0  0.39461956162E+02  0.34733966528E+01 -0.16837789039E+02  0.43044414366E+02  0.00000000000E+00 0.  1.
          1    1    1    2  502    0 -0.19688965392E+02 -0.27079561192E+02 -0.12021138124E+02  0.35573385478E+02  0.00000000000E+00 0.  1.
         22    1    1    2    0    0 -0.75994664603E+01  0.74382918079E+01 -0.61014551930E+02  0.61934284712E+02  0.00000000000E+00 0.  1.
         22    1    1    2    0    0 -0.12173524309E+02  0.16167872731E+02  0.65838655179E+02  0.68879048473E+02  0.00000000000E+00 0.  1.
</event>
<event>
 6    1  0.8017648E-006  0.7719522E+02  0.7818608E-02  0.1438648E+00
          2   -1    0    0  502    0  0.00000000000E+00  0.00000000000E+00  0.22772288117E+03  0.22772288117E+03  0.00000000000E+00 0. -1.
          1   -1    0    0  501    0 -0.00000000000E+00 -0.00000000000E+00 -0.49617438483E+03  0.49617438483E+03  0.00000000000E+00 0. -1.
          2    1    1    2  501    0  0.50336800891E+02  0.18036954848E+02  0.13147991698E+03  0.14193693612E+03  0.00000000000E+00 0. -1.
          1    1    1    2  502    0 -0.63586367278E+02 -0.22476728231E+02 -0.44687962388E+03  0.45194007086E+03  0.00000000000E+00 0. -1.
         22    1    1    2    0    0  0.20696152008E+02 -0.85948409487E+01  0.85637287675E+02  0.88520884763E+02  0.00000000000E+00 0. -1.
         22    1    1    2    0    0 -0.74465856207E+01  0.13034614332E+02 -0.38689084449E+02  0.41499374256E+02  0.00000000000E+00 0. -1.
</event>
<event>
 6    1  0.8017648E-006  0.4302852E+02  0.7818608E-02  0.1546910E+00
          2   -1    0    0  502    0  0.00000000000E+00  0.00000000000E+00  0.62845198533E+03  0.62845198533E+03  0.00000000000E+00 0. -1.
          1   -1    0    0  501    0 -0.00000000000E+00 -0.00000000000E+00 -0.88163865910E+02  0.88163865910E+02  0.00000000000E+00 0. -1.
          2    1    1    2  501    0 -0.60933091552E+02  0.33527449207E+02  0.52228226083E+03  0.52689248568E+03  0.00000000000E+00 0. -1.
          1    1    1    2  502    0  0.53032555556E+02  0.11620779034E+02 -0.11191218281E+02  0.55432281396E+02  0.00000000000E+00 0. -1.
         22    1    1    2    0    0  0.37080318538E+01 -0.31199478493E+02  0.77613225437E+02  0.83731533613E+02  0.00000000000E+00 0. -1.
         22    1    1    2    0    0  0.41925041424E+01 -0.13948749748E+02 -0.48416148560E+02  0.50559550550E+02  0.00000000000E+00 0. -1.
</event>
<event>
 6    1  0.8017648E-006  0.1233307E+03  0.7818608E-02  0.1337417E+00
          2   -1    0    0  502    0  0.00000000000E+00  0.00000000000E+00  0.17966324004E+03  0.17966324004E+03  0.00000000000E+00 0.  1.
          1   -1    0    0  501    0 -0.00000000000E+00 -0.00000000000E+00 -0.18561550070E+03  0.18561550070E+03  0.00000000000E+00 0. -1.
          2    1    1    2  501    0 -0.23286974561E+02 -0.33172573003E+02  0.23798907438E+01  0.40600082067E+02  0.00000000000E+00 0.  1.
          1    1    1    2  502    0  0.71090435093E+02  0.20917227327E+02 -0.12718285168E+03  0.14719666478E+03  0.00000000000E+00 0. -1.
         22    1    1    2    0    0  0.51853547065E+00  0.18852931380E+02 -0.21676285686E+02  0.28732616689E+02  0.00000000000E+00 0.  1.
         22    1    1    2    0    0 -0.48321996002E+02 -0.65975857033E+01  0.14052698596E+03  0.14874937720E+03  0.00000000000E+00 0.  1.
</event>
<event>
 6    1  0.8017648E-006  0.9375565E+02  0.7818608E-02  0.1318860E+00
          2   -1    0    0  502    0  0.00000000000E+00  0.00000000000E+00  0.47040503109E+03  0.47040503109E+03  0.00000000000E+00 0. -1.
          1   -1    0    0  501    0 -0.00000000000E+00 -0.00000000000E+00 -0.60539945406E+02  0.60539945406E+02  0.00000000000E+00 0. -1.
          2    1    1    2  501    0  0.57410582213E+01  0.42124520398E+02  0.14796278379E+03  0.15394940843E+03  0.00000000000E+00 0. -1.
          1    1    1    2  502    0 -0.93399664643E+02 -0.24054673521E+02  0.18204956205E+03  0.20601982360E+03  0.00000000000E+00 0. -1.
         22    1    1    2    0    0  0.41923124002E+02  0.20086073271E+02  0.98204035703E+02  0.10865096085E+03  0.00000000000E+00 0. -1.
         22    1    1    2    0    0  0.45735482419E+02 -0.38155920148E+02 -0.18351295850E+02  0.62324783625E+02  0.00000000000E+00 0. -1.
</event>
<event>
 6    1  0.8017648E-006  0.6411283E+02  0.7818608E-02  0.1427263E+00
          2   -1    0    0  502    0  0.00000000000E+00  0.00000000000E+00  0.66149703876E+03  0.66149703876E+03  0.00000000000E+00 0.  1.
          1   -1    0    0  501    0 -0.00000000000E+00 -0.00000000000E+00 -0.12811212076E+03  0.12811212076E+03  0.00000000000E+00 0. -1.
          2    1    1    2  501    0  0.15419473075E+01 -0.79114324006E+02  0.46130144311E+03  0.46803896769E+03  0.00000000000E+00 0.  1.
          1    1    1    2  502    0  0.19198448923E+02  0.92609429110E+02 -0.80537911687E+02  0.12422335537E+03  0.00000000000E+00 0. -1.
         22    1    1    2    0    0  0.20461405881E+02 -0.18711141116E+01 -0.14293481060E+02  0.25029458633E+02  0.00000000000E+00 0. -1.
         22    1    1    2    0    0 -0.41201802111E+02 -0.11623990992E+02  0.16691486763E+03  0.17231737782E+03  0.00000000000E+00 0.  1.
</event>
<event>
 6    1  0.8017648E-006  0.5328721E+02  0.7818608E-02  0.1456953E+00
          2   -1    0    0  502    0  0.00000000000E+00  0.00000000000E+00  0.32305809360E+03  0.32305809360E+03  0.00000000000E+00 0.  1.
          1   -1    0    0  501    0 -0.00000000000E+00 -0.00000000000E+00 -0.86750601541E+02  0.86750601541E+02  0.00000000000E+00 0.  1.
          2    1    1    2  501    0 -0.26677121678E+02  0.30729730700E+02  0.18429107177E+03  0.18873045410E+03  0.00000000000E+00 0.  1.
          1    1    1    2  502    0  0.12538068669E+02 -0.59120196549E+02  0.66302584622E+02  0.89713062223E+02  0.00000000000E+00 0.  1.
         22    1    1    2    0    0 -0.11659441669E+02  0.50050780828E+01  0.53593860522E+02  0.55075359938E+02  0.00000000000E+00 0.  1.
         22    1    1    2    0    0  0.25798494678E+02  0.23385387766E+02 -0.67880024862E+02  0.76289818874E+02  0.00000000000E+00 0.  1.
</event>
<event>
 6    1  0.8017648E-006  0.5578414E+02  0.7818608E-02  0.1429432E+00
          2   -1    0    0  502    0  0.00000000000E+00  0.00000000000E+00  0.30166708387E+03  0.30166708387E+03  0.00000000000E+00 0. -1.
          1   -1    0    0  501    0 -0.00000000000E+00 -0.00000000000E+00 -0.32677711216E+02  0.32677711216E+02  0.00000000000E+00 0. -1.
          2    1    1    2  501    0 -0.21238344222E+02  0.48397261062E+01  0.12830248000E+03  0.13013845161E+03  0.00000000000E+00 0. -1.
          1    1    1    2  502    0  0.60078641296E+01 -0.21089173901E+02  0.80363391697E+01  0.23354452134E+02  0.00000000000E+00 0. -1.
         22    1    1    2    0    0 -0.42773244332E+02 -0.45677954104E+01  0.10468256138E+03  0.11317620706E+03  0.00000000000E+00 0. -1.
         22    1    1    2    0    0  0.58003724424E+02  0.20817243205E+02  0.27967992106E+02  0.67675684290E+02  0.00000000000E+00 0. -1.
</event>
<event>
 6    1  0.8017649E-006  0.3214269E+02  0.7818608E-02  0.1585414E+00
          2   -1    0    0  502    0  0.00000000000E+00  0.00000000000E+00  0.10934723525E+04  0.10934723525E+04  0.00000000000E+00 0.  1.
          1   -1    0    0  501    0 -0.00000000000E+00 -0.00000000000E+00 -0.12594219916E+03  0.12594219916E+03  0.00000000000E+00 0. -1.
          2    1    1    2  501    0 -0.71647860069E+02  0.27802191952E+02  0.10106397646E+04  0.10135576508E+04  0.00000000000E+00 0.  1.
          1    1    1    2  502    0  0.57913401221E+02 -0.39273150381E+02 -0.38947387297E+02  0.80082715733E+02  0.00000000000E+00 0. -1.
         22    1    1    2    0    0  0.23415320257E+01  0.12722452704E+02  0.59601173202E+02  0.60988879495E+02  0.00000000000E+00 0. -1.
         22    1    1    2    0    0  0.11392926821E+02 -0.12514942746E+01 -0.63763397112E+02  0.64785305670E+02  0.00000000000E+00 0. -1.
</event>
<event>
 6    1  0.8017648E-006  0.4429363E+02  0.7818608E-02  0.1508896E+00
          2   -1    0    0  502    0  0.00000000000E+00  0.00000000000E+00  0.48017087348E+02  0.48017087348E+02  0.00000000000E+00 0. -1.
          1   -1    0    0  501    0 -0.00000000000E+00 -0.00000000000E+00 -0.36129643551E+03  0.36129643551E+03  0.00000000000E+00 0. -1.
          2    1    1    2  501    0 -0.13529081887E+02  0.39951560812E+02 -0.10980939007E+02  0.43586056136E+02  0.00000000000E+00 0. -1.
          1    1    1    2  502    0  0.16553288984E+01 -0.62727746541E+02 -0.16223780285E+03  0.17395003585E+03  0.00000000000E+00 0. -1.
         22    1    1    2    0    0 -0.23528068921E+02  0.66810162795E+01  0.17121797681E+02  0.29855685581E+02  0.00000000000E+00 0. -1.
         22    1    1    2    0    0  0.35401821910E+02  0.16095169450E+02 -0.15718240399E+03  0.16192174529E+03  0.00000000000E+00 0. -1.
</event>
<event>
 6    1  0.8017648E-006  0.2797065E+03  0.7818608E-02  0.1230620E+00
          2   -1    0    0  502    0  0.00000000000E+00  0.00000000000E+00  0.98951258856E+03  0.98951258856E+03  0.00000000000E+00 0.  1.
          1   -1    0    0  501    0 -0.00000000000E+00 -0.00000000000E+00 -0.24953889369E+03  0.24953889369E+03  0.00000000000E+00 0.  1.
          2    1    1    2  501    0  0.24104175340E+03 -0.76794487330E+02  0.76173428972E+03  0.80264416045E+03  0.00000000000E+00 0.  1.
          1    1    1    2  502    0 -0.25525576603E+03  0.79625057190E+02 -0.10717506592E+03  0.28806622603E+03  0.00000000000E+00 0.  1.
         22    1    1    2    0    0  0.26338283000E+02 -0.12660738931E+01  0.11412744742E+03  0.11713403583E+03  0.00000000000E+00 0. -1.
         22    1    1    2    0    0 -0.12124270371E+02 -0.15644959667E+01 -0.28712976348E+02  0.31207059945E+02  0.00000000000E+00 0. -1.
</event>
<event>
 6    1  0.8017648E-006  0.3645659E+02  0.7818608E-02  0.1542839E+00
          2   -1    0    0  502    0  0.00000000000E+00  0.00000000000E+00  0.42089812677E+03  0.42089812677E+03  0.00000000000E+00 0.  1.
          1   -1    0    0  501    0 -0.00000000000E+00 -0.00000000000E+00 -0.32797049826E+02  0.32797049826E+02  0.00000000000E+00 0.  1.
          2    1    1    2  501    0 -0.34163251329E+02 -0.30679823410E+02  0.12776149717E+03  0.13576221663E+03  0.00000000000E+00 0.  1.
          1    1    1    2  502    0  0.32508242326E+02  0.40212853436E+02  0.48338214829E+02  0.70784478619E+02  0.00000000000E+00 0.  1.
         22    1    1    2    0    0  0.35672374642E+02  0.99956907030E+00  0.20831267803E+03  0.21134731908E+03  0.00000000000E+00 0.  1.
         22    1    1    2    0    0 -0.34017365640E+02 -0.10532599096E+02  0.36886869139E+01  0.35801162271E+02  0.00000000000E+00 0.  1.
</event>
<event>
 6    1  0.8017648E-006  0.8537166E+02  0.7818608E-02  0.1413515E+00
          2   -1    0    0  502    0  0.00000000000E+00  0.00000000000E+00  0.20520965357E+03  0.20520965357E+03  0.00000000000E+00 0. -1.
          1   -1    0    0  501    0 -0.00000000000E+00 -0.00000000000E+00 -0.79369794060E+02  0.79369794060E+02  0.00000000000E+00 0. -1.
          2    1    1    2  501    0  0.78670029412E+01  0.37857386219E+02  0.62513038703E+02  0.73504771509E+02  0.00000000000E+00 0. -1.
          1    1    1    2  502    0  0.17924308400E+02 -0.63916330640E+02  0.20178270036E+02  0.69381126654E+02  0.00000000000E+00 0. -1.
         22    1    1    2    0    0 -0.30981310837E+02  0.41491000290E+02  0.83459765030E+02  0.98218517120E+02  0.00000000000E+00 0. -1.
         22    1    1    2    0    0  0.51899994960E+01 -0.15432055870E+02 -0.40311214256E+02  0.43475032351E+02  0.00000000000E+00 0. -1.
</event>
<event>
 6    1  0.8017648E-006  0.1132841E+03  0.7818608E-02  0.1274439E+00
          2   -1    0    0  502    0  0.00000000000E+00  0.00000000000E+00  0.95437305208E+02  0.95437305208E+02  0.00000000000E+00 0.  1.
          1   -1    0    0  501    0 -0.00000000000E+00 -0.00000000000E+00 -0.29161941198E+03  0.29161941198E+03  0.00000000000E+00 0.  1.
          2    1    1    2  501    0 -0.16963915286E+02 -0.47704942508E+02 -0.33236934832E+02  0.60565912843E+02  0.00000000000E+00 0.  1.
          1    1    1    2  502    0  0.12167030252E+02  0.10969196846E+03  0.38846863830E+01  0.11043303563E+03  0.00000000000E+00 0.  1.
         22    1    1    2    0    0 -0.57011020079E+02 -0.16179272345E+02 -0.59253880001E+02  0.83803624976E+02  0.00000000000E+00 0.  1.
         22    1    1    2    0    0  0.61807905113E+02 -0.45807753606E+02 -0.10757597833E+03  0.13225414374E+03  0.00000000000E+00 0. -1.
</event>
<event>
 6    1  0.8017648E-006  0.6257218E+02  0.7818608E-02  0.1418747E+00
          2   -1    0    0  502    0  0.00000000000E+00  0.00000000000E+00  0.16907040575E+03  0.16907040575E+03  0.00000000000E+00 0.  1.
          1   -1    0    0  501    0 -0.00000000000E+00 -0.00000000000E+00 -0.91560593405E+02  0.91560593405E+02  0.00000000000E+00 0. -1.
          2    1    1    2  501    0 -0.19240231605E+02 -0.25551444454E+02  0.54768475490E+02  0.63424354419E+02  0.00000000000E+00 0.  1.
          1    1    1    2  502    0  0.13639472663E+02  0.31527189770E+02 -0.43160893820E+02  0.55162139776E+02  0.00000000000E+00 0. -1.
         22    1    1    2    0    0 -0.32378525972E+02 -0.25126437138E+01  0.90844893000E+02  0.96475265777E+02  0.00000000000E+00 0.  1.
         22    1    1    2    0    0  0.37979284914E+02 -0.34631016014E+01 -0.24942662330E+02  0.45569239180E+02  0.00000000000E+00 0. -1.
</event>
<event>
 6    1  0.8017648E-006  0.7913096E+02  0.7818608E-02  0.1430613E+00
          2   -1    0    0  502    0  0.00000000000E+00  0.00000000000E+00  0.36661764210E+03  0.36661764210E+03  0.00000000000E+00 0. -1.
          1   -1    0    0  501    0 -0.00000000000E+00 -0.00000000000E+00 -0.94583965829E+02  0.94583965829E+02  0.00000000000E+00 0. -1.
          2    1    1    2  501    0  0.19828157951E+02 -0.14359691020E+02  0.79085504505E+02  0.82788124732E+02  0.00000000000E+00 0. -1.
          1    1    1    2  502    0 -0.70588441432E+01 -0.21091296081E+02 -0.75907602762E+02  0.79098888792E+02  0.00000000000E+00 0. -1.
         22    1    1    2    0    0  0.83719017553E+01 -0.13316698498E+02 -0.78291601534E+01  0.17570399728E+02  0.00000000000E+00 0. -1.
         22    1    1    2    0    0 -0.21141215563E+02  0.48767685599E+02  0.27668493468E+03  0.28174419468E+03  0.00000000000E+00 0. -1.
</event>
<event>
 6    1  0.8017648E-006  0.1303621E+03  0.7818608E-02  0.1274648E+00
          2   -1    0    0  502    0  0.00000000000E+00  0.00000000000E+00  0.10203918174E+04  0.10203918174E+04  0.00000000000E+00 0.  1.
          1   -1    0    0  501    0 -0.00000000000E+00 -0.00000000000E+00 -0.29470951767E+02  0.29470951767E+02  0.00000000000E+00 0. -1.
          2    1    1    2  501    0  0.84676863982E+02  0.28992977666E+02  0.34264917020E+03  0.35414575797E+03  0.00000000000E+00 0.  1.
          1    1    1    2  502    0 -0.10142134010E+03 -0.44087479194E+02  0.42169911252E+03  0.43595886910E+03  0.00000000000E+00 0. -1.
         22    1    1    2    0    0  0.64403591369E+02 -0.93428983626E+00  0.18016756167E+03  0.19133490470E+03  0.00000000000E+00 0.  1.
         22    1    1    2    0    0 -0.47659115250E+02  0.16028791364E+02  0.46405021239E+02  0.68423237392E+02  0.00000000000E+00 0. -1.
</event>
<event>
 6    1  0.8017648E-006  0.1951398E+03  0.7818608E-02  0.1286342E+00
          2   -1    0    0  502    0  0.00000000000E+00  0.00000000000E+00  0.20077029797E+03  0.20077029797E+03  0.00000000000E+00 0.  1.
          1   -1    0    0  501    0 -0.00000000000E+00 -0.00000000000E+00 -0.27414912400E+03  0.27414912400E+03  0.00000000000E+00 0.  1.
          2    1    1    2  501    0 -0.29991545427E+02  0.17060157469E+02  0.34270395987E+01  0.34674001361E+02  0.00000000000E+00 0.  1.
          1    1    1    2  502    0 -0.70438128995E+02  0.88605629601E+02 -0.18575430744E+03  0.21752505682E+03  0.00000000000E+00 0.  1.
         22    1    1    2    0    0  0.10284722719E+03 -0.11742191395E+03  0.12687052441E+03  0.20115065991E+03  0.00000000000E+00 0.  1.
         22    1    1    2    0    0 -0.24175527674E+01  0.11756126884E+02 -0.17922082608E+02  0.21569703885E+02  0.00000000000E+00 0.  1.
</event>
<event>
 6    1  0.8017648E-006  0.1106042E+03  0.7818608E-02  0.1366385E+00
          2   -1    0    0  502    0  0.00000000000E+00  0.00000000000E+00  0.58498766121E+03  0.58498766121E+03  0.00000000000E+00 0. -1.
          1   -1    0    0  501    0 -0.00000000000E+00 -0.00000000000E+00 -0.10165822517E+03  0.10165822517E+03  0.00000000000E+00 0. -1.
          2    1    1    2  501    0 -0.13220492390E+03 -0.22257374554E+02  0.59020099469E+02  0.14648175574E+03  0.00000000000E+00 0. -1.
          1    1    1    2  502    0  0.15206259052E+03 -0.72132653908E+02  0.27109462212E+03  0.31909002701E+03  0.00000000000E+00 0. -1.
         22    1    1    2    0    0  0.10154443103E+02  0.84928442158E+01 -0.20829718294E+02  0.24680321753E+02  0.00000000000E+00 0. -1.
         22    1    1    2    0    0 -0.30012109724E+02  0.85897184246E+02  0.17404443274E+03  0.19639378188E+03  0.00000000000E+00 0.  1.
</event>
<event>
 6    1  0.8017648E-006  0.3802394E+02  0.7818608E-02  0.1563393E+00
          2   -1    0    0  502    0  0.00000000000E+00  0.00000000000E+00  0.18377696507E+03  0.18377696507E+03  0.00000000000E+00 0.  1.
          1   -1    0    0  501    0 -0.00000000000E+00 -0.00000000000E+00 -0.24731738695E+03  0.24731738695E+03  0.00000000000E+00 0. -1.
          2    1    1    2  501    0  0.38130940014E+01 -0.36743866536E+02  0.14252054312E+03  0.14723028433E+03  0.00000000000E+00 0.  1.
          1    1    1    2  502    0  0.78417794390E+01 -0.27593833969E+02 -0.10148668959E+03  0.10546308047E+03  0.00000000000E+00 0. -1.
         22    1    1    2    0    0  0.74679300348E+01  0.21337187914E+02 -0.12505124735E+03  0.12707816505E+03  0.00000000000E+00 0.  1.
         22    1    1    2    0    0 -0.19122803475E+02  0.43000512590E+02  0.20476971948E+02  0.51322822174E+02  0.00000000000E+00 0.  1.
</event>
<event>
 6    1  0.8017648E-006  0.4262541E+02  0.7818608E-02  0.1518530E+00
          2   -1    0    0  502    0  0.00000000000E+00  0.00000000000E+00  0.81810719305E+03  0.81810719305E+03  0.00000000000E+00 0.  1.
          1   -1    0    0  501    0 -0.00000000000E+00 -0.00000000000E+00 -0.73983299413E+02  0.73983299413E+02  0.00000000000E+00 0.  1.
          2    1    1    2  501    0 -0.81556614784E+00 -0.65245908602E+02  0.68526010394E+03  0.68835971976E+03  0.00000000000E+00 0.  1.
          1    1    1    2  502    0 -0.44300109535E+02  0.35696779831E+02  0.10810922785E+01  0.56902799190E+02  0.00000000000E+00 0.  1.
         22    1    1    2    0    0  0.26601478786E+02  0.16875307351E+02  0.96812379109E+02  0.10180889657E+03  0.00000000000E+00 0.  1.
         22    1    1    2    0    0  0.18514196898E+02  0.12673821420E+02 -0.39029681690E+02  0.45019076945E+02  0.00000000000E+00 0.  1.
</event>
<event>
 6    1  0.8017648E-006  0.8582921E+02  0.7818608E-02  0.1409151E+00
          2   -1    0    0  502    0  0.00000000000E+00  0.00000000000E+00  0.30713436387E+03  0.30713436387E+03  0.00000000000E+00 0. -1.
          1   -1    0    0  501    0 -0.00000000000E+00 -0.00000000000E+00 -0.14387865751E+03  0.14387865751E+03  0.00000000000E+00 0. -1.
          2    1    1    2  501    0  0.29418250098E+02 -0.62291479034E+02  0.20759343555E+03  0.21872516153E+03  0.00000000000E+00 0. -1.
          1    1    1    2  502    0 -0.51371190384E+02  0.55733741475E+02 -0.63662178934E+02  0.98985464422E+02  0.00000000000E+00 0. -1.
         22    1    1    2    0    0  0.78140247072E+01  0.15265805675E+02 -0.54758539875E+02  0.57381194605E+02  0.00000000000E+00 0. -1.
         22    1    1    2    0    0  0.14138915578E+02 -0.87080681163E+01  0.74082989616E+02  0.75921200823E+02  0.00000000000E+00 0.  1.
</event>
<event>
 6    1  0.8017648E-006  0.5380071E+02  0.7818608E-02  0.1492564E+00
          2   -1    0    0  502    0  0.00000000000E+00  0.00000000000E+00  0.17098806465E+03  0.17098806465E+03  0.00000000000E+00 0. -1.
          1   -1    0    0  501    0 -0.00000000000E+00 -0.00000000000E+00 -0.12591039066E+03  0.12591039066E+03  0.00000000000E+00 0. -1.
          2    1    1    2  501    0 -0.17239375507E+02  0.30827391218E+02  0.39679335478E+02  0.53122253164E+02  0.00000000000E+00 0. -1.
          1    1    1    2  502    0  0.30468107692E+02 -0.29608666982E+02 -0.78476939326E+02  0.89239053966E+02  0.00000000000E+00 0. -1.
         22    1    1    2    0    0  0.35161123199E+01 -0.12836665853E+02 -0.33164834039E+02  0.35735825902E+02  0.00000000000E+00 0. -1.
         22    1    1    2    0    0 -0.16744844505E+02  0.11617941617E+02  0.11704011188E+03  0.11880132227E+03  0.00000000000E+00 0. -1.
</event>
<event>
 6    1  0.8017648E-006  0.5001119E+02  0.7818608E-02  0.1454865E+00
          2   -1    0    0  502    0  0.00000000000E+00  0.00000000000E+00  0.21768438811E+03  0.21768438811E+03  0.00000000000E+00 0. -1.
          1   -1    0    0  501    0 -0.00000000000E+00 -0.00000000000E+00 -0.70854255055E+02  0.70854255055E+02  0.00000000000E+00 0.  1.
          2    1    1    2  501    0 -0.18831070033E+02  0.15100530929E+02  0.75967461389E+02  0.79710039662E+02  0.00000000000E+00 0. -1.
          1    1    1    2  502    0  0.20613902043E+02  0.38401984026E+02 -0.15012216961E+02  0.46097852365E+02  0.00000000000E+00 0.  1.
         22    1    1    2    0    0 -0.78831912512E+01  0.16496941545E+02  0.90486101383E+02  0.92314832655E+02  0.00000000000E+00 0.  1.
         22    1    1    2    0    0  0.61003592411E+01 -0.69999456500E+02 -0.46112127540E+01  0.70415918486E+02  0.00000000000E+00 0. -1.
</event>
<event>
 6    1  0.8017648E-006  0.9530685E+02  0.7818608E-02  0.1300575E+00
          2   -1    0    0  502    0  0.00000000000E+00  0.00000000000E+00  0.31209145317E+03  0.31209145317E+03  0.00000000000E+00 0. -1.
          1   -1    0    0  501    0 -0.00000000000E+00 -0.00000000000E+00 -0.34218402236E+03  0.34218402236E+03  0.00000000000E+00 0.  1.
          2    1    1    2  501    0 -0.37194870814E+02  0.76261013025E+02  0.25498582913E+03  0.26873215956E+03  0.00000000000E+00 0. -1.
          1    1    1    2  502    0  0.91252905479E+02 -0.31197790922E+02 -0.19374456993E+03  0.21641939214E+03  0.00000000000E+00 0.  1.
         22    1    1    2    0    0 -0.55561497878E+02 -0.56197567133E+02 -0.11695278101E+03  0.14114956459E+03  0.00000000000E+00 0.  1.
         22    1    1    2    0    0  0.15034632133E+01  0.11134345030E+02  0.25618952628E+02  0.27974359236E+02  0.00000000000E+00 0.  1.
</event>
<event>
 6    1  0.8017648E-006  0.2701316E+02  0.7818608E-02  0.1664130E+00
          2   -1    0    0  502    0  0.00000000000E+00  0.00000000000E+00  0.15830824869E+03  0.15830824869E+03  0.00000000000E+00 0.  1.
          1   -1    0    0  501    0 -0.00000000000E+00 -0.00000000000E+00 -0.61200227287E+02  0.61200227287E+02  0.00000000000E+00 0.  1.
          2    1    1    2  501    0 -0.12840886594E+02  0.19127153831E+02  0.47801569812E+02  0.53063419215E+02  0.00000000000E+00 0.  1.
          1    1    1    2  502    0  0.28639079025E+01  0.21700183031E+02  0.17461864014E+02  0.28000296550E+02  0.00000000000E+00 0.  1.
         22    1    1    2    0    0 -0.99852679260E+01 -0.16328220131E+02 -0.48483136778E+02  0.52124187284E+02  0.00000000000E+00 0.  1.
         22    1    1    2    0    0  0.19962246618E+02 -0.24499116731E+02  0.80327724350E+02  0.86320572924E+02  0.00000000000E+00 0.  1.
</event>
<event>
 6    1  0.8017648E-006  0.5298766E+02  0.7818608E-02  0.1450900E+00
          2   -1    0    0  502    0  0.00000000000E+00  0.00000000000E+00  0.34411837148E+02  0.34411837148E+02  0.00000000000E+00 0.  1.
          1   -1    0    0  501    0 -0.00000000000E+00 -0.00000000000E+00 -0.13102698810E+04  0.13102698810E+04  0.00000000000E+00 0. -1.
          2    1    1    2  501    0 -0.66031956709E+02 -0.14390552119E+01 -0.17013931200E+03  0.18250938517E+03  0.00000000000E+00 0.  1.
          1    1    1    2  502    0  0.71128685062E+02  0.99439312780E+01 -0.97822622524E+03  0.98085917407E+03  0.00000000000E+00 0. -1.
         22    1    1    2    0    0 -0.18242368101E+02 -0.31039622484E+02  0.13106058269E+02  0.38314630642E+02  0.00000000000E+00 0.  1.
         22    1    1    2    0    0  0.13145639747E+02  0.22534746418E+02 -0.14059856487E+03  0.14299852825E+03  0.00000000000E+00 0. -1.
</event>
<event>
 6    1  0.8017648E-006  0.1123350E+03  0.7818608E-02  0.1326614E+00
          2   -1    0    0  502    0  0.00000000000E+00  0.00000000000E+00  0.25572830142E+03  0.25572830142E+03  0.00000000000E+00 0.  1.
          1   -1    0    0  501    0 -0.00000000000E+00 -0.00000000000E+00 -0.92595824249E+02  0.92595824249E+02  0.00000000000E+00 0.  1.
          2    1    1    2  501    0 -0.39230881729E+02 -0.43519503783E+02  0.16699844075E+02  0.60925315617E+02  0.00000000000E+00 0.  1.
          1    1    1    2  502    0  0.84653718015E+02  0.35239400960E+02  0.12659909321E+03  0.15631825791E+03  0.00000000000E+00 0.  1.
         22    1    1    2    0    0  0.25032946681E+02  0.16830594502E+02 -0.31404596690E+02  0.43544988507E+02  0.00000000000E+00 0.  1.
         22    1    1    2    0    0 -0.70455782967E+02 -0.85504916785E+01  0.51238136571E+02  0.87535563634E+02  0.00000000000E+00 0.  1.
</event>
<event>
 6    1  0.8017648E-006  0.7187695E+02  0.7818608E-02  0.1383606E+00
          2   -1    0    0  502    0  0.00000000000E+00  0.00000000000E+00  0.94927554737E+02  0.94927554737E+02  0.00000000000E+00 0.  1.
          1   -1    0    0  501    0 -0.00000000000E+00 -0.00000000000E+00 -0.26054701004E+03  0.26054701004E+03  0.00000000000E+00 0.  1.
          2    1    1    2  501    0 -0.53926403746E+02 -0.48639505856E+02  0.43021473170E+02  0.84407971807E+02  0.00000000000E+00 0.  1.
          1    1    1    2  502    0  0.34983418166E+02  0.20717781803E+02 -0.34725324497E+02  0.53468815125E+02  0.00000000000E+00 0.  1.
         22    1    1    2    0    0 -0.81175585918E+01 -0.65890229647E+01  0.17956031614E+02  0.20778090683E+02  0.00000000000E+00 0.  1.
         22    1    1    2    0    0  0.27060544172E+02  0.34510747017E+02 -0.19187163559E+03  0.19681968716E+03  0.00000000000E+00 0.  1.
</event>
<event>
 6    1  0.8017648E-006  0.7672912E+02  0.7818608E-02  0.1459184E+00
          2   -1    0    0  502    0  0.00000000000E+00  0.00000000000E+00  0.51770157320E+03  0.51770157320E+03  0.00000000000E+00 0. -1.
          1   -1    0    0  501    0 -0.00000000000E+00 -0.00000000000E+00 -0.68186306875E+02  0.68186306875E+02  0.00000000000E+00 0. -1.
          2    1    1    2  501    0 -0.22688747901E+02 -0.27058574767E+02  0.26212105196E+03  0.26448892535E+03  0.00000000000E+00 0. -1.
          1    1    1    2  502    0  0.68415213294E+02  0.22597738474E+02 -0.18856395720E+02  0.74477264006E+02  0.00000000000E+00 0. -1.
         22    1    1    2    0    0 -0.76317230294E+01 -0.83201737356E+01 -0.16821740346E+02  0.20259304916E+02  0.00000000000E+00 0.  1.
         22    1    1    2    0    0 -0.38094742364E+02  0.12781010028E+02  0.22307235043E+03  0.22666238581E+03  0.00000000000E+00 0.  1.
</event>
<event>
 6    1  0.8017648E-006  0.5970821E+02  0.7818608E-02  0.1404047E+00
          2   -1    0    0  502    0  0.00000000000E+00  0.00000000000E+00  0.40784938859E+03  0.40784938859E+03  0.00000000000E+00 0.  1.
          1   -1    0    0  501    0 -0.00000000000E+00 -0.00000000000E+00 -0.19241742582E+03  0.19241742582E+03  0.00000000000E+00 0. -1.
          2    1    1    2  501    0  0.20496814314E+02 -0.28671745072E+02  0.28230790424E+03  0.28449945722E+03  0.00000000000E+00 0.  1.
          1    1    1    2  502    0 -0.11466211590E+02  0.37123192374E+02 -0.15689764412E+03  0.16163686507E+03  0.00000000000E+00 0. -1.
         22    1    1    2    0    0 -0.30224180528E+01  0.13892047619E+02 -0.29310203593E+02  0.32576249517E+02  0.00000000000E+00 0. -1.
         22    1    1    2    0    0 -0.60081846718E+01 -0.22343494921E+02  0.11933190624E+03  0.12155424260E+03  0.00000000000E+00 0.  1.
</event>
<event>
 6    1  0.8017648E-006  0.3450021E+02  0.7818608E-02  0.1652112E+00
          2   -1    0    0  502    0  0.00000000000E+00  0.00000000000E+00  0.25384884168E+03  0.25384884168E+03  0.00000000000E+00 0.  1.
          1   -1    0    0  501    0 -0.00000000000E+00 -0.00000000000E+00 -0.99260422895E+02  0.99260422895E+02  0.00000000000E+00 0. -1.
          2    1    1    2  501    0  0.22139448003E+02  0.97444992129E+01  0.10050284612E+03  0.10337278414E+03  0.00000000000E+00 0.  1.
          1    1    1    2  502    0 -0.33369516314E+02 -0.51669416366E+02  0.96676341103E+02  0.11458432762E+03  0.00000000000E+00 0. -1.
         22    1    1    2    0    0 -0.90287514766E+00  0.10469710752E+02  0.42418895500E+02  0.43701175296E+02  0.00000000000E+00 0.  1.
         22    1    1    2    0    0  0.12132943459E+02  0.31455206401E+02 -0.85009663937E+02  0.91450977520E+02  0.00000000000E+00 0. -1.
</event>
<event>
 6    1  0.8017648E-006  0.8748201E+02  0.7818608E-02  0.1371089E+00
          2   -1    0    0  502    0  0.00000000000E+00  0.00000000000E+00  0.12280422656E+03  0.12280422656E+03  0.00000000000E+00 0.  1.
          1   -1    0    0  501    0 -0.00000000000E+00 -0.00000000000E+00 -0.22077639163E+03  0.22077639163E+03  0.00000000000E+00 0. -1.
          2    1    1    2  501    0  0.68245826407E+02  0.59620206296E+02  0.38392068191E+02  0.98417542749E+02  0.00000000000E+00 0.  1.
          1    1    1    2  502    0 -0.60085088473E+02  0.96880316510E+01 -0.46324340710E+02  0.76485425777E+02  0.00000000000E+00 0. -1.
         22    1    1    2    0    0 -0.88848174729E+01 -0.99156853682E+02 -0.34035361802E+02  0.10521134666E+03  0.00000000000E+00 0. -1.
         22    1    1    2    0    0  0.72407953953E+00  0.29848615735E+02 -0.56004530746E+02  0.63466303001E+02  0.00000000000E+00 0. -1.
</event>
<event>
 6    1  0.8017648E-006  0.1183004E+03  0.7818608E-02  0.1341778E+00
          2   -1    0    0  502    0  0.00000000000E+00  0.00000000000E+00  0.52990260762E+03  0.52990260762E+03  0.00000000000E+00 0. -1.
          1   -1    0    0  501    0 -0.00000000000E+00 -0.00000000000E+00 -0.57875435500E+03  0.57875435500E+03  0.00000000000E+00 0. -1.
          2    1    1    2  501    0 -0.16894043731E+03 -0.11263425340E+03 -0.20502891621E+03  0.28855537229E+03  0.00000000000E+00 0. -1.
          1    1    1    2  502    0  0.21553015343E+03  0.60588383183E+02  0.44449276297E+03  0.49769269188E+03  0.00000000000E+00 0. -1.
         22    1    1    2    0    0 -0.10567677332E+02 -0.32533927323E+01  0.11182176251E+02  0.15725820620E+02  0.00000000000E+00 0.  1.
         22    1    1    2    0    0 -0.36022038785E+02  0.55299262944E+02 -0.29949777039E+03  0.30668307784E+03  0.00000000000E+00 0. -1.
</event>
<event>
 6    1  0.8017648E-006  0.3710970E+02  0.7818608E-02  0.1590195E+00
          2   -1    0    0  502    0  0.00000000000E+00  0.00000000000E+00  0.59174695038E+03  0.59174695038E+03  0.00000000000E+00 0.  1.
          1   -1    0    0  501    0 -0.00000000000E+00 -0.00000000000E+00 -0.82087501621E+02  0.82087501621E+02  0.00000000000E+00 0.  1.
          2    1    1    2  501    0 -0.10329918609E+02  0.33230937030E+02  0.45951811263E+03  0.46083391610E+03  0.00000000000E+00 0.  1.
          1    1    1    2  502    0  0.17826193235E+02 -0.53285097401E+02 -0.32612348392E+02  0.64966453173E+02  0.00000000000E+00 0.  1.
         22    1    1    2    0    0  0.10880589643E+02  0.37012789477E+01 -0.30262679191E+02  0.32371537632E+02  0.00000000000E+00 0.  1.
         22    1    1    2    0    0 -0.18376864268E+02  0.16352881423E+02  0.11301636372E+03  0.11566254510E+03  0.00000000000E+00 0.  1.
</event>
<event>
 6    1  0.8017648E-006  0.2196735E+03  0.7818608E-02  0.1221141E+00
          2   -1    0    0  502    0  0.00000000000E+00  0.00000000000E+00  0.42358892977E+02  0.42358892977E+02  0.00000000000E+00 0. -1.
          1   -1    0    0  501    0 -0.00000000000E+00 -0.00000000000E+00 -0.10162092941E+04  0.10162092941E+04  0.00000000000E+00 0. -1.
          2    1    1    2  501    0 -0.41244015153E+02  0.84686968086E+02 -0.29436221718E+03  0.30906644311E+03  0.00000000000E+00 0. -1.
          1    1    1    2  502    0  0.10489332811E+03 -0.67321974569E+02 -0.53315290273E+03  0.54752796845E+03  0.00000000000E+00 0. -1.
         22    1    1    2    0    0 -0.93134699919E+02 -0.26034488441E+02 -0.69121141877E+02  0.11886799053E+03  0.00000000000E+00 0. -1.
         22    1    1    2    0    0  0.29485386960E+02  0.86694949246E+01 -0.77214139281E+02  0.83105784945E+02  0.00000000000E+00 0. -1.
</event>
<event>
 6    1  0.8017648E-006  0.4747743E+02  0.7818608E-02  0.1515304E+00
          2   -1    0    0  502    0  0.00000000000E+00  0.00000000000E+00  0.16168962412E+03  0.16168962412E+03  0.00000000000E+00 0. -1.
          1   -1    0    0  501    0 -0.00000000000E+00 -0.00000000000E+00 -0.21913533856E+03  0.21913533856E+03  0.00000000000E+00 0. -1.
          2    1    1    2  501    0 -0.40064834736E+01  0.36195278175E+02  0.11057738051E+03  0.11641953080E+03  0.00000000000E+00 0. -1.
          1    1    1    2  502    0  0.63253830499E+01 -0.66080176505E+02 -0.89119609791E+02  0.11112562732E+03  0.00000000000E+00 0. -1.
         22    1    1    2    0    0  0.35882363392E+01  0.21434927488E+02 -0.11433320313E+03  0.11638046612E+03  0.00000000000E+00 0. -1.
         22    1    1    2    0    0 -0.59071359155E+01  0.84499708410E+01  0.35429717971E+02  0.36899338442E+02  0.00000000000E+00 0.  1.
</event>
<event>
 6    1  0.8017648E-006  0.5498564E+02  0.7818608E-02  0.1486033E+00
          2   -1    0    0  502    0  0.00000000000E+00  0.00000000000E+00  0.27923146668E+03  0.27923146668E+03  0.00000000000E+00 0. -1.
          1   -1    0    0  501    0 -0.00000000000E+00 -0.00000000000E+00 -0.27197307318E+03  0.27197307318E+03  0.00000000000E+00 0. -1.
          2    1    1    2  501    0 -0.37031172890E+02 -0.25371898012E+02  0.21271797366E+03  0.21740279964E+03  0.00000000000E+00 0. -1.
          1    1    1    2  502    0  0.20401591072E+02  0.37834954912E+02 -0.20181380824E+03  0.20634079076E+03  0.00000000000E+00 0. -1.
         22    1    1    2    0    0 -0.40308207910E+01 -0.92300179533E+01  0.59808001450E+02  0.60650126011E+02  0.00000000000E+00 0. -1.
         22    1    1    2    0    0  0.20660402609E+02 -0.32330389460E+01 -0.63453773358E+02  0.66810823451E+02  0.00000000000E+00 0. -1.
</event>
<event>
 6    1  0.8017648E-006  0.1497182E+03  0.7818608E-02  0.1255506E+00
          2   -1    0    0  502    0  0.00000000000E+00  0.00000000000E+00  0.12714116953E+04  0.12714116953E+04  0.00000000000E+00 0.  1.
          1   -1    0    0  501    0 -0.00000000000E+00 -0.00000000000E+00 -0.24977776406E+02  0.24977776406E+02  0.00000000000E+00 0.  1.
          2    1    1    2  501    0 -0.24047202364E+02 -0.59355293381E+01  0.23224251045E+03  0.23355959006E+03  0.00000000000E+00 0.  1.
          1    1    1    2  502    0  0.13675907858E+03  0.30325005406E+02  0.35188879982E+03  0.37874579729E+03  0.00000000000E+00 0.  1.
         22    1    1    2    0    0 -0.11935849570E+03  0.23357006316E+02  0.51165196446E+03  0.52590848346E+03  0.00000000000E+00 0.  1.
         22    1    1    2    0    0  0.66466194868E+01 -0.47746482384E+02  0.15065064417E+03  0.15817560090E+03  0.00000000000E+00 0.  1.
</event>
<event>
 6    1  0.8017648E-006  0.8847119E+02  0.7818608E-02  0.1382064E+00
          2   -1    0    0  502    0  0.00000000000E+00  0.00000000000E+00  0.57064842177E+03  0.57064842177E+03  0.00000000000E+00 0. -1.
          1   -1    0    0  501    0 -0.00000000000E+00 -0.00000000000E+00 -0.42478769335E+02  0.42478769335E+02  0.00000000000E+00 0.  1.
          2    1    1    2  501    0 -0.66265629006E+01  0.27728778353E+02  0.26722286102E+03  0.26873937920E+03  0.00000000000E+00 0. -1.
          1    1    1    2  502    0  0.36371705235E+02 -0.76872506973E+02  0.79982756666E+02  0.11674555509E+03  0.00000000000E+00 0.  1.
         22    1    1    2    0    0 -0.23989718506E+02 -0.24398970783E+01 -0.12623161301E+02  0.27217712854E+02  0.00000000000E+00 0.  1.
         22    1    1    2    0    0 -0.57554238285E+01  0.51583625698E+02  0.19358719606E+03  0.20042454396E+03  0.00000000000E+00 0. -1.
</event>
<event>
 6    1  0.8017648E-006  0.1542809E+03  0.7818608E-02  0.1264740E+00
          2   -1    0    0  502    0  0.00000000000E+00  0.00000000000E+00  0.63906524845E+03  0.63906524845E+03  0.00000000000E+00 0. -1.
          1   -1    0    0  501    0 -0.00000000000E+00 -0.00000000000E+00 -0.80339744677E+02  0.80339744677E+02  0.00000000000E+00 0.  1.
          2    1    1    2  501    0 -0.57501026399E+02  0.87840703418E+02  0.35824869896E+03  0.37331553346E+03  0.00000000000E+00 0. -1.
          1    1    1    2  502    0  0.11201677113E+03 -0.76091152541E+02  0.51508408422E+02  0.14488180234E+03  0.00000000000E+00 0.  1.
         22    1    1    2    0    0 -0.74019854016E+01 -0.35991318758E+02 -0.61806122281E+01  0.37260761953E+02  0.00000000000E+00 0.  1.
         22    1    1    2    0    0 -0.47113759335E+02  0.24241767881E+02  0.15514900862E+03  0.16394689538E+03  0.00000000000E+00 0. -1.
</event>
<event>
 6    1  0.8017648E-006  0.1405730E+03  0.7818608E-02  0.1301897E+00
          2   -1    0    0  502    0  0.00000000000E+00  0.00000000000E+00  0.81721895942E+03  0.81721895942E+03  0.00000000000E+00 0. -1.
          1   -1    0    0  501    0 -0.00000000000E+00 -0.00000000000E+00 -0.30125771732E+02  0.30125771732E+02  0.00000000000E+00 0. -1.
          2    1    1    2  501    0  0.19129272540E+02 -0.10264113627E+02  0.80200011893E+02  0.83086238356E+02  0.00000000000E+00 0. -1.
          1    1    1    2  502    0 -0.12303211949E+03 -0.25732339699E+02  0.31986225850E+03  0.34367269333E+03  0.00000000000E+00 0. -1.
         22    1    1    2    0    0 -0.21728078360E+02  0.10279127908E+02  0.18352786371E+02  0.30242265579E+02  0.00000000000E+00 0.  1.
         22    1    1    2    0    0  0.12563092531E+03  0.25717325418E+02  0.36867813093E+03  0.39034353389E+03  0.00000000000E+00 0. -1.
</event>
<event>
 6    1  0.8017648E-006  0.9505724E+02  0.7818608E-02  0.1363401E+00
          2   -1    0    0  502    0  0.00000000000E+00  0.00000000000E+00  0.73172326051E+03  0.73172326051E+03  0.00000000000E+00 0.  1.
          1   -1    0    0  501    0 -0.00000000000E+00 -0.00000000000E+00 -0.77257516998E+02  0.77257516998E+02  0.00000000000E+00 0.  1.
          2    1    1    2  501    0 -0.78920666562E+02 -0.11124115356E+03  0.27004721754E+03  0.30253688297E+03  0.00000000000E+00 0.  1.
          1    1    1    2  502    0  0.51077165100E+02  0.94987657914E+01 -0.30175106498E+02  0.60080282942E+02  0.00000000000E+00 0.  1.
         22    1    1    2    0    0 -0.80119430492E+01  0.25203094587E+02  0.35064664266E+01  0.26677378338E+02  0.00000000000E+00 0.  1.
         22    1    1    2    0    0  0.35855444510E+02  0.76539293180E+02  0.41108716605E+03  0.41968623326E+03  0.00000000000E+00 0.  1.
</event>
<event>
 6    1  0.8017648E-006  0.2943513E+02  0.7818608E-02  0.1664381E+00
          2   -1    0    0  502    0  0.00000000000E+00  0.00000000000E+00  0.15768062958E+03  0.15768062958E+03  0.00000000000E+00 0. -1.
          1   -1    0    0  501    0 -0.00000000000E+00 -0.00000000000E+00 -0.18536106975E+03  0.18536106975E+03  0.00000000000E+00 0.  1.
          2    1    1    2  501    0 -0.51473742543E+02 -0.95337400421E+01  0.93016026968E+02  0.10673527835E+03  0.00000000000E+00 0. -1.
          1    1    1    2  502    0  0.38438572065E+02  0.22794234589E+02 -0.94588517475E+02  0.10461399806E+03  0.00000000000E+00 0.  1.
         22    1    1    2    0    0  0.24813806841E+02 -0.79566779621E+01  0.48991260525E+02  0.55490335573E+02  0.00000000000E+00 0. -1.
         22    1    1    2    0    0 -0.11778636363E+02 -0.53038165851E+01 -0.75099210188E+02  0.76202087345E+02  0.00000000000E+00 0.  1.
</event>
<event>
 6    1  0.8017648E-006  0.9566539E+02  0.7818608E-02  0.1314543E+00
          2   -1    0    0  502    0  0.00000000000E+00  0.00000000000E+00  0.19974730222E+03  0.19974730222E+03  0.00000000000E+00 0. -1.
          1   -1    0    0  501    0 -0.00000000000E+00 -0.00000000000E+00 -0.11887316787E+03  0.11887316787E+03  0.00000000000E+00 0. -1.
          2    1    1    2  501    0  0.15239542832E+02 -0.62933604148E+02  0.70676950079E+02  0.95854647615E+02  0.00000000000E+00 0. -1.
          1    1    1    2  502    0  0.20436919437E+02  0.72393562174E+02 -0.38664262308E+02  0.84577897232E+02  0.00000000000E+00 0. -1.
         22    1    1    2    0    0 -0.56745150272E+02  0.21226188104E+02 -0.16657756057E+02  0.62833462244E+02  0.00000000000E+00 0. -1.
         22    1    1    2    0    0  0.21068688003E+02 -0.30686146130E+02  0.65519202639E+02  0.75354462993E+02  0.00000000000E+00 0. -1.
</event>
<event>
 6    1  0.8017648E-006  0.1599102E+03  0.7818608E-02  0.1273054E+00
          2   -1    0    0  502    0  0.00000000000E+00  0.00000000000E+00  0.26913619717E+03  0.26913619717E+03  0.00000000000E+00 0. -1.
          1   -1    0    0  501    0 -0.00000000000E+00 -0.00000000000E+00 -0.23391066917E+03  0.23391066917E+03  0.00000000000E+00 0. -1.
          2    1    1    2  501    0 -0.17497124870E+02  0.11040029668E+02  0.21426531928E+02  0.29784692449E+02  0.00000000000E+00 0. -1.
          1    1    1    2  502    0  0.98741541608E+02 -0.11568404918E+03 -0.15939797040E+03  0.22031886946E+03  0.00000000000E+00 0. -1.
         22    1    1    2    0    0 -0.62355397948E+02  0.12543455899E+03  0.17574214463E+03  0.22473834929E+03  0.00000000000E+00 0. -1.
         22    1    1    2    0    0 -0.18889018790E+02 -0.20790539480E+02 -0.25451781607E+01  0.28204955142E+02  0.00000000000E+00 0. -1.
</event>
<event>
 6    1  0.8017648E-006  0.3546204E+02  0.7818608E-02  0.1580337E+00
          2   -1    0    0  502    0  0.00000000000E+00  0.00000000000E+00  0.82105272007E+02  0.82105272007E+02  0.00000000000E+00 0.  1.
          1   -1    0    0  501    0 -0.00000000000E+00 -0.00000000000E+00 -0.79281933859E+03  0.79281933859E+03  0.00000000000E+00 0. -1.
          2    1    1    2  501    0 -0.22756838062E+02 -0.15582083929E+02  0.20900072748E+01  0.27659413381E+02  0.00000000000E+00 0.  1.
          1    1    1    2  502    0  0.92288750374E+01  0.43884828872E+02 -0.71646967732E+03  0.71787174959E+03  0.00000000000E+00 0. -1.
         22    1    1    2    0    0  0.17085577285E+02 -0.15623164647E+01 -0.58853208242E+02  0.61303000777E+02  0.00000000000E+00 0. -1.
         22    1    1    2    0    0 -0.35576142598E+01 -0.26740428478E+02  0.62518811707E+02  0.68090446846E+02  0.00000000000E+00 0.  1.
</event>
<event>
 6    1  0.8017648E-006  0.1118775E+03  0.7818608E-02  0.1369145E+00
          2   -1    0    0  502    0  0.00000000000E+00  0.00000000000E+00  0.24148526617E+03  0.24148526617E+03  0.00000000000E+00 0.  1.
          1   -1    0    0  501    0 -0.00000000000E+00 -0.00000000000E+00 -0.40931965658E+02  0.40931965658E+02  0.00000000000E+00 0.  1.
          2    1    1    2  501    0 -0.23720434434E+02  0.25110872372E+01  0.28564908356E+01  0.24023407517E+02  0.00000000000E+00 0.  1.
          1    1    1    2  502    0 -0.27981171879E+02 -0.10936446222E+02  0.19417201544E+02  0.35771211211E+02  0.00000000000E+00 0.  1.
         22    1    1    2    0    0 -0.89852679262E+01  0.11686933912E+02 -0.14386575834E+02  0.20598374406E+02  0.00000000000E+00 0.  1.
         22    1    1    2    0    0  0.60686874239E+02 -0.32615749266E+01  0.19266618397E+03  0.20202423870E+03  0.00000000000E+00 0.  1.
</event>
<event>
 6    1  0.8017648E-006  0.6309513E+02  0.7818608E-02  0.1429615E+00
          2   -1    0    0  502    0  0.00000000000E+00  0.00000000000E+00  0.11623627818E+03  0.11623627818E+03  0.00000000000E+00 0. -1.
          1   -1    0    0  501    0 -0.00000000000E+00 -0.00000000000E+00 -0.11568142826E+03  0.11568142826E+03  0.00000000000E+00 0. -1.
          2    1    1    2  501    0 -0.23228748260E+02 -0.26040908015E+02  0.15903215541E+02  0.38348610151E+02  0.00000000000E+00 0. -1.
          1    1    1    2  502    0  0.33576783528E+02  0.37627997106E+02  0.30428256985E+02  0.58899451453E+02  0.00000000000E+00 0. -1.
         22    1    1    2    0    0 -0.12940330955E+02 -0.42982272819E+02  0.29059671542E+02  0.53473287276E+02  0.00000000000E+00 0.  1.
         22    1    1    2    0    0  0.25922956868E+01  0.31395183728E+02 -0.74836294153E+02  0.81196357559E+02  0.00000000000E+00 0. -1.
</event>
<event>
 6    1  0.8017648E-006  0.3660523E+03  0.7818608E-02  0.1158518E+00
          2   -1    0    0  502    0  0.00000000000E+00  0.00000000000E+00  0.59290108421E+03  0.59290108421E+03  0.00000000000E+00 0. -1.
          1   -1    0    0  501    0 -0.00000000000E+00 -0.00000000000E+00 -0.43296341594E+03  0.43296341594E+03  0.00000000000E+00 0. -1.
          2    1    1    2  501    0  0.15561339209E+03  0.24473002083E+03 -0.10212994280E+03  0.30747168342E+03  0.00000000000E+00 0. -1.
          1    1    1    2  502    0 -0.16718666858E+03 -0.31305122430E+03  0.38958571990E+03  0.52700045952E+03  0.00000000000E+00 0. -1.
         22    1    1    2    0    0 -0.60924777831E+01 -0.25825286956E+02 -0.80352924850E+02  0.84620660975E+02  0.00000000000E+00 0.  1.
         22    1    1    2    0    0  0.17665754280E+02  0.94146490428E+02 -0.47165183991E+02  0.10677169623E+03  0.00000000000E+00 0. -1.
</event>
<event>
 6    1  0.8017648E-006  0.1789434E+03  0.7818608E-02  0.1216567E+00
          2   -1    0    0  502    0  0.00000000000E+00  0.00000000000E+00  0.15770855951E+03  0.15770855951E+03  0.00000000000E+00 0. -1.
          1   -1    0    0  501    0 -0.00000000000E+00 -0.00000000000E+00 -0.38717705481E+03  0.38717705481E+03  0.00000000000E+00 0. -1.
          2    1    1    2  501    0  0.74690437103E+01 -0.12521781339E+03  0.10164390223E+02  0.12585150866E+03  0.00000000000E+00 0. -1.
          1    1    1    2  502    0 -0.75613035620E+02  0.15211105026E+03 -0.21129422497E+03  0.27110948392E+03  0.00000000000E+00 0. -1.
         22    1    1    2    0    0  0.57421563504E+02  0.24934040656E+02 -0.59617638821E+02  0.86447702094E+02  0.00000000000E+00 0. -1.
         22    1    1    2    0    0  0.10722428406E+02 -0.51827277529E+02  0.31278978268E+02  0.61476919641E+02  0.00000000000E+00 0.  1.
</event>
<event>
 6    1  0.8017648E-006  0.1663658E+03  0.7818608E-02  0.1291810E+00
          2   -1    0    0  502    0  0.00000000000E+00  0.00000000000E+00  0.41389059166E+03  0.41389059166E+03  0.00000000000E+00 0. -1.
          1   -1    0    0  501    0 -0.00000000000E+00 -0.00000000000E+00 -0.14012787385E+03  0.14012787385E+03  0.00000000000E+00 0.  1.
          2    1    1    2  501    0 -0.26072586739E+02 -0.85802863444E+02  0.21728484756E+03  0.23506300461E+03  0.00000000000E+00 0. -1.
          1    1    1    2  502    0  0.50951868513E+02  0.14505388252E+03 -0.24700861311E+02  0.15571401442E+03  0.00000000000E+00 0.  1.
         22    1    1    2    0    0 -0.10678543415E+02  0.13839908484E+02 -0.26849846735E+02  0.32038861184E+02  0.00000000000E+00 0. -1.
         22    1    1    2    0    0 -0.14200738359E+02 -0.73090927558E+02  0.10802857829E+03  0.13120258530E+03  0.00000000000E+00 0. -1.
</event>
<event>
 6    1  0.8017648E-006  0.7095507E+02  0.7818608E-02  0.1357701E+00
          2   -1    0    0  502    0  0.00000000000E+00  0.00000000000E+00  0.48609693514E+02  0.48609693514E+02  0.00000000000E+00 0. -1.
          1   -1    0    0  501    0 -0.00000000000E+00 -0.00000000000E+00 -0.45605948384E+03  0.45605948384E+03  0.00000000000E+00 0. -1.
          2    1    1    2  501    0  0.43435858617E+02  0.56026456189E+02 -0.41215499930E+01  0.71011441200E+02  0.00000000000E+00 0. -1.
          1    1    1    2  502    0 -0.14981684707E+00 -0.22802177356E+02 -0.89990158564E+02  0.92834209081E+02  0.00000000000E+00 0. -1.
         22    1    1    2    0    0  0.20741374184E+02 -0.15104053048E+01 -0.14402309370E+01  0.20846107368E+02  0.00000000000E+00 0. -1.
         22    1    1    2    0    0 -0.64027415955E+02 -0.31713873529E+02 -0.31189785084E+03  0.31997741971E+03  0.00000000000E+00 0. -1.
</event>
<event>
 6    1  0.8017648E-006  0.5411850E+02  0.7818608E-02  0.1453272E+00
          2   -1    0    0  502    0  0.00000000000E+00  0.00000000000E+00  0.78344501163E+03  0.78344501163E+03  0.00000000000E+00 0. -1.
          1   -1    0    0  501    0 -0.00000000000E+00 -0.00000000000E+00 -0.18162877114E+03  0.18162877114E+03  0.00000000000E+00 0.  1.
          2    1    1    2  501    0  0.28249793235E+02 -0.10240247010E+03  0.72279367278E+03  0.73055801283E+03  0.00000000000E+00 0. -1.
          1    1    1    2  502    0 -0.20032096554E+02  0.61549426717E+02 -0.56093812936E+02  0.85651226910E+02  0.00000000000E+00 0.  1.
         22    1    1    2    0    0 -0.20204576663E+02  0.24256035984E+02 -0.10183757700E+03  0.10661834875E+03  0.00000000000E+00 0.  1.
         22    1    1    2    0    0  0.11986879981E+02  0.16597007402E+02  0.36953957643E+02  0.42246194289E+02  0.00000000000E+00 0. -1.
</event>
<event>
 6    1  0.8017648E-006  0.5082123E+02  0.7818608E-02  0.1519200E+00
          2   -1    0    0  502    0  0.00000000000E+00  0.00000000000E+00  0.12791815364E+03  0.12791815364E+03  0.00000000000E+00 0.  1.
          1   -1    0    0  501    0 -0.00000000000E+00 -0.00000000000E+00 -0.14305197967E+03  0.14305197967E+03  0.00000000000E+00 0. -1.
          2    1    1    2  501    0 -0.11795662363E+02 -0.21644707068E+02  0.73196597222E+02  0.77235826140E+02  0.00000000000E+00 0.  1.
          1    1    1    2  502    0  0.35239498759E+02  0.24995276808E+02 -0.40082313185E+02  0.58933674293E+02  0.00000000000E+00 0. -1.
         22    1    1    2    0    0 -0.16465641572E+02 -0.18650980978E+02  0.38828311889E+02  0.46115227940E+02  0.00000000000E+00 0. -1.
         22    1    1    2    0    0 -0.69781948245E+01  0.15300411237E+02 -0.87076421956E+02  0.88685404931E+02  0.00000000000E+00 0. -1.
</event>
<event>
 6    1  0.8017648E-006  0.5531670E+02  0.7818608E-02  0.1532386E+00
          2   -1    0    0  502    0  0.00000000000E+00  0.00000000000E+00  0.24871191101E+03  0.24871191101E+03  0.00000000000E+00 0. -1.
          1   -1    0    0  501    0 -0.00000000000E+00 -0.00000000000E+00 -0.72311494833E+02  0.72311494833E+02  0.00000000000E+00 0.  1.
          2    1    1    2  501    0 -0.36058268353E+02  0.23263081371E+02  0.14851820992E+03  0.15459310576E+03  0.00000000000E+00 0. -1.
          1    1    1    2  502    0  0.38252788290E+02 -0.18677538955E+02  0.50405128568E+01  0.42866455921E+02  0.00000000000E+00 0.  1.
         22    1    1    2    0    0  0.10617870933E+02 -0.26663889200E+01 -0.49181264792E+02  0.50384974145E+02  0.00000000000E+00 0.  1.
         22    1    1    2    0    0 -0.12812390869E+02 -0.19191534962E+01  0.72022958188E+02  0.73178870011E+02  0.00000000000E+00 0. -1.
</event>
<event>
 6    1  0.8017648E-006  0.4863149E+02  0.7818608E-02  0.1502614E+00
          2   -1    0    0  502    0  0.00000000000E+00  0.00000000000E+00  0.10899755707E+03  0.10899755707E+03  0.00000000000E+00 0. -1.
          1   -1    0    0  501    0 -0.00000000000E+00 -0.00000000000E+00 -0.20537588304E+03  0.20537588304E+03  0.00000000000E+00 0. -1.
          2    1    1    2  501    0 -0.21414225574E+02 -0.62954335308E+02  0.14221213873E+02  0.68000443492E+02  0.00000000000E+00 0. -1.
          1    1    1    2  502    0 -0.29448081405E+02  0.33634870218E+02 -0.96711900903E+02  0.10654429018E+03  0.00000000000E+00 0. -1.
         22    1    1    2    0    0  0.42985047308E+02  0.87624219111E+01  0.53354914145E+02  0.69074171680E+02  0.00000000000E+00 0. -1.
         22    1    1    2    0    0  0.78772596707E+01  0.20557043179E+02 -0.67242553087E+02  0.70754534765E+02  0.00000000000E+00 0. -1.
</event>
<event>
 6    1  0.8017648E-006  0.3607858E+02  0.7818608E-02  0.1564696E+00
          2   -1    0    0  502    0  0.00000000000E+00  0.00000000000E+00  0.50760580904E+03  0.50760580904E+03  0.00000000000E+00 0. -1.
          1   -1    0    0  501    0 -0.00000000000E+00 -0.00000000000E+00 -0.58260058875E+02  0.58260058875E+02  0.00000000000E+00 0.  1.
          2    1    1    2  501    0 -0.31015343130E+02  0.17878955808E+02  0.35857515378E+03  0.36035780757E+03  0.00000000000E+00 0. -1.
          1    1    1    2  502    0  0.37262660245E+02  0.15811483688E+02 -0.57257953874E+01  0.40881457872E+02  0.00000000000E+00 0.  1.
         22    1    1    2    0    0  0.13193205770E+02 -0.14625610796E+02 -0.29638277586E+02  0.35586467483E+02  0.00000000000E+00 0.  1.
         22    1    1    2    0    0 -0.19440522885E+02 -0.19064828700E+02  0.12613466936E+03  0.12904013499E+03  0.00000000000E+00 0. -1.
</event>
<event>
 6    1  0.8017648E-006  0.7109522E+02  0.7818608E-02  0.1480616E+00
          2   -1    0    0  502    0  0.00000000000E+00  0.00000000000E+00  0.24434892122E+03  0.24434892122E+03  0.00000000000E+00 0. -1.
          1   -1    0    0  501    0 -0.00000000000E+00 -0.00000000000E+00 -0.72007379846E+02  0.72007379846E+02  0.00000000000E+00 0. -1.
          2    1    1    2  501    0  0.27792175183E+02  0.37435655338E+01  0.11857736658E+03  0.12184831205E+03  0.00000000000E+00 0. -1.
          1    1    1    2  502    0 -0.24651426430E+02  0.40669225830E+02 -0.85101510708E+01  0.48312539013E+02  0.00000000000E+00 0. -1.
         22    1    1    2    0    0  0.85125278756E+01 -0.60438618743E+01 -0.37361698628E+02  0.38792884935E+02  0.00000000000E+00 0. -1.
         22    1    1    2    0    0 -0.11653276629E+02 -0.38368929489E+02  0.99636024493E+02  0.10740256507E+03  0.00000000000E+00 0. -1.
</event>
<event>
 6    1  0.8017648E-006  0.4169831E+02  0.7818608E-02  0.1519437E+00
          2   -1    0    0  502    0  0.00000000000E+00  0.00000000000E+00  0.14060136403E+03  0.14060136403E+03  0.00000000000E+00 0. -1.
          1   -1    0    0  501    0 -0.00000000000E+00 -0.00000000000E+00 -0.24078460742E+03  0.24078460742E+03  0.00000000000E+00 0.  1.
          2    1    1    2  501    0  0.31919863802E+02 -0.48087296791E+02  0.10242316634E+03  0.11756602750E+03  0.00000000000E+00 0. -1.
          1    1    1    2  502    0 -0.22463902838E+02  0.33915076830E+02 -0.51229617617E+02  0.65416611715E+02  0.00000000000E+00 0.  1.
         22    1    1    2    0    0  0.19620144832E+02  0.85721086681E+01  0.17064419384E+02  0.27379290334E+02  0.00000000000E+00 0. -1.
         22    1    1    2    0    0 -0.29076105795E+02  0.56001112934E+01 -0.16844121151E+03  0.17102404190E+03  0.00000000000E+00 0.  1.
</event>
<event>
 6    1  0.8017648E-006  0.5155709E+02  0.7818608E-02  0.1488049E+00
          2   -1    0    0  502    0  0.00000000000E+00  0.00000000000E+00  0.31794920701E+03  0.31794920701E+03  0.00000000000E+00 0. -1.
          1   -1    0    0  501    0 -0.00000000000E+00 -0.00000000000E+00 -0.12252189246E+03  0.12252189246E+03  0.00000000000E+00 0. -1.
          2    1    1    2  501    0  0.36716336774E+02  0.70208597885E+02  0.17959601953E+03  0.19629586555E+03  0.00000000000E+00 0. -1.
          1    1    1    2  502    0 -0.79936828277E+02 -0.73528074827E+02  0.85573533453E+01  0.10894724686E+03  0.00000000000E+00 0. -1.
         22    1    1    2    0    0  0.29444859696E+02 -0.21189386080E-01 -0.59808776766E+02  0.66664008204E+02  0.00000000000E+00 0. -1.
         22    1    1    2    0    0  0.13775631807E+02  0.33406663277E+01  0.67082718437E+02  0.68563978853E+02  0.00000000000E+00 0.  1.
</event>
<event>
 6    1  0.8017648E-006  0.4464378E+02  0.7818608E-02  0.1536213E+00
          2   -1    0    0  502    0  0.00000000000E+00  0.00000000000E+00  0.65480106734E+03  0.65480106734E+03  0.00000000000E+00 0.  1.
          1   -1    0    0  501    0 -0.00000000000E+00 -0.00000000000E+00 -0.70701723532E+02  0.70701723532E+02  0.00000000000E+00 0. -1.
          2    1    1    2  501    0  0.25113508343E+02 -0.25862708199E+02  0.48494328304E+03  0.48628135451E+03  0.00000000000E+00 0.  1.
          1    1    1    2  502    0 -0.51822026918E+02  0.44239396890E+02 -0.74850104985E+01  0.68546860564E+02  0.00000000000E+00 0. -1.
         22    1    1    2    0    0  0.10953394864E+02  0.81941534323E+01 -0.28731800348E+02  0.31821963496E+02  0.00000000000E+00 0. -1.
         22    1    1    2    0    0  0.15755123711E+02 -0.26570842124E+02  0.13537287161E+03  0.13885261230E+03  0.00000000000E+00 0. -1.
</event>
<event>
 6    1  0.8017648E-006  0.7433486E+02  0.7818608E-02  0.1443388E+00
          2   -1    0    0  502    0  0.00000000000E+00  0.00000000000E+00  0.15784030700E+03  0.15784030700E+03  0.00000000000E+00 0. -1.
          1   -1    0    0  501    0 -0.00000000000E+00 -0.00000000000E+00 -0.16964084512E+03  0.16964084512E+03  0.00000000000E+00 0.  1.
          2    1    1    2  501    0 -0.55993034623E+01 -0.49702980735E+02  0.71914647119E+02  0.87598258907E+02  0.00000000000E+00 0. -1.
          1    1    1    2  502    0 -0.55852483390E+01  0.83626195994E+02 -0.73225133847E+02  0.11129445576E+03  0.00000000000E+00 0.  1.
         22    1    1    2    0    0  0.81523424381E+01 -0.13375398034E+02 -0.66778028428E+02  0.68590575450E+02  0.00000000000E+00 0. -1.
         22    1    1    2    0    0  0.30322093631E+01 -0.20547817225E+02  0.56287977033E+02  0.59997862002E+02  0.00000000000E+00 0.  1.
</event>
<event>
 6    1  0.8017648E-006  0.9187422E+02  0.7818608E-02  0.1369871E+00
          2   -1    0    0  502    0  0.00000000000E+00  0.00000000000E+00  0.20565734058E+03  0.20565734058E+03  0.00000000000E+00 0. -1.
          1   -1    0    0  501    0 -0.00000000000E+00 -0.00000000000E+00 -0.69425641081E+02  0.69425641081E+02  0.00000000000E+00 0.  1.
          2    1    1    2  501    0 -0.24146981177E+02  0.33246742201E+01  0.26936118205E+02  0.36327463751E+02  0.00000000000E+00 0. -1.
          1    1    1    2  502    0  0.49819485170E+02  0.38308255361E+02 -0.74451599569E+01  0.63284547389E+02  0.00000000000E+00 0.  1.
         22    1    1    2    0    0 -0.72572791422E+01  0.25280194687E+02 -0.12235619349E+02  0.29008045863E+02  0.00000000000E+00 0.  1.
         22    1    1    2    0    0 -0.18415224851E+02 -0.66913124268E+02  0.12897636060E+03  0.14646292466E+03  0.00000000000E+00 0. -1.
</event>
<event>
 6    1  0.8017648E-006  0.7719863E+02  0.7818608E-02  0.1440542E+00
          2   -1    0    0  502    0  0.00000000000E+00  0.00000000000E+00  0.54245229952E+03  0.54245229952E+03  0.00000000000E+00 0.  1.
          1   -1    0    0  501    0 -0.00000000000E+00 -0.00000000000E+00 -0.58980213631E+02  0.58980213631E+02  0.00000000000E+00 0.  1.
          2    1    1    2  501    0  0.91532102990E+01 -0.18360869689E+02  0.45475954778E+02  0.49889530540E+02  0.00000000000E+00 0.  1.
          1    1    1    2  502    0 -0.67569049318E+02  0.39111519801E+02  0.39614495778E+03  0.40376492540E+03  0.00000000000E+00 0.  1.
         22    1    1    2    0    0  0.44345895704E+02 -0.16887523154E+02  0.87672064564E+02  0.99690209194E+02  0.00000000000E+00 0.  1.
         22    1    1    2    0    0  0.14069943315E+02 -0.38631269579E+01 -0.45820891228E+02  0.48087848025E+02  0.00000000000E+00 0.  1.
</event>
<event>
 6    1  0.8017648E-006  0.5216934E+02  0.7818608E-02  0.1478577E+00
          2   -1    0    0  502    0  0.00000000000E+00  0.00000000000E+00  0.27659958677E+03  0.27659958677E+03  0.00000000000E+00 0.  1.
          1   -1    0    0  501    0 -0.00000000000E+00 -0.00000000000E+00 -0.17435614474E+03  0.17435614474E+03  0.00000000000E+00 0.  1.
          2    1    1    2  501    0  0.86566151520E+02 -0.25087423382E+02  0.21662672657E+03  0.23462782458E+03  0.00000000000E+00 0.  1.
          1    1    1    2  502    0 -0.50296689680E+02  0.15059599936E+02 -0.41406137692E+02  0.66865662201E+02  0.00000000000E+00 0.  1.
         22    1    1    2    0    0 -0.11534995777E+02 -0.13581263632E+02  0.33328479106E+02  0.37792781969E+02  0.00000000000E+00 0.  1.
         22    1    1    2    0    0 -0.24734466062E+02  0.23609087078E+02 -0.10630562595E+03  0.11166946276E+03  0.00000000000E+00 0.  1.
</event>
<event>
 6    1  0.8017648E-006  0.1004104E+03  0.7818608E-02  0.1354107E+00
          2   -1    0    0  502    0  0.00000000000E+00  0.00000000000E+00  0.13049911252E+04  0.13049911252E+04  0.00000000000E+00 0.  1.
          1   -1    0    0  501    0 -0.00000000000E+00 -0.00000000000E+00 -0.57509607015E+02  0.57509607015E+02  0.00000000000E+00 0.  1.
          2    1    1    2  501    0  0.10634939368E+03  0.11349638401E+03  0.20965641774E+03  0.26105063918E+03  0.00000000000E+00 0.  1.
          1    1    1    2  502    0 -0.17032371275E+03 -0.69604649192E+02  0.82090442854E+03  0.84127228358E+03  0.00000000000E+00 0.  1.
         22    1    1    2    0    0  0.11545838434E+02 -0.11772033016E+02 -0.13739783500E+02  0.21463196339E+02  0.00000000000E+00 0. -1.
         22    1    1    2    0    0  0.52428480639E+02 -0.32119701807E+02  0.23066045542E+03  0.23871461313E+03  0.00000000000E+00 0. -1.
</event>
<event>
 6    1  0.8017648E-006  0.4202165E+02  0.7818608E-02  0.1538256E+00
          2   -1    0    0  502    0  0.00000000000E+00  0.00000000000E+00  0.27641862462E+02  0.27641862462E+02  0.00000000000E+00 0. -1.
          1   -1    0    0  501    0 -0.00000000000E+00 -0.00000000000E+00 -0.57414780882E+03  0.57414780882E+03  0.00000000000E+00 0. -1.
          2    1    1    2  501    0  0.60269386047E+01  0.41762303157E+02 -0.47914793933E+02  0.63845449576E+02  0.00000000000E+00 0. -1.
          1    1    1    2  502    0  0.20087943524E+02 -0.46970357135E+02 -0.29331926576E+03  0.29773466642E+03  0.00000000000E+00 0. -1.
         22    1    1    2    0    0  0.82654507374E+01  0.17214932298E+02  0.10222105916E+02  0.21660171266E+02  0.00000000000E+00 0. -1.
         22    1    1    2    0    0 -0.34380332866E+02 -0.12006878321E+02 -0.21549399259E+03  0.21854938402E+03  0.00000000000E+00 0.  1.
</event>
<event>
 6    1  0.8017648E-006  0.5504921E+02  0.7818608E-02  0.1460690E+00
          2   -1    0    0  502    0  0.00000000000E+00  0.00000000000E+00  0.35450685222E+03  0.35450685222E+03  0.00000000000E+00 0.  1.
          1   -1    0    0  501    0 -0.00000000000E+00 -0.00000000000E+00 -0.77806524892E+02  0.77806524892E+02  0.00000000000E+00 0. -1.
          2    1    1    2  501    0 -0.75959121812E+01  0.33979921167E+02  0.23529413479E+03  0.23785639110E+03  0.00000000000E+00 0.  1.
          1    1    1    2  502    0  0.30416523671E+02 -0.34422126603E+02 -0.19627405569E+02  0.49952805341E+02  0.00000000000E+00 0. -1.
         22    1    1    2    0    0 -0.54993130748E+00  0.20408881562E+02  0.96197294301E+02  0.98339942556E+02  0.00000000000E+00 0.  1.
         22    1    1    2    0    0 -0.22270680183E+02 -0.19966676127E+02 -0.35163696185E+02  0.46164238115E+02  0.00000000000E+00 0. -1.
</event>
<event>
 6    1  0.8017648E-006  0.5438427E+02  0.7818608E-02  0.1514581E+00
          2   -1    0    0  502    0  0.00000000000E+00  0.00000000000E+00  0.37392571194E+03  0.37392571194E+03  0.00000000000E+00 0. -1.
          1   -1    0    0  501    0 -0.00000000000E+00 -0.00000000000E+00 -0.44564547004E+02  0.44564547004E+02  0.00000000000E+00 0. -1.
          2    1    1    2  501    0  0.18049784398E+02  0.14152755084E+02  0.21930793104E+03  0.22050411291E+03  0.00000000000E+00 0. -1.
          1    1    1    2  502    0  0.15452963823E+02 -0.32596784285E+02  0.11621130925E+02  0.37899803701E+02  0.00000000000E+00 0. -1.
         22    1    1    2    0    0 -0.14450767778E+02 -0.20917807971E+01 -0.27467890371E+02  0.31107639539E+02  0.00000000000E+00 0. -1.
         22    1    1    2    0    0 -0.19051980443E+02  0.20535809998E+02  0.12589999334E+03  0.12897870279E+03  0.00000000000E+00 0. -1.
</event>
<event>
 6    1  0.8017648E-006  0.8544851E+02  0.7818608E-02  0.1347943E+00
          2   -1    0    0  502    0  0.00000000000E+00  0.00000000000E+00  0.35884882508E+02  0.35884882508E+02  0.00000000000E+00 0.  1.
          1   -1    0    0  501    0 -0.00000000000E+00 -0.00000000000E+00 -0.33031883457E+03  0.33031883457E+03  0.00000000000E+00 0.  1.
          2    1    1    2  501    0 -0.16834514339E+02  0.16354028448E+02 -0.56397692342E+02  0.61086453662E+02  0.00000000000E+00 0.  1.
          1    1    1    2  502    0  0.20481200796E+02 -0.39289187046E+02 -0.12395844460E+03  0.13163896001E+03  0.00000000000E+00 0.  1.
         22    1    1    2    0    0  0.38027359021E+02  0.28111098585E+02 -0.12190930405E+03  0.13076005625E+03  0.00000000000E+00 0. -1.
         22    1    1    2    0    0 -0.41674045477E+02 -0.51759399868E+01  0.78314889274E+01  0.42718247155E+02  0.00000000000E+00 0.  1.
</event>
<event>
 6    1  0.8017648E-006  0.2974887E+02  0.7818608E-02  0.1629532E+00
          2   -1    0    0  502    0  0.00000000000E+00  0.00000000000E+00  0.13433078498E+03  0.13433078498E+03  0.00000000000E+00 0. -1.
          1   -1    0    0  501    0 -0.00000000000E+00 -0.00000000000E+00 -0.91744666352E+02  0.91744666352E+02  0.00000000000E+00 0.  1.
          2    1    1    2  501    0  0.25051566916E+02 -0.18948258087E+02  0.22589600872E+02  0.38689889596E+02  0.00000000000E+00 0. -1.
          1    1    1    2  502    0 -0.15537279896E+02 -0.21743467671E+02 -0.38925198856E+02  0.47216062510E+02  0.00000000000E+00 0.  1.
         22    1    1    2    0    0 -0.19535628222E+02  0.21993805236E+02  0.94375262478E+02  0.98853722270E+02  0.00000000000E+00 0. -1.
         22    1    1    2    0    0  0.10021341203E+02  0.18697920521E+02 -0.35453545864E+02  0.41315776958E+02  0.00000000000E+00 0. -1.
</event>
<event>
 6    1  0.8017648E-006  0.7028591E+02  0.7818608E-02  0.1458423E+00
          2   -1    0    0  502    0  0.00000000000E+00  0.00000000000E+00  0.13304346805E+03  0.13304346805E+03  0.00000000000E+00 0.  1.
          1   -1    0    0  501    0 -0.00000000000E+00 -0.00000000000E+00 -0.51195455144E+03  0.51195455144E+03  0.00000000000E+00 0. -1.
          2    1    1    2  501    0  0.85856466488E+02  0.10793648160E+02  0.36324847480E+02  0.93847377282E+02  0.00000000000E+00 0.  1.
          1    1    1    2  502    0 -0.49461039323E+02  0.36871794789E+02 -0.41029737632E+03  0.41490946082E+03  0.00000000000E+00 0. -1.
         22    1    1    2    0    0 -0.36635062679E+02 -0.62515652997E+02  0.44220911608E+02  0.84887123350E+02  0.00000000000E+00 0. -1.
         22    1    1    2    0    0  0.23963551426E+00  0.14850210048E+02 -0.49159466158E+02  0.51354058034E+02  0.00000000000E+00 0. -1.
</event>
<event>
 6    1  0.8017648E-006  0.1209991E+03  0.7818608E-02  0.1255741E+00
          2   -1    0    0  502    0  0.00000000000E+00  0.00000000000E+00  0.17055130600E+04  0.17055130600E+04  0.00000000000E+00 0.  1.
          1   -1    0    0  501    0 -0.00000000000E+00 -0.00000000000E+00 -0.66421496184E+02  0.66421496184E+02  0.00000000000E+00 0.  1.
          2    1    1    2  501    0 -0.18354032789E+03  0.14126943576E+03  0.11729426143E+04  0.11955912687E+04  0.00000000000E+00 0.  1.
          1    1    1    2  502    0  0.15625816549E+03 -0.11042908023E+02  0.25603312990E+03  0.30015250075E+03  0.00000000000E+00 0.  1.
         22    1    1    2    0    0  0.14001714261E+02 -0.70493510585E+02  0.20207233553E+03  0.21447286967E+03  0.00000000000E+00 0.  1.
         22    1    1    2    0    0  0.13280448145E+02 -0.59733017154E+02  0.80434840366E+01  0.61717916983E+02  0.00000000000E+00 0.  1.
</event>
<event>
 6    1  0.8017648E-006  0.5041479E+02  0.7818608E-02  0.1512480E+00
          2   -1    0    0  502    0  0.00000000000E+00  0.00000000000E+00  0.28133334843E+03  0.28133334843E+03  0.00000000000E+00 0.  1.
          1   -1    0    0  501    0 -0.00000000000E+00 -0.00000000000E+00 -0.93801009712E+02  0.93801009712E+02  0.00000000000E+00 0.  1.
          2    1    1    2  501    0 -0.11624982757E+01  0.37695299149E+02  0.12930251145E+03  0.13469011266E+03  0.00000000000E+00 0.  1.
          1    1    1    2  502    0  0.24454906967E+02 -0.35974846069E+02  0.10151650650E+03  0.11044380071E+03  0.00000000000E+00 0.  1.
         22    1    1    2    0    0 -0.12395666121E+02 -0.14208862386E+02 -0.83975014693E+02  0.86065947979E+02  0.00000000000E+00 0.  1.
         22    1    1    2    0    0 -0.10896742570E+02  0.12488409307E+02  0.40688335461E+02  0.43934496791E+02  0.00000000000E+00 0.  1.
</event>
<event>
 6    1  0.8017648E-006  0.5139391E+03  0.7818608E-02  0.1047662E+00
          2   -1    0    0  502    0  0.00000000000E+00  0.00000000000E+00  0.17940488623E+04  0.17940488623E+04  0.00000000000E+00 0. -1.
          1   -1    0    0  501    0 -0.00000000000E+00 -0.00000000000E+00 -0.30832480701E+03  0.30832480701E+03  0.00000000000E+00 0.  1.
          2    1    1    2  501    0  0.20679490108E+02  0.50652869325E+03  0.11674838148E+04  0.12727990478E+04  0.00000000000E+00 0. -1.
          1    1    1    2  502    0 -0.18202802434E+03 -0.48688540539E+03  0.34088758223E+03  0.62160754769E+03  0.00000000000E+00 0.  1.
         22    1    1    2    0    0  0.16583374439E+03 -0.30717696186E+02 -0.51825133681E+02  0.17643767205E+03  0.00000000000E+00 0.  1.
         22    1    1    2    0    0 -0.44852101526E+01  0.11074408322E+02  0.29177791931E+02  0.31529401703E+02  0.00000000000E+00 0.  1.
</event>
<event>
 6    1  0.8017648E-006  0.2918684E+02  0.7818608E-02  0.1692978E+00
          2   -1    0    0  502    0  0.00000000000E+00  0.00000000000E+00  0.19194718732E+03  0.19194718732E+03  0.00000000000E+00 0.  1.
          1   -1    0    0  501    0 -0.00000000000E+00 -0.00000000000E+00 -0.42125601984E+03  0.42125601984E+03  0.00000000000E+00 0.  1.
          2    1    1    2  501    0  0.20759552766E+02 -0.87030259085E+01  0.15953794238E+03  0.16111814532E+03  0.00000000000E+00 0.  1.
          1    1    1    2  502    0 -0.31621841909E+02 -0.81469495109E+01 -0.28752688377E+03  0.28937522797E+03  0.00000000000E+00 0.  1.
         22    1    1    2    0    0  0.27896019937E+01 -0.10380171283E+02  0.28165226226E+02  0.30146472488E+02  0.00000000000E+00 0.  1.
         22    1    1    2    0    0  0.80726871499E+01  0.27230146703E+02 -0.12948511736E+03  0.13256336139E+03  0.00000000000E+00 0. -1.
</event>
<event>
 6    1  0.8017648E-006  0.9082629E+03  0.7818608E-02  0.1046733E+00
          2   -1    0    0  502    0  0.00000000000E+00  0.00000000000E+00  0.54017258752E+03  0.54017258752E+03  0.00000000000E+00 0. -1.
          1   -1    0    0  501    0 -0.00000000000E+00 -0.00000000000E+00 -0.85479751638E+03  0.85479751638E+03  0.00000000000E+00 0. -1.
          2    1    1    2  501    0  0.18658602408E+03 -0.79969495498E+02  0.46059908805E+03  0.50334976359E+03  0.00000000000E+00 0. -1.
          1    1    1    2  502    0 -0.15241185687E+03 -0.12498230719E+03 -0.31987950345E+03  0.37572975388E+03  0.00000000000E+00 0. -1.
         22    1    1    2    0    0 -0.28742969165E+01  0.20720835799E+03 -0.35844924527E+03  0.41404036837E+03  0.00000000000E+00 0. -1.
         22    1    1    2    0    0 -0.31299870289E+02 -0.22565553070E+01 -0.96895268194E+02  0.10185021807E+03  0.00000000000E+00 0.  1.
</event>
<event>
 6    1  0.8017648E-006  0.2341909E+03  0.7818608E-02  0.1200946E+00
          2   -1    0    0  502    0  0.00000000000E+00  0.00000000000E+00  0.59860205316E+03  0.59860205316E+03  0.00000000000E+00 0. -1.
          1   -1    0    0  501    0 -0.00000000000E+00 -0.00000000000E+00 -0.17417531771E+03  0.17417531771E+03  0.00000000000E+00 0. -1.
          2    1    1    2  501    0 -0.69941257134E+02 -0.15497042683E+03 -0.75953787993E+00  0.17002408518E+03  0.00000000000E+00 0. -1.
          1    1    1    2  502    0  0.34228907986E+02  0.20910114055E+03  0.41136418951E+03  0.46272605452E+03  0.00000000000E+00 0. -1.
         22    1    1    2    0    0  0.37865567742E+02  0.93874063453E+01 -0.40636641586E+02  0.56331707393E+02  0.00000000000E+00 0.  1.
         22    1    1    2    0    0 -0.21532185947E+01 -0.63518120066E+02  0.54458725404E+02  0.83695523773E+02  0.00000000000E+00 0. -1.
</event>
<event>
 6    1  0.8017648E-006  0.9568562E+02  0.7818608E-02  0.1351732E+00
          2   -1    0    0  502    0  0.00000000000E+00  0.00000000000E+00  0.31437582097E+03  0.31437582097E+03  0.00000000000E+00 0. -1.
          1   -1    0    0  501    0 -0.00000000000E+00 -0.00000000000E+00 -0.10667380512E+03  0.10667380512E+03  0.00000000000E+00 0. -1.
          2    1    1    2  501    0 -0.10753120216E+02  0.68044925362E+02  0.17081244869E+03  0.18418098188E+03  0.00000000000E+00 0. -1.
          1    1    1    2  502    0  0.60276746223E+02 -0.79393060776E+02 -0.71036798697E+00  0.99684747365E+02  0.00000000000E+00 0. -1.
         22    1    1    2    0    0 -0.18602009302E+02  0.17706197463E+02  0.80171698591E+02  0.84184591427E+02  0.00000000000E+00 0. -1.
         22    1    1    2    0    0 -0.30921616705E+02 -0.63580620497E+01 -0.42571763436E+02  0.52999305417E+02  0.00000000000E+00 0. -1.
</event>
<event>
 6    1  0.8017648E-006  0.2235499E+03  0.7818608E-02  0.1207611E+00
          2   -1    0    0  502    0  0.00000000000E+00  0.00000000000E+00  0.89135603803E+03  0.89135603803E+03  0.00000000000E+00 0.  1.
          1   -1    0    0  501    0 -0.00000000000E+00 -0.00000000000E+00 -0.99770999844E+02  0.99770999844E+02  0.00000000000E+00 0.  1.
          2    1    1    2  501    0  0.12482156003E+02  0.19723113382E+03  0.28242038972E+03  0.34469871032E+03  0.00000000000E+00 0.  1.
          1    1    1    2  502    0 -0.11366047061E+02 -0.20653072216E+03  0.47349186869E+03  0.51669979286E+03  0.00000000000E+00 0.  1.
         22    1    1    2    0    0  0.25935362573E+02  0.37181710886E+02  0.66259968526E+02  0.80283909255E+02  0.00000000000E+00 0. -1.
         22    1    1    2    0    0 -0.27051471515E+02 -0.27882122537E+02 -0.30587188758E+02  0.49444625436E+02  0.00000000000E+00 0. -1.
</event>
<event>
 6    1  0.8017648E-006  0.4811684E+02  0.7818608E-02  0.1476583E+00
          2   -1    0    0  502    0  0.00000000000E+00  0.00000000000E+00  0.23178967673E+03  0.23178967673E+03  0.00000000000E+00 0.  1.
          1   -1    0    0  501    0 -0.00000000000E+00 -0.00000000000E+00 -0.11690398777E+03  0.11690398777E+03  0.00000000000E+00 0.  1.
          2    1    1    2  501    0 -0.27265643859E+02  0.57834310712E+02  0.68916175883E+02  0.94008840695E+02  0.00000000000E+00 0.  1.
          1    1    1    2  502    0  0.14694717206E+02 -0.63340828051E+02 -0.58855295384E+02  0.87703711477E+02  0.00000000000E+00 0.  1.
         22    1    1    2    0    0 -0.19596739881E+02  0.11943915041E+02  0.12590963101E+03  0.12798407909E+03  0.00000000000E+00 0.  1.
         22    1    1    2    0    0  0.32167666534E+02 -0.64373977013E+01 -0.21084822551E+02  0.38997033238E+02  0.00000000000E+00 0.  1.
</event>
<event>
 6    1  0.8017648E-006  0.4149995E+02  0.7818608E-02  0.1525761E+00
          2   -1    0    0  502    0  0.00000000000E+00  0.00000000000E+00  0.28134998678E+03  0.28134998678E+03  0.00000000000E+00 0. -1.
          1   -1    0    0  501    0 -0.00000000000E+00 -0.00000000000E+00 -0.39499489720E+02  0.39499489720E+02  0.00000000000E+00 0.  1.
          2    1    1    2  501    0  0.26213882913E+02  0.17027421294E+02  0.12293707349E+03  0.12684882645E+03  0.00000000000E+00 0. -1.
          1    1    1    2  502    0  0.17669876391E+02 -0.16165964508E+02  0.17152999342E+02  0.29458247174E+02  0.00000000000E+00 0.  1.
         22    1    1    2    0    0  0.73819896906E+01  0.16407989210E+02  0.10854162250E+03  0.11002272354E+03  0.00000000000E+00 0.  1.
         22    1    1    2    0    0 -0.51265748994E+02 -0.17269445996E+02 -0.67811982656E+01  0.54519679336E+02  0.00000000000E+00 0.  1.
</event>
<event>
 6    1  0.8017648E-006  0.1208659E+03  0.7818608E-02  0.1241860E+00
          2   -1    0    0  502    0  0.00000000000E+00  0.00000000000E+00  0.36564971453E+03  0.36564971453E+03  0.00000000000E+00 0. -1.
          1   -1    0    0  501    0 -0.00000000000E+00 -0.00000000000E+00 -0.13904250580E+03  0.13904250580E+03  0.00000000000E+00 0.  1.
          2    1    1    2  501    0  0.79570502836E+02  0.11306198589E+01  0.18717485542E+03  0.20338920749E+03  0.00000000000E+00 0. -1.
          1    1    1    2  502    0 -0.10441201148E+03 -0.17252744633E+01 -0.76166640470E+02  0.12925247322E+03  0.00000000000E+00 0.  1.
         22    1    1    2    0    0  0.38582633111E+02  0.34442935883E+01  0.13925664522E+03  0.14454375108E+03  0.00000000000E+00 0.  1.
         22    1    1    2    0    0 -0.13741124467E+02 -0.28496389838E+01 -0.23657651440E+02  0.27506788537E+02  0.00000000000E+00 0. -1.
</event>
<event>
 6    1  0.8017648E-006  0.5870799E+02  0.7818608E-02  0.1416985E+00
          2   -1    0    0  502    0  0.00000000000E+00  0.00000000000E+00  0.32431711580E+02  0.32431711580E+02  0.00000000000E+00 0.  1.
          1   -1    0    0  501    0 -0.00000000000E+00 -0.00000000000E+00 -0.31807113149E+03  0.31807113149E+03  0.00000000000E+00 0.  1.
          2    1    1    2  501    0  0.28141817729E+02 -0.17304236997E+01 -0.31429407967E+02  0.42222789539E+02  0.00000000000E+00 0.  1.
          1    1    1    2  502    0 -0.27519466615E+02  0.35276756939E+02 -0.64306230976E+02  0.78339402380E+02  0.00000000000E+00 0.  1.
         22    1    1    2    0    0  0.32422113488E+02  0.50102796151E+00  0.17773570043E+01  0.32474658890E+02  0.00000000000E+00 0.  1.
         22    1    1    2    0    0 -0.33044464602E+02 -0.34047361201E+02 -0.19168113797E+03  0.19746599226E+03  0.00000000000E+00 0.  1.
</event>
<event>
 6    1  0.8017648E-006  0.1012817E+03  0.7818608E-02  0.1279980E+00
          2   -1    0    0  502    0  0.00000000000E+00  0.00000000000E+00  0.48118252576E+03  0.48118252576E+03  0.00000000000E+00 0.  1.
          1   -1    0    0  501    0 -0.00000000000E+00 -0.00000000000E+00 -0.63180826125E+02  0.63180826125E+02  0.00000000000E+00 0. -1.
          2    1    1    2  501    0  0.58152141258E+02 -0.84046657429E+02  0.28876675211E+03  0.30631968478E+03  0.00000000000E+00 0.  1.
          1    1    1    2  502    0  0.55248192140E+01  0.59734079090E+02  0.37145458576E+02  0.70558266170E+02  0.00000000000E+00 0. -1.
         22    1    1    2    0    0 -0.81699314539E+02  0.51977496802E+02  0.37808918940E+02  0.10395168359E+03  0.00000000000E+00 0. -1.
         22    1    1    2    0    0  0.18022354067E+02 -0.27664918462E+02  0.54280570011E+02  0.63533717350E+02  0.00000000000E+00 0.  1.
</event>
<event>
 6    1  0.8017648E-006  0.3445944E+02  0.7818608E-02  0.1573573E+00
          2   -1    0    0  502    0  0.00000000000E+00  0.00000000000E+00  0.58297908053E+02  0.58297908053E+02  0.00000000000E+00 0. -1.
          1   -1    0    0  501    0 -0.00000000000E+00 -0.00000000000E+00 -0.27131363292E+03  0.27131363292E+03  0.00000000000E+00 0. -1.
          2    1    1    2  501    0  0.22664423931E+02  0.43518910615E+02 -0.20621530860E+02  0.53224235347E+02  0.00000000000E+00 0. -1.
          1    1    1    2  502    0 -0.54794934686E+02 -0.38970378178E+02 -0.10255264848E+03  0.12263042426E+03  0.00000000000E+00 0. -1.
         22    1    1    2    0    0  0.21070621644E+02  0.98963559625E+01 -0.11797711972E+03  0.12025185959E+03  0.00000000000E+00 0. -1.
         22    1    1    2    0    0  0.11059889111E+02 -0.14444888399E+02  0.28135574205E+02  0.33505021770E+02  0.00000000000E+00 0. -1.
</event>
<event>
 6    1  0.8017648E-006  0.4367506E+02  0.7818608E-02  0.1551577E+00
          2   -1    0    0  502    0  0.00000000000E+00  0.00000000000E+00  0.96082915882E+02  0.96082915882E+02  0.00000000000E+00 0.  1.
          1   -1    0    0  501    0 -0.00000000000E+00 -0.00000000000E+00 -0.12886724539E+03  0.12886724539E+03  0.00000000000E+00 0. -1.
          2    1    1    2  501    0 -0.31637765331E+01  0.29751524009E+02  0.36041465470E+02  0.46841753768E+02  0.00000000000E+00 0.  1.
          1    1    1    2  502    0  0.15967877701E+02 -0.34133617073E+02  0.10521922582E+01  0.37698594686E+02  0.00000000000E+00 0. -1.
         22    1    1    2    0    0 -0.13873696822E+02 -0.10396215222E+02 -0.10282926178E+03  0.10428047675E+03  0.00000000000E+00 0. -1.
         22    1    1    2    0    0  0.10695956547E+01  0.14778308286E+02  0.32951274540E+02  0.36129336064E+02  0.00000000000E+00 0.  1.
</event>
<event>
 6    1  0.8017648E-006  0.3961628E+02  0.7818608E-02  0.1601021E+00
          2   -1    0    0  502    0  0.00000000000E+00  0.00000000000E+00  0.27291609406E+03  0.27291609406E+03  0.00000000000E+00 0.  1.
          1   -1    0    0  501    0 -0.00000000000E+00 -0.00000000000E+00 -0.10234906953E+03  0.10234906953E+03  0.00000000000E+00 0.  1.
          2    1    1    2  501    0  0.11358710085E+02  0.24063035279E+02  0.18583371441E+03  0.18772911169E+03  0.00000000000E+00 0.  1.
          1    1    1    2  502    0 -0.19968920182E+02 -0.30587721604E+02 -0.41133246885E+02  0.55011912214E+02  0.00000000000E+00 0.  1.
         22    1    1    2    0    0  0.10896686556E+02 -0.62778221644E+01 -0.52040830055E+02  0.53538741317E+02  0.00000000000E+00 0.  1.
         22    1    1    2    0    0 -0.22864764596E+01  0.12802508489E+02  0.77907387056E+02  0.78985398373E+02  0.00000000000E+00 0.  1.
</event>
<event>
 6    1  0.8017648E-006  0.8069684E+02  0.7818608E-02  0.1398652E+00
          2   -1    0    0  502    0  0.00000000000E+00  0.00000000000E+00  0.16404391772E+03  0.16404391772E+03  0.00000000000E+00 0.  1.
          1   -1    0    0  501    0 -0.00000000000E+00 -0.00000000000E+00 -0.20820340928E+03  0.20820340928E+03  0.00000000000E+00 0.  1.
          2    1    1    2  501    0 -0.24923220394E+02 -0.90817907387E+02  0.44540527516E+02  0.10417733827E+03  0.00000000000E+00 0.  1.
          1    1    1    2  502    0  0.31094112205E+02  0.17859622548E+02  0.54961141338E+02  0.65624210384E+02  0.00000000000E+00 0.  1.
         22    1    1    2    0    0 -0.29237974926E+02  0.65179730875E+02 -0.16953987472E+02  0.73421346936E+02  0.00000000000E+00 0. -1.
         22    1    1    2    0    0  0.23067083115E+02  0.77785539641E+01 -0.12670717294E+03  0.12902443141E+03  0.00000000000E+00 0.  1.
</event>
<event>
 6    1  0.8017648E-006  0.7413292E+02  0.7818608E-02  0.1416424E+00
          2   -1    0    0  502    0  0.00000000000E+00  0.00000000000E+00  0.21572795830E+03  0.21572795830E+03  0.00000000000E+00 0.  1.
          1   -1    0    0  501    0 -0.00000000000E+00 -0.00000000000E+00 -0.21066850917E+03  0.21066850917E+03  0.00000000000E+00 0.  1.
          2    1    1    2  501    0 -0.10633853190E+03  0.23573253749E+02  0.88333108994E+02  0.14023665642E+03  0.00000000000E+00 0.  1.
          1    1    1    2  502    0  0.14457593522E+03 -0.15040078616E+02 -0.61343486899E+02  0.15777017587E+03  0.00000000000E+00 0.  1.
         22    1    1    2    0    0 -0.41862370789E+02 -0.23307161255E+02 -0.66119852763E+02  0.81654863806E+02  0.00000000000E+00 0. -1.
         22    1    1    2    0    0  0.36249674629E+01  0.14773986121E+02  0.44189679792E+02  0.46734771371E+02  0.00000000000E+00 0.  1.
</event>
<event>
 6    1  0.8017648E-006  0.5245356E+02  0.7818608E-02  0.1542117E+00
          2   -1    0    0  502    0  0.00000000000E+00  0.00000000000E+00  0.47687955076E+03  0.47687955076E+03  0.00000000000E+00 0. -1.
          1   -1    0    0  501    0 -0.00000000000E+00 -0.00000000000E+00 -0.54675745018E+02  0.54675745018E+02  0.00000000000E+00 0.  1.
          2    1    1    2  501    0 -0.24351413518E+02 -0.24175853052E+02  0.29832164059E+03  0.30028863525E+03  0.00000000000E+00 0. -1.
          1    1    1    2  502    0  0.50580733357E+02  0.31738134095E+02  0.68475596243E+02  0.90854977980E+02  0.00000000000E+00 0.  1.
         22    1    1    2    0    0 -0.11166709851E+02 -0.17748445579E+01 -0.41068452992E+02  0.42596517619E+02  0.00000000000E+00 0.  1.
         22    1    1    2    0    0 -0.15062609989E+02 -0.57874364852E+01  0.96475021901E+02  0.97815164937E+02  0.00000000000E+00 0.  1.
</event>
<event>
 6    1  0.8017648E-006  0.7399417E+02  0.7818608E-02  0.1366517E+00
          2   -1    0    0  502    0  0.00000000000E+00  0.00000000000E+00  0.33929008066E+03  0.33929008066E+03  0.00000000000E+00 0.  1.
          1   -1    0    0  501    0 -0.00000000000E+00 -0.00000000000E+00 -0.97144616162E+02  0.97144616162E+02  0.00000000000E+00 0.  1.
          2    1    1    2  501    0  0.36412451993E+02 -0.49911556396E+02  0.58007168598E+02  0.84745865568E+02  0.00000000000E+00 0.  1.
          1    1    1    2  502    0 -0.31354877180E+02 -0.21818487835E+02 -0.57688283476E+02  0.69188964328E+02  0.00000000000E+00 0.  1.
         22    1    1    2    0    0 -0.94235014047E+00  0.84727559043E+02  0.25175672335E+03  0.26563338464E+03  0.00000000000E+00 0.  1.
         22    1    1    2    0    0 -0.41152246726E+01 -0.12997514811E+02 -0.99301439718E+01  0.16866482285E+02  0.00000000000E+00 0.  1.
</event>
<event>
 6    1  0.8017648E-006  0.7630260E+02  0.7818608E-02  0.1449357E+00
          2   -1    0    0  502    0  0.00000000000E+00  0.00000000000E+00  0.44796052115E+03  0.44796052115E+03  0.00000000000E+00 0.  1.
          1   -1    0    0  501    0 -0.00000000000E+00 -0.00000000000E+00 -0.72501646615E+02  0.72501646615E+02  0.00000000000E+00 0.  1.
          2    1    1    2  501    0  0.17638978996E+02  0.23500174371E+02  0.18416157651E+03  0.18649095967E+03  0.00000000000E+00 0.  1.
          1    1    1    2  502    0 -0.23082521019E+01 -0.53845068469E+02 -0.41189537674E+02  0.67832126901E+02  0.00000000000E+00 0.  1.
         22    1    1    2    0    0  0.50108364308E+01 -0.12274393406E+02 -0.11544876496E+02  0.17579914350E+02  0.00000000000E+00 0. -1.
         22    1    1    2    0    0 -0.20341563325E+02  0.42619287504E+02  0.24403171219E+03  0.24855916684E+03  0.00000000000E+00 0.  1.
</event>
<event>
 6    1  0.8017648E-006  0.8046481E+02  0.7818608E-02  0.1420343E+00
          2   -1    0    0  502    0  0.00000000000E+00  0.00000000000E+00  0.75047470398E+03  0.75047470398E+03  0.00000000000E+00 0.  1.
          1   -1    0    0  501    0 -0.00000000000E+00 -0.00000000000E+00 -0.24700589749E+02  0.24700589749E+02  0.00000000000E+00 0.  1.
          2    1    1    2  501    0  0.40786156880E+01  0.24309707043E+02  0.14097626608E+03  0.14311500467E+03  0.00000000000E+00 0.  1.
          1    1    1    2  502    0 -0.15252262401E+02 -0.71846760014E+02  0.39000463758E+03  0.39686043613E+03  0.00000000000E+00 0.  1.
         22    1    1    2    0    0  0.27732521664E+02  0.53193909410E+02  0.20590879123E+03  0.21446938024E+03  0.00000000000E+00 0.  1.
         22    1    1    2    0    0 -0.16558874952E+02 -0.56568564391E+01 -0.11115580661E+02  0.20730472688E+02  0.00000000000E+00 0.  1.
</event>
<event>
 6    1  0.8017648E-006  0.5188975E+02  0.7818608E-02  0.1516471E+00
          2   -1    0    0  502    0  0.00000000000E+00  0.00000000000E+00  0.17023367095E+03  0.17023367095E+03  0.00000000000E+00 0.  1.
          1   -1    0    0  501    0 -0.00000000000E+00 -0.00000000000E+00 -0.26247709170E+03  0.26247709170E+03  0.00000000000E+00 0. -1.
          2    1    1    2  501    0  0.25085166807E+02  0.96249759160E+01  0.60584054962E+02  0.66274681974E+02  0.00000000000E+00 0.  1.
          1    1    1    2  502    0 -0.61637643661E+02 -0.97863663361E-01 -0.21248281831E+03  0.22124230330E+03  0.00000000000E+00 0. -1.
         22    1    1    2    0    0  0.22088933166E+02 -0.18220794092E+01  0.99590453006E+02  0.10202695365E+03  0.00000000000E+00 0.  1.
         22    1    1    2    0    0  0.14463543689E+02 -0.77050328435E+01 -0.39935110412E+02  0.43166823728E+02  0.00000000000E+00 0. -1.
</event>
<event>
 6    1  0.8017648E-006  0.5790978E+02  0.7818608E-02  0.1439901E+00
          2   -1    0    0  502    0  0.00000000000E+00  0.00000000000E+00  0.64841142315E+03  0.64841142315E+03  0.00000000000E+00 0. -1.
          1   -1    0    0  501    0 -0.00000000000E+00 -0.00000000000E+00 -0.83275353485E+02  0.83275353485E+02  0.00000000000E+00 0.  1.
          2    1    1    2  501    0  0.19749371854E+02 -0.37679744549E+02  0.42481249881E+03  0.42693730217E+03  0.00000000000E+00 0. -1.
          1    1    1    2  502    0 -0.38649929262E+02  0.23143462992E+02 -0.55201352611E+02  0.71250447306E+02  0.00000000000E+00 0.  1.
         22    1    1    2    0    0  0.32241477364E+02  0.13356068562E+02  0.21052039327E+03  0.21339337715E+03  0.00000000000E+00 0. -1.
         22    1    1    2    0    0 -0.13340919956E+02  0.11802129943E+01 -0.14995469799E+02  0.20105650014E+02  0.00000000000E+00 0. -1.
</event>
<event>
 6    1  0.8017648E-006  0.3979247E+03  0.7818608E-02  0.1182516E+00
          2   -1    0    0  502    0  0.00000000000E+00  0.00000000000E+00  0.18040478580E+04  0.18040478580E+04  0.00000000000E+00 0. -1.
          1   -1    0    0  501    0 -0.00000000000E+00 -0.00000000000E+00 -0.10797277090E+03  0.10797277090E+03  0.00000000000E+00 0. -1.
          2    1    1    2  501    0  0.25151070830E+03 -0.76379590474E+02  0.30927841976E+03  0.40588744642E+03  0.00000000000E+00 0. -1.
          1    1    1    2  502    0 -0.33215830627E+03 -0.31612089790E+02  0.12005968661E+04  0.12460984309E+04  0.00000000000E+00 0. -1.
         22    1    1    2    0    0  0.92572133645E+02  0.10748456055E+03  0.19778881426E+03  0.24339873814E+03  0.00000000000E+00 0.  1.
         22    1    1    2    0    0 -0.11924535681E+02  0.50711971288E+00 -0.11589012991E+02  0.16636013456E+02  0.00000000000E+00 0. -1.
</event>
<event>
 6    1  0.8017648E-006  0.1100238E+03  0.7818608E-02  0.1337888E+00
          2   -1    0    0  502    0  0.00000000000E+00  0.00000000000E+00  0.38928972165E+03  0.38928972165E+03  0.00000000000E+00 0.  1.
          1   -1    0    0  501    0 -0.00000000000E+00 -0.00000000000E+00 -0.29035260784E+02  0.29035260784E+02  0.00000000000E+00 0. -1.
          2    1    1    2  501    0 -0.26793680092E+02 -0.37762985481E+02  0.74310549883E+02  0.87555709062E+02  0.00000000000E+00 0.  1.
          1    1    1    2  502    0  0.16922174807E+02  0.15401571973E+02  0.90634207360E+01  0.24611257889E+02  0.00000000000E+00 0. -1.
         22    1    1    2    0    0  0.85448592397E+01 -0.24923466562E+02  0.11216879200E+01  0.26371423714E+02  0.00000000000E+00 0.  1.
         22    1    1    2    0    0  0.13266460453E+01  0.47284880071E+02  0.27575880233E+03  0.27978659177E+03  0.00000000000E+00 0. -1.
</event>
<event>
 6    1  0.8984479E-006  0.1044540E+03  0.7818608E-02  0.1386324E+00
          2   -1    0    0  502    0  0.00000000000E+00  0.00000000000E+00  0.80079884155E+02  0.80079884155E+02  0.00000000000E+00 0. -1.
          1   -1    0    0  501    0 -0.00000000000E+00 -0.00000000000E+00 -0.12257798439E+04  0.12257798439E+04  0.00000000000E+00 0. -1.
          2    1    1    2  501    0  0.49611743309E+01  0.32382979494E+02 -0.98445793344E+01  0.34207986698E+02  0.00000000000E+00 0. -1.
          1    1    1    2  502    0 -0.50325784338E+02 -0.27420445359E+02 -0.11366632095E+04  0.11381071203E+04  0.00000000000E+00 0. -1.
         22    1    1    2    0    0 -0.11747661239E+02  0.69982058326E+01 -0.52656832520E+02  0.54403349534E+02  0.00000000000E+00 0. -1.
         22    1    1    2    0    0  0.57112271246E+02 -0.11960739968E+02  0.53464661585E+02  0.79141271571E+02  0.00000000000E+00 0. -1.
</event>
<event>
 6    1  0.8017648E-006  0.2257598E+03  0.7818608E-02  0.1234938E+00
          2   -1    0    0  502    0  0.00000000000E+00  0.00000000000E+00  0.10529242797E+04  0.10529242797E+04  0.00000000000E+00 0.  1.
          1   -1    0    0  501    0 -0.00000000000E+00 -0.00000000000E+00 -0.14917359680E+03  0.14917359680E+03  0.00000000000E+00 0.  1.
          2    1    1    2  501    0  0.11154818909E+03  0.47268400620E+02  0.85841501206E+03  0.86692193023E+03  0.00000000000E+00 0.  1.
          1    1    1    2  502    0 -0.10988932702E+03 -0.73886135908E+01  0.13740807869E+03  0.17610007352E+03  0.00000000000E+00 0.  1.
         22    1    1    2    0    0 -0.20026803018E+02 -0.29144861279E+02  0.22914418462E+02  0.42137469686E+02  0.00000000000E+00 0.  1.
         22    1    1    2    0    0  0.18367940947E+02 -0.10734925750E+02 -0.11498682632E+03  0.11693840307E+03  0.00000000000E+00 0. -1.
</event>
<event>
 6    1  0.8017648E-006  0.9297934E+02  0.7818608E-02  0.1421314E+00
          2   -1    0    0  502    0  0.00000000000E+00  0.00000000000E+00  0.12663140515E+03  0.12663140515E+03  0.00000000000E+00 0.  1.
          1   -1    0    0  501    0 -0.00000000000E+00 -0.00000000000E+00 -0.13471977603E+03  0.13471977603E+03  0.00000000000E+00 0.  1.
          2    1    1    2  501    0 -0.17404078793E+02 -0.19200727468E+02  0.84913396890E+01  0.27270363834E+02  0.00000000000E+00 0.  1.
          1    1    1    2  502    0 -0.54127214809E+01 -0.27148854310E+02 -0.81871274856E+02  0.86424900872E+02  0.00000000000E+00 0.  1.
         22    1    1    2    0    0  0.44705764316E+01 -0.10240027077E+02 -0.31846132807E+02  0.33749376037E+02  0.00000000000E+00 0. -1.
         22    1    1    2    0    0  0.18346223842E+02  0.56589608854E+02  0.97137697092E+02  0.11390654044E+03  0.00000000000E+00 0.  1.
</event>
<event>
 6    1  0.8017648E-006  0.7827190E+02  0.7818608E-02  0.1454961E+00
          2   -1    0    0  502    0  0.00000000000E+00  0.00000000000E+00  0.55782658483E+03  0.55782658483E+03  0.00000000000E+00 0. -1.
          1   -1    0    0  501    0 -0.00000000000E+00 -0.00000000000E+00 -0.51469700518E+02  0.51469700518E+02  0.00000000000E+00 0. -1.
          2    1    1    2  501    0 -0.24375054601E+01 -0.38987578834E+02  0.29663481776E+03  0.29919590211E+03  0.00000000000E+00 0. -1.
          1    1    1    2  502    0  0.35065879370E+01  0.77738866010E+02  0.18581180185E+02  0.80005547961E+02  0.00000000000E+00 0. -1.
         22    1    1    2    0    0  0.11006066933E+02 -0.26110436931E+01 -0.15935400392E+02  0.19541955996E+02  0.00000000000E+00 0.  1.
         22    1    1    2    0    0 -0.12075149410E+02 -0.36140243483E+02  0.20707628676E+03  0.21055287928E+03  0.00000000000E+00 0. -1.
</event>
<event>
 6    1  0.8017648E-006  0.5662185E+02  0.7818608E-02  0.1522777E+00
          2   -1    0    0  502    0  0.00000000000E+00  0.00000000000E+00  0.28015889497E+03  0.28015889497E+03  0.00000000000E+00 0.  1.
          1   -1    0    0  501    0 -0.00000000000E+00 -0.00000000000E+00 -0.68512276146E+02  0.68512276146E+02  0.00000000000E+00 0. -1.
          2    1    1    2  501    0 -0.29962962312E+02 -0.44572627264E+01  0.16424753901E+03  0.16701766485E+03  0.00000000000E+00 0.  1.
          1    1    1    2  502    0  0.44969367497E+02  0.47143197540E+00  0.14397201862E+01  0.44994878102E+02  0.00000000000E+00 0. -1.
         22    1    1    2    0    0  0.11239598822E+02  0.28380737823E+01 -0.42670522530E+02  0.44217154334E+02  0.00000000000E+00 0. -1.
         22    1    1    2    0    0 -0.26246004007E+02  0.11477569687E+01  0.88629882159E+02  0.92441473830E+02  0.00000000000E+00 0.  1.
</event>
<event>
 6    1  0.8017648E-006  0.7008994E+02  0.7818608E-02  0.1440547E+00
          2   -1    0    0  502    0  0.00000000000E+00  0.00000000000E+00  0.28916763695E+03  0.28916763695E+03  0.00000000000E+00 0. -1.
          1   -1    0    0  501    0 -0.00000000000E+00 -0.00000000000E+00 -0.68652818830E+02  0.68652818830E+02  0.00000000000E+00 0. -1.
          2    1    1    2  501    0  0.31448587292E+02 -0.63857560864E+01  0.16192051055E+03  0.16506981329E+03  0.00000000000E+00 0. -1.
          1    1    1    2  502    0 -0.45306759782E+02  0.17511424831E+02 -0.90492030068E+01  0.49408911712E+02  0.00000000000E+00 0. -1.
         22    1    1    2    0    0 -0.13814959893E+02  0.13753783600E+02 -0.31723960082E+02  0.37234786470E+02  0.00000000000E+00 0. -1.
         22    1    1    2    0    0  0.27673132383E+02 -0.24879452345E+02  0.99367470663E+02  0.10610694431E+03  0.00000000000E+00 0. -1.
</event>
<event>
 6    1  0.9612480E-005  0.2957893E+03  0.7818608E-02  0.1224356E+00
          2   -1    0    0  502    0  0.00000000000E+00  0.00000000000E+00  0.62834705990E+02  0.62834705990E+02  0.00000000000E+00 0. -1.
          1   -1    0    0  501    0 -0.00000000000E+00 -0.00000000000E+00 -0.26629051509E+04  0.26629051509E+04  0.00000000000E+00 0.  1.
          2    1    1    2  501    0 -0.15133119618E+02  0.14549528651E+02 -0.33929921144E+03  0.33994801805E+03  0.00000000000E+00 0. -1.
          1    1    1    2  502    0 -0.40080617984E+02 -0.94272101826E+01 -0.22433021782E+04  0.22436800108E+04  0.00000000000E+00 0.  1.
         22    1    1    2    0    0  0.52637166963E+02 -0.16607797232E+02  0.49485577598E+02  0.74130376129E+02  0.00000000000E+00 0. -1.
         22    1    1    2    0    0  0.25765706396E+01  0.11485478764E+02 -0.66954632860E+02  0.67981451883E+02  0.00000000000E+00 0.  1.
</event>
<event>
 6    1  0.8017648E-006  0.1083553E+03  0.7818608E-02  0.1320748E+00
          2   -1    0    0  502    0  0.00000000000E+00  0.00000000000E+00  0.28982157731E+03  0.28982157731E+03  0.00000000000E+00 0. -1.
          1   -1    0    0  501    0 -0.00000000000E+00 -0.00000000000E+00 -0.30460378710E+03  0.30460378710E+03  0.00000000000E+00 0. -1.
          2    1    1    2  501    0 -0.42713623658E+02 -0.87332080951E+02 -0.72119745022E+01  0.97485171106E+02  0.00000000000E+00 0. -1.
          1    1    1    2  502    0  0.70021074612E+02  0.63488761399E+02  0.21740582811E+03  0.23706342571E+03  0.00000000000E+00 0. -1.
         22    1    1    2    0    0  0.81001846223E+01  0.36413996623E+02 -0.21860804284E+03  0.22176805121E+03  0.00000000000E+00 0. -1.
         22    1    1    2    0    0 -0.35407635577E+02 -0.12570677070E+02 -0.63680205522E+01  0.38108716390E+02  0.00000000000E+00 0. -1.
</event>
<event>
 6    1  0.8017648E-006  0.4111735E+02  0.7818608E-02  0.1554716E+00
          2   -1    0    0  502    0  0.00000000000E+00  0.00000000000E+00  0.12064992617E+03  0.12064992617E+03  0.00000000000E+00 0. -1.
          1   -1    0    0  501    0 -0.00000000000E+00 -0.00000000000E+00 -0.82660524478E+02  0.82660524478E+02  0.00000000000E+00 0. -1.
          2    1    1    2  501    0 -0.12564541578E+02 -0.18514372276E+02  0.42534019169E+02  0.48060300378E+02  0.00000000000E+00 0. -1.
          1    1    1    2  502    0  0.24747318016E+02  0.12035916298E+02 -0.14414130836E+02  0.31065418038E+02  0.00000000000E+00 0. -1.
         22    1    1    2    0    0 -0.15101261771E+02 -0.13266812065E+02  0.63687642882E+02  0.66784521150E+02  0.00000000000E+00 0. -1.
         22    1    1    2    0    0  0.29184853328E+01  0.19745268042E+02 -0.53818129524E+02  0.57400211081E+02  0.00000000000E+00 0. -1.
</event>
<event>
 6    1  0.8017648E-006  0.8834192E+02  0.7818608E-02  0.1426446E+00
          2   -1    0    0  502    0  0.00000000000E+00  0.00000000000E+00  0.13521748286E+03  0.13521748286E+03  0.00000000000E+00 0. -1.
          1   -1    0    0  501    0 -0.00000000000E+00 -0.00000000000E+00 -0.16199246660E+03  0.16199246660E+03  0.00000000000E+00 0. -1.
          2    1    1    2  501    0 -0.43093843340E+02  0.28248498758E+02  0.45207791075E+02  0.68547803683E+02  0.00000000000E+00 0. -1.
          1    1    1    2  502    0  0.52017209388E+02 -0.62266915939E+02 -0.53549780462E+02  0.97213876996E+02  0.00000000000E+00 0. -1.
         22    1    1    2    0    0 -0.20474190639E+02  0.30609229015E+02  0.49925109051E+02  0.62037358882E+02  0.00000000000E+00 0.  1.
         22    1    1    2    0    0  0.11550824592E+02  0.34091881658E+01 -0.68358103402E+02  0.69410909902E+02  0.00000000000E+00 0. -1.
</event>
<event>
 6    1  0.8017648E-006  0.1326803E+03  0.7818608E-02  0.1313729E+00
          2   -1    0    0  502    0  0.00000000000E+00  0.00000000000E+00  0.93661307688E+03  0.93661307688E+03  0.00000000000E+00 0. -1.
          1   -1    0    0  501    0 -0.00000000000E+00 -0.00000000000E+00 -0.53353741667E+02  0.53353741667E+02  0.00000000000E+00 0. -1.
          2    1    1    2  501    0 -0.33028339796E+02 -0.15762143931E+02  0.63086287969E+03  0.63192348380E+03  0.00000000000E+00 0. -1.
          1    1    1    2  502    0 -0.33532222147E+02 -0.29079613848E+02 -0.19701349043E+02  0.48561064834E+02  0.00000000000E+00 0. -1.
         22    1    1    2    0    0  0.45002963182E+02  0.52988009542E+02  0.27727931176E+03  0.28586152693E+03  0.00000000000E+00 0. -1.
         22    1    1    2    0    0  0.21557598760E+02 -0.81462517633E+01 -0.51815071921E+01  0.23620742979E+02  0.00000000000E+00 0. -1.
</event>
<event>
 6    1  0.8017648E-006  0.6763332E+02  0.7818608E-02  0.1387521E+00
          2   -1    0    0  502    0  0.00000000000E+00  0.00000000000E+00  0.36551918333E+02  0.36551918333E+02  0.00000000000E+00 0. -1.
          1   -1    0    0  501    0 -0.00000000000E+00 -0.00000000000E+00 -0.54638415476E+03  0.54638415476E+03  0.00000000000E+00 0. -1.
          2    1    1    2  501    0  0.12351180102E+01  0.33619324216E+02 -0.14342930233E+02  0.36571903491E+02  0.00000000000E+00 0. -1.
          1    1    1    2  502    0 -0.61262169418E+02 -0.48364667332E+02 -0.93591572784E+02  0.12186704618E+03  0.00000000000E+00 0. -1.
         22    1    1    2    0    0  0.67869907654E+02  0.32623673966E+01 -0.40465543472E+03  0.41032059204E+03  0.00000000000E+00 0. -1.
         22    1    1    2    0    0 -0.78428562466E+01  0.11482975719E+02  0.27577013110E+01  0.14176531381E+02  0.00000000000E+00 0. -1.
</event>
<event>
 6    1  0.8017648E-006  0.4276260E+02  0.7818608E-02  0.1582515E+00
          2   -1    0    0  502    0  0.00000000000E+00  0.00000000000E+00  0.17303493068E+03  0.17303493068E+03  0.00000000000E+00 0. -1.
          1   -1    0    0  501    0 -0.00000000000E+00 -0.00000000000E+00 -0.10912641171E+03  0.10912641171E+03  0.00000000000E+00 0.  1.
          2    1    1    2  501    0  0.25990999251E+02 -0.18140511483E+02  0.10423774978E+03  0.10895007424E+03  0.00000000000E+00 0. -1.
          1    1    1    2  502    0 -0.26845069754E+02  0.27323828901E+02 -0.27685782851E+02  0.47262585287E+02  0.00000000000E+00 0.  1.
         22    1    1    2    0    0  0.10478112532E+02 -0.11707704095E+01  0.55587246083E+02  0.56578295067E+02  0.00000000000E+00 0.  1.
         22    1    1    2    0    0 -0.96240420295E+01 -0.80125470090E+01 -0.68230694038E+02  0.69370387799E+02  0.00000000000E+00 0.  1.
</event>
<event>
 6    1  0.8017648E-006  0.5779703E+02  0.7818608E-02  0.1419380E+00
          2   -1    0    0  502    0  0.00000000000E+00  0.00000000000E+00  0.59188069151E+02  0.59188069151E+02  0.00000000000E+00 0. -1.
          1   -1    0    0  501    0 -0.00000000000E+00 -0.00000000000E+00 -0.66575054480E+03  0.66575054480E+03  0.00000000000E+00 0. -1.
          2    1    1    2  501    0 -0.73286390038E+01 -0.25869874099E+02  0.14708850978E+02  0.30648158715E+02  0.00000000000E+00 0. -1.
          1    1    1    2  502    0  0.72784434284E+02  0.38324693149E+02 -0.51070623474E+03  0.51728832790E+03  0.00000000000E+00 0. -1.
         22    1    1    2    0    0 -0.46545591163E+02  0.11403859731E+02 -0.13156296337E+03  0.14001911799E+03  0.00000000000E+00 0.  1.
         22    1    1    2    0    0 -0.18910204118E+02 -0.23858678781E+02  0.20997871484E+02  0.36983009340E+02  0.00000000000E+00 0. -1.
</event>
<event>
 6    1  0.8017648E-006  0.4727149E+02  0.7818608E-02  0.1486494E+00
          2   -1    0    0  502    0  0.00000000000E+00  0.00000000000E+00  0.19417970217E+03  0.19417970217E+03  0.00000000000E+00 0.  1.
          1   -1    0    0  501    0 -0.00000000000E+00 -0.00000000000E+00 -0.10411297970E+03  0.10411297970E+03  0.00000000000E+00 0.  1.
          2    1    1    2  501    0 -0.65986295247E+00 -0.69395538394E+02  0.92624587301E+02  0.11573888863E+03  0.00000000000E+00 0.  1.
          1    1    1    2  502    0 -0.45169638162E+01  0.57970888372E+02  0.15809703874E+02  0.60257560499E+02  0.00000000000E+00 0.  1.
         22    1    1    2    0    0 -0.20173704870E+02 -0.10687845126E+02  0.45052525979E+02  0.50506816359E+02  0.00000000000E+00 0. -1.
         22    1    1    2    0    0  0.25350531639E+02  0.22112495148E+02 -0.63420094684E+02  0.71789416391E+02  0.00000000000E+00 0.  1.
</event>
<event>
 6    1  0.8017648E-006  0.8344765E+02  0.7818608E-02  0.1392539E+00
          2   -1    0    0  502    0  0.00000000000E+00  0.00000000000E+00  0.35389640757E+03  0.35389640757E+03  0.00000000000E+00 0. -1.
          1   -1    0    0  501    0 -0.00000000000E+00 -0.00000000000E+00 -0.55063066139E+02  0.55063066139E+02  0.00000000000E+00 0.  1.
          2    1    1    2  501    0 -0.69299370318E+02  0.17429703384E+02  0.18383707619E+03  0.19723657842E+03  0.00000000000E+00 0. -1.
          1    1    1    2  502    0  0.31295566356E+02 -0.30974694984E+02  0.10876388247E+02  0.45355705530E+02  0.00000000000E+00 0.  1.
         22    1    1    2    0    0  0.52570577797E+01  0.23691108874E+02  0.12425930047E+03  0.12660678911E+03  0.00000000000E+00 0. -1.
         22    1    1    2    0    0  0.32746746182E+02 -0.10146117274E+02 -0.20139423476E+02  0.39760400642E+02  0.00000000000E+00 0.  1.
</event>
<event>
 6    1  0.8017648E-006  0.3091019E+03  0.7818608E-02  0.1184333E+00
          2   -1    0    0  502    0  0.00000000000E+00  0.00000000000E+00  0.10571133305E+04  0.10571133305E+04  0.00000000000E+00 0. -1.
          1   -1    0    0  501    0 -0.00000000000E+00 -0.00000000000E+00 -0.16400077552E+03  0.16400077552E+03  0.00000000000E+00 0. -1.
          2    1    1    2  501    0 -0.24173018877E+03 -0.15615397838E+03  0.68127834931E+03  0.73956591211E+03  0.00000000000E+00 0. -1.
          1    1    1    2  502    0  0.24372230908E+03  0.17533917112E+03  0.18355759486E+03  0.35190592422E+03  0.00000000000E+00 0. -1.
         22    1    1    2    0    0  0.20469484216E+02 -0.13374134347E+02 -0.45853916489E+02  0.51965843696E+02  0.00000000000E+00 0. -1.
         22    1    1    2    0    0 -0.22461604525E+02 -0.58110583955E+01  0.74130527344E+02  0.77676426037E+02  0.00000000000E+00 0. -1.
</event>
<event>
 6    1  0.8017648E-006  0.7447846E+02  0.7818608E-02  0.1356697E+00
          2   -1    0    0  502    0  0.00000000000E+00  0.00000000000E+00  0.25314697764E+03  0.25314697764E+03  0.00000000000E+00 0.  1.
          1   -1    0    0  501    0 -0.00000000000E+00 -0.00000000000E+00 -0.56644677505E+02  0.56644677505E+02  0.00000000000E+00 0.  1.
          2    1    1    2  501    0 -0.54653355228E+02 -0.63780073792E+01  0.26924776116E+02  0.61258564991E+02  0.00000000000E+00 0.  1.
          1    1    1    2  502    0  0.34300515325E+02 -0.97139642812E+01  0.10230442076E+03  0.10833780947E+03  0.00000000000E+00 0.  1.
         22    1    1    2    0    0  0.33175317958E+02  0.51829980247E+02 -0.15897153045E+01  0.61558718057E+02  0.00000000000E+00 0.  1.
         22    1    1    2    0    0 -0.12822478055E+02 -0.35738008587E+02  0.68862818561E+02  0.78636562624E+02  0.00000000000E+00 0.  1.
</event>
<event>
 6    1  0.8017648E-006  0.7882130E+02  0.7818608E-02  0.1364578E+00
          2   -1    0    0  502    0  0.00000000000E+00  0.00000000000E+00  0.26826568001E+03  0.26826568001E+03  0.00000000000E+00 0.  1.
          1   -1    0    0  501    0 -0.00000000000E+00 -0.00000000000E+00 -0.78677076383E+02  0.78677076383E+02  0.00000000000E+00 0.  1.
          2    1    1    2  501    0  0.51031211378E+01  0.53389673249E+02  0.12499842511E+03  0.13601876832E+03  0.00000000000E+00 0.  1.
          1    1    1    2  502    0 -0.34875390030E+02 -0.60147487211E+02  0.20437636176E+02  0.72468683029E+02  0.00000000000E+00 0.  1.
         22    1    1    2    0    0 -0.10114450714E+02  0.28613994968E+02  0.76727037997E+02  0.82511218516E+02  0.00000000000E+00 0.  1.
         22    1    1    2    0    0  0.39886719606E+02 -0.21856181006E+02 -0.32574495662E+02  0.55944086522E+02  0.00000000000E+00 0.  1.
</event>
<event>
 6    1  0.8017648E-006  0.8096238E+02  0.7818608E-02  0.1331401E+00
          2   -1    0    0  502    0  0.00000000000E+00  0.00000000000E+00  0.88111256625E+02  0.88111256625E+02  0.00000000000E+00 0.  1.
          1   -1    0    0  501    0 -0.00000000000E+00 -0.00000000000E+00 -0.31130011501E+03  0.31130011501E+03  0.00000000000E+00 0. -1.
          2    1    1    2  501    0 -0.64988335160E+02 -0.20316349068E+02  0.22502229851E+02  0.71711840686E+02  0.00000000000E+00 0.  1.
          1    1    1    2  502    0  0.20456231249E+02  0.72176829365E+02 -0.10014079154E+03  0.12512445894E+03  0.00000000000E+00 0. -1.
         22    1    1    2    0    0  0.60834352466E+02 -0.42233475306E+02 -0.16159601945E+03  0.17775758318E+03  0.00000000000E+00 0.  1.
         22    1    1    2    0    0 -0.16302248555E+02 -0.96270049910E+01  0.16045722756E+02  0.24817488830E+02  0.00000000000E+00 0.  1.
</event>
<event>
 6    1  0.8017648E-006  0.3911485E+02  0.7818608E-02  0.1580969E+00
          2   -1    0    0  502    0  0.00000000000E+00  0.00000000000E+00  0.35902992859E+03  0.35902992859E+03  0.00000000000E+00 0.  1.
          1   -1    0    0  501    0 -0.00000000000E+00 -0.00000000000E+00 -0.10936157880E+03  0.10936157880E+03  0.00000000000E+00 0. -1.
          2    1    1    2  501    0 -0.11055727955E+02  0.35783793206E+02  0.27867378881E+03  0.28117928364E+03  0.00000000000E+00 0.  1.
          1    1    1    2  502    0 -0.26183814581E+02  0.24186824454E+02  0.11480179345E+02  0.37448486497E+02  0.00000000000E+00 0. -1.
         22    1    1    2    0    0  0.16436736458E+02  0.28265788991E+01 -0.73824216285E+02  0.75684679849E+02  0.00000000000E+00 0. -1.
         22    1    1    2    0    0  0.20802806077E+02 -0.62797196559E+02  0.33338597923E+02  0.74079057417E+02  0.00000000000E+00 0. -1.
</event>
<event>
 6    1  0.8017648E-006  0.1110957E+03  0.7818608E-02  0.1357533E+00
          2   -1    0    0  502    0  0.00000000000E+00  0.00000000000E+00  0.14478921633E+03  0.14478921633E+03  0.00000000000E+00 0. -1.
          1   -1    0    0  501    0 -0.00000000000E+00 -0.00000000000E+00 -0.41622124773E+03  0.41622124773E+03  0.00000000000E+00 0.  1.
          2    1    1    2  501    0 -0.85128175320E+02 -0.57841069700E+02  0.39236996987E+02  0.11014507483E+03  0.00000000000E+00 0. -1.
          1    1    1    2  502    0  0.19517548131E+02  0.14630577314E+03 -0.21712338012E+03  0.26254309386E+03  0.00000000000E+00 0.  1.
         22    1    1    2    0    0  0.53698887678E+02 -0.77867771635E+02 -0.11850941377E+01  0.94595797186E+02  0.00000000000E+00 0. -1.
         22    1    1    2    0    0  0.11911739512E+02 -0.10596931805E+02 -0.92360554138E+02  0.93726498188E+02  0.00000000000E+00 0. -1.
</event>
<event>
 6    1  0.8017648E-006  0.5264570E+02  0.7818608E-02  0.1490702E+00
          2   -1    0    0  502    0  0.00000000000E+00  0.00000000000E+00  0.15348935289E+03  0.15348935289E+03  0.00000000000E+00 0.  1.
          1   -1    0    0  501    0 -0.00000000000E+00 -0.00000000000E+00 -0.26199989244E+03  0.26199989244E+03  0.00000000000E+00 0.  1.
          2    1    1    2  501    0 -0.29574877719E+02  0.96700303357E+01  0.73805415545E+02  0.80096331018E+02  0.00000000000E+00 0.  1.
          1    1    1    2  502    0  0.47803172839E+02 -0.47438812391E+01 -0.20094898869E+03  0.20661109311E+03  0.00000000000E+00 0.  1.
         22    1    1    2    0    0 -0.54484650973E+01 -0.21646940589E+02 -0.51195774505E+02  0.55850542844E+02  0.00000000000E+00 0. -1.
         22    1    1    2    0    0 -0.12779830023E+02  0.16720791492E+02  0.69828808090E+02  0.72931278357E+02  0.00000000000E+00 0.  1.
</event>
<event>
 6    1  0.8017648E-006  0.5169637E+02  0.7818608E-02  0.1493015E+00
          2   -1    0    0  502    0  0.00000000000E+00  0.00000000000E+00  0.23107991129E+03  0.23107991129E+03  0.00000000000E+00 0. -1.
          1   -1    0    0  501    0 -0.00000000000E+00 -0.00000000000E+00 -0.17779565128E+03  0.17779565128E+03  0.00000000000E+00 0.  1.
          2    1    1    2  501    0 -0.37304699453E+02 -0.62026066404E+02  0.10725926888E+03  0.12939638432E+03  0.00000000000E+00 0. -1.
          1    1    1    2  502    0  0.21683756310E+02  0.72597229981E+02 -0.11641714754E+03  0.13890102711E+03  0.00000000000E+00 0.  1.
         22    1    1    2    0    0 -0.10451603538E+02  0.10178504118E+02 -0.34827320273E+02  0.37759504764E+02  0.00000000000E+00 0.  1.
         22    1    1    2    0    0  0.26072546681E+02 -0.20749667695E+02  0.97269458949E+02  0.10281864638E+03  0.00000000000E+00 0.  1.
</event>
<event>
 6    1  0.8017648E-006  0.1387705E+03  0.7818608E-02  0.1338168E+00
          2   -1    0    0  502    0  0.00000000000E+00  0.00000000000E+00  0.10234386272E+04  0.10234386272E+04  0.00000000000E+00 0.  1.
          1   -1    0    0  501    0 -0.00000000000E+00 -0.00000000000E+00 -0.28810578616E+02  0.28810578616E+02  0.00000000000E+00 0.  1.
          2    1    1    2  501    0  0.66323149690E+01 -0.24827370368E+02  0.18525350308E+03  0.18702739458E+03  0.00000000000E+00 0.  1.
          1    1    1    2  502    0 -0.67809763641E+02  0.10861402838E+03  0.23625290473E+03  0.26872031222E+03  0.00000000000E+00 0.  1.
         22    1    1    2    0    0  0.62039625841E+02 -0.96825895776E+02  0.57193349298E+03  0.58337988452E+03  0.00000000000E+00 0.  1.
         22    1    1    2    0    0 -0.86217716886E+00  0.13039237768E+02  0.11881477590E+01  0.13121614464E+02  0.00000000000E+00 0. -1.
</event>
<event>
 6    1  0.8017648E-006  0.2287853E+03  0.7818608E-02  0.1267276E+00
          2   -1    0    0  502    0  0.00000000000E+00  0.00000000000E+00  0.11438961582E+04  0.11438961582E+04  0.00000000000E+00 0. -1.
          1   -1    0    0  501    0 -0.00000000000E+00 -0.00000000000E+00 -0.50066241055E+02  0.50066241055E+02  0.00000000000E+00 0. -1.
          2    1    1    2  501    0 -0.53204407638E+02  0.11220361394E+02  0.58637835699E+02  0.79968751881E+02  0.00000000000E+00 0. -1.
          1    1    1    2  502    0  0.19036477497E+03 -0.85095596984E+02  0.56330096187E+03  0.60065629258E+03  0.00000000000E+00 0. -1.
         22    1    1    2    0    0 -0.14747029712E+03  0.70919715724E+02  0.47481442847E+03  0.50222090368E+03  0.00000000000E+00 0. -1.
         22    1    1    2    0    0  0.10309929788E+02  0.29555198662E+01 -0.29233089140E+01  0.11116451093E+02  0.00000000000E+00 0.  1.
</event>
<event>
 6    1  0.8017648E-006  0.1114333E+03  0.7818608E-02  0.1286362E+00
          2   -1    0    0  502    0  0.00000000000E+00  0.00000000000E+00  0.62636061343E+02  0.62636061343E+02  0.00000000000E+00 0. -1.
          1   -1    0    0  501    0 -0.00000000000E+00 -0.00000000000E+00 -0.26941172537E+03  0.26941172537E+03  0.00000000000E+00 0. -1.
          2    1    1    2  501    0  0.11697318596E+02  0.22945624429E+02 -0.79127093892E+02  0.83213135565E+02  0.00000000000E+00 0. -1.
          1    1    1    2  502    0  0.12730527634E+02 -0.72842874736E+02 -0.51925201381E+02  0.90356943685E+02  0.00000000000E+00 0. -1.
         22    1    1    2    0    0 -0.55223693571E+02  0.33189338930E+02 -0.97763965650E+02  0.11708536001E+03  0.00000000000E+00 0. -1.
         22    1    1    2    0    0  0.30795847341E+02  0.16707911377E+02  0.22040596893E+02  0.41392347450E+02  0.00000000000E+00 0. -1.
</event>
<event>
 6    1  0.8017648E-006  0.8420540E+02  0.7818608E-02  0.1388682E+00
          2   -1    0    0  502    0  0.00000000000E+00  0.00000000000E+00  0.14104390827E+03  0.14104390827E+03  0.00000000000E+00 0.  1.
          1   -1    0    0  501    0 -0.00000000000E+00 -0.00000000000E+00 -0.31739398565E+03  0.31739398565E+03  0.00000000000E+00 0.  1.
          2    1    1    2  501    0  0.18443813111E+02  0.97121678403E+02 -0.10548118661E+03  0.14456512507E+03  0.00000000000E+00 0.  1.
          1    1    1    2  502    0 -0.50117745884E+02 -0.14247929107E+03  0.16376319469E+02  0.15192208752E+03  0.00000000000E+00 0.  1.
         22    1    1    2    0    0  0.37809801296E+02  0.66109675771E+02 -0.43554181013E+01  0.76282632174E+02  0.00000000000E+00 0.  1.
         22    1    1    2    0    0 -0.61358685239E+01 -0.20752063105E+02 -0.82889792139E+02  0.85668049157E+02  0.00000000000E+00 0. -1.
</event>
<event>
 6    1  0.8017648E-006  0.4515918E+03  0.7818608E-02  0.1135562E+00
          2   -1    0    0  502    0  0.00000000000E+00  0.00000000000E+00  0.79339313028E+03  0.79339313028E+03  0.00000000000E+00 0. -1.
          1   -1    0    0  501    0 -0.00000000000E+00 -0.00000000000E+00 -0.29571335502E+03  0.29571335502E+03  0.00000000000E+00 0. -1.
          2    1    1    2  501    0  0.10728195389E+03 -0.33489805217E+03  0.14555917726E+03  0.38059637027E+03  0.00000000000E+00 0. -1.
          1    1    1    2  502    0 -0.10178529232E+03  0.42324651437E+03  0.33730308841E+03  0.55070067288E+03  0.00000000000E+00 0. -1.
         22    1    1    2    0    0  0.20306277647E+02  0.13559366138E+02 -0.34035967483E+02  0.41888523541E+02  0.00000000000E+00 0. -1.
         22    1    1    2    0    0 -0.25802939221E+02 -0.10190782834E+03  0.48853477066E+02  0.11592091861E+03  0.00000000000E+00 0.  1.
</event>
<event>
 6    1  0.8017648E-006  0.4696213E+02  0.7818608E-02  0.1569366E+00
          2   -1    0    0  502    0  0.00000000000E+00  0.00000000000E+00  0.23508868562E+03  0.23508868562E+03  0.00000000000E+00 0.  1.
          1   -1    0    0  501    0 -0.00000000000E+00 -0.00000000000E+00 -0.52558018258E+02  0.52558018258E+02  0.00000000000E+00 0. -1.
          2    1    1    2  501    0 -0.23312045071E+02 -0.13833779344E+02  0.95839703427E+02  0.99599566511E+02  0.00000000000E+00 0.  1.
          1    1    1    2  502    0  0.30436703762E+02  0.27087419028E+02  0.86436660475E+01  0.41651340534E+02  0.00000000000E+00 0. -1.
         22    1    1    2    0    0 -0.17424010775E+02 -0.90310768962E+01  0.11042637283E+03  0.11215676671E+03  0.00000000000E+00 0.  1.
         22    1    1    2    0    0  0.10299352084E+02 -0.42225627872E+01 -0.32379074943E+02  0.34239030127E+02  0.00000000000E+00 0. -1.
</event>
<event>
 6    1  0.8928371E-006  0.5633307E+02  0.7818608E-02  0.1461884E+00
          2   -1    0    0  502    0  0.00000000000E+00  0.00000000000E+00  0.99501746651E+03  0.99501746651E+03  0.00000000000E+00 0.  1.
          1   -1    0    0  501    0 -0.00000000000E+00 -0.00000000000E+00 -0.17307297535E+03  0.17307297535E+03  0.00000000000E+00 0. -1.
          2    1    1    2  501    0  0.10685520347E+03  0.70109699142E+02  0.89873508145E+03  0.90777648739E+03  0.00000000000E+00 0.  1.
          1    1    1    2  502    0 -0.98202738396E+02 -0.79231498145E+02 -0.42056166080E+02  0.13300424517E+03  0.00000000000E+00 0. -1.
         22    1    1    2    0    0  0.80474390511E+01 -0.87814436361E+01  0.43621205935E+02  0.45218189203E+02  0.00000000000E+00 0. -1.
         22    1    1    2    0    0 -0.16699904130E+02  0.17903242639E+02 -0.78355630152E+02  0.82091520094E+02  0.00000000000E+00 0. -1.
</event>
<event>
 6    1  0.8017648E-006  0.1057415E+03  0.7818608E-02  0.1288272E+00
          2   -1    0    0  502    0  0.00000000000E+00  0.00000000000E+00  0.70551867662E+03  0.70551867662E+03  0.00000000000E+00 0.  1.
          1   -1    0    0  501    0 -0.00000000000E+00 -0.00000000000E+00 -0.43101120775E+02  0.43101120775E+02  0.00000000000E+00 0.  1.
          2    1    1    2  501    0 -0.11567831019E+03  0.12063808328E+02  0.35574467501E+03  0.37427433884E+03  0.00000000000E+00 0.  1.
          1    1    1    2  502    0  0.71545842148E+02 -0.16259364226E+01  0.14968447153E+03  0.16591230278E+03  0.00000000000E+00 0.  1.
         22    1    1    2    0    0 -0.25492157358E+02  0.10632941750E+02  0.12663328165E+03  0.12961056114E+03  0.00000000000E+00 0. -1.
         22    1    1    2    0    0  0.69624625395E+02 -0.21070813655E+02  0.30355127661E+02  0.78822594634E+02  0.00000000000E+00 0. -1.
</event>
<event>
 6    1  0.8017648E-006  0.1193778E+03  0.7818608E-02  0.1247735E+00
          2   -1    0    0  502    0  0.00000000000E+00  0.00000000000E+00  0.65762173431E+03  0.65762173431E+03  0.00000000000E+00 0. -1.
          1   -1    0    0  501    0 -0.00000000000E+00 -0.00000000000E+00 -0.60192053248E+02  0.60192053248E+02  0.00000000000E+00 0. -1.
          2    1    1    2  501    0  0.25313107799E+02 -0.14598066265E+03  0.35384910735E+03  0.38361477822E+03  0.00000000000E+00 0. -1.
          1    1    1    2  502    0  0.31165050158E+02  0.59918942748E+02  0.83206233220E+02  0.10716723985E+03  0.00000000000E+00 0. -1.
         22    1    1    2    0    0 -0.44398621309E+02  0.10175914897E+03  0.62977746647E+02  0.12764152360E+03  0.00000000000E+00 0. -1.
         22    1    1    2    0    0 -0.12079536648E+02 -0.15697429067E+02  0.97396593843E+02  0.99390245885E+02  0.00000000000E+00 0. -1.
</event>
<event>
 6    1  0.8017648E-006  0.5151669E+02  0.7818608E-02  0.1461916E+00
          2   -1    0    0  502    0  0.00000000000E+00  0.00000000000E+00  0.56372457130E+03  0.56372457130E+03  0.00000000000E+00 0.  1.
          1   -1    0    0  501    0 -0.00000000000E+00 -0.00000000000E+00 -0.61427423330E+02  0.61427423330E+02  0.00000000000E+00 0.  1.
          2    1    1    2  501    0  0.10038091554E+03 -0.45607698859E+02  0.33462567442E+03  0.35232191584E+03  0.00000000000E+00 0.  1.
          1    1    1    2  502    0 -0.51673960809E+02  0.54537504344E+02  0.30909476407E+02  0.81239973766E+02  0.00000000000E+00 0.  1.
         22    1    1    2    0    0 -0.20718242757E+02 -0.11217236170E+01 -0.21970850635E+02  0.30219565259E+02  0.00000000000E+00 0.  1.
         22    1    1    2    0    0 -0.27988711974E+02 -0.78080818683E+01  0.15873284778E+03  0.16137053977E+03  0.00000000000E+00 0. -1.
</event>
<event>
 6    1  0.8017648E-006  0.7217527E+02  0.7818608E-02  0.1390089E+00
          2   -1    0    0  502    0  0.00000000000E+00  0.00000000000E+00  0.23257970191E+03  0.23257970191E+03  0.00000000000E+00 0. -1.
          1   -1    0    0  501    0 -0.00000000000E+00 -0.00000000000E+00 -0.58806068076E+02  0.58806068076E+02  0.00000000000E+00 0. -1.
          2    1    1    2  501    0  0.38530047574E+02  0.45201973899E+01  0.10069780537E+03  0.10791220857E+03  0.00000000000E+00 0. -1.
          1    1    1    2  502    0  0.17071880110E+01  0.20240180480E+02 -0.15255763292E+02  0.25403104346E+02  0.00000000000E+00 0. -1.
         22    1    1    2    0    0 -0.36954574282E+01 -0.38412801939E+02  0.10778144772E+03  0.11448161525E+03  0.00000000000E+00 0. -1.
         22    1    1    2    0    0 -0.36541778156E+02  0.13652424069E+02 -0.19449855971E+02  0.43588841819E+02  0.00000000000E+00 0. -1.
</event>
<event>
 6    1  0.8017648E-006  0.5015122E+02  0.7818608E-02  0.1521499E+00
          2   -1    0    0  502    0  0.00000000000E+00  0.00000000000E+00  0.66892974399E+03  0.66892974399E+03  0.00000000000E+00 0.  1.
          1   -1    0    0  501    0 -0.00000000000E+00 -0.00000000000E+00 -0.21037758995E+02  0.21037758995E+02  0.00000000000E+00 0.  1.
          2    1    1    2  501    0 -0.25048525727E+02  0.50857003623E+01  0.10382606134E+03  0.10692588089E+03  0.00000000000E+00 0.  1.
          1    1    1    2  502    0  0.37280296680E+02  0.12774816917E+02  0.35667923095E+03  0.35884967641E+03  0.00000000000E+00 0.  1.
         22    1    1    2    0    0  0.16951825230E+02  0.78607458899E+00 -0.12658444655E+02  0.21171171742E+02  0.00000000000E+00 0.  1.
         22    1    1    2    0    0 -0.29183596183E+02 -0.18646591868E+02  0.20004513735E+03  0.20302077394E+03  0.00000000000E+00 0.  1.
</event>
<event>
 6    1  0.8017648E-006  0.9135136E+02  0.7818608E-02  0.1426791E+00
          2   -1    0    0  502    0  0.00000000000E+00  0.00000000000E+00  0.44070847582E+03  0.44070847582E+03  0.00000000000E+00 0.  1.
          1   -1    0    0  501    0 -0.00000000000E+00 -0.00000000000E+00 -0.80325066191E+02  0.80325066191E+02  0.00000000000E+00 0.  1.
          2    1    1    2  501    0 -0.25766547220E+02 -0.62625638356E+02  0.41767686304E+02  0.79563968945E+02  0.00000000000E+00 0.  1.
          1    1    1    2  502    0  0.14006705934E+02 -0.47413692714E+02 -0.28673099356E+02  0.57152363859E+02  0.00000000000E+00 0.  1.
         22    1    1    2    0    0  0.62259217327E+01  0.88676114920E+01 -0.88847603052E+01  0.14011980612E+02  0.00000000000E+00 0.  1.
         22    1    1    2    0    0  0.55339195528E+01  0.10117171958E+03  0.35617358299E+03  0.37030522860E+03  0.00000000000E+00 0.  1.
</event>
<event>
 6    1  0.8017648E-006  0.8780661E+02  0.7818608E-02  0.1379785E+00
          2   -1    0    0  502    0  0.00000000000E+00  0.00000000000E+00  0.18375062659E+03  0.18375062659E+03  0.00000000000E+00 0. -1.
          1   -1    0    0  501    0 -0.00000000000E+00 -0.00000000000E+00 -0.32188219882E+03  0.32188219882E+03  0.00000000000E+00 0. -1.
          2    1    1    2  501    0 -0.25272937950E+00 -0.37719555845E+02  0.75362195579E+02  0.84275081061E+02  0.00000000000E+00 0. -1.
          1    1    1    2  502    0 -0.57277952066E+01  0.79812555318E+02 -0.26876670570E+03  0.28042537994E+03  0.00000000000E+00 0. -1.
         22    1    1    2    0    0  0.25223164485E+02  0.43646429348E+01 -0.31532047680E+02  0.40614383726E+02  0.00000000000E+00 0. -1.
         22    1    1    2    0    0 -0.19242639899E+02 -0.46457642408E+02  0.86804985572E+02  0.10031798068E+03  0.00000000000E+00 0. -1.
</event>
<event>
 6    1  0.8017648E-006  0.5560983E+02  0.7818608E-02  0.1431887E+00
          2   -1    0    0  502    0  0.00000000000E+00  0.00000000000E+00  0.15892514751E+03  0.15892514751E+03  0.00000000000E+00 0. -1.
          1   -1    0    0  501    0 -0.00000000000E+00 -0.00000000000E+00 -0.81907752963E+02  0.81907752963E+02  0.00000000000E+00 0.  1.
          2    1    1    2  501    0 -0.24203879469E+02  0.29545385115E+02  0.64801884169E+02  0.75219955828E+02  0.00000000000E+00 0. -1.
          1    1    1    2  502    0  0.10497430897E+01 -0.35110635412E+02 -0.12524046632E+02  0.37292230070E+02  0.00000000000E+00 0.  1.
         22    1    1    2    0    0  0.44130139299E+02 -0.53705827933E+01 -0.39746333228E+02  0.59632905004E+02  0.00000000000E+00 0.  1.
         22    1    1    2    0    0 -0.20976002920E+02  0.10935833090E+02  0.64485890238E+02  0.68687809571E+02  0.00000000000E+00 0. -1.
</event>
<event>
 6    1  0.8017648E-006  0.9594665E+02  0.7818608E-02  0.1306959E+00
          2   -1    0    0  502    0  0.00000000000E+00  0.00000000000E+00  0.72704474712E+02  0.72704474712E+02  0.00000000000E+00 0. -1.
          1   -1    0    0  501    0 -0.00000000000E+00 -0.00000000000E+00 -0.34884952592E+03  0.34884952592E+03  0.00000000000E+00 0. -1.
          2    1    1    2  501    0 -0.34163283893E+02  0.16548832990E+02 -0.30035051189E+02  0.48405558974E+02  0.00000000000E+00 0. -1.
          1    1    1    2  502    0  0.18652483658E+02 -0.10137815663E+03 -0.26924907178E+02  0.10653823922E+03  0.00000000000E+00 0. -1.
         22    1    1    2    0    0 -0.39632558217E+02  0.43513111705E+02 -0.31671089771E+02  0.66837029320E+02  0.00000000000E+00 0. -1.
         22    1    1    2    0    0  0.55143358451E+02  0.41316211941E+02 -0.18751400307E+03  0.19977317312E+03  0.00000000000E+00 0. -1.
</event>
<event>
 6    1  0.8017648E-006  0.4856896E+02  0.7818608E-02  0.1553370E+00
          2   -1    0    0  502    0  0.00000000000E+00  0.00000000000E+00  0.11702610512E+03  0.11702610512E+03  0.00000000000E+00 0.  1.
          1   -1    0    0  501    0 -0.00000000000E+00 -0.00000000000E+00 -0.41269660345E+03  0.41269660345E+03  0.00000000000E+00 0.  1.
          2    1    1    2  501    0 -0.10903479427E+02 -0.50209096857E+02  0.84998601539E+02  0.99320700432E+02  0.00000000000E+00 0.  1.
          1    1    1    2  502    0  0.44302657348E+02  0.51434167166E+02 -0.15586899736E+03  0.17000983306E+03  0.00000000000E+00 0.  1.
         22    1    1    2    0    0 -0.43090845940E+02  0.38158904898E+01 -0.23877052804E+03  0.24265767469E+03  0.00000000000E+00 0.  1.
         22    1    1    2    0    0  0.96916680179E+01 -0.50409607988E+01  0.13970425529E+02  0.17734500393E+02  0.00000000000E+00 0.  1.
</event>
<event>
 6    1  0.8017648E-006  0.1550558E+03  0.7818608E-02  0.1331234E+00
          2   -1    0    0  502    0  0.00000000000E+00  0.00000000000E+00  0.10783363691E+03  0.10783363691E+03  0.00000000000E+00 0.  1.
          1   -1    0    0  501    0 -0.00000000000E+00 -0.00000000000E+00 -0.36466165048E+03  0.36466165048E+03  0.00000000000E+00 0.  1.
          2    1    1    2  501    0 -0.48020063841E+02 -0.30042333702E+02 -0.24576698975E+02  0.61745303287E+02  0.00000000000E+00 0.  1.
          1    1    1    2  502    0  0.74649706715E+02 -0.29641693244E+02 -0.25436813697E+03  0.26674774188E+03  0.00000000000E+00 0.  1.
         22    1    1    2    0    0 -0.23765646083E+02  0.69862340801E+02  0.65914802794E+02  0.98946014691E+02  0.00000000000E+00 0.  1.
         22    1    1    2    0    0 -0.28639967909E+01 -0.10178313855E+02 -0.43797980424E+02  0.45056227536E+02  0.00000000000E+00 0.  1.
</event>
<event>
 6    1  0.8017648E-006  0.5729875E+02  0.7818608E-02  0.1414959E+00
          2   -1    0    0  502    0  0.00000000000E+00  0.00000000000E+00  0.97942531499E+02  0.97942531499E+02  0.00000000000E+00 0. -1.
          1   -1    0    0  501    0 -0.00000000000E+00 -0.00000000000E+00 -0.28889121896E+03  0.28889121896E+03  0.00000000000E+00 0. -1.
          2    1    1    2  501    0  0.27892563491E+02 -0.33430113654E+02  0.43287811602E+02  0.61395457734E+02  0.00000000000E+00 0. -1.
          1    1    1    2  502    0  0.35900498014E+02 -0.28183260574E+02 -0.13171556156E+03  0.13939917895E+03  0.00000000000E+00 0. -1.
         22    1    1    2    0    0 -0.59400636385E+02  0.76756300889E+02 -0.12520228785E+03  0.15841583952E+03  0.00000000000E+00 0. -1.
         22    1    1    2    0    0 -0.43924251200E+01 -0.15142926661E+02  0.22681350353E+02  0.27623274247E+02  0.00000000000E+00 0. -1.
</event>
<event>
 6    1  0.8017648E-006  0.7493993E+02  0.7818608E-02  0.1434368E+00
          2   -1    0    0  502    0  0.00000000000E+00  0.00000000000E+00  0.13201537890E+03  0.13201537890E+03  0.00000000000E+00 0. -1.
          1   -1    0    0  501    0 -0.00000000000E+00 -0.00000000000E+00 -0.18653297459E+03  0.18653297459E+03  0.00000000000E+00 0. -1.
          2    1    1    2  501    0  0.29741317236E+02  0.44220524828E+02  0.57178304200E+02  0.78162390177E+02  0.00000000000E+00 0. -1.
          1    1    1    2  502    0 -0.54290451947E+02 -0.64645732992E+02 -0.53304046529E+02  0.99839097267E+02  0.00000000000E+00 0. -1.
         22    1    1    2    0    0  0.84600893648E+01  0.15316546205E+02 -0.96917951453E+02  0.98484816157E+02  0.00000000000E+00 0. -1.
         22    1    1    2    0    0  0.16089045347E+02  0.51086619590E+01  0.38526098093E+02  0.42062049896E+02  0.00000000000E+00 0. -1.
</event>
<event>
 6    1  0.8017648E-006  0.3111109E+02  0.7818608E-02  0.1643555E+00
          2   -1    0    0  502    0  0.00000000000E+00  0.00000000000E+00  0.63629392201E+03  0.63629392201E+03  0.00000000000E+00 0.  1.
          1   -1    0    0  501    0 -0.00000000000E+00 -0.00000000000E+00 -0.16237660674E+03  0.16237660674E+03  0.00000000000E+00 0.  1.
          2    1    1    2  501    0  0.40603671582E+02 -0.17580516926E+02  0.57970168825E+03  0.58138780524E+03  0.00000000000E+00 0.  1.
          1    1    1    2  502    0 -0.32628085613E+02  0.48673260126E+02 -0.18856674798E+02  0.61556903809E+02  0.00000000000E+00 0.  1.
         22    1    1    2    0    0 -0.18425406120E+01 -0.21817350441E+02 -0.11940595409E+03  0.12139676112E+03  0.00000000000E+00 0.  1.
         22    1    1    2    0    0 -0.61330453562E+01 -0.92753927591E+01  0.32478255912E+02  0.34329058584E+02  0.00000000000E+00 0. -1.
</event>
<event>
 6    1  0.8017648E-006  0.4533356E+02  0.7818608E-02  0.1473303E+00
          2   -1    0    0  502    0  0.00000000000E+00  0.00000000000E+00  0.17015063347E+03  0.17015063347E+03  0.00000000000E+00 0. -1.
          1   -1    0    0  501    0 -0.00000000000E+00 -0.00000000000E+00 -0.26753841186E+03  0.26753841186E+03  0.00000000000E+00 0. -1.
          2    1    1    2  501    0  0.96786987960E+02 -0.62072319911E+01  0.74624029535E+02  0.12237236841E+03  0.00000000000E+00 0. -1.
          1    1    1    2  502    0 -0.98344745792E+02  0.33057317275E+02 -0.16120910867E+03  0.19171033349E+03  0.00000000000E+00 0. -1.
         22    1    1    2    0    0 -0.12342192239E+02 -0.14376302370E+02 -0.64252278459E+02  0.66987782963E+02  0.00000000000E+00 0. -1.
         22    1    1    2    0    0  0.13899950071E+02 -0.12473782914E+02  0.53449579199E+02  0.56618560461E+02  0.00000000000E+00 0. -1.
</event>
<event>
 6    1  0.8017648E-006  0.6856682E+02  0.7818608E-02  0.1368786E+00
          2   -1    0    0  502    0  0.00000000000E+00  0.00000000000E+00  0.17050360908E+03  0.17050360908E+03  0.00000000000E+00 0. -1.
          1   -1    0    0  501    0 -0.00000000000E+00 -0.00000000000E+00 -0.11040936738E+03  0.11040936738E+03  0.00000000000E+00 0. -1.
          2    1    1    2  501    0  0.42935693709E+02 -0.16523796277E+01  0.87975048661E+02  0.97907166947E+02  0.00000000000E+00 0. -1.
          1    1    1    2  502    0 -0.42125763904E+02  0.20171684766E+00 -0.37641483587E+02  0.56493379796E+02  0.00000000000E+00 0. -1.
         22    1    1    2    0    0 -0.20280670031E+02 -0.42029892201E+01 -0.54937382731E+02  0.58711895870E+02  0.00000000000E+00 0. -1.
         22    1    1    2    0    0  0.19470740225E+02  0.56536520002E+01  0.64698059360E+02  0.67800533853E+02  0.00000000000E+00 0. -1.
</event>
<event>
 6    1  0.8017648E-006  0.1136325E+03  0.7818608E-02  0.1310250E+00
          2   -1    0    0  502    0  0.00000000000E+00  0.00000000000E+00  0.56868475313E+03  0.56868475313E+03  0.00000000000E+00 0. -1.
          1   -1    0    0  501    0 -0.00000000000E+00 -0.00000000000E+00 -0.11792310811E+03  0.11792310811E+03  0.00000000000E+00 0. -1.
          2    1    1    2  501    0 -0.60325663748E+02  0.81222554637E+02  0.42133795510E+03  0.43331508339E+03  0.00000000000E+00 0. -1.
          1    1    1    2  502    0  0.10054386335E+03 -0.60411568399E+02  0.10784671997E+02  0.11779191485E+03  0.00000000000E+00 0. -1.
         22    1    1    2    0    0 -0.29403355021E+02 -0.25726238826E+02 -0.51343168723E+02  0.64517576094E+02  0.00000000000E+00 0. -1.
         22    1    1    2    0    0 -0.10814844581E+02  0.49152525883E+01  0.69982186645E+02  0.70983286898E+02  0.00000000000E+00 0.  1.
</event>
<event>
 6    1  0.8017648E-006  0.6594842E+02  0.7818608E-02  0.1402888E+00
          2   -1    0    0  502    0  0.00000000000E+00  0.00000000000E+00  0.51986570287E+02  0.51986570287E+02  0.00000000000E+00 0.  1.
          1   -1    0    0  501    0 -0.00000000000E+00 -0.00000000000E+00 -0.25749697669E+03  0.25749697669E+03  0.00000000000E+00 0. -1.
          2    1    1    2  501    0 -0.16557312801E+02 -0.35553595662E+02  0.12364775930E+02  0.41122870224E+02  0.00000000000E+00 0.  1.
          1    1    1    2  502    0  0.18053876851E+02  0.12303567889E+02 -0.58137781574E+02  0.62107341743E+02  0.00000000000E+00 0. -1.
         22    1    1    2    0    0 -0.33430276634E+02  0.24942579943E+02 -0.16810170168E+03  0.17319901211E+03  0.00000000000E+00 0. -1.
         22    1    1    2    0    0  0.31933712584E+02 -0.16925521703E+01  0.83643009201E+01  0.33054322896E+02  0.00000000000E+00 0.  1.
</event>
<event>
 6    1  0.8017648E-006  0.1179475E+03  0.7818608E-02  0.1370618E+00
          2   -1    0    0  502    0  0.00000000000E+00  0.00000000000E+00  0.22344154049E+03  0.22344154049E+03  0.00000000000E+00 0.  1.
          1   -1    0    0  501    0 -0.00000000000E+00 -0.00000000000E+00 -0.16308773023E+03  0.16308773023E+03  0.00000000000E+00 0. -1.
          2    1    1    2  501    0  0.21591571043E+02 -0.78504412200E+02  0.94988285102E+02  0.12510760561E+03  0.00000000000E+00 0.  1.
          1    1    1    2  502    0 -0.55716600609E+02  0.10232381531E+03 -0.58580075593E+02  0.13040754587E+03  0.00000000000E+00 0. -1.
         22    1    1    2    0    0  0.21871357016E+02 -0.23050568035E+02  0.73440068572E+02  0.80019551463E+02  0.00000000000E+00 0. -1.
         22    1    1    2    0    0  0.12253672551E+02 -0.76883507433E+00 -0.49494467817E+02  0.50994567778E+02  0.00000000000E+00 0. -1.
</event>
<event>
 6    1  0.8017648E-006  0.7135702E+02  0.7818608E-02  0.1471254E+00
          2   -1    0    0  502    0  0.00000000000E+00  0.00000000000E+00  0.37630418252E+03  0.37630418252E+03  0.00000000000E+00 0. -1.
          1   -1    0    0  501    0 -0.00000000000E+00 -0.00000000000E+00 -0.10113248601E+03  0.10113248601E+03  0.00000000000E+00 0.  1.
          2    1    1    2  501    0 -0.42317545554E+02  0.20552354078E+02  0.22798888236E+03  0.23279197666E+03  0.00000000000E+00 0. -1.
          1    1    1    2  502    0  0.77112090506E+02 -0.24859545451E+02 -0.36928021282E+02  0.89039037832E+02  0.00000000000E+00 0.  1.
         22    1    1    2    0    0 -0.23684581240E+02  0.34814892216E+00  0.11767198829E+03  0.12003240156E+03  0.00000000000E+00 0.  1.
         22    1    1    2    0    0 -0.11109963711E+02  0.39590424512E+01 -0.33561152850E+02  0.35573252472E+02  0.00000000000E+00 0.  1.
</event>
<event>
 6    1  0.8017648E-006  0.3201063E+03  0.7818608E-02  0.1076271E+00
          2   -1    0    0  502    0  0.00000000000E+00  0.00000000000E+00  0.64923227993E+03  0.64923227993E+03  0.00000000000E+00 0. -1.
          1   -1    0    0  501    0 -0.00000000000E+00 -0.00000000000E+00 -0.18540641241E+03  0.18540641241E+03  0.00000000000E+00 0. -1.
          2    1    1    2  501    0  0.18496086172E+03  0.40588454788E+02  0.37379365081E+02  0.19301595780E+03  0.00000000000E+00 0. -1.
          1    1    1    2  502    0 -0.25662783623E+03 -0.98859747870E+02  0.39429307772E+03  0.48072666580E+03  0.00000000000E+00 0. -1.
         22    1    1    2    0    0  0.97795086213E+02  0.77807212786E+02  0.23766516986E+02  0.12721119675E+03  0.00000000000E+00 0.  1.
         22    1    1    2    0    0 -0.26128111705E+02 -0.19535919703E+02  0.83869077374E+01  0.33684871995E+02  0.00000000000E+00 0. -1.
</event>
<event>
 6    1  0.8017648E-006  0.5141800E+02  0.7818608E-02  0.1491147E+00
          2   -1    0    0  502    0  0.00000000000E+00  0.00000000000E+00  0.63463272551E+02  0.63463272551E+02  0.00000000000E+00 0. -1.
          1   -1    0    0  501    0 -0.00000000000E+00 -0.00000000000E+00 -0.35423873975E+03  0.35423873975E+03  0.00000000000E+00 0.  1.
          2    1    1    2  501    0  0.20266104951E+02  0.14624812667E+02  0.32974545036E+02  0.41375364358E+02  0.00000000000E+00 0. -1.
          1    1    1    2  502    0 -0.55921855543E+01 -0.54291258138E+02 -0.51465986049E+02  0.75017071187E+02  0.00000000000E+00 0.  1.
         22    1    1    2    0    0 -0.21274335354E+02 -0.10695156442E+02  0.52032830130E+00  0.23817104308E+02  0.00000000000E+00 0.  1.
         22    1    1    2    0    0  0.66004159577E+01  0.50361601913E+02 -0.27280435449E+03  0.27749247245E+03  0.00000000000E+00 0.  1.
</event>
<event>
 6    1  0.8017648E-006  0.4415503E+02  0.7818608E-02  0.1564367E+00
          2   -1    0    0  502    0  0.00000000000E+00  0.00000000000E+00  0.44334600876E+02  0.44334600876E+02  0.00000000000E+00 0.  1.
          1   -1    0    0  501    0 -0.00000000000E+00 -0.00000000000E+00 -0.45316099552E+03  0.45316099552E+03  0.00000000000E+00 0.  1.
          2    1    1    2  501    0  0.53489008283E+02  0.22549401061E+02 -0.75190369370E+02  0.94990216029E+02  0.00000000000E+00 0.  1.
          1    1    1    2  502    0 -0.68112718964E+02  0.17478309995E+02 -0.19968009309E+03  0.21170019693E+03  0.00000000000E+00 0.  1.
         22    1    1    2    0    0  0.66659939204E+00 -0.10753765793E+02  0.25711329211E+02  0.27877594646E+02  0.00000000000E+00 0.  1.
         22    1    1    2    0    0  0.13957111289E+02 -0.29273945263E+02 -0.15966726140E+03  0.16292758879E+03  0.00000000000E+00 0. -1.
</event>
<event>
 6    1  0.1051320E-005  0.1347118E+03  0.7818608E-02  0.1338575E+00
          2   -1    0    0  502    0  0.00000000000E+00  0.00000000000E+00  0.20653945515E+03  0.20653945515E+03  0.00000000000E+00 0.  1.
          1   -1    0    0  501    0 -0.00000000000E+00 -0.00000000000E+00 -0.86827601270E+03  0.86827601270E+03  0.00000000000E+00 0.  1.
          2    1    1    2  501    0  0.10409133792E+03 -0.45056871589E+02  0.13353022152E+03  0.17520116543E+03  0.00000000000E+00 0.  1.
          1    1    1    2  502    0 -0.11563129677E+03  0.74956350192E+02 -0.75697106229E+03  0.76941161960E+03  0.00000000000E+00 0.  1.
         22    1    1    2    0    0  0.35757181883E+01 -0.13725946032E+02 -0.81847280152E+02  0.83067229540E+02  0.00000000000E+00 0.  1.
         22    1    1    2    0    0  0.79642406633E+01 -0.16173532571E+02  0.43551563367E+02  0.47135453291E+02  0.00000000000E+00 0.  1.
</event>
<event>
 6    1  0.8017648E-006  0.1186098E+03  0.7818608E-02  0.1356952E+00
          2   -1    0    0  502    0  0.00000000000E+00  0.00000000000E+00  0.48672701725E+03  0.48672701725E+03  0.00000000000E+00 0.  1.
          1   -1    0    0  501    0 -0.00000000000E+00 -0.00000000000E+00 -0.57165981810E+02  0.57165981810E+02  0.00000000000E+00 0.  1.
          2    1    1    2  501    0  0.27990729154E+02 -0.61849469539E+02  0.18664727066E+03  0.19861027527E+03  0.00000000000E+00 0.  1.
          1    1    1    2  502    0 -0.20419510179E+02  0.10574228896E+03  0.14533695460E+03  0.18089007281E+03  0.00000000000E+00 0.  1.
         22    1    1    2    0    0  0.23508947003E+01 -0.55368979772E+02  0.12293152222E+03  0.13484587418E+03  0.00000000000E+00 0.  1.
         22    1    1    2    0    0 -0.99221136757E+01  0.11476160348E+02 -0.25354712040E+02  0.29546776791E+02  0.00000000000E+00 0. -1.
</event>
<event>
 6    1  0.8017648E-006  0.1035862E+03  0.7818608E-02  0.1348532E+00
          2   -1    0    0  502    0  0.00000000000E+00  0.00000000000E+00  0.32179812953E+03  0.32179812953E+03  0.00000000000E+00 0. -1.
          1   -1    0    0  501    0 -0.00000000000E+00 -0.00000000000E+00 -0.33846637155E+02  0.33846637155E+02  0.00000000000E+00 0. -1.
          2    1    1    2  501    0  0.59116799844E+01 -0.20723177446E+02  0.21910757957E+01  0.21660998519E+02  0.00000000000E+00 0. -1.
          1    1    1    2  502    0 -0.26525678478E+02  0.31457534666E+02  0.44442880545E+02  0.60566969027E+02  0.00000000000E+00 0. -1.
         22    1    1    2    0    0 -0.22135733164E+02  0.14162063616E+02 -0.80619691935E+00  0.26290771804E+02  0.00000000000E+00 0. -1.
         22    1    1    2    0    0  0.42749731658E+02 -0.24896420835E+02  0.24212373295E+03  0.24712602733E+03  0.00000000000E+00 0. -1.
</event>
<event>
 6    1  0.8017648E-006  0.4743414E+02  0.7818608E-02  0.1464285E+00
          2   -1    0    0  502    0  0.00000000000E+00  0.00000000000E+00  0.11980207692E+04  0.11980207692E+04  0.00000000000E+00 0.  1.
          1   -1    0    0  501    0 -0.00000000000E+00 -0.00000000000E+00 -0.86996263775E+02  0.86996263775E+02  0.00000000000E+00 0.  1.
          2    1    1    2  501    0 -0.80617886789E+02  0.18190480405E+02  0.10702123962E+04  0.10733986725E+04  0.00000000000E+00 0.  1.
          1    1    1    2  502    0  0.78926776162E+02 -0.18970116172E+02  0.22047163736E+02  0.84115270502E+02  0.00000000000E+00 0.  1.
         22    1    1    2    0    0 -0.20461987626E+02  0.49111674148E+01  0.69164543633E+02  0.72294858731E+02  0.00000000000E+00 0. -1.
         22    1    1    2    0    0  0.22153098253E+02 -0.41315316483E+01 -0.50399598061E+02  0.55208231277E+02  0.00000000000E+00 0.  1.
</event>
<event>
 6    1  0.8017648E-006  0.6581712E+02  0.7818608E-02  0.1423897E+00
          2   -1    0    0  502    0  0.00000000000E+00  0.00000000000E+00  0.75521615621E+03  0.75521615621E+03  0.00000000000E+00 0.  1.
          1   -1    0    0  501    0 -0.00000000000E+00 -0.00000000000E+00 -0.29758804824E+03  0.29758804824E+03  0.00000000000E+00 0. -1.
          2    1    1    2  501    0  0.47490125865E+01  0.98735635895E+02  0.67066888279E+03  0.67791447046E+03  0.00000000000E+00 0.  1.
          1    1    1    2  502    0 -0.54199705387E+02 -0.11020823821E+03 -0.20584272702E+03  0.23969708405E+03  0.00000000000E+00 0. -1.
         22    1    1    2    0    0  0.84832819374E+01  0.17122178817E+02 -0.62944738452E+02  0.65781267688E+02  0.00000000000E+00 0.  1.
         22    1    1    2    0    0  0.40967410864E+02 -0.56495765011E+01  0.55746690655E+02  0.69411382254E+02  0.00000000000E+00 0. -1.
</event>
<event>
 6    1  0.8017648E-006  0.2411956E+03  0.7818608E-02  0.1234153E+00
          2   -1    0    0  502    0  0.00000000000E+00  0.00000000000E+00  0.83098450698E+03  0.83098450698E+03  0.00000000000E+00 0. -1.
          1   -1    0    0  501    0 -0.00000000000E+00 -0.00000000000E+00 -0.27062927786E+03  0.27062927786E+03  0.00000000000E+00 0.  1.
          2    1    1    2  501    0 -0.21970229966E+03 -0.44509921244E+02  0.66420900327E+03  0.70101628625E+03  0.00000000000E+00 0. -1.
          1    1    1    2  502    0  0.25207443733E+03  0.40238707630E+02 -0.98651260425E+02  0.27366539191E+03  0.00000000000E+00 0.  1.
         22    1    1    2    0    0 -0.14776609926E+02  0.20979618460E+01  0.58724897676E+02  0.60591775447E+02  0.00000000000E+00 0. -1.
         22    1    1    2    0    0 -0.17595527740E+02  0.21732517675E+01 -0.63927411401E+02  0.66340331233E+02  0.00000000000E+00 0.  1.
</event>
<event>
 6    1  0.8017648E-006  0.8248770E+02  0.7818608E-02  0.1336917E+00
          2   -1    0    0  502    0  0.00000000000E+00  0.00000000000E+00  0.50193678221E+03  0.50193678221E+03  0.00000000000E+00 0.  1.
          1   -1    0    0  501    0 -0.00000000000E+00 -0.00000000000E+00 -0.29818395685E+02  0.29818395685E+02  0.00000000000E+00 0.  1.
          2    1    1    2  501    0  0.45732118818E+02  0.25586755098E+02  0.12761579791E+03  0.13795615465E+03  0.00000000000E+00 0.  1.
          1    1    1    2  502    0 -0.28956764562E+02 -0.48988638829E+02  0.69044141897E+02  0.89473317131E+02  0.00000000000E+00 0.  1.
         22    1    1    2    0    0 -0.62894503387E+02  0.93617296746E+01  0.75847940040E+02  0.98976110992E+02  0.00000000000E+00 0.  1.
         22    1    1    2    0    0  0.46119149130E+02  0.14040154056E+02  0.19961050667E+03  0.20534959512E+03  0.00000000000E+00 0.  1.
</event>
<event>
 6    1  0.8017648E-006  0.5903411E+02  0.7818608E-02  0.1442782E+00
          2   -1    0    0  502    0  0.00000000000E+00  0.00000000000E+00  0.11115957517E+03  0.11115957517E+03  0.00000000000E+00 0.  1.
          1   -1    0    0  501    0 -0.00000000000E+00 -0.00000000000E+00 -0.19135102215E+03  0.19135102215E+03  0.00000000000E+00 0. -1.
          2    1    1    2  501    0  0.17357643093E+02 -0.38606303828E+02  0.73072100731E+02  0.84446825720E+02  0.00000000000E+00 0.  1.
          1    1    1    2  502    0 -0.26901833699E+02  0.18419272143E+02 -0.34615328951E+02  0.47552068735E+02  0.00000000000E+00 0. -1.
         22    1    1    2    0    0  0.17854535890E+02 -0.10255723671E+02  0.19768135670E+02  0.28543712227E+02  0.00000000000E+00 0.  1.
         22    1    1    2    0    0 -0.83103452837E+01  0.30442755356E+02 -0.13841635442E+03  0.14196799063E+03  0.00000000000E+00 0. -1.
</event>
<event>
 6    1  0.8017648E-006  0.7652204E+02  0.7818608E-02  0.1414503E+00
          2   -1    0    0  502    0  0.00000000000E+00  0.00000000000E+00  0.13031382508E+03  0.13031382508E+03  0.00000000000E+00 0.  1.
          1   -1    0    0  501    0 -0.00000000000E+00 -0.00000000000E+00 -0.17242049768E+03  0.17242049768E+03  0.00000000000E+00 0. -1.
          2    1    1    2  501    0  0.33077166013E+02  0.17132345297E+02  0.57047934725E+02  0.68132833664E+02  0.00000000000E+00 0.  1.
          1    1    1    2  502    0 -0.65789385392E+02 -0.23651997123E+02 -0.68214800958E+02  0.97677629312E+02  0.00000000000E+00 0. -1.
         22    1    1    2    0    0 -0.30092382499E+01  0.22060332863E+02 -0.74927965318E+02  0.78165937515E+02  0.00000000000E+00 0. -1.
         22    1    1    2    0    0  0.35721457629E+02 -0.15540681037E+02  0.43988158945E+02  0.58757922271E+02  0.00000000000E+00 0.  1.
</event>
<event>
 6    1  0.8017648E-006  0.7549175E+02  0.7818608E-02  0.1437650E+00
          2   -1    0    0  502    0  0.00000000000E+00  0.00000000000E+00  0.70616461239E+03  0.70616461239E+03  0.00000000000E+00 0. -1.
          1   -1    0    0  501    0 -0.00000000000E+00 -0.00000000000E+00 -0.40446534782E+02  0.40446534782E+02  0.00000000000E+00 0. -1.
          2    1    1    2  501    0 -0.33888612745E+02  0.44043988428E+02  0.49296566687E+03  0.49608815719E+03  0.00000000000E+00 0. -1.
          1    1    1    2  502    0  0.41439093597E+02 -0.38702956088E+02  0.76966820592E+02  0.95598162954E+02  0.00000000000E+00 0. -1.
         22    1    1    2    0    0 -0.21254324578E+02  0.34716636964E+01  0.12209457260E+03  0.12397936692E+03  0.00000000000E+00 0. -1.
         22    1    1    2    0    0  0.13703843726E+02 -0.88126960367E+01 -0.26308982451E+02  0.30945460118E+02  0.00000000000E+00 0. -1.
</event>
<event>
 6    1  0.8017648E-006  0.7566878E+02  0.7818608E-02  0.1403887E+00
          2   -1    0    0  502    0  0.00000000000E+00  0.00000000000E+00  0.12231855148E+03  0.12231855148E+03  0.00000000000E+00 0.  1.
          1   -1    0    0  501    0 -0.00000000000E+00 -0.00000000000E+00 -0.19022598117E+03  0.19022598117E+03  0.00000000000E+00 0.  1.
          2    1    1    2  501    0 -0.70196756764E+01  0.66621425874E+02  0.58274180781E+02  0.88789472224E+02  0.00000000000E+00 0.  1.
          1    1    1    2  502    0  0.98024496769E+01 -0.53699695178E+02 -0.11090130689E+02  0.55702210733E+02  0.00000000000E+00 0.  1.
         22    1    1    2    0    0  0.87951024201E+01 -0.25718685747E+02 -0.13727911079E+03  0.13994412772E+03  0.00000000000E+00 0.  1.
         22    1    1    2    0    0 -0.11577876421E+02  0.12796955051E+02  0.22187631012E+02  0.28108721972E+02  0.00000000000E+00 0. -1.
</event>
<event>
 6    1  0.8017648E-006  0.1123098E+03  0.7818608E-02  0.1332879E+00
          2   -1    0    0  502    0  0.00000000000E+00  0.00000000000E+00  0.21407512612E+03  0.21407512612E+03  0.00000000000E+00 0. -1.
          1   -1    0    0  501    0 -0.00000000000E+00 -0.00000000000E+00 -0.14670488127E+03  0.14670488127E+03  0.00000000000E+00 0. -1.
          2    1    1    2  501    0 -0.20517683803E+02  0.26567144659E+01  0.17146890345E+01  0.20759904597E+02  0.00000000000E+00 0. -1.
          1    1    1    2  502    0  0.10721695701E+03 -0.57316605524E+02  0.11685954160E+03  0.16863220808E+03  0.00000000000E+00 0. -1.
         22    1    1    2    0    0 -0.67961328438E+02  0.35173771571E+02  0.32713671254E+02  0.83223317986E+02  0.00000000000E+00 0. -1.
         22    1    1    2    0    0 -0.18737944768E+02  0.19486119486E+02 -0.83917657040E+02  0.88164576729E+02  0.00000000000E+00 0. -1.
</event>
<event>
 6    1  0.8017648E-006  0.6585491E+02  0.7818608E-02  0.1389434E+00
          2   -1    0    0  502    0  0.00000000000E+00  0.00000000000E+00  0.33952273743E+03  0.33952273743E+03  0.00000000000E+00 0.  1.
          1   -1    0    0  501    0 -0.00000000000E+00 -0.00000000000E+00 -0.49182413991E+02  0.49182413991E+02  0.00000000000E+00 0. -1.
          2    1    1    2  501    0 -0.13888085232E+02  0.31873425388E+02  0.70466241393E+02  0.78576620781E+02  0.00000000000E+00 0.  1.
          1    1    1    2  502    0  0.43427823894E+02 -0.34176174442E+02  0.15558355557E+03  0.16510672170E+03  0.00000000000E+00 0. -1.
         22    1    1    2    0    0 -0.60047811375E+01 -0.51548169248E+02 -0.72903195875E+01  0.52406296464E+02  0.00000000000E+00 0. -1.
         22    1    1    2    0    0 -0.23534957525E+02  0.53850918302E+02  0.71580846067E+02  0.92615512477E+02  0.00000000000E+00 0.  1.
</event>
<event>
 6    1  0.8017648E-006  0.6525088E+03  0.7818608E-02  0.1076666E+00
          2   -1    0    0  502    0  0.00000000000E+00  0.00000000000E+00  0.71778117818E+03  0.71778117818E+03  0.00000000000E+00 0.  1.
          1   -1    0    0  501    0 -0.00000000000E+00 -0.00000000000E+00 -0.61591003389E+03  0.61591003389E+03  0.00000000000E+00 0.  1.
          2    1    1    2  501    0 -0.11809244195E+03 -0.38239221045E+03  0.91265648301E+02  0.41048635302E+03  0.00000000000E+00 0.  1.
          1    1    1    2  502    0  0.30041980697E+02  0.63174634348E+03  0.80056470951E+01  0.63251091176E+03  0.00000000000E+00 0.  1.
         22    1    1    2    0    0  0.51664275577E+02 -0.24444419686E+03  0.18825524517E+02  0.25055251570E+03  0.00000000000E+00 0.  1.
         22    1    1    2    0    0  0.36386185673E+02 -0.49099361727E+01 -0.16225675628E+02  0.40141431596E+02  0.00000000000E+00 0.  1.
</event>
<event>
 6    1  0.8017648E-006  0.3193548E+02  0.7818608E-02  0.1594256E+00
          2   -1    0    0  502    0  0.00000000000E+00  0.00000000000E+00  0.46534892833E+03  0.46534892833E+03  0.00000000000E+00 0.  1.
          1   -1    0    0  501    0 -0.00000000000E+00 -0.00000000000E+00 -0.11173929179E+03  0.11173929179E+03  0.00000000000E+00 0.  1.
          2    1    1    2  501    0  0.12063972288E+02 -0.17508879607E+02  0.26224551280E+03  0.26310607989E+03  0.00000000000E+00 0.  1.
          1    1    1    2  502    0 -0.34594910131E+02  0.45960541315E+02  0.15709027036E+03  0.16729175773E+03  0.00000000000E+00 0.  1.
         22    1    1    2    0    0 -0.24123455276E+01 -0.21087779001E+02  0.35945881980E+02  0.41744703441E+02  0.00000000000E+00 0.  1.
         22    1    1    2    0    0  0.24943283370E+02 -0.73638827075E+01 -0.10167202859E+03  0.10494567905E+03  0.00000000000E+00 0.  1.
</event>
<event>
 6    1  0.8017648E-006  0.8960174E+02  0.7818608E-02  0.1419347E+00
          2   -1    0    0  502    0  0.00000000000E+00  0.00000000000E+00  0.14708967913E+03  0.14708967913E+03  0.00000000000E+00 0. -1.
          1   -1    0    0  501    0 -0.00000000000E+00 -0.00000000000E+00 -0.42634605701E+03  0.42634605701E+03  0.00000000000E+00 0.  1.
          2    1    1    2  501    0  0.42301239125E+02 -0.42712118259E+02  0.70100745351E+02  0.92346274297E+02  0.00000000000E+00 0. -1.
          1    1    1    2  502    0 -0.65111264947E+02  0.75059892710E+02 -0.33150399247E+03  0.34607565840E+03  0.00000000000E+00 0.  1.
         22    1    1    2    0    0  0.55509844958E+01 -0.11609554001E+02 -0.72731786627E+02  0.73861410486E+02  0.00000000000E+00 0. -1.
         22    1    1    2    0    0  0.17259041326E+02 -0.20738220450E+02  0.54878655863E+02  0.61152392956E+02  0.00000000000E+00 0. -1.
</event>
<event>
 6    1  0.8017648E-006  0.6054687E+02  0.7818608E-02  0.1446042E+00
          2   -1    0    0  502    0  0.00000000000E+00  0.00000000000E+00  0.56365222963E+03  0.56365222963E+03  0.00000000000E+00 0. -1.
          1   -1    0    0  501    0 -0.00000000000E+00 -0.00000000000E+00 -0.24213156747E+03  0.24213156747E+03  0.00000000000E+00 0.  1.
          2    1    1    2  501    0 -0.11941528944E+03 -0.69394694271E+02  0.47820840572E+03  0.49775386914E+03  0.00000000000E+00 0. -1.
          1    1    1    2  502    0  0.91768088365E+02  0.63159339012E+02 -0.13579861771E+03  0.17564665871E+03  0.00000000000E+00 0.  1.
         22    1    1    2    0    0 -0.25161935871E+01  0.14047097460E+02 -0.71521699690E+02  0.72931513791E+02  0.00000000000E+00 0.  1.
         22    1    1    2    0    0  0.30163394664E+02 -0.78117422016E+01  0.50632573835E+02  0.59451755458E+02  0.00000000000E+00 0.  1.
</event>
<event>
 6    1  0.8017648E-006  0.1379910E+03  0.7818608E-02  0.1281324E+00
          2   -1    0    0  502    0  0.00000000000E+00  0.00000000000E+00  0.13571197492E+03  0.13571197492E+03  0.00000000000E+00 0. -1.
          1   -1    0    0  501    0 -0.00000000000E+00 -0.00000000000E+00 -0.11109691469E+03  0.11109691469E+03  0.00000000000E+00 0. -1.
          2    1    1    2  501    0 -0.38638795870E+02 -0.41624951138E+02  0.38746812030E+02  0.68752516653E+02  0.00000000000E+00 0. -1.
          1    1    1    2  502    0  0.14784400148E+02 -0.24848282733E+02 -0.95776055829E+01  0.30458925970E+02  0.00000000000E+00 0. -1.
         22    1    1    2    0    0 -0.59349441800E+01  0.88957245761E+02  0.32606125231E+02  0.94930366788E+02  0.00000000000E+00 0. -1.
         22    1    1    2    0    0  0.29789339903E+02 -0.22484011890E+02 -0.37160271446E+02  0.52667080197E+02  0.00000000000E+00 0. -1.
</event>
<event>
 6    1  0.8017648E-006  0.9972851E+02  0.7818608E-02  0.1340098E+00
          2   -1    0    0  502    0  0.00000000000E+00  0.00000000000E+00  0.55730576047E+02  0.55730576047E+02  0.00000000000E+00 0. -1.
          1   -1    0    0  501    0 -0.00000000000E+00 -0.00000000000E+00 -0.28587276655E+03  0.28587276655E+03  0.00000000000E+00 0. -1.
          2    1    1    2  501    0  0.21205079055E+02  0.62558771392E-01 -0.47671857771E+02  0.52175332435E+02  0.00000000000E+00 0. -1.
          1    1    1    2  502    0 -0.10947847411E+02  0.71225692489E+02 -0.31638777045E+02  0.78701758852E+02  0.00000000000E+00 0. -1.
         22    1    1    2    0    0  0.21439040800E+02 -0.58854360724E+02 -0.71252010666E+01  0.63041547704E+02  0.00000000000E+00 0. -1.
         22    1    1    2    0    0 -0.31696272444E+02 -0.12433890537E+02 -0.14370635462E+03  0.14768470361E+03  0.00000000000E+00 0. -1.
</event>
<event>
 6    1  0.8017648E-006  0.1331630E+03  0.7818608E-02  0.1266780E+00
          2   -1    0    0  502    0  0.00000000000E+00  0.00000000000E+00  0.28843587684E+03  0.28843587684E+03  0.00000000000E+00 0. -1.
          1   -1    0    0  501    0 -0.00000000000E+00 -0.00000000000E+00 -0.16326622328E+03  0.16326622328E+03  0.00000000000E+00 0. -1.
          2    1    1    2  501    0  0.47598999125E+02 -0.10654511093E+03  0.37241777495E+01  0.11675356475E+03  0.00000000000E+00 0. -1.
          1    1    1    2  502    0 -0.19676047654E+02  0.11685990794E+03  0.16279786854E+03  0.20136169183E+03  0.00000000000E+00 0. -1.
         22    1    1    2    0    0 -0.51504467003E+02  0.19064422013E+02 -0.68025265059E+02  0.87427678651E+02  0.00000000000E+00 0. -1.
         22    1    1    2    0    0  0.23581515532E+02 -0.29379219019E+02  0.26672872336E+02  0.46159164893E+02  0.00000000000E+00 0.  1.
</event>
<event>
 6    1  0.8017648E-006  0.7361842E+02  0.7818608E-02  0.1350631E+00
          2   -1    0    0  502    0  0.00000000000E+00  0.00000000000E+00  0.11914490888E+03  0.11914490888E+03  0.00000000000E+00 0. -1.
          1   -1    0    0  501    0 -0.00000000000E+00 -0.00000000000E+00 -0.20469051531E+03  0.20469051531E+03  0.00000000000E+00 0.  1.
          2    1    1    2  501    0  0.41809378159E+02 -0.11811008579E+02  0.67380990372E+02  0.80173074589E+02  0.00000000000E+00 0. -1.
          1    1    1    2  502    0 -0.26097141806E+02  0.17346931086E+01 -0.98619718266E+02  0.10202900961E+03  0.00000000000E+00 0.  1.
         22    1    1    2    0    0  0.13893494861E+02 -0.23066351957E+02  0.33643729191E+02  0.43092763963E+02  0.00000000000E+00 0. -1.
         22    1    1    2    0    0 -0.29605731213E+02  0.33142667427E+02 -0.87950607724E+02  0.98540576028E+02  0.00000000000E+00 0. -1.
</event>
<event>
 6    1  0.8017648E-006  0.4916443E+02  0.7818608E-02  0.1553148E+00
          2   -1    0    0  502    0  0.00000000000E+00  0.00000000000E+00  0.22797993338E+03  0.22797993338E+03  0.00000000000E+00 0. -1.
          1   -1    0    0  501    0 -0.00000000000E+00 -0.00000000000E+00 -0.25235064504E+03  0.25235064504E+03  0.00000000000E+00 0. -1.
          2    1    1    2  501    0 -0.20047004595E+02 -0.31601883049E+02  0.15925825129E+03  0.16359630805E+03  0.00000000000E+00 0. -1.
          1    1    1    2  502    0  0.27001357132E+02  0.32010438280E+02 -0.18441993945E+03  0.18911492673E+03  0.00000000000E+00 0. -1.
         22    1    1    2    0    0 -0.46813997876E+01  0.10953394930E+02 -0.62322693039E+02  0.63450850523E+02  0.00000000000E+00 0.  1.
         22    1    1    2    0    0 -0.22729527496E+01 -0.11361950161E+02  0.63113669541E+02  0.64168493115E+02  0.00000000000E+00 0. -1.
</event>
<event>
 6    1  0.8017648E-006  0.7402811E+02  0.7818608E-02  0.1425550E+00
          2   -1    0    0  502    0  0.00000000000E+00  0.00000000000E+00  0.53982574314E+03  0.53982574314E+03  0.00000000000E+00 0. -1.
          1   -1    0    0  501    0 -0.00000000000E+00 -0.00000000000E+00 -0.97934215183E+02  0.97934215183E+02  0.00000000000E+00 0.  1.
          2    1    1    2  501    0  0.52574595297E+02 -0.97944591657E+02  0.37724133503E+03  0.39327885268E+03  0.00000000000E+00 0. -1.
          1    1    1    2  502    0 -0.16772938243E+02  0.10517254697E+03  0.15432136072E+02  0.10761387883E+03  0.00000000000E+00 0.  1.
         22    1    1    2    0    0  0.12661402657E+02  0.58500242914E+01  0.77842809930E+02  0.79082469355E+02  0.00000000000E+00 0.  1.
         22    1    1    2    0    0 -0.48463059711E+02 -0.13077979600E+02 -0.28624753074E+02  0.57784757467E+02  0.00000000000E+00 0.  1.
</event>
<event>
 6    1  0.8017648E-006  0.1409278E+03  0.7818608E-02  0.1268753E+00
          2   -1    0    0  502    0  0.00000000000E+00  0.00000000000E+00  0.64287727658E+02  0.64287727658E+02  0.00000000000E+00 0. -1.
          1   -1    0    0  501    0 -0.00000000000E+00 -0.00000000000E+00 -0.58197002731E+03  0.58197002731E+03  0.00000000000E+00 0.  1.
          2    1    1    2  501    0  0.31611959930E+02 -0.32871971678E+02 -0.15446039388E+03  0.16105246292E+03  0.00000000000E+00 0. -1.
          1    1    1    2  502    0 -0.69039478708E+02  0.11144699674E+03 -0.56109244670E+02  0.14260129747E+03  0.00000000000E+00 0.  1.
         22    1    1    2    0    0  0.80466233592E+02 -0.66907779651E+02 -0.18418875426E+03  0.21184183468E+03  0.00000000000E+00 0. -1.
         22    1    1    2    0    0 -0.43038714814E+02 -0.11667245415E+02 -0.12292390684E+03  0.13076215990E+03  0.00000000000E+00 0.  1.
</event>
<event>
 6    1  0.8017648E-006  0.1740735E+03  0.7818608E-02  0.1293778E+00
          2   -1    0    0  502    0  0.00000000000E+00  0.00000000000E+00  0.73866072368E+03  0.73866072368E+03  0.00000000000E+00 0. -1.
          1   -1    0    0  501    0 -0.00000000000E+00 -0.00000000000E+00 -0.63697193639E+02  0.63697193639E+02  0.00000000000E+00 0. -1.
          2    1    1    2  501    0  0.54027797903E+02 -0.66075012706E+02  0.32534030236E+03  0.33634985148E+03  0.00000000000E+00 0. -1.
          1    1    1    2  502    0  0.20364195186E+02  0.12074802932E+03  0.54683475340E+02  0.13410842444E+03  0.00000000000E+00 0. -1.
         22    1    1    2    0    0 -0.11349933926E+02  0.93576381061E+01 -0.74163207094E+01  0.16473864268E+02  0.00000000000E+00 0.  1.
         22    1    1    2    0    0 -0.63042059163E+02 -0.64030654722E+02  0.30235607305E+03  0.31542577713E+03  0.00000000000E+00 0.  1.
</event>
<event>
 6    1  0.1436391E-005  0.4563013E+02  0.7818608E-02  0.1551121E+00
          2   -1    0    0  502    0  0.00000000000E+00  0.00000000000E+00  0.13245489853E+03  0.13245489853E+03  0.00000000000E+00 0. -1.
          1   -1    0    0  501    0 -0.00000000000E+00 -0.00000000000E+00 -0.96129329965E+03  0.96129329965E+03  0.00000000000E+00 0. -1.
          2    1    1    2  501    0 -0.56218830002E+02 -0.11828244523E+02 -0.10423732452E+03  0.11902051940E+03  0.00000000000E+00 0. -1.
          1    1    1    2  502    0  0.26586883595E+02 -0.37214168170E+02 -0.81223079854E+03  0.81351744099E+03  0.00000000000E+00 0. -1.
         22    1    1    2    0    0 -0.96729040601E+00  0.15261069834E+02 -0.30759062810E+02  0.34350485413E+02  0.00000000000E+00 0. -1.
         22    1    1    2    0    0  0.30599236812E+02  0.33781342859E+02  0.11838878475E+03  0.12685975238E+03  0.00000000000E+00 0. -1.
</event>
<event>
 6    1  0.8017648E-006  0.1097574E+03  0.7818608E-02  0.1299052E+00
          2   -1    0    0  502    0  0.00000000000E+00  0.00000000000E+00  0.11002240241E+03  0.11002240241E+03  0.00000000000E+00 0.  1.
          1   -1    0    0  501    0 -0.00000000000E+00 -0.00000000000E+00 -0.28525872750E+03  0.28525872750E+03  0.00000000000E+00 0. -1.
          2    1    1    2  501    0 -0.27096848892E+02 -0.55821095573E+02  0.14989155951E+02  0.63835011764E+02  0.00000000000E+00 0.  1.
          1    1    1    2  502    0 -0.10129133914E+02  0.93136719186E+02 -0.17169702034E+03  0.19559374890E+03  0.00000000000E+00 0. -1.
         22    1    1    2    0    0 -0.14957348972E+02 -0.47749237142E+02  0.34459142471E+02  0.60754789406E+02  0.00000000000E+00 0.  1.
         22    1    1    2    0    0  0.52183331778E+02  0.10433613529E+02 -0.52987603172E+02  0.75097579833E+02  0.00000000000E+00 0. -1.
</event>
<event>
 6    1  0.8017648E-006  0.6049752E+02  0.7818608E-02  0.1508488E+00
          2   -1    0    0  502    0  0.00000000000E+00  0.00000000000E+00  0.35917444078E+03  0.35917444078E+03  0.00000000000E+00 0. -1.
          1   -1    0    0  501    0 -0.00000000000E+00 -0.00000000000E+00 -0.12826552515E+03  0.12826552515E+03  0.00000000000E+00 0. -1.
          2    1    1    2  501    0 -0.33501828128E+02 -0.13184831537E+02  0.26842774903E+03  0.27083143968E+03  0.00000000000E+00 0. -1.
          1    1    1    2  502    0  0.53009717831E+02  0.16199722053E+01 -0.69604255068E+02  0.87506610139E+02  0.00000000000E+00 0. -1.
         22    1    1    2    0    0 -0.21356762717E+02  0.19574086347E+00  0.78461715702E+02  0.81316606294E+02  0.00000000000E+00 0. -1.
         22    1    1    2    0    0  0.18488730143E+01  0.11369118468E+02 -0.46376294029E+02  0.47785309814E+02  0.00000000000E+00 0.  1.
</event>
<event>
 6    1  0.8017648E-006  0.1422549E+03  0.7818608E-02  0.1271313E+00
          2   -1    0    0  502    0  0.00000000000E+00  0.00000000000E+00  0.60053856105E+02  0.60053856105E+02  0.00000000000E+00 0. -1.
          1   -1    0    0  501    0 -0.00000000000E+00 -0.00000000000E+00 -0.88722388389E+03  0.88722388389E+03  0.00000000000E+00 0.  1.
          2    1    1    2  501    0  0.61011174995E+02 -0.10024571579E+02 -0.82677647318E+00  0.61834772329E+02  0.00000000000E+00 0. -1.
          1    1    1    2  502    0 -0.10499319702E+02  0.11200114848E+03 -0.54018587636E+03  0.55177465871E+03  0.00000000000E+00 0.  1.
         22    1    1    2    0    0 -0.26366367694E+02 -0.31738792725E+02 -0.24560428790E+03  0.24904618556E+03  0.00000000000E+00 0. -1.
         22    1    1    2    0    0 -0.24145487599E+02 -0.70237784179E+02 -0.40553087050E+02  0.84622123390E+02  0.00000000000E+00 0. -1.
</event>
<event>
 6    1  0.8017648E-006  0.9979804E+02  0.7818608E-02  0.1291990E+00
          2   -1    0    0  502    0  0.00000000000E+00  0.00000000000E+00  0.62649765274E+02  0.62649765274E+02  0.00000000000E+00 0. -1.
          1   -1    0    0  501    0 -0.00000000000E+00 -0.00000000000E+00 -0.34163717040E+03  0.34163717040E+03  0.00000000000E+00 0. -1.
          2    1    1    2  501    0  0.49263962907E+02 -0.11197534628E+02 -0.79093729959E+02  0.93851696531E+02  0.00000000000E+00 0. -1.
          1    1    1    2  502    0 -0.68834794892E+02  0.61158801712E+02 -0.11885322174E+03  0.15034864926E+03  0.00000000000E+00 0. -1.
         22    1    1    2    0    0 -0.30405229997E+02  0.13413549103E+02 -0.71461642856E+02  0.78810961867E+02  0.00000000000E+00 0. -1.
         22    1    1    2    0    0  0.49976061983E+02 -0.63374816188E+02 -0.95788105702E+01  0.81275628020E+02  0.00000000000E+00 0. -1.
</event>
<event>
 6    1  0.8017648E-006  0.1308146E+03  0.7818608E-02  0.1331656E+00
          2   -1    0    0  502    0  0.00000000000E+00  0.00000000000E+00  0.74929043223E+03  0.74929043223E+03  0.00000000000E+00 0. -1.
          1   -1    0    0  501    0 -0.00000000000E+00 -0.00000000000E+00 -0.34394462704E+02  0.34394462704E+02  0.00000000000E+00 0. -1.
          2    1    1    2  501    0 -0.39623087878E+02 -0.38781841919E+02  0.34938172410E+03  0.35375359997E+03  0.00000000000E+00 0. -1.
          1    1    1    2  502    0 -0.37014884733E+02  0.69135394846E+02  0.11590199992E+03  0.13993955159E+03  0.00000000000E+00 0. -1.
         22    1    1    2    0    0  0.15968963269E+02  0.71054242271E+01 -0.10428384494E+02  0.20353035265E+02  0.00000000000E+00 0. -1.
         22    1    1    2    0    0  0.60669009343E+02 -0.37458977154E+02  0.26004062999E+03  0.26963870811E+03  0.00000000000E+00 0.  1.
</event>
<event>
 6    1  0.8017648E-006  0.5780589E+02  0.7818608E-02  0.1407639E+00
          2   -1    0    0  502    0  0.00000000000E+00  0.00000000000E+00  0.22709211675E+03  0.22709211675E+03  0.00000000000E+00 0.  1.
          1   -1    0    0  501    0 -0.00000000000E+00 -0.00000000000E+00 -0.92180998356E+02  0.92180998356E+02  0.00000000000E+00 0. -1.
          2    1    1    2  501    0  0.21388037408E+02 -0.19254477278E+02  0.14069264466E+03  0.14360572168E+03  0.00000000000E+00 0.  1.
          1    1    1    2  502    0 -0.28380462035E+02  0.15572825164E+02 -0.29798910354E+02  0.43999301895E+02  0.00000000000E+00 0. -1.
         22    1    1    2    0    0  0.25031178005E+02 -0.89218985446E+01  0.73152882097E+02  0.77829970480E+02  0.00000000000E+00 0.  1.
         22    1    1    2    0    0 -0.18038753377E+02  0.12603550659E+02 -0.49135498011E+02  0.53838121042E+02  0.00000000000E+00 0.  1.
</event>
<event>
 6    1  0.8017648E-006  0.7710938E+02  0.7818608E-02  0.1437136E+00
          2   -1    0    0  502    0  0.00000000000E+00  0.00000000000E+00  0.11772671442E+03  0.11772671442E+03  0.00000000000E+00 0. -1.
          1   -1    0    0  501    0 -0.00000000000E+00 -0.00000000000E+00 -0.35700371028E+03  0.35700371028E+03  0.00000000000E+00 0.  1.
          2    1    1    2  501    0 -0.27049715686E+02  0.31536513926E+02  0.39634853696E+02  0.57420906095E+02  0.00000000000E+00 0. -1.
          1    1    1    2  502    0 -0.38570472947E+02 -0.77822971776E+02 -0.24801049232E+03  0.26277994715E+03  0.00000000000E+00 0.  1.
         22    1    1    2    0    0  0.35591157059E+01  0.14990571124E+02  0.47393097772E+02  0.49834628961E+02  0.00000000000E+00 0. -1.
         22    1    1    2    0    0  0.62061072928E+02  0.31295886726E+02 -0.78294455013E+02  0.10469494250E+03  0.00000000000E+00 0.  1.
</event>
<event>
 6    1  0.8017648E-006  0.1238194E+03  0.7818608E-02  0.1351570E+00
          2   -1    0    0  502    0  0.00000000000E+00  0.00000000000E+00  0.16390345302E+03  0.16390345302E+03  0.00000000000E+00 0.  1.
          1   -1    0    0  501    0 -0.00000000000E+00 -0.00000000000E+00 -0.46464239975E+03  0.46464239975E+03  0.00000000000E+00 0.  1.
          2    1    1    2  501    0  0.28413727381E+02 -0.10142926388E+03  0.71870793287E+02  0.12751723963E+03  0.00000000000E+00 0.  1.
          1    1    1    2  502    0 -0.46861870978E+02  0.96012181978E+02 -0.35606062337E+03  0.37174391933E+03  0.00000000000E+00 0.  1.
         22    1    1    2    0    0  0.81651177759E+01  0.15794436067E+02 -0.70853071275E+02  0.73049921752E+02  0.00000000000E+00 0.  1.
         22    1    1    2    0    0  0.10283025822E+02 -0.10377354161E+02  0.54303954633E+02  0.56234772056E+02  0.00000000000E+00 0.  1.
</event>
<event>
 6    1  0.8017648E-006  0.4827628E+02  0.7818608E-02  0.1542425E+00
          2   -1    0    0  502    0  0.00000000000E+00  0.00000000000E+00  0.19204496759E+03  0.19204496759E+03  0.00000000000E+00 0.  1.
          1   -1    0    0  501    0 -0.00000000000E+00 -0.00000000000E+00 -0.14316937251E+03  0.14316937251E+03  0.00000000000E+00 0.  1.
          2    1    1    2  501    0  0.16245465394E+02  0.23027545113E+02  0.12287160066E+03  0.12606194203E+03  0.00000000000E+00 0.  1.
          1    1    1    2  502    0 -0.21238866137E+02 -0.29755115270E+02 -0.78505596736E+02  0.86600144564E+02  0.00000000000E+00 0.  1.
         22    1    1    2    0    0  0.19265849141E+02  0.44994034786E+01  0.61060426162E+02  0.64185615350E+02  0.00000000000E+00 0.  1.
         22    1    1    2    0    0 -0.14272448398E+02  0.22281666781E+01 -0.56550835008E+02  0.58366638160E+02  0.00000000000E+00 0.  1.
</event>
<event>
 6    1  0.8017648E-006  0.9679125E+02  0.7818608E-02  0.1406961E+00
          2   -1    0    0  502    0  0.00000000000E+00  0.00000000000E+00  0.34387694753E+03  0.34387694753E+03  0.00000000000E+00 0. -1.
          1   -1    0    0  501    0 -0.00000000000E+00 -0.00000000000E+00 -0.63671637111E+02  0.63671637111E+02  0.00000000000E+00 0.  1.
          2    1    1    2  501    0  0.10063976584E+02  0.20179992068E+02  0.39025470529E+02  0.45072198244E+02  0.00000000000E+00 0. -1.
          1    1    1    2  502    0 -0.52682772390E+02 -0.82444065895E+02  0.26572829765E+02  0.10138349861E+03  0.00000000000E+00 0.  1.
         22    1    1    2    0    0 -0.56329554979E+01  0.11018158304E+02 -0.15860296033E+02  0.20116634667E+02  0.00000000000E+00 0.  1.
         22    1    1    2    0    0  0.48251751303E+02  0.51245915522E+02  0.23046730616E+03  0.24097625312E+03  0.00000000000E+00 0. -1.
</event>
<event>
 6    1  0.8017648E-006  0.7027245E+02  0.7818608E-02  0.1360397E+00
          2   -1    0    0  502    0  0.00000000000E+00  0.00000000000E+00  0.91794473247E+02  0.91794473247E+02  0.00000000000E+00 0. -1.
          1   -1    0    0  501    0 -0.00000000000E+00 -0.00000000000E+00 -0.25171191551E+03  0.25171191551E+03  0.00000000000E+00 0. -1.
          2    1    1    2  501    0 -0.14932684958E+02 -0.30044440426E+02  0.40207294902E+02  0.52366783784E+02  0.00000000000E+00 0. -1.
          1    1    1    2  502    0  0.25172621913E+02  0.41708165970E+02 -0.14386983399E+03  0.15189391408E+03  0.00000000000E+00 0. -1.
         22    1    1    2    0    0 -0.29559829102E+02 -0.18752273593E+02  0.32723000597E+02  0.47918952717E+02  0.00000000000E+00 0. -1.
         22    1    1    2    0    0  0.19319892147E+02  0.70885480483E+01 -0.88977903778E+02  0.91326738181E+02  0.00000000000E+00 0. -1.
</event>
<event>
 6    1  0.8017648E-006  0.8241316E+02  0.7818608E-02  0.1416634E+00
          2   -1    0    0  502    0  0.00000000000E+00  0.00000000000E+00  0.38559868345E+03  0.38559868345E+03  0.00000000000E+00 0.  1.
          1   -1    0    0  501    0 -0.00000000000E+00 -0.00000000000E+00 -0.17749943663E+03  0.17749943663E+03  0.00000000000E+00 0. -1.
          2    1    1    2  501    0  0.85710669110E+02 -0.84072248380E+02  0.20240352787E+03  0.23533306151E+03  0.00000000000E+00 0.  1.
          1    1    1    2  502    0 -0.96953670970E+02  0.49218289999E+01 -0.10595136239E+03  0.14370083475E+03  0.00000000000E+00 0. -1.
         22    1    1    2    0    0 -0.28609313016E+01  0.13829378867E+02 -0.26822187284E+02  0.30312808818E+02  0.00000000000E+00 0. -1.
         22    1    1    2    0    0  0.14103933162E+02  0.65321040513E+02  0.13846926862E+03  0.15375141501E+03  0.00000000000E+00 0.  1.
</event>
<event>
 6    1  0.8017648E-006  0.1160201E+03  0.7818608E-02  0.1374507E+00
          2   -1    0    0  502    0  0.00000000000E+00  0.00000000000E+00  0.36464737313E+03  0.36464737313E+03  0.00000000000E+00 0. -1.
          1   -1    0    0  501    0 -0.00000000000E+00 -0.00000000000E+00 -0.99350421959E+02  0.99350421959E+02  0.00000000000E+00 0.  1.
          2    1    1    2  501    0  0.36145071739E+02  0.67398720461E+02  0.20325644542E+03  0.21716868176E+03  0.00000000000E+00 0. -1.
          1    1    1    2  502    0 -0.28631398518E+02 -0.95925736384E+02 -0.37867080928E+00  0.10010817786E+03  0.00000000000E+00 0.  1.
         22    1    1    2    0    0 -0.15601559617E+02  0.37524778396E+02  0.99626370313E+02  0.10759614918E+03  0.00000000000E+00 0. -1.
         22    1    1    2    0    0  0.80878863964E+01 -0.89977624727E+01 -0.37207193754E+02  0.39124786299E+02  0.00000000000E+00 0. -1.
</event>
<event>
 6    1  0.8017648E-006  0.7909309E+02  0.7818608E-02  0.1385943E+00
          2   -1    0    0  502    0  0.00000000000E+00  0.00000000000E+00  0.42233372350E+03  0.42233372350E+03  0.00000000000E+00 0. -1.
          1   -1    0    0  501    0 -0.00000000000E+00 -0.00000000000E+00 -0.10671975319E+03  0.10671975319E+03  0.00000000000E+00 0.  1.
          2    1    1    2  501    0 -0.13832571420E+02  0.70132775392E+02  0.33780264017E+03  0.34528331834E+03  0.00000000000E+00 0. -1.
          1    1    1    2  502    0  0.61122529628E+01 -0.51804385499E+02  0.10318056701E+02  0.53174395034E+02  0.00000000000E+00 0.  1.
         22    1    1    2    0    0  0.65479487254E+01 -0.31007128995E+02 -0.77556356536E+02  0.83781299346E+02  0.00000000000E+00 0.  1.
         22    1    1    2    0    0  0.11723697318E+01  0.12678739102E+02  0.45049629970E+02  0.46814463966E+02  0.00000000000E+00 0.  1.
</event>
<event>
 6    1  0.8017648E-006  0.2697184E+02  0.7818608E-02  0.1640877E+00
          2   -1    0    0  502    0  0.00000000000E+00  0.00000000000E+00  0.33024792738E+02  0.33024792738E+02  0.00000000000E+00 0. -1.
          1   -1    0    0  501    0 -0.00000000000E+00 -0.00000000000E+00 -0.61758246878E+03  0.61758246878E+03  0.00000000000E+00 0. -1.
          2    1    1    2  501    0 -0.27776269298E+02 -0.14246853713E+02 -0.43233359555E+02  0.53325578808E+02  0.00000000000E+00 0. -1.
          1    1    1    2  502    0 -0.26029446602E+02 -0.98655262746E+00 -0.40868967866E+03  0.40951893585E+03  0.00000000000E+00 0. -1.
         22    1    1    2    0    0  0.29999814165E+02  0.76595203388E+01 -0.15264590023E+03  0.15575438343E+03  0.00000000000E+00 0. -1.
         22    1    1    2    0    0  0.23805901735E+02  0.75738860014E+01  0.20011262400E+02  0.32008363430E+02  0.00000000000E+00 0. -1.
</event>
<event>
 6    1  0.8017648E-006  0.1485772E+03  0.7818608E-02  0.1329005E+00
          2   -1    0    0  502    0  0.00000000000E+00  0.00000000000E+00  0.44009557776E+03  0.44009557776E+03  0.00000000000E+00 0. -1.
          1   -1    0    0  501    0 -0.00000000000E+00 -0.00000000000E+00 -0.36808387069E+02  0.36808387069E+02  0.00000000000E+00 0. -1.
          2    1    1    2  501    0  0.24978101840E+02 -0.18690799977E+02  0.15008953057E-01  0.31196983837E+02  0.00000000000E+00 0. -1.
          1    1    1    2  502    0  0.19841745701E+02  0.45067869930E+02  0.12277520666E+03  0.13228211951E+03  0.00000000000E+00 0. -1.
         22    1    1    2    0    0 -0.46477543536E+02 -0.38765163984E+02  0.29092116372E+03  0.29714983341E+03  0.00000000000E+00 0. -1.
         22    1    1    2    0    0  0.16576959959E+01  0.12388094031E+02 -0.10424188647E+02  0.16275028070E+02  0.00000000000E+00 0. -1.
</event>
<event>
 6    1  0.8017648E-006  0.3272719E+03  0.7818608E-02  0.1072370E+00
          2   -1    0    0  502    0  0.00000000000E+00  0.00000000000E+00  0.90255268088E+02  0.90255268088E+02  0.00000000000E+00 0. -1.
          1   -1    0    0  501    0 -0.00000000000E+00 -0.00000000000E+00 -0.11860654315E+04  0.11860654315E+04  0.00000000000E+00 0. -1.
          2    1    1    2  501    0  0.14810017652E+03 -0.62883461617E+02 -0.22907941607E+03  0.27993815549E+03  0.00000000000E+00 0. -1.
          1    1    1    2  502    0 -0.23045556603E+03  0.18210802082E+03 -0.45692293122E+03  0.54318658326E+03  0.00000000000E+00 0. -1.
         22    1    1    2    0    0 -0.27444263759E+02  0.16998320142E+01 -0.89774293493E+02  0.93890898463E+02  0.00000000000E+00 0. -1.
         22    1    1    2    0    0  0.10979965326E+03 -0.12092439121E+03 -0.32003352268E+03  0.35930506242E+03  0.00000000000E+00 0. -1.
</event>
<event>
 6    1  0.8017648E-006  0.1235497E+03  0.7818608E-02  0.1338974E+00
          2   -1    0    0  502    0  0.00000000000E+00  0.00000000000E+00  0.12754002857E+04  0.12754002857E+04  0.00000000000E+00 0.  1.
          1   -1    0    0  501    0 -0.00000000000E+00 -0.00000000000E+00 -0.22623536359E+02  0.22623536359E+02  0.00000000000E+00 0.  1.
          2    1    1    2  501    0 -0.15936978695E+02 -0.43363567029E+02  0.33661092620E+03  0.33976654025E+03  0.00000000000E+00 0.  1.
          1    1    1    2  502    0  0.24888186391E+02  0.12004540553E+03  0.57228590720E+03  0.58527043389E+03  0.00000000000E+00 0.  1.
         22    1    1    2    0    0  0.16689120189E+02 -0.74082307190E+01 -0.28460311159E+01  0.18479948814E+02  0.00000000000E+00 0.  1.
         22    1    1    2    0    0 -0.25640327885E+02 -0.69273607779E+02  0.34672594709E+03  0.35450689913E+03  0.00000000000E+00 0.  1.
</event>
<event>
 6    1  0.8017648E-006  0.5455414E+02  0.7818608E-02  0.1425125E+00
          2   -1    0    0  502    0  0.00000000000E+00  0.00000000000E+00  0.89590578074E+02  0.89590578074E+02  0.00000000000E+00 0.  1.
          1   -1    0    0  501    0 -0.00000000000E+00 -0.00000000000E+00 -0.14605268828E+03  0.14605268828E+03  0.00000000000E+00 0.  1.
          2    1    1    2  501    0 -0.16029376209E+01 -0.20644131158E+02  0.29899769016E+02  0.36369571726E+02  0.00000000000E+00 0.  1.
          1    1    1    2  502    0  0.14815845065E+02  0.32105252228E+02 -0.65411705057E+02  0.74356893723E+02  0.00000000000E+00 0.  1.
         22    1    1    2    0    0  0.29315258797E+01  0.15557020211E+02 -0.67163243624E+02  0.69003739145E+02  0.00000000000E+00 0.  1.
         22    1    1    2    0    0 -0.16144433324E+02 -0.27018141281E+02  0.46213069464E+02  0.55913061756E+02  0.00000000000E+00 0.  1.
</event>
<event>
 6    1  0.8017648E-006  0.4770326E+02  0.7818608E-02  0.1553552E+00
          2   -1    0    0  502    0  0.00000000000E+00  0.00000000000E+00  0.11731049720E+03  0.11731049720E+03  0.00000000000E+00 0. -1.
          1   -1    0    0  501    0 -0.00000000000E+00 -0.00000000000E+00 -0.14090874481E+03  0.14090874481E+03  0.00000000000E+00 0. -1.
          2    1    1    2  501    0  0.25462903380E+02  0.16289273644E+02  0.50521441070E+02  0.58873728370E+02  0.00000000000E+00 0. -1.
          1    1    1    2  502    0 -0.43194728889E+02 -0.10278511362E+02 -0.56918138998E+02  0.72187997247E+02  0.00000000000E+00 0. -1.
         22    1    1    2    0    0  0.13949367154E+02  0.63987562031E+01  0.53303504937E+02  0.55468843178E+02  0.00000000000E+00 0. -1.
         22    1    1    2    0    0  0.37824583545E+01 -0.12409518485E+02 -0.70505054616E+02  0.71688673210E+02  0.00000000000E+00 0. -1.
</event>
<event>
 6    1  0.8017648E-006  0.2971114E+02  0.7818608E-02  0.1608182E+00
          2   -1    0    0  502    0  0.00000000000E+00  0.00000000000E+00  0.11500432955E+03  0.11500432955E+03  0.00000000000E+00 0. -1.
          1   -1    0    0  501    0 -0.00000000000E+00 -0.00000000000E+00 -0.13956243711E+03  0.13956243711E+03  0.00000000000E+00 0. -1.
          2    1    1    2  501    0 -0.41577595923E+02 -0.15829935390E+02  0.40174095006E+02  0.59943650596E+02  0.00000000000E+00 0. -1.
          1    1    1    2  502    0  0.42971585096E+02  0.17042121003E+02 -0.46411237153E+02  0.65505678746E+02  0.00000000000E+00 0. -1.
         22    1    1    2    0    0 -0.16283146460E+02 -0.31053068105E+01  0.53363343987E+02  0.55878710351E+02  0.00000000000E+00 0. -1.
         22    1    1    2    0    0  0.14889157287E+02  0.18931211973E+01 -0.71684309401E+02  0.73238726961E+02  0.00000000000E+00 0. -1.
</event>
<event>
 6    1  0.8017648E-006  0.3250051E+02  0.7818608E-02  0.1630324E+00
          2   -1    0    0  502    0  0.00000000000E+00  0.00000000000E+00  0.71491834109E+02  0.71491834109E+02  0.00000000000E+00 0. -1.
          1   -1    0    0  501    0 -0.00000000000E+00 -0.00000000000E+00 -0.20324136963E+03  0.20324136963E+03  0.00000000000E+00 0.  1.
          2    1    1    2  501    0  0.19119738207E+02 -0.16749824110E+02 -0.70534762246E+01  0.26379395817E+02  0.00000000000E+00 0. -1.
          1    1    1    2  502    0 -0.72953843629E+01  0.32751143854E+02 -0.11685647499E+03  0.12157835253E+03  0.00000000000E+00 0.  1.
         22    1    1    2    0    0  0.18740725223E+01  0.16011393123E+02  0.53700119706E+02  0.56067635174E+02  0.00000000000E+00 0. -1.
         22    1    1    2    0    0 -0.13698426367E+02 -0.32012712867E+02 -0.61539704012E+02  0.70707820217E+02  0.00000000000E+00 0. -1.
</event>
<event>
 6    1  0.8017648E-006  0.1869235E+03  0.7818608E-02  0.1301459E+00
          2   -1    0    0  502    0  0.00000000000E+00  0.00000000000E+00  0.11574478134E+03  0.11574478134E+03  0.00000000000E+00 0. -1.
          1   -1    0    0  501    0 -0.00000000000E+00 -0.00000000000E+00 -0.17361131709E+04  0.17361131709E+04  0.00000000000E+00 0. -1.
          2    1    1    2  501    0 -0.95300348058E+02 -0.12459985890E+03  0.16993491183E+02  0.15778485326E+03  0.00000000000E+00 0. -1.
          1    1    1    2  502    0 -0.11662271790E+03  0.14582560151E+03 -0.79133295987E+03  0.81306446101E+03  0.00000000000E+00 0. -1.
         22    1    1    2    0    0 -0.96008874810E+01  0.37464993351E+01 -0.60488915791E+01  0.11949995273E+02  0.00000000000E+00 0.  1.
         22    1    1    2    0    0  0.22152395344E+03 -0.24972241947E+02 -0.83998002925E+03  0.86905864264E+03  0.00000000000E+00 0. -1.
</event>
<event>
 6    1  0.8017648E-006  0.9897875E+02  0.7818608E-02  0.1396946E+00
          2   -1    0    0  502    0  0.00000000000E+00  0.00000000000E+00  0.12652233153E+04  0.12652233153E+04  0.00000000000E+00 0. -1.
          1   -1    0    0  501    0 -0.00000000000E+00 -0.00000000000E+00 -0.83906284285E+02  0.83906284285E+02  0.00000000000E+00 0. -1.
          2    1    1    2  501    0 -0.32111394285E+02  0.14323196488E+02  0.47402199602E+01  0.35479082370E+02  0.00000000000E+00 0. -1.
          1    1    1    2  502    0  0.62378821473E+02 -0.65789273998E+02  0.11687333930E+04  0.11722444667E+04  0.00000000000E+00 0. -1.
         22    1    1    2    0    0 -0.43760309851E+02  0.50170682676E+02  0.58710656019E+02  0.88763749632E+02  0.00000000000E+00 0. -1.
         22    1    1    2    0    0  0.13492882663E+02  0.12953948338E+01 -0.50867237999E+02  0.52642300786E+02  0.00000000000E+00 0. -1.
</event>
<event>
 6    1  0.8017648E-006  0.6695052E+02  0.7818608E-02  0.1455095E+00
          2   -1    0    0  502    0  0.00000000000E+00  0.00000000000E+00  0.13898321944E+03  0.13898321944E+03  0.00000000000E+00 0. -1.
          1   -1    0    0  501    0 -0.00000000000E+00 -0.00000000000E+00 -0.15433093653E+03  0.15433093653E+03  0.00000000000E+00 0. -1.
          2    1    1    2  501    0  0.19273536193E+02  0.37339429961E+02  0.62491155408E+02  0.75305024609E+02  0.00000000000E+00 0. -1.
          1    1    1    2  502    0 -0.36878567179E+02 -0.68655860373E+02 -0.25983073433E+02  0.82150934175E+02  0.00000000000E+00 0. -1.
         22    1    1    2    0    0  0.16915155864E+01  0.22820200988E+02  0.37919192095E+02  0.44288688480E+02  0.00000000000E+00 0. -1.
         22    1    1    2    0    0  0.15913515399E+02  0.84962294245E+01 -0.89774991162E+02  0.91569508707E+02  0.00000000000E+00 0. -1.
</event>
<event>
 6    1  0.8017648E-006  0.1550532E+03  0.7818608E-02  0.1332579E+00
          2   -1    0    0  502    0  0.00000000000E+00  0.00000000000E+00  0.31885106710E+03  0.31885106710E+03  0.00000000000E+00 0. -1.
          1   -1    0    0  501    0 -0.00000000000E+00 -0.00000000000E+00 -0.11369469324E+03  0.11369469324E+03  0.00000000000E+00 0. -1.
          2    1    1    2  501    0  0.46237944156E+01 -0.29844578911E+02  0.22292615416E+01  0.30282799940E+02  0.00000000000E+00 0. -1.
          1    1    1    2  502    0 -0.34071838541E+02  0.10962639975E+03 -0.33637832043E+02  0.11962583938E+03  0.00000000000E+00 0. -1.
         22    1    1    2    0    0  0.39069653432E+02 -0.83534433749E+02  0.24955084164E+03  0.26604522549E+03  0.00000000000E+00 0. -1.
         22    1    1    2    0    0 -0.96216093070E+01  0.37526129138E+01 -0.12985897281E+02  0.16591895537E+02  0.00000000000E+00 0. -1.
</event>
<event>
 6    1  0.8017648E-006  0.9224059E+02  0.7818608E-02  0.1376049E+00
          2   -1    0    0  502    0  0.00000000000E+00  0.00000000000E+00  0.48081600593E+02  0.48081600593E+02  0.00000000000E+00 0.  1.
          1   -1    0    0  501    0 -0.00000000000E+00 -0.00000000000E+00 -0.48548253840E+03  0.48548253840E+03  0.00000000000E+00 0.  1.
          2    1    1    2  501    0  0.26884212453E+02  0.16384606618E+02 -0.23712653194E+02  0.39414542174E+02  0.00000000000E+00 0.  1.
          1    1    1    2  502    0 -0.78752136181E+02 -0.45427720549E+02 -0.31204389352E+03  0.32501841214E+03  0.00000000000E+00 0.  1.
         22    1    1    2    0    0  0.11807795527E+01  0.23443092744E+02 -0.11422079864E+03  0.11660773421E+03  0.00000000000E+00 0.  1.
         22    1    1    2    0    0  0.50687144175E+02  0.56000211871E+01  0.12576407543E+02  0.52523450463E+02  0.00000000000E+00 0.  1.
</event>
<event>
 6    1  0.8017648E-006  0.5256854E+02  0.7818608E-02  0.1451545E+00
          2   -1    0    0  502    0  0.00000000000E+00  0.00000000000E+00  0.71679869831E+03  0.71679869831E+03  0.00000000000E+00 0.  1.
          1   -1    0    0  501    0 -0.00000000000E+00 -0.00000000000E+00 -0.15200142180E+03  0.15200142180E+03  0.00000000000E+00 0. -1.
          2    1    1    2  501    0  0.99596095943E+02 -0.74733467833E+02  0.60179508836E+03  0.61454194480E+03  0.00000000000E+00 0.  1.
          1    1    1    2  502    0 -0.70574399455E+02  0.52008176933E+02 -0.77511455748E+02  0.11701975089E+03  0.00000000000E+00 0. -1.
         22    1    1    2    0    0 -0.21904034712E+01  0.20078765913E+02 -0.44061202417E+02  0.48470034726E+02  0.00000000000E+00 0.  1.
         22    1    1    2    0    0 -0.26831293016E+02  0.26465249860E+01  0.84574846316E+02  0.88768389693E+02  0.00000000000E+00 0. -1.
</event>
<event>
 6    1  0.8017648E-006  0.2805617E+02  0.7818608E-02  0.1645960E+00
          2   -1    0    0  502    0  0.00000000000E+00  0.00000000000E+00  0.57592627415E+03  0.57592627415E+03  0.00000000000E+00 0.  1.
          1   -1    0    0  501    0 -0.00000000000E+00 -0.00000000000E+00 -0.24542839663E+03  0.24542839663E+03  0.00000000000E+00 0. -1.
          2    1    1    2  501    0 -0.44714180933E+02 -0.96592255422E+01  0.50715498287E+03  0.50921393860E+03  0.00000000000E+00 0.  1.
          1    1    1    2  502    0  0.38921310002E+02 -0.15519698116E+02 -0.17824971658E+03  0.18310841286E+03  0.00000000000E+00 0. -1.
         22    1    1    2    0    0  0.92613570008E+01  0.13466904932E+02 -0.62081644158E+02  0.64197046686E+02  0.00000000000E+00 0. -1.
         22    1    1    2    0    0 -0.34684860698E+01  0.11712018727E+02  0.63674255384E+02  0.64835272630E+02  0.00000000000E+00 0. -1.
</event>
<event>
 6    1  0.8017648E-006  0.3552681E+02  0.7818608E-02  0.1549974E+00
          2   -1    0    0  502    0  0.00000000000E+00  0.00000000000E+00  0.36697150126E+03  0.36697150126E+03  0.00000000000E+00 0. -1.
          1   -1    0    0  501    0 -0.00000000000E+00 -0.00000000000E+00 -0.10286789011E+03  0.10286789011E+03  0.00000000000E+00 0.  1.
          2    1    1    2  501    0  0.61305047149E+02  0.70653008097E+02  0.24782468114E+03  0.26489097557E+03  0.00000000000E+00 0. -1.
          1    1    1    2  502    0 -0.59050074474E+02 -0.44750163111E+02  0.28083191907E+01  0.74144285353E+02  0.00000000000E+00 0.  1.
         22    1    1    2    0    0  0.45073387841E+01 -0.12858501817E+02  0.70555255509E+02  0.71858898209E+02  0.00000000000E+00 0.  1.
         22    1    1    2    0    0 -0.67623114590E+01 -0.13044343169E+02 -0.57084644683E+02  0.58945232238E+02  0.00000000000E+00 0.  1.
</event>
<event>
 6    1  0.8017648E-006  0.5730520E+02  0.7818608E-02  0.1441231E+00
          2   -1    0    0  502    0  0.00000000000E+00  0.00000000000E+00  0.56976489290E+02  0.56976489290E+02  0.00000000000E+00 0. -1.
          1   -1    0    0  501    0 -0.00000000000E+00 -0.00000000000E+00 -0.22772815707E+03  0.22772815707E+03  0.00000000000E+00 0.  1.
          2    1    1    2  501    0 -0.11821544371E+02  0.23399025237E+02  0.14044251371E+02  0.29740616838E+02  0.00000000000E+00 0. -1.
          1    1    1    2  502    0  0.87696576821E+01 -0.42686399544E+02 -0.86495330780E+02  0.96852867013E+02  0.00000000000E+00 0.  1.
         22    1    1    2    0    0 -0.31774369789E+02  0.13484382691E+02  0.16316516687E+02  0.38179416821E+02  0.00000000000E+00 0.  1.
         22    1    1    2    0    0  0.34826256477E+02  0.58029916157E+01 -0.11461710506E+03  0.11993174569E+03  0.00000000000E+00 0.  1.
</event>
<event>
 6    1  0.8017648E-006  0.4432875E+02  0.7818608E-02  0.1568016E+00
          2   -1    0    0  502    0  0.00000000000E+00  0.00000000000E+00  0.24088770606E+03  0.24088770606E+03  0.00000000000E+00 0.  1.
          1   -1    0    0  501    0 -0.00000000000E+00 -0.00000000000E+00 -0.19716282686E+03  0.19716282686E+03  0.00000000000E+00 0. -1.
          2    1    1    2  501    0  0.11033566016E+02  0.45237209036E+02  0.19136033882E+03  0.19694396140E+03  0.00000000000E+00 0.  1.
          1    1    1    2  502    0 -0.14838862705E+02 -0.17253065484E+02 -0.10644782638E+03  0.10885311137E+03  0.00000000000E+00 0. -1.
         22    1    1    2    0    0 -0.71567027656E+01 -0.20171479032E+02 -0.84359122968E+02  0.87031997500E+02  0.00000000000E+00 0. -1.
         22    1    1    2    0    0  0.10961999455E+02 -0.78126645200E+01  0.43171489721E+02  0.45221462645E+02  0.00000000000E+00 0.  1.
</event>
<event>
 6    1  0.8017648E-006  0.3987346E+02  0.7818608E-02  0.1592351E+00
          2   -1    0    0  502    0  0.00000000000E+00  0.00000000000E+00  0.43707890007E+03  0.43707890007E+03  0.00000000000E+00 0.  1.
          1   -1    0    0  501    0 -0.00000000000E+00 -0.00000000000E+00 -0.12109413026E+03  0.12109413026E+03  0.00000000000E+00 0. -1.
          2    1    1    2  501    0 -0.19085153027E+02  0.24768707326E+02  0.35174826139E+03  0.35313534419E+03  0.00000000000E+00 0.  1.
          1    1    1    2  502    0  0.11620395057E+02 -0.20481446228E+02 -0.72701525826E+02  0.76420122208E+02  0.00000000000E+00 0. -1.
         22    1    1    2    0    0  0.65784392025E+01  0.12012992384E+02  0.80729138296E+02  0.81882730893E+02  0.00000000000E+00 0. -1.
         22    1    1    2    0    0  0.88631876809E+00 -0.16300253482E+02 -0.43791104047E+02  0.46734833028E+02  0.00000000000E+00 0. -1.
</event>
<event>
 6    1  0.8017648E-006  0.7979975E+02  0.7818608E-02  0.1439001E+00
          2   -1    0    0  502    0  0.00000000000E+00  0.00000000000E+00  0.34329199279E+03  0.34329199279E+03  0.00000000000E+00 0.  1.
          1   -1    0    0  501    0 -0.00000000000E+00 -0.00000000000E+00 -0.53533187115E+02  0.53533187115E+02  0.00000000000E+00 0.  1.
          2    1    1    2  501    0 -0.41443979245E+02 -0.25456686141E+02  0.15419785538E+03  0.16168681112E+03  0.00000000000E+00 0.  1.
          1    1    1    2  502    0  0.59844247566E+02  0.61283805257E+01  0.14827592473E+02  0.61957634825E+02  0.00000000000E+00 0.  1.
         22    1    1    2    0    0 -0.29853126171E+02  0.12147714440E+02  0.14329749779E+03  0.14687732630E+03  0.00000000000E+00 0.  1.
         22    1    1    2    0    0  0.11452857850E+02  0.71805911746E+01 -0.22564139965E+02  0.26303407667E+02  0.00000000000E+00 0. -1.
</event>
<event>
 6    1  0.8017648E-006  0.1582270E+03  0.7818608E-02  0.1309524E+00
          2   -1    0    0  502    0  0.00000000000E+00  0.00000000000E+00  0.85948770094E+03  0.85948770094E+03  0.00000000000E+00 0.  1.
          1   -1    0    0  501    0 -0.00000000000E+00 -0.00000000000E+00 -0.34406505501E+03  0.34406505501E+03  0.00000000000E+00 0. -1.
          2    1    1    2  501    0  0.71038679920E+02  0.10823920476E+03  0.73497492899E+03  0.74629107307E+03  0.00000000000E+00 0.  1.
          1    1    1    2  502    0 -0.58669082114E+02 -0.14085393079E+03 -0.27565743918E+03  0.31506969831E+03  0.00000000000E+00 0. -1.
         22    1    1    2    0    0 -0.13367138070E+02  0.60268435768E+01 -0.39931125165E+02  0.42538194375E+02  0.00000000000E+00 0. -1.
         22    1    1    2    0    0  0.99754026483E+00  0.26587882453E+02  0.96036281283E+02  0.99653790207E+02  0.00000000000E+00 0.  1.
</event>
<event>
 6    1  0.8017648E-006  0.1440734E+03  0.7818608E-02  0.1326828E+00
          2   -1    0    0  502    0  0.00000000000E+00  0.00000000000E+00  0.43710780375E+03  0.43710780375E+03  0.00000000000E+00 0. -1.
          1   -1    0    0  501    0 -0.00000000000E+00 -0.00000000000E+00 -0.65946037980E+02  0.65946037980E+02  0.00000000000E+00 0. -1.
          2    1    1    2  501    0  0.61930984353E+02 -0.12423346272E+02  0.95365927569E+02  0.11438726545E+03  0.00000000000E+00 0. -1.
          1    1    1    2  502    0 -0.73756547224E+02  0.77551725529E+02  0.43993307283E+02  0.11571391220E+03  0.00000000000E+00 0. -1.
         22    1    1    2    0    0 -0.12219926309E+02  0.73201424412E+01 -0.11277641121E+02  0.18168551775E+02  0.00000000000E+00 0.  1.
         22    1    1    2    0    0  0.24045489180E+02 -0.72448521697E+02  0.24308017204E+03  0.25478411231E+03  0.00000000000E+00 0. -1.
</event>
<event>
 6    1  0.8017648E-006  0.5042399E+02  0.7818608E-02  0.1472367E+00
          2   -1    0    0  502    0  0.00000000000E+00  0.00000000000E+00  0.52958713641E+03  0.52958713641E+03  0.00000000000E+00 0. -1.
          1   -1    0    0  501    0 -0.00000000000E+00 -0.00000000000E+00 -0.49058701453E+03  0.49058701453E+03  0.00000000000E+00 0.  1.
          2    1    1    2  501    0 -0.10171473781E+03  0.27176392433E+02  0.43021974320E+03  0.44291474533E+03  0.00000000000E+00 0. -1.
          1    1    1    2  502    0  0.11330225029E+03 -0.21270622444E+02 -0.43260851125E+03  0.44770521921E+03  0.00000000000E+00 0.  1.
         22    1    1    2    0    0 -0.17770648831E+01  0.14767620158E+02  0.81785254609E+02  0.83126821401E+02  0.00000000000E+00 0.  1.
         22    1    1    2    0    0 -0.98104475952E+01 -0.20673390147E+02 -0.40396364671E+02  0.46427365000E+02  0.00000000000E+00 0.  1.
</event>
<event>
 6    1  0.8017648E-006  0.1616064E+03  0.7818608E-02  0.1246817E+00
          2   -1    0    0  502    0  0.00000000000E+00  0.00000000000E+00  0.31922613816E+03  0.31922613816E+03  0.00000000000E+00 0.  1.
          1   -1    0    0  501    0 -0.00000000000E+00 -0.00000000000E+00 -0.47591714602E+03  0.47591714602E+03  0.00000000000E+00 0. -1.
          2    1    1    2  501    0  0.71954559154E+02 -0.12800980429E+03  0.26216463383E+03  0.30049003945E+03  0.00000000000E+00 0.  1.
          1    1    1    2  502    0 -0.41161660114E+02  0.11992962141E+03 -0.24780084039E+03  0.27835706000E+03  0.00000000000E+00 0. -1.
         22    1    1    2    0    0  0.95299460803E+01 -0.13178553018E+02  0.16567527483E+02  0.23215880315E+02  0.00000000000E+00 0.  1.
         22    1    1    2    0    0 -0.40322845120E+02  0.21258735896E+02 -0.18762232879E+03  0.19308030441E+03  0.00000000000E+00 0.  1.
</event>
<event>
 6    1  0.8017648E-006  0.6110285E+02  0.7818608E-02  0.1456018E+00
          2   -1    0    0  502    0  0.00000000000E+00  0.00000000000E+00  0.19964284329E+03  0.19964284329E+03  0.00000000000E+00 0. -1.
          1   -1    0    0  501    0 -0.00000000000E+00 -0.00000000000E+00 -0.84049840542E+02  0.84049840542E+02  0.00000000000E+00 0. -1.
          2    1    1    2  501    0  0.27066999161E+02  0.27763045449E+02  0.85508005148E+02  0.93888380967E+02  0.00000000000E+00 0. -1.
          1    1    1    2  502    0 -0.54672276915E+02 -0.27164411703E+02  0.19291581350E+01  0.61079331834E+02  0.00000000000E+00 0. -1.
         22    1    1    2    0    0  0.14883302206E+02 -0.18072727250E+02 -0.45928687333E+02  0.51551726207E+02  0.00000000000E+00 0. -1.
         22    1    1    2    0    0  0.12721975548E+02  0.17474093504E+02  0.74084526803E+02  0.77173244828E+02  0.00000000000E+00 0. -1.
</event>
<event>
 6    1  0.8017648E-006  0.2901919E+02  0.7818608E-02  0.1634931E+00
          2   -1    0    0  502    0  0.00000000000E+00  0.00000000000E+00  0.49959089837E+02  0.49959089837E+02  0.00000000000E+00 0. -1.
          1   -1    0    0  501    0 -0.00000000000E+00 -0.00000000000E+00 -0.29462505314E+03  0.29462505314E+03  0.00000000000E+00 0.  1.
          2    1    1    2  501    0  0.99085678366E+01  0.20758913000E+02 -0.14052334197E+02  0.26955153160E+02  0.00000000000E+00 0. -1.
          1    1    1    2  502    0 -0.34904243306E+02 -0.58654718913E+01 -0.18113159310E+03  0.18455721059E+03  0.00000000000E+00 0.  1.
         22    1    1    2    0    0  0.10733604216E+02 -0.30946877876E+02  0.33798968675E+02  0.47066865131E+02  0.00000000000E+00 0. -1.
         22    1    1    2    0    0  0.14262071253E+02  0.16053436768E+02 -0.83281004682E+02  0.86004914100E+02  0.00000000000E+00 0.  1.
</event>
<event>
 6    1  0.8017648E-006  0.1207413E+03  0.7818608E-02  0.1242667E+00
          2   -1    0    0  502    0  0.00000000000E+00  0.00000000000E+00  0.27454213607E+03  0.27454213607E+03  0.00000000000E+00 0.  1.
          1   -1    0    0  501    0 -0.00000000000E+00 -0.00000000000E+00 -0.84538240518E+03  0.84538240518E+03  0.00000000000E+00 0. -1.
          2    1    1    2  501    0 -0.58673202444E+02  0.50800004389E+02  0.19021683218E+03  0.20544008464E+03  0.00000000000E+00 0.  1.
          1    1    1    2  502    0  0.92728592480E+02 -0.55399804595E+02 -0.77279077626E+03  0.78030334748E+03  0.00000000000E+00 0. -1.
         22    1    1    2    0    0  0.22356883850E+01 -0.11570970614E+02 -0.55145452502E+02  0.56390660531E+02  0.00000000000E+00 0.  1.
         22    1    1    2    0    0 -0.36291078421E+02  0.16170770820E+02  0.66879127471E+02  0.77790448599E+02  0.00000000000E+00 0. -1.
</event>
<event>
 6    1  0.8017648E-006  0.9454313E+02  0.7818608E-02  0.1383068E+00
          2   -1    0    0  502    0  0.00000000000E+00  0.00000000000E+00  0.72530562563E+03  0.72530562563E+03  0.00000000000E+00 0. -1.
          1   -1    0    0  501    0 -0.00000000000E+00 -0.00000000000E+00 -0.73150947038E+02  0.73150947038E+02  0.00000000000E+00 0. -1.
          2    1    1    2  501    0 -0.63149934385E+02 -0.49266591912E+02  0.44136193434E+03  0.44857047203E+03  0.00000000000E+00 0. -1.
          1    1    1    2  502    0  0.64818284362E+02  0.30238814875E+02  0.21159494728E+03  0.22335670491E+03  0.00000000000E+00 0. -1.
         22    1    1    2    0    0  0.16193591318E+02  0.10755057279E+02 -0.60564910467E+02  0.63608270191E+02  0.00000000000E+00 0. -1.
         22    1    1    2    0    0 -0.17861941295E+02  0.82727197569E+01  0.59762707436E+02  0.62921125539E+02  0.00000000000E+00 0. -1.
</event>
<event>
 6    1  0.8017648E-006  0.4964807E+02  0.7818608E-02  0.1507538E+00
          2   -1    0    0  502    0  0.00000000000E+00  0.00000000000E+00  0.13540838786E+03  0.13540838786E+03  0.00000000000E+00 0.  1.
          1   -1    0    0  501    0 -0.00000000000E+00 -0.00000000000E+00 -0.13139501531E+03  0.13139501531E+03  0.00000000000E+00 0.  1.
          2    1    1    2  501    0 -0.26038189572E+02  0.22862350340E+02  0.68780077596E+02  0.77015410493E+02  0.00000000000E+00 0.  1.
          1    1    1    2  502    0  0.16753010781E+02 -0.47610264744E+02 -0.14691511495E+02  0.52566540587E+02  0.00000000000E+00 0.  1.
         22    1    1    2    0    0 -0.79474127638E+01  0.12552996835E+02  0.41064027428E+02  0.43669136101E+02  0.00000000000E+00 0. -1.
         22    1    1    2    0    0  0.17232591556E+02  0.12194917569E+02 -0.91139220983E+02  0.93552315992E+02  0.00000000000E+00 0.  1.
</event>
<event>
 6    1  0.8017648E-006  0.8362805E+02  0.7818608E-02  0.1416847E+00
          2   -1    0    0  502    0  0.00000000000E+00  0.00000000000E+00  0.47047617533E+03  0.47047617533E+03  0.00000000000E+00 0.  1.
          1   -1    0    0  501    0 -0.00000000000E+00 -0.00000000000E+00 -0.39470873658E+02  0.39470873658E+02  0.00000000000E+00 0.  1.
          2    1    1    2  501    0 -0.17888163337E+02 -0.41402846728E+02  0.20853213588E+03  0.21335377615E+03  0.00000000000E+00 0.  1.
          1    1    1    2  502    0  0.16704708610E+02  0.66921560666E+02  0.54748184346E+02  0.88061945589E+02  0.00000000000E+00 0.  1.
         22    1    1    2    0    0 -0.17627393347E+00  0.16449061427E+02 -0.14256660665E+02  0.21768212321E+02  0.00000000000E+00 0.  1.
         22    1    1    2    0    0  0.13597286598E+01 -0.41967775365E+02  0.18198164211E+03  0.18676311492E+03  0.00000000000E+00 0.  1.
</event>
<event>
 6    1  0.8017648E-006  0.8763396E+02  0.7818608E-02  0.1422130E+00
          2   -1    0    0  502    0  0.00000000000E+00  0.00000000000E+00  0.76738728768E+03  0.76738728768E+03  0.00000000000E+00 0. -1.
          1   -1    0    0  501    0 -0.00000000000E+00 -0.00000000000E+00 -0.37138446253E+02  0.37138446253E+02  0.00000000000E+00 0. -1.
          2    1    1    2  501    0 -0.76733416171E+01  0.27705080166E+02  0.43684107269E+03  0.43778599158E+03  0.00000000000E+00 0. -1.
          1    1    1    2  502    0 -0.27685771290E+01 -0.64853153542E+02  0.30472123211E+02  0.71708764016E+02  0.00000000000E+00 0. -1.
         22    1    1    2    0    0 -0.98626759983E+01 -0.87418846139E+01 -0.10610761940E+02  0.16919846140E+02  0.00000000000E+00 0. -1.
         22    1    1    2    0    0  0.20304594744E+02  0.45889957990E+02  0.27354640747E+03  0.27811113220E+03  0.00000000000E+00 0. -1.
</event>
<event>
 6    1  0.8017648E-006  0.5810330E+02  0.7818608E-02  0.1470287E+00
          2   -1    0    0  502    0  0.00000000000E+00  0.00000000000E+00  0.23117229347E+03  0.23117229347E+03  0.00000000000E+00 0.  1.
          1   -1    0    0  501    0 -0.00000000000E+00 -0.00000000000E+00 -0.11680785122E+03  0.11680785122E+03  0.00000000000E+00 0.  1.
          2    1    1    2  501    0  0.93074695317E+00 -0.23796335762E+02  0.15229075470E+03  0.15414151243E+03  0.00000000000E+00 0.  1.
          1    1    1    2  502    0 -0.11965345553E+02  0.25702596110E+02 -0.59120812581E+02  0.65567243508E+02  0.00000000000E+00 0.  1.
         22    1    1    2    0    0  0.23462813690E+02  0.16429425877E+02  0.69477267042E+02  0.75149985339E+02  0.00000000000E+00 0.  1.
         22    1    1    2    0    0 -0.12428215090E+02 -0.18335686225E+02 -0.48282766918E+02  0.53121403416E+02  0.00000000000E+00 0.  1.
</event>
<event>
 6    1  0.8017648E-006  0.5304675E+02  0.7818608E-02  0.1445033E+00
          2   -1    0    0  502    0  0.00000000000E+00  0.00000000000E+00  0.32777835366E+03  0.32777835366E+03  0.00000000000E+00 0. -1.
          1   -1    0    0  501    0 -0.00000000000E+00 -0.00000000000E+00 -0.69541210442E+02  0.69541210442E+02  0.00000000000E+00 0. -1.
          2    1    1    2  501    0 -0.37971490368E+02 -0.18293558716E+02  0.18024622981E+03  0.18510859443E+03  0.00000000000E+00 0. -1.
          1    1    1    2  502    0  0.23659975928E+02  0.45077469920E+02  0.70487671427E+02  0.86949896944E+02  0.00000000000E+00 0. -1.
         22    1    1    2    0    0 -0.14808760091E+02  0.35681547621E+01  0.57754322077E+02  0.59729329667E+02  0.00000000000E+00 0.  1.
         22    1    1    2    0    0  0.29120274531E+02 -0.30352065966E+02 -0.50251080098E+02  0.65531743058E+02  0.00000000000E+00 0. -1.
</event>
<event>
 6    1  0.8017648E-006  0.3163881E+02  0.7818608E-02  0.1652939E+00
          2   -1    0    0  502    0  0.00000000000E+00  0.00000000000E+00  0.18596518213E+03  0.18596518213E+03  0.00000000000E+00 0.  1.
          1   -1    0    0  501    0 -0.00000000000E+00 -0.00000000000E+00 -0.65752661378E+02  0.65752661378E+02  0.00000000000E+00 0.  1.
          2    1    1    2  501    0 -0.22196807884E+02  0.22228722533E+02  0.42499158073E+02  0.52848773142E+02  0.00000000000E+00 0.  1.
          1    1    1    2  502    0  0.35871175324E+02 -0.11708777930E+02 -0.15960288592E+02  0.40970324769E+02  0.00000000000E+00 0.  1.
         22    1    1    2    0    0  0.10215539469E+02 -0.27569502033E+01 -0.29942043185E+02  0.31756636648E+02  0.00000000000E+00 0.  1.
         22    1    1    2    0    0 -0.23889906909E+02 -0.77629943996E+01  0.12361569446E+03  0.12614210895E+03  0.00000000000E+00 0.  1.
</event>
<event>
 6    1  0.8017648E-006  0.2316745E+03  0.7818608E-02  0.1127739E+00
          2   -1    0    0  502    0  0.00000000000E+00  0.00000000000E+00  0.14697690290E+04  0.14697690290E+04  0.00000000000E+00 0. -1.
          1   -1    0    0  501    0 -0.00000000000E+00 -0.00000000000E+00 -0.36954713534E+02  0.36954713534E+02  0.00000000000E+00 0.  1.
          2    1    1    2  501    0  0.50205194219E+02  0.95212149407E+02  0.29928194643E+03  0.31804967911E+03  0.00000000000E+00 0. -1.
          1    1    1    2  502    0 -0.62778077663E+02 -0.18227477792E+03  0.47031948896E+03  0.50829676706E+03  0.00000000000E+00 0.  1.
         22    1    1    2    0    0 -0.10941795897E+02 -0.21427058142E+02  0.35249145007E+02  0.42677206349E+02  0.00000000000E+00 0. -1.
         22    1    1    2    0    0  0.23514679341E+02  0.10848968666E+03  0.62796373509E+03  0.63770009004E+03  0.00000000000E+00 0.  1.
</event>
<event>
 6    1  0.8017648E-006  0.8711753E+02  0.7818608E-02  0.1336125E+00
          2   -1    0    0  502    0  0.00000000000E+00  0.00000000000E+00  0.60439906445E+03  0.60439906445E+03  0.00000000000E+00 0.  1.
          1   -1    0    0  501    0 -0.00000000000E+00 -0.00000000000E+00 -0.36102725285E+02  0.36102725285E+02  0.00000000000E+00 0.  1.
          2    1    1    2  501    0 -0.11902062660E+02  0.17943572704E+02  0.18364924984E+03  0.18490721421E+03  0.00000000000E+00 0.  1.
          1    1    1    2  502    0  0.38042448975E+02  0.70167922837E+02  0.76588298680E+02  0.11061886283E+03  0.00000000000E+00 0.  1.
         22    1    1    2    0    0 -0.16983994036E+01 -0.10762557380E+03  0.15471701228E+03  0.18847679588E+03  0.00000000000E+00 0.  1.
         22    1    1    2    0    0 -0.24441986911E+02  0.19514078260E+02  0.15334177836E+03  0.15649891682E+03  0.00000000000E+00 0. -1.
</event>
<event>
 6    1  0.8017648E-006  0.2074156E+02  0.7818608E-02  0.1734363E+00
          2   -1    0    0  502    0  0.00000000000E+00  0.00000000000E+00  0.59622545907E+02  0.59622545907E+02  0.00000000000E+00 0.  1.
          1   -1    0    0  501    0 -0.00000000000E+00 -0.00000000000E+00 -0.26192109096E+03  0.26192109096E+03  0.00000000000E+00 0.  1.
          2    1    1    2  501    0  0.18979555971E+02 -0.10993020488E+02  0.12378880640E+02  0.25185446794E+02  0.00000000000E+00 0.  1.
          1    1    1    2  502    0 -0.23023021457E+02  0.11101264887E+02 -0.15187438320E+03  0.15401014860E+03  0.00000000000E+00 0.  1.
         22    1    1    2    0    0  0.58862787332E+00  0.20777860875E+02  0.35854862842E+02  0.41444386528E+02  0.00000000000E+00 0. -1.
         22    1    1    2    0    0  0.34548376125E+01 -0.20886105274E+02 -0.98657905330E+02  0.10090365494E+03  0.00000000000E+00 0.  1.
</event>
<event>
 6    1  0.8017648E-006  0.1255428E+03  0.7818608E-02  0.1337234E+00
          2   -1    0    0  502    0  0.00000000000E+00  0.00000000000E+00  0.18559757604E+03  0.18559757604E+03  0.00000000000E+00 0.  1.
          1   -1    0    0  501    0 -0.00000000000E+00 -0.00000000000E+00 -0.11201886319E+03  0.11201886319E+03  0.00000000000E+00 0.  1.
          2    1    1    2  501    0  0.80101303660E+01  0.21563898554E+02 -0.65287947584E+01  0.23912111373E+02  0.00000000000E+00 0.  1.
          1    1    1    2  502    0 -0.77493053589E+02 -0.66416127157E+02  0.71769110917E+00  0.10206267869E+03  0.00000000000E+00 0.  1.
         22    1    1    2    0    0  0.54598073751E+01 -0.17086664221E+02 -0.27291445784E+02  0.32658637506E+02  0.00000000000E+00 0.  1.
         22    1    1    2    0    0  0.64023115848E+02  0.61938892824E+02  0.10668126228E+03  0.13898301166E+03  0.00000000000E+00 0.  1.
</event>
<event>
 6    1  0.8017648E-006  0.8804780E+02  0.7818608E-02  0.1411017E+00
          2   -1    0    0  502    0  0.00000000000E+00  0.00000000000E+00  0.43821021584E+03  0.43821021584E+03  0.00000000000E+00 0.  1.
          1   -1    0    0  501    0 -0.00000000000E+00 -0.00000000000E+00 -0.91057080216E+02  0.91057080216E+02  0.00000000000E+00 0.  1.
          2    1    1    2  501    0 -0.62334583950E+02 -0.38935416737E+02  0.30170073393E+03  0.31052358990E+03  0.00000000000E+00 0.  1.
          1    1    1    2  502    0  0.84375742461E+02  0.26227050661E+02  0.21458713229E+02  0.90926346433E+02  0.00000000000E+00 0.  1.
         22    1    1    2    0    0 -0.80073398790E+01  0.13189125418E+02 -0.50091055783E+02  0.52413589752E+02  0.00000000000E+00 0.  1.
         22    1    1    2    0    0 -0.14033818632E+02 -0.48075934307E+00  0.74084744253E+02  0.75403769972E+02  0.00000000000E+00 0.  1.
</event>
<event>
 6    1  0.8017648E-006  0.2986709E+02  0.7818608E-02  0.1607253E+00
          2   -1    0    0  502    0  0.00000000000E+00  0.00000000000E+00  0.10161214540E+03  0.10161214540E+03  0.00000000000E+00 0.  1.
          1   -1    0    0  501    0 -0.00000000000E+00 -0.00000000000E+00 -0.12157153176E+03  0.12157153176E+03  0.00000000000E+00 0. -1.
          2    1    1    2  501    0  0.96360085536E+01  0.26642072297E+02  0.38605810833E+02  0.47885919718E+02  0.00000000000E+00 0.  1.
          1    1    1    2  502    0 -0.43832175720E+01 -0.37399573083E+02  0.22705734824E+01  0.37723946864E+02  0.00000000000E+00 0. -1.
         22    1    1    2    0    0  0.23867210102E+02 -0.56098300372E+00 -0.91040069419E+02  0.94118290783E+02  0.00000000000E+00 0. -1.
         22    1    1    2    0    0 -0.29120001083E+02  0.11318483789E+02  0.30204298745E+02  0.43455519800E+02  0.00000000000E+00 0.  1.
</event>
<event>
 6    1  0.8017648E-006  0.5297668E+02  0.7818608E-02  0.1521078E+00
          2   -1    0    0  502    0  0.00000000000E+00  0.00000000000E+00  0.32763386685E+03  0.32763386685E+03  0.00000000000E+00 0. -1.
          1   -1    0    0  501    0 -0.00000000000E+00 -0.00000000000E+00 -0.53443177206E+02  0.53443177206E+02  0.00000000000E+00 0. -1.
          2    1    1    2  501    0 -0.27403944356E+02  0.35679144537E+02  0.13131673361E+03  0.13880944510E+03  0.00000000000E+00 0. -1.
          1    1    1    2  502    0 -0.79412533206E+01  0.40834174872E+02  0.71938520031E+01  0.42216641842E+02  0.00000000000E+00 0. -1.
         22    1    1    2    0    0  0.96686036440E+01 -0.10776481256E+02 -0.22548856146E+02  0.26796741559E+02  0.00000000000E+00 0. -1.
         22    1    1    2    0    0  0.25676594032E+02 -0.65736838153E+02  0.15822896018E+03  0.17325421556E+03  0.00000000000E+00 0. -1.
</event>
<event>
 6    1  0.8017648E-006  0.9937692E+02  0.7818608E-02  0.1353066E+00
          2   -1    0    0  502    0  0.00000000000E+00  0.00000000000E+00  0.40776939511E+03  0.40776939511E+03  0.00000000000E+00 0. -1.
          1   -1    0    0  501    0 -0.00000000000E+00 -0.00000000000E+00 -0.10310038900E+03  0.10310038900E+03  0.00000000000E+00 0.  1.
          2    1    1    2  501    0  0.65359468049E+02  0.70471404406E+02  0.60962889421E+02  0.11381806882E+03  0.00000000000E+00 0. -1.
          1    1    1    2  502    0 -0.13022558960E+03 -0.97862535336E+02  0.85600053369E+02  0.18401942600E+03  0.00000000000E+00 0.  1.
         22    1    1    2    0    0 -0.16811172741E+02  0.14900843716E+02 -0.10855151062E+02  0.24949648834E+02  0.00000000000E+00 0.  1.
         22    1    1    2    0    0  0.81677294290E+02  0.12490287213E+02  0.16896121438E+03  0.18808264046E+03  0.00000000000E+00 0. -1.
</event>
<event>
 6    1  0.8017648E-006  0.1422941E+03  0.7818608E-02  0.1344974E+00
          2   -1    0    0  502    0  0.00000000000E+00  0.00000000000E+00  0.15301397707E+03  0.15301397707E+03  0.00000000000E+00 0. -1.
          1   -1    0    0  501    0 -0.00000000000E+00 -0.00000000000E+00 -0.18736987748E+03  0.18736987748E+03  0.00000000000E+00 0. -1.
          2    1    1    2  501    0  0.31501714013E+02  0.31702921386E+02  0.27142536210E+02  0.52289104812E+02  0.00000000000E+00 0. -1.
          1    1    1    2  502    0 -0.74020538875E+02  0.46901892505E+02 -0.98121923559E+02  0.13155508192E+03  0.00000000000E+00 0. -1.
         22    1    1    2    0    0 -0.85191881577E+01  0.65983895465E+01 -0.33348805711E+02  0.35046514147E+02  0.00000000000E+00 0. -1.
         22    1    1    2    0    0  0.51038013020E+02 -0.85203203438E+02  0.69972292650E+02  0.12149315367E+03  0.00000000000E+00 0. -1.
</event>
<event>
 6    1  0.8017648E-006  0.5041923E+02  0.7818608E-02  0.1504060E+00
          2   -1    0    0  502    0  0.00000000000E+00  0.00000000000E+00  0.68123206588E+02  0.68123206588E+02  0.00000000000E+00 0.  1.
          1   -1    0    0  501    0 -0.00000000000E+00 -0.00000000000E+00 -0.61212055427E+03  0.61212055427E+03  0.00000000000E+00 0. -1.
          2    1    1    2  501    0  0.34251741340E+02 -0.37693950508E+02 -0.49304661426E+02  0.70886989836E+02  0.00000000000E+00 0.  1.
          1    1    1    2  502    0  0.10263634768E+02  0.58419070288E+02 -0.47170273663E+03  0.47541729219E+03  0.00000000000E+00 0. -1.
         22    1    1    2    0    0  0.91398669027E+01 -0.19057654655E+02 -0.63347159193E+02  0.66780191268E+02  0.00000000000E+00 0.  1.
         22    1    1    2    0    0 -0.53655243010E+02 -0.16674651257E+01  0.40357209564E+02  0.67159287565E+02  0.00000000000E+00 0. -1.
</event>
<event>
 6    1  0.8017648E-006  0.2392539E+03  0.7818608E-02  0.1202361E+00
          2   -1    0    0  502    0  0.00000000000E+00  0.00000000000E+00  0.53795057520E+03  0.53795057520E+03  0.00000000000E+00 0. -1.
          1   -1    0    0  501    0 -0.00000000000E+00 -0.00000000000E+00 -0.16976256110E+03  0.16976256110E+03  0.00000000000E+00 0. -1.
          2    1    1    2  501    0 -0.14866932525E+03 -0.15215660509E+03  0.22175088825E+03  0.30729083485E+03  0.00000000000E+00 0. -1.
          1    1    1    2  502    0  0.18046812067E+03  0.13239176972E+03  0.15288035758E+03  0.27105115201E+03  0.00000000000E+00 0. -1.
         22    1    1    2    0    0  0.15114871129E+01  0.35451251865E+02 -0.56810402095E+02  0.66981323055E+02  0.00000000000E+00 0. -1.
         22    1    1    2    0    0 -0.33310282538E+02 -0.15686416495E+02  0.50367170359E+02  0.62389826376E+02  0.00000000000E+00 0. -1.
</event>
<event>
 6    1  0.8017648E-006  0.2437607E+03  0.7818608E-02  0.1184325E+00
          2   -1    0    0  502    0  0.00000000000E+00  0.00000000000E+00  0.78921746894E+03  0.78921746894E+03  0.00000000000E+00 0.  1.
          1   -1    0    0  501    0 -0.00000000000E+00 -0.00000000000E+00 -0.10394154280E+03  0.10394154280E+03  0.00000000000E+00 0. -1.
          2    1    1    2  501    0 -0.21781778650E+02 -0.16866962979E+03  0.54250181808E+03  0.56853505830E+03  0.00000000000E+00 0.  1.
          1    1    1    2  502    0  0.31257538917E+02  0.14647500141E+03  0.12294286312E+03  0.19377024377E+03  0.00000000000E+00 0. -1.
         22    1    1    2    0    0  0.39187887402E+02  0.33071856366E+02  0.50779055799E+02  0.72166132710E+02  0.00000000000E+00 0. -1.
         22    1    1    2    0    0 -0.48663647669E+02 -0.10877227986E+02 -0.30947810851E+02  0.58687576962E+02  0.00000000000E+00 0. -1.
</event>
<event>
 6    1  0.8017648E-006  0.9981830E+02  0.7818608E-02  0.1334104E+00
          2   -1    0    0  502    0  0.00000000000E+00  0.00000000000E+00  0.55912230539E+03  0.55912230539E+03  0.00000000000E+00 0. -1.
          1   -1    0    0  501    0 -0.00000000000E+00 -0.00000000000E+00 -0.42640839833E+02  0.42640839833E+02  0.00000000000E+00 0. -1.
          2    1    1    2  501    0  0.30824456521E+02 -0.19896677703E+02  0.13801308252E+03  0.14280628785E+03  0.00000000000E+00 0. -1.
          1    1    1    2  502    0  0.48824657124E+02  0.54842062889E+02  0.24076093883E+03  0.25170881723E+03  0.00000000000E+00 0. -1.
         22    1    1    2    0    0 -0.42423023819E+02 -0.40834417528E+02  0.15498049744E+03  0.16578937599E+03  0.00000000000E+00 0. -1.
         22    1    1    2    0    0 -0.37226089826E+02  0.58890323422E+01 -0.17273053227E+02  0.41458664155E+02  0.00000000000E+00 0. -1.
</event>
<event>
 6    1  0.8017648E-006  0.8200562E+02  0.7818608E-02  0.1368420E+00
          2   -1    0    0  502    0  0.00000000000E+00  0.00000000000E+00  0.92797966836E+02  0.92797966836E+02  0.00000000000E+00 0. -1.
          1   -1    0    0  501    0 -0.00000000000E+00 -0.00000000000E+00 -0.13874387353E+03  0.13874387353E+03  0.00000000000E+00 0.  1.
          2    1    1    2  501    0  0.34752491792E+02 -0.71482424425E+01  0.16901451741E+02  0.39300027058E+02  0.00000000000E+00 0. -1.
          1    1    1    2  502    0  0.20341813150E+02  0.34871890104E+02 -0.75081430445E+01  0.41063491006E+02  0.00000000000E+00 0.  1.
         22    1    1    2    0    0 -0.31896634387E+02  0.20443155340E+02 -0.82814918942E+02  0.91069361944E+02  0.00000000000E+00 0.  1.
         22    1    1    2    0    0 -0.23197670555E+02 -0.48166803001E+02  0.27475703548E+02  0.60108960363E+02  0.00000000000E+00 0. -1.
</event>
<event>
 6    1  0.8017648E-006  0.4462586E+02  0.7818608E-02  0.1501932E+00
          2   -1    0    0  502    0  0.00000000000E+00  0.00000000000E+00  0.18388453504E+03  0.18388453504E+03  0.00000000000E+00 0. -1.
          1   -1    0    0  501    0 -0.00000000000E+00 -0.00000000000E+00 -0.11324110263E+03  0.11324110263E+03  0.00000000000E+00 0. -1.
          2    1    1    2  501    0 -0.74629585636E+01 -0.57797827134E+02  0.27011589558E+02  0.64233251065E+02  0.00000000000E+00 0. -1.
          1    1    1    2  502    0 -0.40192852847E+02  0.39134557761E+02  0.71646900270E+02  0.90995919411E+02  0.00000000000E+00 0. -1.
         22    1    1    2    0    0  0.11325014810E+02  0.23346599263E+02  0.49652395848E+02  0.56023924095E+02  0.00000000000E+00 0. -1.
         22    1    1    2    0    0  0.36330796601E+02 -0.46833298896E+01 -0.77667453264E+02  0.85872543092E+02  0.00000000000E+00 0. -1.
</event>
<event>
 6    1  0.8017648E-006  0.2728637E+02  0.7818608E-02  0.1659171E+00
          2   -1    0    0  502    0  0.00000000000E+00  0.00000000000E+00  0.43752569397E+02  0.43752569397E+02  0.00000000000E+00 0.  1.
          1   -1    0    0  501    0 -0.00000000000E+00 -0.00000000000E+00 -0.50979728567E+03  0.50979728567E+03  0.00000000000E+00 0.  1.
          2    1    1    2  501    0 -0.41695480519E+02 -0.85282106847E+01 -0.69575380916E+02  0.81559653646E+02  0.00000000000E+00 0.  1.
          1    1    1    2  502    0  0.12825921011E+02  0.30676581314E+02 -0.32541176377E+03  0.32710605755E+03  0.00000000000E+00 0.  1.
         22    1    1    2    0    0  0.18504210576E+02 -0.27995084428E+00  0.33116167164E+02  0.37936324402E+02  0.00000000000E+00 0.  1.
         22    1    1    2    0    0  0.10365348932E+02 -0.21868419785E+02 -0.10417373876E+03  0.10694781947E+03  0.00000000000E+00 0.  1.
</event>
<event>
 6    1  0.8017648E-006  0.6457122E+02  0.7818608E-02  0.1385269E+00
          2   -1    0    0  502    0  0.00000000000E+00  0.00000000000E+00  0.14500812364E+03  0.14500812364E+03  0.00000000000E+00 0. -1.
          1   -1    0    0  501    0 -0.00000000000E+00 -0.00000000000E+00 -0.21080125257E+03  0.21080125257E+03  0.00000000000E+00 0. -1.
          2    1    1    2  501    0  0.34578559036E+00  0.88204456322E+02 -0.38799282851E+02  0.96361455118E+02  0.00000000000E+00 0. -1.
          1    1    1    2  502    0  0.40250717749E+01 -0.11714102746E+03 -0.49491847030E+02  0.12723075273E+03  0.00000000000E+00 0. -1.
         22    1    1    2    0    0 -0.40420920165E+02  0.18843582484E+02 -0.39643563830E+02  0.59670290270E+02  0.00000000000E+00 0. -1.
         22    1    1    2    0    0  0.36050062800E+02  0.10092988658E+02  0.62141564784E+02  0.72546878098E+02  0.00000000000E+00 0.  1.
</event>
<event>
 6    1  0.8017648E-006  0.1082040E+03  0.7818608E-02  0.1389715E+00
          2   -1    0    0  502    0  0.00000000000E+00  0.00000000000E+00  0.38184712523E+03  0.38184712523E+03  0.00000000000E+00 0. -1.
          1   -1    0    0  501    0 -0.00000000000E+00 -0.00000000000E+00 -0.17251603219E+03  0.17251603219E+03  0.00000000000E+00 0.  1.
          2    1    1    2  501    0  0.68029194459E+02  0.10933878804E+02  0.25952604074E+03  0.26851682783E+03  0.00000000000E+00 0. -1.
          1    1    1    2  502    0 -0.11383166702E+03 -0.16046874167E+02 -0.92429489126E+02  0.14750715592E+03  0.00000000000E+00 0.  1.
         22    1    1    2    0    0  0.36304801296E+02 -0.16283966627E+01  0.85834278988E+02  0.93210588037E+02  0.00000000000E+00 0. -1.
         22    1    1    2    0    0  0.94976712683E+01  0.67413920262E+01 -0.43599737565E+02  0.45128585638E+02  0.00000000000E+00 0.  1.
</event>
<event>
 6    1  0.8017648E-006  0.9840681E+02  0.7818608E-02  0.1384390E+00
          2   -1    0    0  502    0  0.00000000000E+00  0.00000000000E+00  0.85950391186E+03  0.85950391186E+03  0.00000000000E+00 0. -1.
          1   -1    0    0  501    0 -0.00000000000E+00 -0.00000000000E+00 -0.56717855766E+02  0.56717855766E+02  0.00000000000E+00 0. -1.
          2    1    1    2  501    0 -0.91336426586E+02  0.19597375297E+02  0.32293042654E+03  0.33617028472E+03  0.00000000000E+00 0. -1.
          1    1    1    2  502    0 -0.29743754497E+02 -0.34074612244E+02 -0.20712180917E+02  0.49747005633E+02  0.00000000000E+00 0. -1.
         22    1    1    2    0    0  0.16869670303E+02  0.33303658449E+00 -0.18719773062E+01  0.16976483397E+02  0.00000000000E+00 0.  1.
         22    1    1    2    0    0  0.10421051078E+03  0.14144200362E+02  0.50243978778E+03  0.51332799388E+03  0.00000000000E+00 0. -1.
</event>
<event>
 6    1  0.8017648E-006  0.5680344E+02  0.7818608E-02  0.1415154E+00
          2   -1    0    0  502    0  0.00000000000E+00  0.00000000000E+00  0.10213415478E+03  0.10213415478E+03  0.00000000000E+00 0. -1.
          1   -1    0    0  501    0 -0.00000000000E+00 -0.00000000000E+00 -0.11004071449E+03  0.11004071449E+03  0.00000000000E+00 0. -1.
          2    1    1    2  501    0  0.21485890618E+02  0.11488551075E+02  0.27380140646E+02  0.36651090070E+02  0.00000000000E+00 0. -1.
          1    1    1    2  502    0 -0.29409953952E+02 -0.18657516445E+02 -0.40495892808E+02  0.53413159855E+02  0.00000000000E+00 0. -1.
         22    1    1    2    0    0 -0.17252440418E+02 -0.42108765586E+01 -0.53960759151E+02  0.56807937033E+02  0.00000000000E+00 0. -1.
         22    1    1    2    0    0  0.25176503751E+02  0.11379841928E+02  0.59169951612E+02  0.65302682313E+02  0.00000000000E+00 0. -1.
</event>
<event>
 6    1  0.8017648E-006  0.1807579E+02  0.7818608E-02  0.1841001E+00
          2   -1    0    0  502    0  0.00000000000E+00  0.00000000000E+00  0.99700732262E+02  0.99700732262E+02  0.00000000000E+00 0.  1.
          1   -1    0    0  501    0 -0.00000000000E+00 -0.00000000000E+00 -0.74508906021E+02  0.74508906021E+02  0.00000000000E+00 0.  1.
          2    1    1    2  501    0 -0.19917891646E+02 -0.12007070990E+02  0.11328584090E+02  0.25869460351E+02  0.00000000000E+00 0.  1.
          1    1    1    2  502    0  0.74428298645E+01  0.20618024066E+02  0.14428932865E+02  0.26242955938E+02  0.00000000000E+00 0.  1.
         22    1    1    2    0    0  0.57466636553E+01 -0.16124472063E+02  0.59128749205E+02  0.61556735821E+02  0.00000000000E+00 0.  1.
         22    1    1    2    0    0  0.67283981257E+01  0.75135189872E+01 -0.59694439918E+02  0.60540486173E+02  0.00000000000E+00 0.  1.
</event>
<event>
 6    1  0.8017648E-006  0.2478399E+02  0.7818608E-02  0.1724881E+00
          2   -1    0    0  502    0  0.00000000000E+00  0.00000000000E+00  0.75223680978E+02  0.75223680978E+02  0.00000000000E+00 0. -1.
          1   -1    0    0  501    0 -0.00000000000E+00 -0.00000000000E+00 -0.57931145130E+03  0.57931145130E+03  0.00000000000E+00 0. -1.
          2    1    1    2  501    0 -0.25311566709E+02  0.28613801730E+02  0.10824889560E+01  0.38217755573E+02  0.00000000000E+00 0. -1.
          1    1    1    2  502    0  0.12230887572E+02 -0.19220897026E+02 -0.48419288040E+03  0.48472856623E+03  0.00000000000E+00 0. -1.
         22    1    1    2    0    0  0.86763448859E+01 -0.21562668033E+02  0.52271106197E+02  0.57205735344E+02  0.00000000000E+00 0. -1.
         22    1    1    2    0    0  0.44043342519E+01  0.12169763330E+02 -0.73248485077E+02  0.74383075130E+02  0.00000000000E+00 0.  1.
</event>
<event>
 6    1  0.8017648E-006  0.7375920E+02  0.7818608E-02  0.1426478E+00
          2   -1    0    0  502    0  0.00000000000E+00  0.00000000000E+00  0.16517226951E+03  0.16517226951E+03  0.00000000000E+00 0. -1.
          1   -1    0    0  501    0 -0.00000000000E+00 -0.00000000000E+00 -0.33759801813E+03  0.33759801813E+03  0.00000000000E+00 0. -1.
          2    1    1    2  501    0 -0.47300583089E+01 -0.48006050548E+02  0.12169031947E+03  0.13090259047E+03  0.00000000000E+00 0. -1.
          1    1    1    2  502    0  0.13328863329E+02  0.74538840689E+02 -0.20214749415E+03  0.21586409326E+03  0.00000000000E+00 0. -1.
         22    1    1    2    0    0 -0.19438012411E+02 -0.70647333151E+01 -0.11910721152E+03  0.12088951410E+03  0.00000000000E+00 0. -1.
         22    1    1    2    0    0  0.10839207391E+02 -0.19468056825E+02  0.27138637582E+02  0.35114089811E+02  0.00000000000E+00 0.  1.
</event>
<event>
 6    1  0.8017648E-006  0.5732884E+02  0.7818608E-02  0.1483377E+00
          2   -1    0    0  502    0  0.00000000000E+00  0.00000000000E+00  0.18644124254E+03  0.18644124254E+03  0.00000000000E+00 0.  1.
          1   -1    0    0  501    0 -0.00000000000E+00 -0.00000000000E+00 -0.11492255401E+03  0.11492255401E+03  0.00000000000E+00 0. -1.
          2    1    1    2  501    0  0.26811890232E+02 -0.33196549859E+02  0.10387979941E+03  0.11230272083E+03  0.00000000000E+00 0.  1.
          1    1    1    2  502    0 -0.43515155465E+02  0.17883623782E+02 -0.36371613576E+02  0.59466688397E+02  0.00000000000E+00 0. -1.
         22    1    1    2    0    0  0.39974031398E+01  0.18729871370E+02 -0.60653546087E+02  0.63605345423E+02  0.00000000000E+00 0.  1.
         22    1    1    2    0    0  0.12705862093E+02 -0.34169452929E+01  0.64664048788E+02  0.65989041911E+02  0.00000000000E+00 0. -1.
</event>
<event>
 6    1  0.8017648E-006  0.8151477E+02  0.7818608E-02  0.1411117E+00
          2   -1    0    0  502    0  0.00000000000E+00  0.00000000000E+00  0.60189155741E+03  0.60189155741E+03  0.00000000000E+00 0.  1.
          1   -1    0    0  501    0 -0.00000000000E+00 -0.00000000000E+00 -0.60081563488E+02  0.60081563488E+02  0.00000000000E+00 0.  1.
          2    1    1    2  501    0  0.58933670803E+01  0.21119629664E+02  0.27228631880E+03  0.27316773224E+03  0.00000000000E+00 0.  1.
          1    1    1    2  502    0  0.29210299727E+02 -0.41946812967E-01 -0.41874063420E+02  0.51055661361E+02  0.00000000000E+00 0.  1.
         22    1    1    2    0    0 -0.53403889350E+02 -0.14595120889E+02  0.31338154054E+03  0.31823416363E+03  0.00000000000E+00 0.  1.
         22    1    1    2    0    0  0.18300222542E+02 -0.64825619622E+01 -0.19838019983E+01  0.19515563662E+02  0.00000000000E+00 0.  1.
</event>
<event>
 6    1  0.8017648E-006  0.1308690E+03  0.7818608E-02  0.1264433E+00
          2   -1    0    0  502    0  0.00000000000E+00  0.00000000000E+00  0.17531454132E+03  0.17531454132E+03  0.00000000000E+00 0.  1.
          1   -1    0    0  501    0 -0.00000000000E+00 -0.00000000000E+00 -0.23002735498E+03  0.23002735498E+03  0.00000000000E+00 0.  1.
          2    1    1    2  501    0 -0.25593378497E+02  0.40057902014E+02  0.19940221686E+02  0.51548704907E+02  0.00000000000E+00 0.  1.
          1    1    1    2  502    0 -0.11677194969E+02  0.88137447386E+02  0.77131934925E+02  0.11770259937E+03  0.00000000000E+00 0.  1.
         22    1    1    2    0    0  0.46327207530E+02 -0.13497713525E+03 -0.16535662377E+03  0.21842126779E+03  0.00000000000E+00 0.  1.
         22    1    1    2    0    0 -0.90566340638E+01  0.67817858474E+01  0.13571653499E+02  0.17669324224E+02  0.00000000000E+00 0.  1.
</event>
<event>
 6    1  0.8017648E-006  0.1334538E+03  0.7818608E-02  0.1348669E+00
          2   -1    0    0  502    0  0.00000000000E+00  0.00000000000E+00  0.34634893210E+03  0.34634893210E+03  0.00000000000E+00 0.  1.
          1   -1    0    0  501    0 -0.00000000000E+00 -0.00000000000E+00 -0.81609854080E+02  0.81609854080E+02  0.00000000000E+00 0. -1.
          2    1    1    2  501    0 -0.37208878318E+02 -0.43582680364E+02  0.96280563359E+02  0.11204417671E+03  0.00000000000E+00 0.  1.
          1    1    1    2  502    0 -0.15850060954E+02  0.10786429456E+03  0.11591995597E+03  0.15913317274E+03  0.00000000000E+00 0. -1.
         22    1    1    2    0    0  0.41347788373E+02 -0.60653655536E+02  0.90709020143E+02  0.11669032466E+03  0.00000000000E+00 0.  1.
         22    1    1    2    0    0  0.11711150899E+02 -0.36279586630E+01 -0.38170461456E+02  0.40091112072E+02  0.00000000000E+00 0. -1.
</event>
<event>
 6    1  0.8017648E-006  0.1806950E+03  0.7818608E-02  0.1244365E+00
          2   -1    0    0  502    0  0.00000000000E+00  0.00000000000E+00  0.44836138322E+03  0.44836138322E+03  0.00000000000E+00 0. -1.
          1   -1    0    0  501    0 -0.00000000000E+00 -0.00000000000E+00 -0.15362392232E+03  0.15362392232E+03  0.00000000000E+00 0. -1.
          2    1    1    2  501    0  0.89247151259E+02  0.36690359131E+02  0.13879383782E+03  0.16904131411E+03  0.00000000000E+00 0. -1.
          1    1    1    2  502    0 -0.10328916218E+01 -0.28700643367E+02 -0.11644842688E+03  0.11993760844E+03  0.00000000000E+00 0. -1.
         22    1    1    2    0    0 -0.60273517186E+02 -0.27813870319E+02  0.27068404098E+03  0.27870478700E+03  0.00000000000E+00 0. -1.
         22    1    1    2    0    0 -0.27940742451E+02  0.19824154556E+02  0.17080089784E+01  0.34301595987E+02  0.00000000000E+00 0. -1.
</event>
<event>
 6    1  0.8017648E-006  0.3145944E+03  0.7818608E-02  0.1078398E+00
          2   -1    0    0  502    0  0.00000000000E+00  0.00000000000E+00  0.43629099983E+03  0.43629099983E+03  0.00000000000E+00 0. -1.
          1   -1    0    0  501    0 -0.00000000000E+00 -0.00000000000E+00 -0.82027377624E+03  0.82027377624E+03  0.00000000000E+00 0.  1.
          2    1    1    2  501    0  0.14961126706E+03  0.23642564211E+03  0.31103908812E+03  0.41836100418E+03  0.00000000000E+00 0. -1.
          1    1    1    2  502    0 -0.16533350846E+03 -0.23886594349E+03 -0.63295207128E+03  0.69643408339E+03  0.00000000000E+00 0.  1.
         22    1    1    2    0    0 -0.14398528340E+02 -0.10317873671E+02 -0.94239756173E+02  0.95890081755E+02  0.00000000000E+00 0.  1.
         22    1    1    2    0    0  0.30120769738E+02  0.12758175047E+02  0.32169962915E+02  0.45879606734E+02  0.00000000000E+00 0. -1.
</event>
<event>
 6    1  0.8017648E-006  0.4481706E+02  0.7818608E-02  0.1483415E+00
          2   -1    0    0  502    0  0.00000000000E+00  0.00000000000E+00  0.64338953938E+02  0.64338953938E+02  0.00000000000E+00 0. -1.
          1   -1    0    0  501    0 -0.00000000000E+00 -0.00000000000E+00 -0.30625961236E+03  0.30625961236E+03  0.00000000000E+00 0. -1.
          2    1    1    2  501    0  0.28384550360E+02  0.78012448951E+02 -0.83336707911E+02  0.11762921311E+03  0.00000000000E+00 0. -1.
          1    1    1    2  502    0 -0.50003435948E+02 -0.21833553865E+02 -0.45471975424E+02  0.71026391080E+02  0.00000000000E+00 0. -1.
         22    1    1    2    0    0  0.11962528793E+02 -0.28800332072E+02  0.25524338721E+02  0.40299542053E+02  0.00000000000E+00 0. -1.
         22    1    1    2    0    0  0.96563567949E+01 -0.27378563015E+02 -0.13863631381E+03  0.14164342006E+03  0.00000000000E+00 0. -1.
</event>
<event>
 6    1  0.8017648E-006  0.1409285E+03  0.7818608E-02  0.1279365E+00
          2   -1    0    0  502    0  0.00000000000E+00  0.00000000000E+00  0.12644545106E+03  0.12644545106E+03  0.00000000000E+00 0. -1.
          1   -1    0    0  501    0 -0.00000000000E+00 -0.00000000000E+00 -0.28459931015E+03  0.28459931015E+03  0.00000000000E+00 0. -1.
          2    1    1    2  501    0 -0.43302055044E+01  0.32075512088E+02 -0.15206021454E+03  0.15546671027E+03  0.00000000000E+00 0. -1.
          1    1    1    2  502    0  0.28071789933E+02 -0.59122190067E+02  0.78907414867E+02  0.10251750518E+03  0.00000000000E+00 0. -1.
         22    1    1    2    0    0  0.32996079982E+02 -0.15290108343E+02 -0.72587652494E+02  0.81188028686E+02  0.00000000000E+00 0. -1.
         22    1    1    2    0    0 -0.56737664410E+02  0.42336786322E+02 -0.12413406926E+02  0.71872517072E+02  0.00000000000E+00 0. -1.
</event>
<event>
 6    1  0.8017648E-006  0.1126731E+03  0.7818608E-02  0.1341464E+00
          2   -1    0    0  502    0  0.00000000000E+00  0.00000000000E+00  0.65481630556E+03  0.65481630556E+03  0.00000000000E+00 0.  1.
          1   -1    0    0  501    0 -0.00000000000E+00 -0.00000000000E+00 -0.22453190776E+02  0.22453190776E+02  0.00000000000E+00 0.  1.
          2    1    1    2  501    0  0.24808306113E+02 -0.11422317572E+02  0.14801961583E+03  0.15051819844E+03  0.00000000000E+00 0.  1.
          1    1    1    2  502    0  0.37563027031E+02  0.36686594198E+02  0.63208795318E+02  0.82172008611E+02  0.00000000000E+00 0.  1.
         22    1    1    2    0    0 -0.85201974443E+02 -0.28493513453E+02  0.40854867511E+03  0.41831002461E+03  0.00000000000E+00 0.  1.
         22    1    1    2    0    0  0.22830641300E+02  0.32292368265E+01  0.12586028534E+02  0.26269264681E+02  0.00000000000E+00 0.  1.
</event>
<event>
 6    1  0.8017648E-006  0.5642148E+02  0.7818608E-02  0.1414385E+00
          2   -1    0    0  502    0  0.00000000000E+00  0.00000000000E+00  0.93694663335E+03  0.93694663335E+03  0.00000000000E+00 0. -1.
          1   -1    0    0  501    0 -0.00000000000E+00 -0.00000000000E+00 -0.30406273236E+02  0.30406273236E+02  0.00000000000E+00 0.  1.
          2    1    1    2  501    0  0.61674649677E+02  0.40360706151E+02  0.62328004613E+03  0.62762310738E+03  0.00000000000E+00 0. -1.
          1    1    1    2  502    0 -0.15204797392E+02 -0.55028154882E+02  0.91988704006E+02  0.10826451569E+03  0.00000000000E+00 0.  1.
         22    1    1    2    0    0 -0.34741519433E+02 -0.25935473038E+02  0.88974012812E+01  0.44258170814E+02  0.00000000000E+00 0.  1.
         22    1    1    2    0    0 -0.11728332853E+02  0.40602921769E+02  0.18237420870E+03  0.18720711270E+03  0.00000000000E+00 0.  1.
</event>
<event>
 6    1  0.8017648E-006  0.7229622E+02  0.7818608E-02  0.1407921E+00
          2   -1    0    0  502    0  0.00000000000E+00  0.00000000000E+00  0.18555615067E+04  0.18555615067E+04  0.00000000000E+00 0.  1.
          1   -1    0    0  501    0 -0.00000000000E+00 -0.00000000000E+00 -0.52225113882E+02  0.52225113882E+02  0.00000000000E+00 0.  1.
          2    1    1    2  501    0  0.51942343748E+02 -0.44641236621E+02  0.59422721429E+03  0.59816120677E+03  0.00000000000E+00 0.  1.
          1    1    1    2  502    0  0.41673725557E+02 -0.42069226655E+02  0.11013653940E+04  0.11029561416E+04  0.00000000000E+00 0.  1.
         22    1    1    2    0    0 -0.11867880651E+03  0.71625335142E+02  0.11052240071E+03  0.17728521881E+03  0.00000000000E+00 0.  1.
         22    1    1    2    0    0  0.25062737206E+02  0.15085128133E+02 -0.27786161575E+01  0.29384053410E+02  0.00000000000E+00 0.  1.
</event>
<event>
 6    1  0.8017648E-006  0.6272701E+02  0.7818608E-02  0.1486131E+00
          2   -1    0    0  502    0  0.00000000000E+00  0.00000000000E+00  0.20908314644E+03  0.20908314644E+03  0.00000000000E+00 0. -1.
          1   -1    0    0  501    0 -0.00000000000E+00 -0.00000000000E+00 -0.80455050627E+02  0.80455050627E+02  0.00000000000E+00 0. -1.
          2    1    1    2  501    0 -0.15159385763E+02  0.18739132955E+02  0.49528183548E+02  0.55081785067E+02  0.00000000000E+00 0. -1.
          1    1    1    2  502    0  0.38647529107E+02 -0.34861782298E+02 -0.34490158068E+02  0.62438340582E+02  0.00000000000E+00 0. -1.
         22    1    1    2    0    0 -0.14507651399E+01 -0.13991147639E+02 -0.24894728748E+02  0.28593783436E+02  0.00000000000E+00 0.  1.
         22    1    1    2    0    0 -0.22037378204E+02  0.30113796982E+02  0.13848479908E+03  0.14342428798E+03  0.00000000000E+00 0. -1.
</event>
<event>
 6    1  0.8017648E-006  0.1601283E+03  0.7818608E-02  0.1228879E+00
          2   -1    0    0  502    0  0.00000000000E+00  0.00000000000E+00  0.18046948410E+03  0.18046948410E+03  0.00000000000E+00 0. -1.
          1   -1    0    0  501    0 -0.00000000000E+00 -0.00000000000E+00 -0.30289498178E+03  0.30289498178E+03  0.00000000000E+00 0. -1.
          2    1    1    2  501    0 -0.90825575282E+02 -0.10929534430E+03 -0.17039169533E+02  0.14312613566E+03  0.00000000000E+00 0. -1.
          1    1    1    2  502    0  0.49321360690E+02  0.14272541681E+03  0.23876922833E+02  0.15288312094E+03  0.00000000000E+00 0. -1.
         22    1    1    2    0    0  0.65777653742E+02 -0.15330808077E+02 -0.13982883295E+03  0.15528630310E+03  0.00000000000E+00 0.  1.
         22    1    1    2    0    0 -0.24273439150E+02 -0.18099264431E+02  0.10565581971E+02  0.32068906179E+02  0.00000000000E+00 0. -1.
</event>
<event>
 6    1  0.8017648E-006  0.4491168E+02  0.7818608E-02  0.1492000E+00
          2   -1    0    0  502    0  0.00000000000E+00  0.00000000000E+00  0.34502437880E+03  0.34502437880E+03  0.00000000000E+00 0.  1.
          1   -1    0    0  501    0 -0.00000000000E+00 -0.00000000000E+00 -0.48622246037E+02  0.48622246037E+02  0.00000000000E+00 0.  1.
          2    1    1    2  501    0 -0.24269340270E+02  0.59587745212E+02  0.11741287990E+03  0.13388608823E+03  0.00000000000E+00 0.  1.
          1    1    1    2  502    0  0.81761311362E+01 -0.61722536811E+02  0.53989367782E+02  0.82409784032E+02  0.00000000000E+00 0.  1.
         22    1    1    2    0    0 -0.81511938025E+01  0.22841585283E+02  0.14002109957E+03  0.14210590524E+03  0.00000000000E+00 0.  1.
         22    1    1    2    0    0  0.24244402937E+02 -0.20706793684E+02 -0.15021214492E+02  0.35244847329E+02  0.00000000000E+00 0.  1.
</event>
<event>
 6    1  0.8017648E-006  0.8646656E+02  0.7818608E-02  0.1312373E+00
          2   -1    0    0  502    0  0.00000000000E+00  0.00000000000E+00  0.22865021670E+03  0.22865021670E+03  0.00000000000E+00 0. -1.
          1   -1    0    0  501    0 -0.00000000000E+00 -0.00000000000E+00 -0.61794229961E+02  0.61794229961E+02  0.00000000000E+00 0. -1.
          2    1    1    2  501    0 -0.28688823925E+02  0.44813724163E+02  0.89758139899E+02  0.10434482340E+03  0.00000000000E+00 0. -1.
          1    1    1    2  502    0  0.16670371900E+02 -0.39557683765E+02  0.10697920877E+01  0.42940145543E+02  0.00000000000E+00 0. -1.
         22    1    1    2    0    0 -0.22556975149E+02  0.17671160450E+02  0.93761186330E+02  0.98042068019E+02  0.00000000000E+00 0. -1.
         22    1    1    2    0    0  0.34575427174E+02 -0.22927200848E+02 -0.17733131575E+02  0.45117409704E+02  0.00000000000E+00 0. -1.
</event>
<event>
 6    1  0.8017648E-006  0.7299117E+02  0.7818608E-02  0.1465383E+00
          2   -1    0    0  502    0  0.00000000000E+00  0.00000000000E+00  0.24116822488E+03  0.24116822488E+03  0.00000000000E+00 0. -1.
          1   -1    0    0  501    0 -0.00000000000E+00 -0.00000000000E+00 -0.45874543948E+02  0.45874543948E+02  0.00000000000E+00 0. -1.
          2    1    1    2  501    0  0.31618286628E+02 -0.66724848420E+01  0.61498400328E+02  0.69471514639E+02  0.00000000000E+00 0. -1.
          1    1    1    2  502    0 -0.19356080445E+02  0.28744762226E+02  0.46379848538E+01  0.34963267999E+02  0.00000000000E+00 0. -1.
         22    1    1    2    0    0  0.77291233656E+01  0.91651020021E+01 -0.23031714585E+02  0.25965329180E+02  0.00000000000E+00 0.  1.
         22    1    1    2    0    0 -0.19991329549E+02 -0.31237379386E+02  0.15218901034E+03  0.15664265701E+03  0.00000000000E+00 0. -1.
</event>
<event>
 6    1  0.8017648E-006  0.2828670E+03  0.7818608E-02  0.1158889E+00
          2   -1    0    0  502    0  0.00000000000E+00  0.00000000000E+00  0.63004547896E+03  0.63004547896E+03  0.00000000000E+00 0. -1.
          1   -1    0    0  501    0 -0.00000000000E+00 -0.00000000000E+00 -0.17540964836E+03  0.17540964836E+03  0.00000000000E+00 0. -1.
          2    1    1    2  501    0 -0.22227630043E+03  0.41757751094E+01  0.24674523253E+03  0.33212557957E+03  0.00000000000E+00 0. -1.
          1    1    1    2  502    0  0.25119701256E+03 -0.72336058565E+02  0.64340948047E+02  0.26920661597E+03  0.00000000000E+00 0. -1.
         22    1    1    2    0    0 -0.55137779117E+02  0.17537918573E+02  0.13447832195E+03  0.14639730991E+03  0.00000000000E+00 0. -1.
         22    1    1    2    0    0  0.26217066989E+02  0.50622364882E+02  0.90713280733E+01  0.57725621875E+02  0.00000000000E+00 0.  1.
</event>
<event>
 6    1  0.8017648E-006  0.4481561E+02  0.7818608E-02  0.1565364E+00
          2   -1    0    0  502    0  0.00000000000E+00  0.00000000000E+00  0.31484468885E+03  0.31484468885E+03  0.00000000000E+00 0.  1.
          1   -1    0    0  501    0 -0.00000000000E+00 -0.00000000000E+00 -0.13311881870E+03  0.13311881870E+03  0.00000000000E+00 0. -1.
          2    1    1    2  501    0 -0.11533602560E+02  0.16401599545E+02  0.20393656661E+03  0.20491988594E+03  0.00000000000E+00 0.  1.
          1    1    1    2  502    0  0.15620676805E+02 -0.26160570019E+02 -0.91719709139E+02  0.96648259230E+02  0.00000000000E+00 0. -1.
         22    1    1    2    0    0  0.16793086049E+01  0.21930738490E+02  0.10560356752E+03  0.10786978651E+03  0.00000000000E+00 0.  1.
         22    1    1    2    0    0 -0.57663828496E+01 -0.12171768016E+02 -0.36094554838E+02  0.38525575879E+02  0.00000000000E+00 0. -1.
</event>
<event>
 6    1  0.8017648E-006  0.6283445E+02  0.7818608E-02  0.1392777E+00
          2   -1    0    0  502    0  0.00000000000E+00  0.00000000000E+00  0.56563194754E+02  0.56563194754E+02  0.00000000000E+00 0.  1.
          1   -1    0    0  501    0 -0.00000000000E+00 -0.00000000000E+00 -0.22770682379E+03  0.22770682379E+03  0.00000000000E+00 0.  1.
          2    1    1    2  501    0 -0.54769647717E+01  0.22403722362E+02 -0.18315576981E+02  0.29451388404E+02  0.00000000000E+00 0.  1.
          1    1    1    2  502    0  0.59201601550E+02 -0.20518327093E+02 -0.60944462096E+02  0.87407430078E+02  0.00000000000E+00 0.  1.
         22    1    1    2    0    0 -0.58353510399E+02 -0.32052849896E+02 -0.11239852458E+03  0.13063669350E+03  0.00000000000E+00 0.  1.
         22    1    1    2    0    0  0.46288736209E+01  0.30167454628E+02  0.20514934623E+02  0.36774506554E+02  0.00000000000E+00 0.  1.
</event>
<event>
 6    1  0.8017648E-006  0.1290699E+03  0.7818608E-02  0.1302017E+00
          2   -1    0    0  502    0  0.00000000000E+00  0.00000000000E+00  0.22246272276E+03  0.22246272276E+03  0.00000000000E+00 0. -1.
          1   -1    0    0  501    0 -0.00000000000E+00 -0.00000000000E+00 -0.10183610665E+03  0.10183610665E+03  0.00000000000E+00 0. -1.
          2    1    1    2  501    0 -0.14803698084E+02  0.36010292946E+02  0.45057441676E+01  0.39194290471E+02  0.00000000000E+00 0. -1.
          1    1    1    2  502    0  0.44379881332E+02  0.36106587563E+02 -0.39975257395E+02  0.69794560936E+02  0.00000000000E+00 0. -1.
         22    1    1    2    0    0 -0.16998187800E+02 -0.43799778381E+02  0.17351587876E+03  0.17976406526E+03  0.00000000000E+00 0. -1.
         22    1    1    2    0    0 -0.12577995449E+02 -0.28317102128E+02 -0.17419749424E+02  0.35545912739E+02  0.00000000000E+00 0. -1.
</event>
<event>
 6    1  0.8017648E-006  0.7326686E+02  0.7818608E-02  0.1351508E+00
          2   -1    0    0  502    0  0.00000000000E+00  0.00000000000E+00  0.23626631874E+03  0.23626631874E+03  0.00000000000E+00 0. -1.
          1   -1    0    0  501    0 -0.00000000000E+00 -0.00000000000E+00 -0.98980433903E+02  0.98980433903E+02  0.00000000000E+00 0. -1.
          2    1    1    2  501    0 -0.44171370750E+02  0.28871502166E+01  0.11269951250E+03  0.12108107097E+03  0.00000000000E+00 0. -1.
          1    1    1    2  502    0  0.54575496739E+02 -0.29890460185E+01 -0.44467446519E+02  0.70461145608E+02  0.00000000000E+00 0. -1.
         22    1    1    2    0    0  0.14028717492E+02  0.94826767093E+00 -0.34525664613E+02  0.37279024169E+02  0.00000000000E+00 0. -1.
         22    1    1    2    0    0 -0.24432843482E+02 -0.84637186901E+00  0.10357948347E+03  0.10642551190E+03  0.00000000000E+00 0. -1.
</event>
<event>
 6    1  0.8017648E-006  0.8427240E+02  0.7818608E-02  0.1391187E+00
          2   -1    0    0  502    0  0.00000000000E+00  0.00000000000E+00  0.23597653553E+03  0.23597653553E+03  0.00000000000E+00 0.  1.
          1   -1    0    0  501    0 -0.00000000000E+00 -0.00000000000E+00 -0.80678763655E+02  0.80678763655E+02  0.00000000000E+00 0. -1.
          2    1    1    2  501    0 -0.19020435714E+02  0.27934418679E+02  0.94404189370E+02  0.10027093144E+03  0.00000000000E+00 0.  1.
          1    1    1    2  502    0  0.32697800907E+02 -0.56021170291E+02 -0.93050837034E+01  0.65529400178E+02  0.00000000000E+00 0. -1.
         22    1    1    2    0    0 -0.11463054123E+02  0.52062580023E+02  0.99529435736E+02  0.11290714072E+03  0.00000000000E+00 0.  1.
         22    1    1    2    0    0 -0.22143110702E+01 -0.23975828410E+02 -0.29330769523E+02  0.37947826846E+02  0.00000000000E+00 0.  1.
</event>
<event>
 6    1  0.8017648E-006  0.1390583E+03  0.7818608E-02  0.1218067E+00
          2   -1    0    0  502    0  0.00000000000E+00  0.00000000000E+00  0.41660569203E+03  0.41660569203E+03  0.00000000000E+00 0.  1.
          1   -1    0    0  501    0 -0.00000000000E+00 -0.00000000000E+00 -0.16636719342E+03  0.16636719342E+03  0.00000000000E+00 0.  1.
          2    1    1    2  501    0 -0.12967190109E+03 -0.99646405056E+02  0.27352113662E+03  0.31868169096E+03  0.00000000000E+00 0.  1.
          1    1    1    2  502    0 -0.16430401821E+01  0.82015384440E+02 -0.50941235865E+01  0.82189859234E+02  0.00000000000E+00 0.  1.
         22    1    1    2    0    0  0.14309729703E+03  0.18137468329E+02 -0.46402104591E+02  0.15152214190E+03  0.00000000000E+00 0.  1.
         22    1    1    2    0    0 -0.11782355762E+02 -0.50644771259E+00  0.28213590164E+02  0.30579193359E+02  0.00000000000E+00 0.  1.
</event>
<event>
 6    1  0.8017648E-006  0.2644708E+03  0.7818608E-02  0.1149890E+00
          2   -1    0    0  502    0  0.00000000000E+00  0.00000000000E+00  0.11552964371E+04  0.11552964371E+04  0.00000000000E+00 0. -1.
          1   -1    0    0  501    0 -0.00000000000E+00 -0.00000000000E+00 -0.24913630455E+03  0.24913630455E+03  0.00000000000E+00 0. -1.
          2    1    1    2  501    0  0.28407827591E+03 -0.74302198085E+01  0.12072667522E+03  0.30875654668E+03  0.00000000000E+00 0. -1.
          1    1    1    2  502    0 -0.24515617321E+03 -0.58338247480E+02  0.88247437506E+03  0.91775046883E+03  0.00000000000E+00 0. -1.
         22    1    1    2    0    0  0.14816104026E+02 -0.16110952376E+01  0.24650952098E+02  0.28805936987E+02  0.00000000000E+00 0. -1.
         22    1    1    2    0    0 -0.53738206721E+02  0.67379562526E+02 -0.12169186988E+03  0.14911978911E+03  0.00000000000E+00 0. -1.
</event>
<event>
 6    1  0.8017648E-006  0.8177281E+02  0.7818608E-02  0.1408329E+00
          2   -1    0    0  502    0  0.00000000000E+00  0.00000000000E+00  0.76513494061E+03  0.76513494061E+03  0.00000000000E+00 0. -1.
          1   -1    0    0  501    0 -0.00000000000E+00 -0.00000000000E+00 -0.57290265688E+02  0.57290265688E+02  0.00000000000E+00 0. -1.
          2    1    1    2  501    0  0.33138141893E+02  0.47178737851E+02  0.58316417192E+03  0.58600718525E+03  0.00000000000E+00 0. -1.
          1    1    1    2  502    0 -0.43550589737E+02 -0.49397194035E+02  0.10480166938E+02  0.66682610507E+02  0.00000000000E+00 0. -1.
         22    1    1    2    0    0  0.67741512564E+01  0.21973003453E+02  0.13724927305E+03  0.13916200975E+03  0.00000000000E+00 0.  1.
         22    1    1    2    0    0  0.36382965872E+01 -0.19754547269E+02 -0.23048936983E+02  0.30573400790E+02  0.00000000000E+00 0. -1.
</event>
<event>
 6    1  0.8017648E-006  0.1249574E+03  0.7818608E-02  0.1236269E+00
          2   -1    0    0  502    0  0.00000000000E+00  0.00000000000E+00  0.13049106809E+03  0.13049106809E+03  0.00000000000E+00 0. -1.
          1   -1    0    0  501    0 -0.00000000000E+00 -0.00000000000E+00 -0.35441122075E+03  0.35441122075E+03  0.00000000000E+00 0.  1.
          2    1    1    2  501    0 -0.75989176578E+02 -0.48058339415E+02  0.43111911189E+02  0.99712566062E+02  0.00000000000E+00 0. -1.
          1    1    1    2  502    0  0.88154231848E+02  0.49709085943E+02 -0.22866282645E+03  0.25005769338E+03  0.00000000000E+00 0.  1.
         22    1    1    2    0    0 -0.28670691335E+02 -0.62040660850E+01  0.42960091706E+02  0.52019885208E+02  0.00000000000E+00 0. -1.
         22    1    1    2    0    0  0.16505636066E+02  0.45533195567E+01 -0.81329329096E+02  0.83112144191E+02  0.00000000000E+00 0. -1.
</event>
<event>
 6    1  0.8017648E-006  0.7800437E+02  0.7818608E-02  0.1395556E+00
          2   -1    0    0  502    0  0.00000000000E+00  0.00000000000E+00  0.78426079353E+02  0.78426079353E+02  0.00000000000E+00 0. -1.
          1   -1    0    0  501    0 -0.00000000000E+00 -0.00000000000E+00 -0.26967550292E+03  0.26967550292E+03  0.00000000000E+00 0. -1.
          2    1    1    2  501    0 -0.51003385264E+02  0.37150434553E+01  0.17387997267E+02  0.54013788103E+02  0.00000000000E+00 0. -1.
          1    1    1    2  502    0  0.63710296179E+02  0.33479289293E+02 -0.10022484060E+03  0.12338915400E+03  0.00000000000E+00 0. -1.
         22    1    1    2    0    0 -0.23548103646E+02 -0.11040012876E+02  0.23941934080E+02  0.35349841260E+02  0.00000000000E+00 0. -1.
         22    1    1    2    0    0  0.10841192730E+02 -0.26154319872E+02 -0.13235451431E+03  0.13534879891E+03  0.00000000000E+00 0. -1.
</event>
<event>
 6    1  0.8017648E-006  0.3555654E+02  0.7818608E-02  0.1597299E+00
          2   -1    0    0  502    0  0.00000000000E+00  0.00000000000E+00  0.14825321942E+03  0.14825321942E+03  0.00000000000E+00 0.  1.
          1   -1    0    0  501    0 -0.00000000000E+00 -0.00000000000E+00 -0.14736878807E+03  0.14736878807E+03  0.00000000000E+00 0.  1.
          2    1    1    2  501    0  0.99698710235E+01  0.59910319193E+02  0.27695329747E+02  0.66750849911E+02  0.00000000000E+00 0.  1.
          1    1    1    2  502    0  0.16284516205E+02 -0.41623136454E+02  0.57120091907E+02  0.72528448596E+02  0.00000000000E+00 0.  1.
         22    1    1    2    0    0 -0.12862132219E+02  0.68502473310E+01  0.32956757186E+02  0.36034818966E+02  0.00000000000E+00 0.  1.
         22    1    1    2    0    0 -0.13392255010E+02 -0.25137430070E+02 -0.11688774749E+03  0.12030789001E+03  0.00000000000E+00 0.  1.
</event>
<event>
 6    1  0.8017648E-006  0.1708130E+03  0.7818608E-02  0.1252354E+00
          2   -1    0    0  502    0  0.00000000000E+00  0.00000000000E+00  0.10036467471E+04  0.10036467471E+04  0.00000000000E+00 0. -1.
          1   -1    0    0  501    0 -0.00000000000E+00 -0.00000000000E+00 -0.45727137816E+02  0.45727137816E+02  0.00000000000E+00 0.  1.
          2    1    1    2  501    0  0.75079157356E+02 -0.45327399193E+01  0.68731808436E+02  0.10188958284E+03  0.00000000000E+00 0. -1.
          1    1    1    2  502    0 -0.67023803536E+02  0.10001798610E+03  0.65151731670E+03  0.66254856558E+03  0.00000000000E+00 0.  1.
         22    1    1    2    0    0  0.17271353357E+02 -0.71974296679E+02  0.23915438105E+03  0.25034659375E+03  0.00000000000E+00 0. -1.
         22    1    1    2    0    0 -0.25326707177E+02 -0.23510949500E+02 -0.14838969459E+01  0.34589142704E+02  0.00000000000E+00 0.  1.
</event>
<event>
 6    1  0.8017648E-006  0.7736331E+02  0.7818608E-02  0.1354547E+00
          2   -1    0    0  502    0  0.00000000000E+00  0.00000000000E+00  0.16039864371E+03  0.16039864371E+03  0.00000000000E+00 0.  1.
          1   -1    0    0  501    0 -0.00000000000E+00 -0.00000000000E+00 -0.37565019573E+03  0.37565019573E+03  0.00000000000E+00 0.  1.
          2    1    1    2  501    0  0.40433644613E+02 -0.37625277148E+02  0.91057866722E+02  0.10649918398E+03  0.00000000000E+00 0.  1.
          1    1    1    2  502    0  0.80008594249E+01  0.68061745405E+02 -0.28017861028E+03  0.28843798051E+03  0.00000000000E+00 0.  1.
         22    1    1    2    0    0  0.78116737584E+01 -0.21561002123E+02  0.44694644853E+02  0.50234553228E+02  0.00000000000E+00 0.  1.
         22    1    1    2    0    0 -0.56246177796E+02 -0.88754661344E+01 -0.70825453312E+02  0.90877121723E+02  0.00000000000E+00 0. -1.
</event>
<event>
 6    1  0.8017648E-006  0.1036550E+03  0.7818608E-02  0.1280194E+00
          2   -1    0    0  502    0  0.00000000000E+00  0.00000000000E+00  0.55355171783E+03  0.55355171783E+03  0.00000000000E+00 0.  1.
          1   -1    0    0  501    0 -0.00000000000E+00 -0.00000000000E+00 -0.59224504983E+02  0.59224504983E+02  0.00000000000E+00 0.  1.
          2    1    1    2  501    0 -0.22864467486E+02  0.86084677885E+02  0.18075774563E+03  0.20151108715E+03  0.00000000000E+00 0.  1.
          1    1    1    2  502    0 -0.57253049668E+02  0.73734576887E+00  0.18510348369E+03  0.19375694839E+03  0.00000000000E+00 0.  1.
         22    1    1    2    0    0 -0.80365462045E+01 -0.18938513779E+02  0.10077254319E+03  0.10285114895E+03  0.00000000000E+00 0.  1.
         22    1    1    2    0    0  0.88154063358E+02 -0.67883509875E+02  0.27693440339E+02  0.11465703832E+03  0.00000000000E+00 0.  1.
</event>
<event>
 6    1  0.8017648E-006  0.1643272E+03  0.7818608E-02  0.1232008E+00
          2   -1    0    0  502    0  0.00000000000E+00  0.00000000000E+00  0.72900489992E+03  0.72900489992E+03  0.00000000000E+00 0.  1.
          1   -1    0    0  501    0 -0.00000000000E+00 -0.00000000000E+00 -0.77070223945E+02  0.77070223945E+02  0.00000000000E+00 0.  1.
          2    1    1    2  501    0  0.92304006675E+02 -0.77196784132E+02  0.12576328830E+03  0.17405682351E+03  0.00000000000E+00 0.  1.
          1    1    1    2  502    0 -0.70134320122E+02  0.13317079950E+03  0.45100223828E+03  0.47545378707E+03  0.00000000000E+00 0.  1.
         22    1    1    2    0    0  0.35377473722E+02 -0.66967452467E+02  0.58356305143E+02  0.95612047812E+02  0.00000000000E+00 0.  1.
         22    1    1    2    0    0 -0.57547160276E+02  0.10993437100E+02  0.16812844249E+02  0.60952465470E+02  0.00000000000E+00 0. -1.
</event>
<event>
 6    1  0.8017648E-006  0.1058635E+03  0.7818608E-02  0.1268615E+00
          2   -1    0    0  502    0  0.00000000000E+00  0.00000000000E+00  0.37879309654E+03  0.37879309654E+03  0.00000000000E+00 0. -1.
          1   -1    0    0  501    0 -0.00000000000E+00 -0.00000000000E+00 -0.52466486808E+02  0.52466486808E+02  0.00000000000E+00 0.  1.
          2    1    1    2  501    0 -0.56826674011E+01 -0.20310552701E+02  0.34207238472E+02  0.40186396003E+02  0.00000000000E+00 0. -1.
          1    1    1    2  502    0  0.29901405277E+02  0.72743333025E+02  0.14799083627E+02  0.80029365944E+02  0.00000000000E+00 0.  1.
         22    1    1    2    0    0 -0.47638369052E+02 -0.65517698966E+02  0.27185287175E+03  0.28366523750E+03  0.00000000000E+00 0. -1.
         22    1    1    2    0    0  0.23419631176E+02  0.13084918642E+02  0.54674158812E+01  0.27378583906E+02  0.00000000000E+00 0.  1.
</event>
<event>
 6    1  0.8017648E-006  0.3347554E+03  0.7818608E-02  0.1192260E+00
          2   -1    0    0  502    0  0.00000000000E+00  0.00000000000E+00  0.16457198447E+03  0.16457198447E+03  0.00000000000E+00 0. -1.
          1   -1    0    0  501    0 -0.00000000000E+00 -0.00000000000E+00 -0.80975672534E+03  0.80975672534E+03  0.00000000000E+00 0. -1.
          2    1    1    2  501    0 -0.15417750730E+02 -0.11644676669E+03 -0.25511597512E+02  0.12020148967E+03  0.00000000000E+00 0. -1.
          1    1    1    2  502    0  0.15065774091E+03  0.29331057186E+03 -0.40011579952E+03  0.51847998947E+03  0.00000000000E+00 0. -1.
         22    1    1    2    0    0 -0.88081544626E+01 -0.13534792734E+02 -0.90866043656E+02  0.92289826575E+02  0.00000000000E+00 0. -1.
         22    1    1    2    0    0 -0.12643183571E+03 -0.16332901243E+03 -0.12869130019E+03  0.24335740409E+03  0.00000000000E+00 0.  1.
</event>
<event>
 6    1  0.8017648E-006  0.7983767E+02  0.7818608E-02  0.1442059E+00
          2   -1    0    0  502    0  0.00000000000E+00  0.00000000000E+00  0.75238404405E+02  0.75238404405E+02  0.00000000000E+00 0. -1.
          1   -1    0    0  501    0 -0.00000000000E+00 -0.00000000000E+00 -0.19562444163E+03  0.19562444163E+03  0.00000000000E+00 0. -1.
          2    1    1    2  501    0 -0.33547037431E+01 -0.28296921686E+02 -0.62107341480E+01  0.29164070923E+02  0.00000000000E+00 0. -1.
          1    1    1    2  502    0 -0.16720193311E+02  0.41813161600E+02 -0.10831585098E+03  0.11730400215E+03  0.00000000000E+00 0. -1.
         22    1    1    2    0    0  0.30260073915E+02 -0.21426060616E+02  0.52697698186E+02  0.64434428227E+02  0.00000000000E+00 0. -1.
         22    1    1    2    0    0 -0.10185176861E+02  0.79098207017E+01 -0.58557150278E+02  0.59960344728E+02  0.00000000000E+00 0. -1.
</event>
<event>
 6    1  0.8017648E-006  0.2093608E+03  0.7818608E-02  0.1247685E+00
          2   -1    0    0  502    0  0.00000000000E+00  0.00000000000E+00  0.74127664172E+03  0.74127664172E+03  0.00000000000E+00 0.  1.
          1   -1    0    0  501    0 -0.00000000000E+00 -0.00000000000E+00 -0.29325005566E+03  0.29325005566E+03  0.00000000000E+00 0. -1.
          2    1    1    2  501    0  0.28298141608E+03 -0.65625498072E+02  0.39503959308E+03  0.49034831288E+03  0.00000000000E+00 0.  1.
          1    1    1    2  502    0 -0.30720798810E+03 -0.93346136082E+02 -0.30337850212E+02  0.32250679718E+03  0.00000000000E+00 0. -1.
         22    1    1    2    0    0  0.15651739264E+02  0.14702998924E+03  0.11444202063E+02  0.14830294818E+03  0.00000000000E+00 0. -1.
         22    1    1    2    0    0  0.85748327521E+01  0.11941644912E+02  0.71880641125E+02  0.73368639135E+02  0.00000000000E+00 0.  1.
</event>
<event>
 6    1  0.8017648E-006  0.5616424E+02  0.7818608E-02  0.1480582E+00
          2   -1    0    0  502    0  0.00000000000E+00  0.00000000000E+00  0.25757760990E+03  0.25757760990E+03  0.00000000000E+00 0. -1.
          1   -1    0    0  501    0 -0.00000000000E+00 -0.00000000000E+00 -0.18195827834E+03  0.18195827834E+03  0.00000000000E+00 0. -1.
          2    1    1    2  501    0 -0.81856494116E+02  0.56827087833E+01 -0.42493383803E+02  0.92403822838E+02  0.00000000000E+00 0. -1.
          1    1    1    2  502    0  0.88432184272E+02  0.30346708817E+02  0.18113564079E+03  0.20384134594E+03  0.00000000000E+00 0. -1.
         22    1    1    2    0    0 -0.22808725430E+02 -0.39245810107E+02  0.26291055094E+02  0.52456564362E+02  0.00000000000E+00 0. -1.
         22    1    1    2    0    0  0.16233035275E+02  0.32163925067E+01 -0.89313980521E+02  0.90834155093E+02  0.00000000000E+00 0. -1.
</event>
<event>
 6    1  0.8017648E-006  0.1540483E+03  0.7818608E-02  0.1235762E+00
          2   -1    0    0  502    0  0.00000000000E+00  0.00000000000E+00  0.31275789167E+03  0.31275789167E+03  0.00000000000E+00 0. -1.
          1   -1    0    0  501    0 -0.00000000000E+00 -0.00000000000E+00 -0.35339405718E+03  0.35339405718E+03  0.00000000000E+00 0. -1.
          2    1    1    2  501    0  0.38999538631E+02  0.59641608474E+02 -0.92690550134E+02  0.11691716537E+03  0.00000000000E+00 0. -1.
          1    1    1    2  502    0 -0.15116526681E+03 -0.66760760275E+02 -0.19060460881E+03  0.25226583974E+03  0.00000000000E+00 0. -1.
         22    1    1    2    0    0  0.61005610374E+02  0.48569054762E+02  0.20889042830E+03  0.22297051063E+03  0.00000000000E+00 0. -1.
         22    1    1    2    0    0  0.51160117801E+02 -0.41449902960E+02  0.33768565146E+02  0.73998433097E+02  0.00000000000E+00 0. -1.
</event>
<event>
 6    1  0.8017648E-006  0.1517365E+03  0.7818608E-02  0.1304008E+00
          2   -1    0    0  502    0  0.00000000000E+00  0.00000000000E+00  0.39890879001E+02  0.39890879001E+02  0.00000000000E+00 0. -1.
          1   -1    0    0  501    0 -0.00000000000E+00 -0.00000000000E+00 -0.72661796779E+03  0.72661796779E+03  0.00000000000E+00 0.  1.
          2    1    1    2  501    0  0.11555872462E+02  0.17105913502E+02 -0.13575082367E+03  0.13731145834E+03  0.00000000000E+00 0. -1.
          1    1    1    2  502    0 -0.53293477752E+02 -0.43976310457E+02 -0.45567753752E+03  0.46088624285E+03  0.00000000000E+00 0.  1.
         22    1    1    2    0    0 -0.13440743873E+02  0.12545678121E+02 -0.10829200033E+03  0.10984172691E+03  0.00000000000E+00 0.  1.
         22    1    1    2    0    0  0.55178349163E+02  0.14324718833E+02  0.12993272722E+02  0.58469418691E+02  0.00000000000E+00 0. -1.
</event>
<event>
 6    1  0.8017648E-006  0.3754160E+03  0.7818608E-02  0.1104771E+00
          2   -1    0    0  502    0  0.00000000000E+00  0.00000000000E+00  0.37406438187E+04  0.37406438187E+04  0.00000000000E+00 0. -1.
          1   -1    0    0  501    0 -0.00000000000E+00 -0.00000000000E+00 -0.44251214046E+02  0.44251214046E+02  0.00000000000E+00 0. -1.
          2    1    1    2  501    0  0.61996310483E+02 -0.18960399621E+03  0.20049534026E+04  0.20148526905E+04  0.00000000000E+00 0. -1.
          1    1    1    2  502    0 -0.22100673233E+03  0.47575415234E+02  0.11925956432E+04  0.12138334993E+04  0.00000000000E+00 0. -1.
         22    1    1    2    0    0  0.88302965793E+02  0.83499192416E+02  0.41308555327E+03  0.43059168968E+03  0.00000000000E+00 0. -1.
         22    1    1    2    0    0  0.70707456054E+02  0.58529388564E+02  0.85758005610E+02  0.12561715326E+03  0.00000000000E+00 0. -1.
</event>
<event>
 6    1  0.8017648E-006  0.5178803E+02  0.7818608E-02  0.1438937E+00
          2   -1    0    0  502    0  0.00000000000E+00  0.00000000000E+00  0.20996113195E+03  0.20996113195E+03  0.00000000000E+00 0.  1.
          1   -1    0    0  501    0 -0.00000000000E+00 -0.00000000000E+00 -0.10554727609E+03  0.10554727609E+03  0.00000000000E+00 0. -1.
          2    1    1    2  501    0  0.14610292583E+01  0.28263839123E+02  0.13772039739E+03  0.14059831815E+03  0.00000000000E+00 0.  1.
          1    1    1    2  502    0  0.89509913993E+00 -0.30231722691E+02 -0.40666655435E+02  0.50680717473E+02  0.00000000000E+00 0. -1.
         22    1    1    2    0    0 -0.51462600188E+01 -0.17944438650E+02 -0.55329677304E+02  0.58394007066E+02  0.00000000000E+00 0. -1.
         22    1    1    2    0    0  0.27901316206E+01  0.19912322217E+02  0.62689791206E+02  0.65835365360E+02  0.00000000000E+00 0.  1.
</event>
<event>
 6    1  0.8017648E-006  0.2739187E+02  0.7818608E-02  0.1708031E+00
          2   -1    0    0  502    0  0.00000000000E+00  0.00000000000E+00  0.12923097810E+03  0.12923097810E+03  0.00000000000E+00 0. -1.
          1   -1    0    0  501    0 -0.00000000000E+00 -0.00000000000E+00 -0.81504673758E+02  0.81504673758E+02  0.00000000000E+00 0. -1.
          2    1    1    2  501    0  0.19656316141E+02  0.29131370441E+02  0.27709286893E+02  0.44752788607E+02  0.00000000000E+00 0. -1.
          1    1    1    2  502    0 -0.19890225092E+02  0.70067331425E+01 -0.19325071580E+02  0.28603736734E+02  0.00000000000E+00 0. -1.
         22    1    1    2    0    0 -0.67103171339E+01 -0.92460515037E+01 -0.46121686939E+02  0.47515553565E+02  0.00000000000E+00 0. -1.
         22    1    1    2    0    0  0.69442260852E+01 -0.26892052080E+02  0.85463775966E+02  0.89863572950E+02  0.00000000000E+00 0. -1.
</event>
<event>
 6    1  0.8017648E-006  0.1249914E+03  0.7818608E-02  0.1365976E+00
          2   -1    0    0  502    0  0.00000000000E+00  0.00000000000E+00  0.68881474323E+03  0.68881474323E+03  0.00000000000E+00 0. -1.
          1   -1    0    0  501    0 -0.00000000000E+00 -0.00000000000E+00 -0.31868608731E+02  0.31868608731E+02  0.00000000000E+00 0. -1.
          2    1    1    2  501    0 -0.31847075688E+02  0.43538906399E+02  0.19915279887E+03  0.20632913003E+03  0.00000000000E+00 0. -1.
          1    1    1    2  502    0 -0.16812851376E+02 -0.90056985440E+02  0.23051651367E+03  0.24805401765E+03  0.00000000000E+00 0. -1.
         22    1    1    2    0    0 -0.84789356910E+01  0.72303485740E+01 -0.12471973533E+02  0.16724844237E+02  0.00000000000E+00 0.  1.
         22    1    1    2    0    0  0.57138862754E+02  0.39287730466E+02  0.23974879549E+03  0.24957536004E+03  0.00000000000E+00 0. -1.
</event>
<event>
 6    1  0.8017648E-006  0.1399432E+03  0.7818608E-02  0.1255461E+00
          2   -1    0    0  502    0  0.00000000000E+00  0.00000000000E+00  0.94088197278E+03  0.94088197278E+03  0.00000000000E+00 0. -1.
          1   -1    0    0  501    0 -0.00000000000E+00 -0.00000000000E+00 -0.12590537911E+03  0.12590537911E+03  0.00000000000E+00 0. -1.
          2    1    1    2  501    0  0.23914238914E+03 -0.11828174507E+03  0.39667969927E+03  0.47805275579E+03  0.00000000000E+00 0. -1.
          1    1    1    2  502    0 -0.26515264129E+03  0.76153644809E+02  0.25627332775E+03  0.37653860269E+03  0.00000000000E+00 0. -1.
         22    1    1    2    0    0  0.75894769960E+01 -0.29424542847E+02  0.12671379309E+03  0.13030652033E+03  0.00000000000E+00 0.  1.
         22    1    1    2    0    0  0.18420775154E+02  0.71552643109E+02  0.35309773554E+02  0.81889473082E+02  0.00000000000E+00 0. -1.
</event>
<event>
 6    1  0.8017648E-006  0.1096480E+03  0.7818608E-02  0.1340291E+00
          2   -1    0    0  502    0  0.00000000000E+00  0.00000000000E+00  0.30267936979E+03  0.30267936979E+03  0.00000000000E+00 0.  1.
          1   -1    0    0  501    0 -0.00000000000E+00 -0.00000000000E+00 -0.20869606050E+03  0.20869606050E+03  0.00000000000E+00 0.  1.
          2    1    1    2  501    0 -0.29911501380E+02  0.21788974890E+02  0.62351936097E+02  0.72506698150E+02  0.00000000000E+00 0.  1.
          1    1    1    2  502    0  0.83508756491E+02 -0.72477379912E+02 -0.16093343887E+03  0.19525945498E+03  0.00000000000E+00 0.  1.
         22    1    1    2    0    0 -0.22854718034E+02 -0.11383418906E+02 -0.11577821668E+02  0.28035090814E+02  0.00000000000E+00 0. -1.
         22    1    1    2    0    0 -0.30742537078E+02  0.62071823929E+02  0.20414263374E+03  0.21557418635E+03  0.00000000000E+00 0.  1.
</event>
<event>
 6    1  0.8017648E-006  0.1310631E+03  0.7818608E-02  0.1330858E+00
          2   -1    0    0  502    0  0.00000000000E+00  0.00000000000E+00  0.40057765081E+03  0.40057765081E+03  0.00000000000E+00 0. -1.
          1   -1    0    0  501    0 -0.00000000000E+00 -0.00000000000E+00 -0.51468856502E+02  0.51468856502E+02  0.00000000000E+00 0.  1.
          2    1    1    2  501    0  0.22147433880E+02 -0.41373025737E+02  0.67772031006E+02  0.82433514257E+02  0.00000000000E+00 0. -1.
          1    1    1    2  502    0 -0.79480103155E+02  0.46845502731E+01  0.42349294166E+02  0.90180344450E+02  0.00000000000E+00 0.  1.
         22    1    1    2    0    0 -0.17443877274E+02  0.25165354010E+01 -0.78277581476E+01  0.19284594950E+02  0.00000000000E+00 0. -1.
         22    1    1    2    0    0  0.74776546549E+02  0.34171940062E+02  0.24681522729E+03  0.26014805366E+03  0.00000000000E+00 0.  1.
</event>
<event>
 6    1  0.2434111E-005  0.4796808E+02  0.7818608E-02  0.1513237E+00
          2   -1    0    0  502    0  0.00000000000E+00  0.00000000000E+00  0.72553253933E+03  0.72553253933E+03  0.00000000000E+00 0. -1.
          1   -1    0    0  501    0 -0.00000000000E+00 -0.00000000000E+00 -0.13756871845E+04  0.13756871845E+04  0.00000000000E+00 0. -1.
          2    1    1    2  501    0 -0.97256112042E+02 -0.28482524784E+02  0.68825078352E+03  0.69567172328E+03  0.00000000000E+00 0. -1.
          1    1    1    2  502    0  0.11113006601E+03  0.37473943176E+02 -0.12307964788E+04  0.12363713682E+04  0.00000000000E+00 0. -1.
         22    1    1    2    0    0 -0.12460776055E+02 -0.19247081418E+02 -0.13653861389E+03  0.13845040327E+03  0.00000000000E+00 0. -1.
         22    1    1    2    0    0 -0.14131779144E+01  0.10255663026E+02  0.28929663958E+02  0.30726229067E+02  0.00000000000E+00 0. -1.
</event>
<event>
 6    1  0.8017648E-006  0.9379668E+02  0.7818608E-02  0.1351974E+00
          2   -1    0    0  502    0  0.00000000000E+00  0.00000000000E+00  0.66885235456E+03  0.66885235456E+03  0.00000000000E+00 0. -1.
          1   -1    0    0  501    0 -0.00000000000E+00 -0.00000000000E+00 -0.48703760161E+02  0.48703760161E+02  0.00000000000E+00 0. -1.
          2    1    1    2  501    0 -0.75040217177E+02  0.13888032617E+02  0.34784158367E+03  0.35611469919E+03  0.00000000000E+00 0. -1.
          1    1    1    2  502    0  0.77485802430E+02 -0.31069143688E+02  0.18874326913E+03  0.20638159537E+03  0.00000000000E+00 0. -1.
         22    1    1    2    0    0 -0.19474955260E+02 -0.11524954078E+02  0.11011110474E+03  0.11241242741E+03  0.00000000000E+00 0.  1.
         22    1    1    2    0    0  0.17029370008E+02  0.28706065149E+02 -0.26547363139E+02  0.42647392756E+02  0.00000000000E+00 0. -1.
</event>
<event>
 6    1  0.8017648E-006  0.3284490E+03  0.7818608E-02  0.1149950E+00
          2   -1    0    0  502    0  0.00000000000E+00  0.00000000000E+00  0.11898332755E+04  0.11898332755E+04  0.00000000000E+00 0. -1.
          1   -1    0    0  501    0 -0.00000000000E+00 -0.00000000000E+00 -0.27058070152E+03  0.27058070152E+03  0.00000000000E+00 0. -1.
          2    1    1    2  501    0  0.18213885530E+03  0.19674157639E+03 -0.11415426568E+03  0.29139836455E+03  0.00000000000E+00 0. -1.
          1    1    1    2  502    0 -0.21453628169E+03 -0.21611272391E+03  0.98164932539E+03  0.10277966354E+04  0.00000000000E+00 0. -1.
         22    1    1    2    0    0  0.77289012692E+02  0.21254219204E+02  0.11667967410E+02  0.81002930690E+02  0.00000000000E+00 0. -1.
         22    1    1    2    0    0 -0.44891586307E+02 -0.18830716793E+01  0.40089546857E+02  0.60216046427E+02  0.00000000000E+00 0.  1.
</event>
<event>
 6    1  0.8017648E-006  0.7725495E+02  0.7818608E-02  0.1339598E+00
          2   -1    0    0  502    0  0.00000000000E+00  0.00000000000E+00  0.28323496695E+03  0.28323496695E+03  0.00000000000E+00 0. -1.
          1   -1    0    0  501    0 -0.00000000000E+00 -0.00000000000E+00 -0.11300501309E+03  0.11300501309E+03  0.00000000000E+00 0.  1.
          2    1    1    2  501    0 -0.39383614193E+02  0.33504597239E+02  0.15659978653E+03  0.16491549426E+03  0.00000000000E+00 0. -1.
          1    1    1    2  502    0  0.21650936522E+02 -0.49574479443E+02 -0.60041948202E+02  0.80817248210E+02  0.00000000000E+00 0.  1.
         22    1    1    2    0    0  0.16520788651E+02 -0.83141697326E+01 -0.34752739149E+02  0.39367686678E+02  0.00000000000E+00 0.  1.
         22    1    1    2    0    0  0.12118890191E+01  0.24384051937E+02  0.10842485468E+03  0.11113955090E+03  0.00000000000E+00 0.  1.
</event>
<event>
 6    1  0.8017648E-006  0.1024664E+03  0.7818608E-02  0.1309461E+00
          2   -1    0    0  502    0  0.00000000000E+00  0.00000000000E+00  0.96182618088E+03  0.96182618088E+03  0.00000000000E+00 0. -1.
          1   -1    0    0  501    0 -0.00000000000E+00 -0.00000000000E+00 -0.26620160052E+02  0.26620160052E+02  0.00000000000E+00 0. -1.
          2    1    1    2  501    0 -0.44980338202E+02 -0.28179911842E+02  0.30005459534E+03  0.30471314124E+03  0.00000000000E+00 0. -1.
          1    1    1    2  502    0  0.10534693256E+03 -0.23395779914E+02  0.30603375737E+03  0.32450269547E+03  0.00000000000E+00 0. -1.
         22    1    1    2    0    0 -0.10777369865E+02  0.52967506076E+02  0.43628881748E+02  0.69463571199E+02  0.00000000000E+00 0.  1.
         22    1    1    2    0    0 -0.49589224494E+02 -0.13918143197E+01  0.28548878636E+03  0.28976693302E+03  0.00000000000E+00 0. -1.
</event>
<event>
 6    1  0.8017648E-006  0.6951406E+02  0.7818608E-02  0.1377008E+00
          2   -1    0    0  502    0  0.00000000000E+00  0.00000000000E+00  0.91243900728E+02  0.91243900728E+02  0.00000000000E+00 0. -1.
          1   -1    0    0  501    0 -0.00000000000E+00 -0.00000000000E+00 -0.39226450598E+03  0.39226450598E+03  0.00000000000E+00 0.  1.
          2    1    1    2  501    0 -0.24639610685E+02  0.32954843387E+02  0.57418097368E+02  0.70639719866E+02  0.00000000000E+00 0. -1.
          1    1    1    2  502    0  0.55111917966E+02 -0.49418748315E+01 -0.19202875384E+03  0.19984190735E+03  0.00000000000E+00 0.  1.
         22    1    1    2    0    0 -0.12447048112E+02  0.22875553657E+02  0.10487273491E+02  0.28074950883E+02  0.00000000000E+00 0. -1.
         22    1    1    2    0    0 -0.18025259170E+02 -0.50888522212E+02 -0.17689722227E+03  0.18495182861E+03  0.00000000000E+00 0.  1.
</event>
<event>
 6    1  0.8017648E-006  0.1210662E+03  0.7818608E-02  0.1283520E+00
          2   -1    0    0  502    0  0.00000000000E+00  0.00000000000E+00  0.45543756397E+02  0.45543756397E+02  0.00000000000E+00 0.  1.
          1   -1    0    0  501    0 -0.00000000000E+00 -0.00000000000E+00 -0.72847704160E+03  0.72847704160E+03  0.00000000000E+00 0. -1.
          2    1    1    2  501    0  0.77450255682E+01  0.67695811566E+02 -0.83168249080E+02  0.10751588710E+03  0.00000000000E+00 0.  1.
          1    1    1    2  502    0 -0.57367629436E+02 -0.77590081304E+02 -0.46536752999E+03  0.47526645536E+03  0.00000000000E+00 0. -1.
         22    1    1    2    0    0  0.48723989637E+02 -0.20884338035E+02 -0.14827323301E+03  0.15746470832E+03  0.00000000000E+00 0.  1.
         22    1    1    2    0    0  0.89861423058E+00  0.30778607773E+02  0.13875726874E+02  0.33773747205E+02  0.00000000000E+00 0.  1.
</event>
<event>
 6    1  0.8017648E-006  0.5803793E+02  0.7818608E-02  0.1508213E+00
          2   -1    0    0  502    0  0.00000000000E+00  0.00000000000E+00  0.22151082838E+03  0.22151082838E+03  0.00000000000E+00 0.  1.
          1   -1    0    0  501    0 -0.00000000000E+00 -0.00000000000E+00 -0.10717689612E+03  0.10717689612E+03  0.00000000000E+00 0.  1.
          2    1    1    2  501    0 -0.38866307361E+02 -0.19922723631E+00  0.11934097965E+03  0.12551055320E+03  0.00000000000E+00 0.  1.
          1    1    1    2  502    0  0.45052133041E+02 -0.97958243738E+00 -0.50893747278E+02  0.67976670890E+02  0.00000000000E+00 0.  1.
         22    1    1    2    0    0  0.12546118332E+02  0.37505383904E+01 -0.42677105973E+02  0.44640866900E+02  0.00000000000E+00 0. -1.
         22    1    1    2    0    0 -0.18731944012E+02 -0.25717287167E+01  0.88563805854E+02  0.90559633515E+02  0.00000000000E+00 0.  1.
</event>
<event>
 6    1  0.8017648E-006  0.9689844E+02  0.7818608E-02  0.1316188E+00
          2   -1    0    0  502    0  0.00000000000E+00  0.00000000000E+00  0.20251678056E+04  0.20251678056E+04  0.00000000000E+00 0. -1.
          1   -1    0    0  501    0 -0.00000000000E+00 -0.00000000000E+00 -0.12327642531E+03  0.12327642531E+03  0.00000000000E+00 0. -1.
          2    1    1    2  501    0  0.10071394416E+03  0.34341531746E+03  0.13722630077E+04  0.14181618882E+04  0.00000000000E+00 0. -1.
          1    1    1    2  502    0 -0.12075178111E+03 -0.35671891177E+03  0.41658125437E+03  0.56157752462E+03  0.00000000000E+00 0. -1.
         22    1    1    2    0    0  0.25709294712E+02 -0.55942229406E+00  0.13757907690E+03  0.13996172044E+03  0.00000000000E+00 0.  1.
         22    1    1    2    0    0 -0.56714577555E+01  0.13863016608E+02 -0.24531958719E+02  0.28743097626E+02  0.00000000000E+00 0.  1.
</event>
<event>
 6    1  0.8017648E-006  0.4828717E+03  0.7818608E-02  0.1081678E+00
          2   -1    0    0  502    0  0.00000000000E+00  0.00000000000E+00  0.25197668289E+04  0.25197668289E+04  0.00000000000E+00 0. -1.
          1   -1    0    0  501    0 -0.00000000000E+00 -0.00000000000E+00 -0.11224706834E+03  0.11224706834E+03  0.00000000000E+00 0. -1.
          2    1    1    2  501    0 -0.10585942207E+03 -0.43908990739E+03  0.83098052542E+03  0.94579849738E+03  0.00000000000E+00 0. -1.
          1    1    1    2  502    0  0.13570217421E+03  0.44641856338E+03  0.11857494927E+04  0.12742474144E+04  0.00000000000E+00 0. -1.
         22    1    1    2    0    0  0.40551220903E+02  0.28837456549E+02  0.12164014339E+03  0.13142421733E+03  0.00000000000E+00 0.  1.
         22    1    1    2    0    0 -0.70393973050E+02 -0.36166112541E+02  0.26914959912E+03  0.28054376814E+03  0.00000000000E+00 0.  1.
</event>
<event>
 6    1  0.8017648E-006  0.2016499E+02  0.7818608E-02  0.1776922E+00
          2   -1    0    0  502    0  0.00000000000E+00  0.00000000000E+00  0.53221746496E+02  0.53221746496E+02  0.00000000000E+00 0.  1.
          1   -1    0    0  501    0 -0.00000000000E+00 -0.00000000000E+00 -0.17623137513E+03  0.17623137513E+03  0.00000000000E+00 0. -1.
          2    1    1    2  501    0 -0.23059958003E+02  0.50059272404E+01 -0.67363763411E+01  0.24539758288E+02  0.00000000000E+00 0.  1.
          1    1    1    2  502    0  0.16499953414E+02 -0.13673179779E+02 -0.69931773134E+02  0.73141350833E+02  0.00000000000E+00 0. -1.
         22    1    1    2    0    0  0.15067406402E+02  0.24896868249E+01 -0.87740075270E+02  0.89059227958E+02  0.00000000000E+00 0. -1.
         22    1    1    2    0    0 -0.85074018130E+01  0.61775657137E+01  0.41398596112E+02  0.42712784547E+02  0.00000000000E+00 0.  1.
</event>
<event>
 6    1  0.8017648E-006  0.4190459E+02  0.7818608E-02  0.1529260E+00
          2   -1    0    0  502    0  0.00000000000E+00  0.00000000000E+00  0.36257476664E+03  0.36257476664E+03  0.00000000000E+00 0. -1.
          1   -1    0    0  501    0 -0.00000000000E+00 -0.00000000000E+00 -0.93300886524E+02  0.93300886524E+02  0.00000000000E+00 0. -1.
          2    1    1    2  501    0 -0.23062320056E+02  0.10310793896E+02  0.27226574114E+03  0.27343521514E+03  0.00000000000E+00 0. -1.
          1    1    1    2  502    0  0.13243345288E+02  0.20212051387E+02  0.40380616283E+02  0.47058552752E+02  0.00000000000E+00 0. -1.
         22    1    1    2    0    0  0.17468267545E+02 -0.19583031298E+02 -0.86417781414E+02  0.90314275894E+02  0.00000000000E+00 0. -1.
         22    1    1    2    0    0 -0.76492927776E+01 -0.10939813984E+02  0.43045304108E+02  0.45067609386E+02  0.00000000000E+00 0.  1.
</event>
<event>
 6    1  0.8017648E-006  0.4261443E+02  0.7818608E-02  0.1560762E+00
          2   -1    0    0  502    0  0.00000000000E+00  0.00000000000E+00  0.20444802883E+03  0.20444802883E+03  0.00000000000E+00 0.  1.
          1   -1    0    0  501    0 -0.00000000000E+00 -0.00000000000E+00 -0.24418582017E+03  0.24418582017E+03  0.00000000000E+00 0.  1.
          2    1    1    2  501    0 -0.75304823985E+01  0.51682846130E+02  0.13641321951E+03  0.14606981621E+03  0.00000000000E+00 0.  1.
          1    1    1    2  502    0  0.17141263075E+02 -0.76872506247E+02 -0.15690618551E+03  0.17556410842E+03  0.00000000000E+00 0.  1.
         22    1    1    2    0    0  0.13807472042E+02 -0.27725222483E+01  0.48259441357E+02  0.50272326820E+02  0.00000000000E+00 0. -1.
         22    1    1    2    0    0 -0.23418252719E+02  0.27962182365E+02 -0.67504266697E+02  0.76727597547E+02  0.00000000000E+00 0. -1.
</event>
<event>
 6    1  0.8017648E-006  0.4195777E+03  0.7818608E-02  0.1038979E+00
          2   -1    0    0  502    0  0.00000000000E+00  0.00000000000E+00  0.63507367367E+03  0.63507367367E+03  0.00000000000E+00 0.  1.
          1   -1    0    0  501    0 -0.00000000000E+00 -0.00000000000E+00 -0.50560900089E+03  0.50560900089E+03  0.00000000000E+00 0. -1.
          2    1    1    2  501    0 -0.36071993711E+03 -0.83672468237E+02  0.41658725635E+03  0.55737321170E+03  0.00000000000E+00 0.  1.
          1    1    1    2  502    0  0.30839250892E+03  0.14474560142E+03 -0.26930408417E+03  0.43426019670E+03  0.00000000000E+00 0. -1.
         22    1    1    2    0    0 -0.16191493775E+02 -0.21984169192E+02  0.41968427640E+02  0.50068124434E+02  0.00000000000E+00 0.  1.
         22    1    1    2    0    0  0.68518921967E+02 -0.39088963994E+02 -0.59786927040E+02  0.98981141732E+02  0.00000000000E+00 0.  1.
</event>
<event>
 6    1  0.8017648E-006  0.1522950E+03  0.7818608E-02  0.1244558E+00
          2   -1    0    0  502    0  0.00000000000E+00  0.00000000000E+00  0.39577388389E+03  0.39577388389E+03  0.00000000000E+00 0.  1.
          1   -1    0    0  501    0 -0.00000000000E+00 -0.00000000000E+00 -0.87343927313E+02  0.87343927313E+02  0.00000000000E+00 0. -1.
          2    1    1    2  501    0 -0.51378445419E+02  0.92284270912E+01  0.18885804284E+03  0.19593945204E+03  0.00000000000E+00 0.  1.
          1    1    1    2  502    0 -0.76959543624E+02 -0.26384253942E+02  0.56597871829E+02  0.99107110272E+02  0.00000000000E+00 0. -1.
         22    1    1    2    0    0  0.73253844017E+02  0.31803768847E+02  0.93864610663E+02  0.12324029581E+03  0.00000000000E+00 0. -1.
         22    1    1    2    0    0  0.55084145026E+02 -0.14647941997E+02 -0.30890568764E+02  0.64830953074E+02  0.00000000000E+00 0. -1.
</event>
<event>
 6    1  0.8017648E-006  0.1920826E+03  0.7818608E-02  0.1229905E+00
          2   -1    0    0  502    0  0.00000000000E+00  0.00000000000E+00  0.21117019116E+02  0.21117019116E+02  0.00000000000E+00 0.  1.
          1   -1    0    0  501    0 -0.00000000000E+00 -0.00000000000E+00 -0.10420617509E+04  0.10420617509E+04  0.00000000000E+00 0. -1.
          2    1    1    2  501    0 -0.26248874502E+02 -0.34598247904E+02 -0.64084173122E+03  0.64231158065E+03  0.00000000000E+00 0.  1.
          1    1    1    2  502    0  0.46595519751E+02  0.14955726537E+02 -0.12797461967E+03  0.13701211441E+03  0.00000000000E+00 0. -1.
         22    1    1    2    0    0 -0.55786640243E+02  0.50972840125E+01 -0.41359111213E+02  0.69632661978E+02  0.00000000000E+00 0.  1.
         22    1    1    2    0    0  0.35439994993E+02  0.14545237354E+02 -0.21076926967E+03  0.21422241296E+03  0.00000000000E+00 0. -1.
</event>
<event>
 6    1  0.8017648E-006  0.5048482E+02  0.7818608E-02  0.1501924E+00
          2   -1    0    0  502    0  0.00000000000E+00  0.00000000000E+00  0.26130825439E+03  0.26130825439E+03  0.00000000000E+00 0.  1.
          1   -1    0    0  501    0 -0.00000000000E+00 -0.00000000000E+00 -0.80081925308E+02  0.80081925308E+02  0.00000000000E+00 0.  1.
          2    1    1    2  501    0  0.11938646062E+02  0.19501042292E+02  0.16238554236E+03  0.16398745772E+03  0.00000000000E+00 0.  1.
          1    1    1    2  502    0 -0.33414338842E+00 -0.41406028361E+02 -0.20756161890E+02  0.46318345101E+02  0.00000000000E+00 0.  1.
         22    1    1    2    0    0  0.10059219827E+02  0.22701159308E+02  0.80798545063E+02  0.84527719843E+02  0.00000000000E+00 0. -1.
         22    1    1    2    0    0 -0.21663722501E+02 -0.79617323832E+00 -0.41201596451E+02  0.46556657038E+02  0.00000000000E+00 0.  1.
</event>
<event>
 6    1  0.8017648E-006  0.1610113E+03  0.7818608E-02  0.1232037E+00
          2   -1    0    0  502    0  0.00000000000E+00  0.00000000000E+00  0.70696618206E+03  0.70696618206E+03  0.00000000000E+00 0. -1.
          1   -1    0    0  501    0 -0.00000000000E+00 -0.00000000000E+00 -0.43281958345E+02  0.43281958345E+02  0.00000000000E+00 0.  1.
          2    1    1    2  501    0 -0.56012923509E+02  0.14589517951E+02  0.96121539919E+02  0.11220361879E+03  0.00000000000E+00 0. -1.
          1    1    1    2  502    0 -0.40271026595E+02  0.70585159165E+02  0.67140633807E+02  0.10541292608E+03  0.00000000000E+00 0.  1.
         22    1    1    2    0    0  0.27013503319E+02 -0.56077615006E+02  0.62130044381E+02  0.87946408005E+02  0.00000000000E+00 0. -1.
         22    1    1    2    0    0  0.69270446785E+02 -0.29097062111E+02  0.43829200561E+03  0.44468518752E+03  0.00000000000E+00 0. -1.
</event>
<event>
 6    1  0.8017648E-006  0.8133483E+02  0.7818608E-02  0.1369653E+00
          2   -1    0    0  502    0  0.00000000000E+00  0.00000000000E+00  0.12174124475E+03  0.12174124475E+03  0.00000000000E+00 0.  1.
          1   -1    0    0  501    0 -0.00000000000E+00 -0.00000000000E+00 -0.17704392882E+04  0.17704392882E+04  0.00000000000E+00 0. -1.
          2    1    1    2  501    0  0.61558369615E+02  0.77209587297E+02  0.21162675070E+02  0.10098817780E+03  0.00000000000E+00 0.  1.
          1    1    1    2  502    0 -0.13490364349E+03 -0.74730975092E+02 -0.16314791863E+04  0.16387519785E+04  0.00000000000E+00 0. -1.
         22    1    1    2    0    0  0.49897792982E+02 -0.27835538055E+01  0.44124223684E+02  0.66666971073E+02  0.00000000000E+00 0.  1.
         22    1    1    2    0    0  0.23447480888E+02  0.30494160079E+00 -0.82505755849E+02  0.85773405538E+02  0.00000000000E+00 0.  1.
</event>
<event>
 6    1  0.8017648E-006  0.6834826E+02  0.7818608E-02  0.1417235E+00
          2   -1    0    0  502    0  0.00000000000E+00  0.00000000000E+00  0.49021478427E+03  0.49021478427E+03  0.00000000000E+00 0.  1.
          1   -1    0    0  501    0 -0.00000000000E+00 -0.00000000000E+00 -0.42589518864E+02  0.42589518864E+02  0.00000000000E+00 0. -1.
          2    1    1    2  501    0 -0.22082846119E+02  0.13400732772E+02  0.34252364979E+03  0.34349626257E+03  0.00000000000E+00 0.  1.
          1    1    1    2  502    0 -0.26903208556E+02 -0.33159214868E+01  0.19630470761E+02  0.33468393272E+02  0.00000000000E+00 0. -1.
         22    1    1    2    0    0  0.27508605005E+02  0.11850347320E+02 -0.26342440184E+02  0.39888322048E+02  0.00000000000E+00 0. -1.
         22    1    1    2    0    0  0.21477449669E+02 -0.21935158605E+02  0.11181358504E+03  0.11595132525E+03  0.00000000000E+00 0. -1.
</event>
<event>
 6    1  0.8017648E-006  0.2049376E+03  0.7818608E-02  0.1145699E+00
          2   -1    0    0  502    0  0.00000000000E+00  0.00000000000E+00  0.79747065331E+03  0.79747065331E+03  0.00000000000E+00 0. -1.
          1   -1    0    0  501    0 -0.00000000000E+00 -0.00000000000E+00 -0.23634266532E+03  0.23634266532E+03  0.00000000000E+00 0.  1.
          2    1    1    2  501    0 -0.14919882847E+03  0.93979939650E+02  0.59700754627E+03  0.62250343757E+03  0.00000000000E+00 0. -1.
          1    1    1    2  502    0  0.15068126498E+03 -0.90807440533E+02 -0.15818179843E+03  0.23658469145E+03  0.00000000000E+00 0.  1.
         22    1    1    2    0    0 -0.12023698617E+02  0.23101079141E+02  0.13929421570E+03  0.14170782517E+03  0.00000000000E+00 0. -1.
         22    1    1    2    0    0  0.10541262109E+02 -0.26273578259E+02 -0.16991975560E+02  0.33017364444E+02  0.00000000000E+00 0.  1.
</event>
<event>
 6    1  0.8017648E-006  0.8459877E+02  0.7818608E-02  0.1403755E+00
          2   -1    0    0  502    0  0.00000000000E+00  0.00000000000E+00  0.21726669022E+03  0.21726669022E+03  0.00000000000E+00 0. -1.
          1   -1    0    0  501    0 -0.00000000000E+00 -0.00000000000E+00 -0.19381803982E+03  0.19381803982E+03  0.00000000000E+00 0. -1.
          2    1    1    2  501    0  0.11474042680E+03 -0.26945751329E+02 -0.40616934084E+02  0.12466424664E+03  0.00000000000E+00 0. -1.
          1    1    1    2  502    0 -0.29115906927E+02  0.79467752235E+02 -0.38816159602E+02  0.93110439413E+02  0.00000000000E+00 0. -1.
         22    1    1    2    0    0 -0.74625684156E+02 -0.36431290348E+02  0.13337791914E+03  0.15711747505E+03  0.00000000000E+00 0. -1.
         22    1    1    2    0    0 -0.10998835712E+02 -0.16090710557E+02 -0.30496175049E+02  0.36192568932E+02  0.00000000000E+00 0. -1.
</event>
<event>
 6    1  0.8017648E-006  0.2875048E+03  0.7818608E-02  0.1202153E+00
          2   -1    0    0  502    0  0.00000000000E+00  0.00000000000E+00  0.18800784053E+04  0.18800784053E+04  0.00000000000E+00 0. -1.
          1   -1    0    0  501    0 -0.00000000000E+00 -0.00000000000E+00 -0.36078644197E+02  0.36078644197E+02  0.00000000000E+00 0. -1.
          2    1    1    2  501    0  0.13259024456E+03 -0.43892089889E+02  0.79028161583E+03  0.80252833024E+03  0.00000000000E+00 0. -1.
          1    1    1    2  502    0 -0.26246907876E+02  0.15694630197E+03  0.44404299277E+03  0.47169399117E+03  0.00000000000E+00 0. -1.
         22    1    1    2    0    0 -0.86741084452E+02 -0.11919194831E+03  0.60235153559E+03  0.62012749391E+03  0.00000000000E+00 0. -1.
         22    1    1    2    0    0 -0.19602252234E+02  0.61377362286E+01  0.73236169245E+01  0.21807234202E+02  0.00000000000E+00 0. -1.
</event>
<event>
 6    1  0.8017648E-006  0.9465147E+02  0.7818608E-02  0.1347413E+00
          2   -1    0    0  502    0  0.00000000000E+00  0.00000000000E+00  0.79361196796E+03  0.79361196796E+03  0.00000000000E+00 0. -1.
          1   -1    0    0  501    0 -0.00000000000E+00 -0.00000000000E+00 -0.30572181721E+02  0.30572181721E+02  0.00000000000E+00 0. -1.
          2    1    1    2  501    0 -0.16914867368E+02  0.24818980242E+02  0.18831850006E+03  0.19069858936E+03  0.00000000000E+00 0. -1.
          1    1    1    2  502    0  0.64935775493E+02 -0.89665970011E+02  0.31769899779E+03  0.33643616678E+03  0.00000000000E+00 0. -1.
         22    1    1    2    0    0 -0.14825571885E+00  0.35110529965E+02  0.12405873753E+01  0.35132753254E+02  0.00000000000E+00 0. -1.
         22    1    1    2    0    0 -0.47872652406E+02  0.29736459805E+02  0.25578170100E+03  0.26191664029E+03  0.00000000000E+00 0. -1.
</event>
<event>
 6    1  0.8017648E-006  0.6954150E+02  0.7818608E-02  0.1431743E+00
          2   -1    0    0  502    0  0.00000000000E+00  0.00000000000E+00  0.23140825471E+03  0.23140825471E+03  0.00000000000E+00 0. -1.
          1   -1    0    0  501    0 -0.00000000000E+00 -0.00000000000E+00 -0.10196011735E+03  0.10196011735E+03  0.00000000000E+00 0. -1.
          2    1    1    2  501    0 -0.76982149534E+01  0.51079166763E+02  0.11923388497E+03  0.12994253774E+03  0.00000000000E+00 0. -1.
          1    1    1    2  502    0 -0.14208036196E+02 -0.68478792838E+02  0.11819485583E+02  0.70928933451E+02  0.00000000000E+00 0. -1.
         22    1    1    2    0    0 -0.87071932054E+00  0.16912377353E+02  0.62347998972E+02  0.64606962749E+02  0.00000000000E+00 0.  1.
         22    1    1    2    0    0  0.22776970470E+02  0.48724872280E+00 -0.63953232152E+02  0.67889938119E+02  0.00000000000E+00 0. -1.
</event>
<event>
 6    1  0.8017648E-006  0.1701128E+03  0.7818608E-02  0.1220947E+00
          2   -1    0    0  502    0  0.00000000000E+00  0.00000000000E+00  0.13783987851E+04  0.13783987851E+04  0.00000000000E+00 0.  1.
          1   -1    0    0  501    0 -0.00000000000E+00 -0.00000000000E+00 -0.51795833942E+02  0.51795833942E+02  0.00000000000E+00 0.  1.
          2    1    1    2  501    0 -0.26214436586E+02 -0.75180124668E+02  0.41254942371E+02  0.89672839259E+02  0.00000000000E+00 0.  1.
          1    1    1    2  502    0  0.57566401141E+01  0.16136592617E+03  0.10363807488E+04  0.10488837674E+04  0.00000000000E+00 0.  1.
         22    1    1    2    0    0  0.64825188479E+02 -0.14605350826E+02  0.12832938276E+03  0.14451315446E+03  0.00000000000E+00 0.  1.
         22    1    1    2    0    0 -0.44367392007E+02 -0.71580450673E+02  0.12063787717E+03  0.14712485786E+03  0.00000000000E+00 0.  1.
</event>
<event>
 6    1  0.8017648E-006  0.1410995E+03  0.7818608E-02  0.1236916E+00
          2   -1    0    0  502    0  0.00000000000E+00  0.00000000000E+00  0.51014852847E+02  0.51014852847E+02  0.00000000000E+00 0. -1.
          1   -1    0    0  501    0 -0.00000000000E+00 -0.00000000000E+00 -0.73199250500E+03  0.73199250500E+03  0.00000000000E+00 0. -1.
          2    1    1    2  501    0  0.55192033423E+02 -0.35802703834E+02 -0.92293605007E+02  0.11334065325E+03  0.00000000000E+00 0. -1.
          1    1    1    2  502    0  0.98491640326E+01 -0.10710607559E+03 -0.12362321808E+03  0.16386402140E+03  0.00000000000E+00 0. -1.
         22    1    1    2    0    0  0.73392141840E+01 -0.10312324043E+02 -0.21349138911E+01  0.12836118935E+02  0.00000000000E+00 0. -1.
         22    1    1    2    0    0 -0.72380411639E+02  0.15322110347E+03 -0.46292591517E+03  0.49296656425E+03  0.00000000000E+00 0. -1.
</event>
<event>
 6    1  0.8017648E-006  0.1577048E+03  0.7818608E-02  0.1261875E+00
          2   -1    0    0  502    0  0.00000000000E+00  0.00000000000E+00  0.59172908935E+03  0.59172908935E+03  0.00000000000E+00 0. -1.
          1   -1    0    0  501    0 -0.00000000000E+00 -0.00000000000E+00 -0.57650189630E+02  0.57650189630E+02  0.00000000000E+00 0. -1.
          2    1    1    2  501    0  0.38134316531E+02 -0.24545018520E+01  0.44248213505E+02  0.58464990165E+02  0.00000000000E+00 0. -1.
          1    1    1    2  502    0 -0.11394086126E+03  0.63186991280E+02  0.85516538998E+02  0.15584670087E+03  0.00000000000E+00 0. -1.
         22    1    1    2    0    0 -0.31624577078E+02 -0.17992322079E+02  0.46538263043E+02  0.59073238072E+02  0.00000000000E+00 0. -1.
         22    1    1    2    0    0  0.10743112181E+03 -0.42740167349E+02  0.35777588417E+03  0.37599434987E+03  0.00000000000E+00 0. -1.
</event>
<event>
 6    1  0.8017648E-006  0.4399225E+02  0.7818608E-02  0.1507511E+00
          2   -1    0    0  502    0  0.00000000000E+00  0.00000000000E+00  0.11205976553E+03  0.11205976553E+03  0.00000000000E+00 0.  1.
          1   -1    0    0  501    0 -0.00000000000E+00 -0.00000000000E+00 -0.36975787431E+03  0.36975787431E+03  0.00000000000E+00 0. -1.
          2    1    1    2  501    0  0.30279385724E+02  0.22315646196E+02  0.70909752882E+02  0.80268439120E+02  0.00000000000E+00 0.  1.
          1    1    1    2  502    0 -0.17780509886E+02  0.32220303514E+02 -0.23851203679E+03  0.24133438666E+03  0.00000000000E+00 0. -1.
         22    1    1    2    0    0 -0.26684870240E+02 -0.48750648250E+02 -0.11684511460E+03  0.12938890529E+03  0.00000000000E+00 0.  1.
         22    1    1    2    0    0  0.14185994402E+02 -0.57853014599E+01  0.26749289739E+02  0.30825908773E+02  0.00000000000E+00 0.  1.
</event>
<event>
 6    1  0.8017648E-006  0.7621207E+02  0.7818608E-02  0.1440679E+00
          2   -1    0    0  502    0  0.00000000000E+00  0.00000000000E+00  0.27035429342E+03  0.27035429342E+03  0.00000000000E+00 0. -1.
          1   -1    0    0  501    0 -0.00000000000E+00 -0.00000000000E+00 -0.16913506388E+03  0.16913506388E+03  0.00000000000E+00 0.  1.
          2    1    1    2  501    0  0.30593787579E+02  0.55918877363E+02  0.19271467486E+03  0.20298238000E+03  0.00000000000E+00 0. -1.
          1    1    1    2  502    0 -0.42451785502E+02 -0.49840659896E+02 -0.86475612750E+02  0.10846325217E+03  0.00000000000E+00 0.  1.
         22    1    1    2    0    0  0.80292272610E+01  0.85629934402E+01  0.60075909741E+02  0.61211994562E+02  0.00000000000E+00 0. -1.
         22    1    1    2    0    0  0.38287706610E+01 -0.14641210907E+02 -0.65095742320E+02  0.66831730561E+02  0.00000000000E+00 0.  1.
</event>
<event>
 6    1  0.8017648E-006  0.1580250E+03  0.7818608E-02  0.1217987E+00
          2   -1    0    0  502    0  0.00000000000E+00  0.00000000000E+00  0.18820808724E+04  0.18820808724E+04  0.00000000000E+00 0.  1.
          1   -1    0    0  501    0 -0.00000000000E+00 -0.00000000000E+00 -0.21526714806E+03  0.21526714806E+03  0.00000000000E+00 0.  1.
          2    1    1    2  501    0  0.14828333545E+03  0.75287026069E+02  0.15962859708E+04  0.16049252271E+04  0.00000000000E+00 0.  1.
          1    1    1    2  502    0 -0.14631607685E+03  0.45952116841E+01 -0.16148917517E+03  0.21796390529E+03  0.00000000000E+00 0.  1.
         22    1    1    2    0    0  0.66206110745E+01 -0.87967661272E+02  0.24289183918E+03  0.25841553254E+03  0.00000000000E+00 0. -1.
         22    1    1    2    0    0 -0.85878696819E+01  0.80854235195E+01 -0.10874910484E+02  0.16043355546E+02  0.00000000000E+00 0.  1.
</event>
<event>
 6    1  0.8017648E-006  0.5569094E+02  0.7818608E-02  0.1534021E+00
          2   -1    0    0  502    0  0.00000000000E+00  0.00000000000E+00  0.65395745855E+03  0.65395745855E+03  0.00000000000E+00 0. -1.
          1   -1    0    0  501    0 -0.00000000000E+00 -0.00000000000E+00 -0.33550577633E+02  0.33550577633E+02  0.00000000000E+00 0.  1.
          2    1    1    2  501    0  0.26778901325E+02 -0.43442748680E+02  0.26924391586E+03  0.27403771309E+03  0.00000000000E+00 0. -1.
          1    1    1    2  502    0 -0.29774653150E+02 -0.23659812040E+02  0.51611565216E+01  0.38379085614E+02  0.00000000000E+00 0.  1.
         22    1    1    2    0    0 -0.70370825533E+01  0.64004145886E+02  0.35528682615E+03  0.36107447993E+03  0.00000000000E+00 0. -1.
         22    1    1    2    0    0  0.10032834379E+02  0.30984148331E+01 -0.92850176120E+01  0.14016757549E+02  0.00000000000E+00 0. -1.
</event>
<event>
 6    1  0.8017648E-006  0.5469153E+02  0.7818608E-02  0.1440474E+00
          2   -1    0    0  502    0  0.00000000000E+00  0.00000000000E+00  0.89177749842E+02  0.89177749842E+02  0.00000000000E+00 0. -1.
          1   -1    0    0  501    0 -0.00000000000E+00 -0.00000000000E+00 -0.13631825684E+03  0.13631825684E+03  0.00000000000E+00 0. -1.
          2    1    1    2  501    0 -0.23701982769E+01 -0.40375378387E+02 -0.41307490344E+00  0.40446998043E+02  0.00000000000E+00 0. -1.
          1    1    1    2  502    0  0.11511023690E+02  0.32359270491E+02  0.24018618512E+02  0.41910858836E+02  0.00000000000E+00 0. -1.
         22    1    1    2    0    0 -0.27388535489E+02 -0.28783885645E+02  0.19295723382E+02  0.44169773487E+02  0.00000000000E+00 0. -1.
         22    1    1    2    0    0  0.18247710076E+02  0.36799993541E+02 -0.90041773989E+02  0.98968376317E+02  0.00000000000E+00 0. -1.
</event>
<event>
 6    1  0.8017648E-006  0.8174949E+02  0.7818608E-02  0.1371341E+00
          2   -1    0    0  502    0  0.00000000000E+00  0.00000000000E+00  0.75450926621E+03  0.75450926621E+03  0.00000000000E+00 0.  1.
          1   -1    0    0  501    0 -0.00000000000E+00 -0.00000000000E+00 -0.68986404416E+02  0.68986404416E+02  0.00000000000E+00 0. -1.
          2    1    1    2  501    0  0.48781112446E+02  0.50019337457E+02  0.61594826046E+03  0.61989820989E+03  0.00000000000E+00 0.  1.
          1    1    1    2  502    0 -0.24629122476E+02 -0.56130539534E+02  0.30412185612E+02  0.68426107415E+02  0.00000000000E+00 0. -1.
         22    1    1    2    0    0 -0.36434383426E+02 -0.43346528927E+00 -0.40398109166E+02  0.54402751878E+02  0.00000000000E+00 0. -1.
         22    1    1    2    0    0  0.12282393455E+02  0.65446673661E+01  0.79560524887E+02  0.80768601450E+02  0.00000000000E+00 0.  1.
</event>
<event>
 6    1  0.8017648E-006  0.4703505E+02  0.7818608E-02  0.1571063E+00
          2   -1    0    0  502    0  0.00000000000E+00  0.00000000000E+00  0.24496797825E+03  0.24496797825E+03  0.00000000000E+00 0. -1.
          1   -1    0    0  501    0 -0.00000000000E+00 -0.00000000000E+00 -0.62755831535E+02  0.62755831535E+02  0.00000000000E+00 0. -1.
          2    1    1    2  501    0  0.11610095921E+02 -0.19743766536E+02  0.10230466828E+03  0.10483728248E+03  0.00000000000E+00 0. -1.
          1    1    1    2  502    0 -0.43133677356E+01  0.31296804169E+02 -0.22694678870E+02  0.38899145767E+02  0.00000000000E+00 0. -1.
         22    1    1    2    0    0 -0.14008034836E+02 -0.20074497105E+02  0.13116741404E+03  0.13343200883E+03  0.00000000000E+00 0. -1.
         22    1    1    2    0    0  0.67113066507E+01  0.85214594729E+01 -0.28565256744E+02  0.30555372709E+02  0.00000000000E+00 0. -1.
</event>
<event>
 6    1  0.8017648E-006  0.1097556E+03  0.7818608E-02  0.1307709E+00
          2   -1    0    0  502    0  0.00000000000E+00  0.00000000000E+00  0.33272988202E+03  0.33272988202E+03  0.00000000000E+00 0. -1.
          1   -1    0    0  501    0 -0.00000000000E+00 -0.00000000000E+00 -0.14722979827E+03  0.14722979827E+03  0.00000000000E+00 0. -1.
          2    1    1    2  501    0 -0.19804339184E+02 -0.65112593428E+02 -0.35576111445E+02  0.76795321335E+02  0.00000000000E+00 0. -1.
          1    1    1    2  502    0  0.15935566936E+02  0.93821242731E+02  0.25158629302E+03  0.26898332796E+03  0.00000000000E+00 0. -1.
         22    1    1    2    0    0 -0.12100761095E+02 -0.71214785800E+02  0.10501436345E+02  0.72994892293E+02  0.00000000000E+00 0.  1.
         22    1    1    2    0    0  0.15969533343E+02  0.42506136496E+02 -0.41011534173E+02  0.61186138711E+02  0.00000000000E+00 0. -1.
</event>
<event>
 6    1  0.8017648E-006  0.1188278E+03  0.7818608E-02  0.1355935E+00
          2   -1    0    0  502    0  0.00000000000E+00  0.00000000000E+00  0.28620734765E+03  0.28620734765E+03  0.00000000000E+00 0.  1.
          1   -1    0    0  501    0 -0.00000000000E+00 -0.00000000000E+00 -0.10094719461E+03  0.10094719461E+03  0.00000000000E+00 0.  1.
          2    1    1    2  501    0  0.22667639282E+02 -0.16981193696E+02  0.97623573175E+02  0.10164912616E+03  0.00000000000E+00 0.  1.
          1    1    1    2  502    0 -0.50353515880E+02 -0.73878776455E+02 -0.25857538192E+02  0.93070738975E+02  0.00000000000E+00 0.  1.
         22    1    1    2    0    0 -0.71871427449E+01  0.13562286115E+02 -0.25413087106E+02  0.29688644661E+02  0.00000000000E+00 0.  1.
         22    1    1    2    0    0  0.34873019342E+02  0.77297684036E+02  0.13890720516E+03  0.16274603246E+03  0.00000000000E+00 0.  1.
</event>
<event>
 6    1  0.8017648E-006  0.3319908E+03  0.7818608E-02  0.1151154E+00
          2   -1    0    0  502    0  0.00000000000E+00  0.00000000000E+00  0.34718030707E+03  0.34718030707E+03  0.00000000000E+00 0.  1.
          1   -1    0    0  501    0 -0.00000000000E+00 -0.00000000000E+00 -0.75280604252E+03  0.75280604252E+03  0.00000000000E+00 0. -1.
          2    1    1    2  501    0 -0.29206178419E+03  0.77808197618E+02  0.16365709102E+03  0.34371186310E+03  0.00000000000E+00 0.  1.
          1    1    1    2  502    0  0.33781199143E+03 -0.12412834491E+03 -0.42905406268E+03  0.56001087156E+03  0.00000000000E+00 0. -1.
         22    1    1    2    0    0 -0.15068643443E+02  0.17222336813E+02  0.20096637305E+02  0.30455668298E+02  0.00000000000E+00 0.  1.
         22    1    1    2    0    0 -0.30681563798E+02  0.29097810476E+02 -0.16032540109E+03  0.16580794663E+03  0.00000000000E+00 0.  1.
</event>
<event>
 6    1  0.8017648E-006  0.3955303E+02  0.7818608E-02  0.1598182E+00
          2   -1    0    0  502    0  0.00000000000E+00  0.00000000000E+00  0.19518745672E+03  0.19518745672E+03  0.00000000000E+00 0. -1.
          1   -1    0    0  501    0 -0.00000000000E+00 -0.00000000000E+00 -0.12094956930E+03  0.12094956930E+03  0.00000000000E+00 0. -1.
          2    1    1    2  501    0  0.24136519232E+02 -0.26370286725E+01  0.12660928215E+03  0.12891639076E+03  0.00000000000E+00 0. -1.
          1    1    1    2  502    0 -0.40996235567E+02 -0.16967620260E+02 -0.33502556647E+02  0.55596877339E+02  0.00000000000E+00 0. -1.
         22    1    1    2    0    0  0.12647617957E+02  0.72262929753E+01  0.54851575525E+02  0.56752769868E+02  0.00000000000E+00 0.  1.
         22    1    1    2    0    0  0.42120983771E+01  0.12378355957E+02 -0.73720413613E+02  0.74870988054E+02  0.00000000000E+00 0. -1.
</event>
<event>
 6    1  0.8017648E-006  0.7930689E+02  0.7818608E-02  0.1333813E+00
          2   -1    0    0  502    0  0.00000000000E+00  0.00000000000E+00  0.54240699745E+03  0.54240699745E+03  0.00000000000E+00 0. -1.
          1   -1    0    0  501    0 -0.00000000000E+00 -0.00000000000E+00 -0.94783210058E+02  0.94783210058E+02  0.00000000000E+00 0. -1.
          2    1    1    2  501    0 -0.25623629445E+02 -0.60447783884E+02  0.37388061519E+03  0.37960139539E+03  0.00000000000E+00 0. -1.
          1    1    1    2  502    0 -0.67138684273E+02  0.15933271640E+02 -0.20368513381E+02  0.71946844325E+02  0.00000000000E+00 0. -1.
         22    1    1    2    0    0  0.10775020409E+03  0.45717418565E+02  0.31447000825E+02  0.12119860850E+03  0.00000000000E+00 0. -1.
         22    1    1    2    0    0 -0.14987890374E+02 -0.12029063211E+01  0.62664684761E+02  0.64443359298E+02  0.00000000000E+00 0. -1.
</event>
<event>
 6    1  0.8017648E-006  0.4269828E+02  0.7818608E-02  0.1506910E+00
          2   -1    0    0  502    0  0.00000000000E+00  0.00000000000E+00  0.13378600889E+03  0.13378600889E+03  0.00000000000E+00 0.  1.
          1   -1    0    0  501    0 -0.00000000000E+00 -0.00000000000E+00 -0.14613901793E+03  0.14613901793E+03  0.00000000000E+00 0. -1.
          2    1    1    2  501    0  0.49458296037E+02  0.51669133242E+02  0.32326623167E+02  0.78490973636E+02  0.00000000000E+00 0.  1.
          1    1    1    2  502    0 -0.66104300540E+02 -0.49243309847E+01 -0.18082509235E+02  0.68709567934E+02  0.00000000000E+00 0. -1.
         22    1    1    2    0    0 -0.24638313503E+00 -0.23198457331E+02  0.47663529489E+02  0.53009821454E+02  0.00000000000E+00 0.  1.
         22    1    1    2    0    0  0.16892387637E+02 -0.23546344926E+02 -0.74260652463E+02  0.79714663793E+02  0.00000000000E+00 0. -1.
</event>
<event>
 6    1  0.8017648E-006  0.3274478E+02  0.7818608E-02  0.1665720E+00
          2   -1    0    0  502    0  0.00000000000E+00  0.00000000000E+00  0.66170671732E+02  0.66170671732E+02  0.00000000000E+00 0.  1.
          1   -1    0    0  501    0 -0.00000000000E+00 -0.00000000000E+00 -0.36146978277E+03  0.36146978277E+03  0.00000000000E+00 0. -1.
          2    1    1    2  501    0 -0.15704745428E+02 -0.18003450856E+02 -0.14632702583E+01  0.23935422109E+02  0.00000000000E+00 0.  1.
          1    1    1    2  502    0  0.17791283407E+02 -0.27118894101E+02 -0.26379920337E+03  0.26578559758E+03  0.00000000000E+00 0. -1.
         22    1    1    2    0    0 -0.10538217624E+02  0.64244608699E+00  0.47213238933E+02  0.48379300307E+02  0.00000000000E+00 0.  1.
         22    1    1    2    0    0  0.84516796453E+01  0.44479898871E+02 -0.77249876348E+02  0.89540134510E+02  0.00000000000E+00 0.  1.
</event>
<event>
 6    1  0.8017648E-006  0.8473764E+02  0.7818608E-02  0.1316667E+00
          2   -1    0    0  502    0  0.00000000000E+00  0.00000000000E+00  0.19939822122E+03  0.19939822122E+03  0.00000000000E+00 0.  1.
          1   -1    0    0  501    0 -0.00000000000E+00 -0.00000000000E+00 -0.14972962885E+03  0.14972962885E+03  0.00000000000E+00 0.  1.
          2    1    1    2  501    0 -0.47648930472E+02  0.26300152478E+02  0.10372356304E+03  0.11713537521E+03  0.00000000000E+00 0.  1.
          1    1    1    2  502    0  0.49669454222E+02 -0.39843428808E+02 -0.77665364478E+02  0.10043138126E+03  0.00000000000E+00 0.  1.
         22    1    1    2    0    0 -0.14874483918E+02  0.24690117153E+02  0.73446786153E+02  0.78900459777E+02  0.00000000000E+00 0.  1.
         22    1    1    2    0    0  0.12853960169E+02 -0.11146840823E+02 -0.49836392353E+02  0.52660633828E+02  0.00000000000E+00 0.  1.
</event>
<event>
 6    1  0.8017648E-006  0.3193062E+02  0.7818608E-02  0.1657639E+00
          2   -1    0    0  502    0  0.00000000000E+00  0.00000000000E+00  0.78661011182E+02  0.78661011182E+02  0.00000000000E+00 0.  1.
          1   -1    0    0  501    0 -0.00000000000E+00 -0.00000000000E+00 -0.10342006125E+03  0.10342006125E+03  0.00000000000E+00 0.  1.
          2    1    1    2  501    0 -0.21611003489E+02  0.12047767766E+02 -0.34136513996E+01  0.24976733090E+02  0.00000000000E+00 0.  1.
          1    1    1    2  502    0 -0.21699851672E+02 -0.59904883362E+01  0.19804591754E+01  0.22598489587E+02  0.00000000000E+00 0.  1.
         22    1    1    2    0    0  0.34896138166E+02  0.31291504752E+01 -0.74238756053E+02  0.82090955299E+02  0.00000000000E+00 0.  1.
         22    1    1    2    0    0  0.84147169955E+01 -0.91864299052E+01  0.50912898210E+02  0.52414894455E+02  0.00000000000E+00 0.  1.
</event>
<event>
 6    1  0.8017648E-006  0.6822136E+02  0.7818608E-02  0.1413483E+00
          2   -1    0    0  502    0  0.00000000000E+00  0.00000000000E+00  0.38829322454E+03  0.38829322454E+03  0.00000000000E+00 0. -1.
          1   -1    0    0  501    0 -0.00000000000E+00 -0.00000000000E+00 -0.45519584853E+02  0.45519584853E+02  0.00000000000E+00 0.  1.
          2    1    1    2  501    0 -0.12753756278E+02 -0.34026541167E+02  0.13452985958E+03  0.13935116405E+03  0.00000000000E+00 0. -1.
          1    1    1    2  502    0 -0.30489695176E+02  0.62821556343E+02  0.41189024670E+02  0.81072222163E+02  0.00000000000E+00 0.  1.
         22    1    1    2    0    0  0.31901928120E+02 -0.11310968349E+01 -0.10291974886E+02  0.33540082660E+02  0.00000000000E+00 0. -1.
         22    1    1    2    0    0  0.11341523335E+02 -0.27663918340E+02  0.17734673032E+03  0.17984934052E+03  0.00000000000E+00 0.  1.
</event>
<event>
 6    1  0.8017648E-006  0.1147313E+03  0.7818608E-02  0.1254039E+00
          2   -1    0    0  502    0  0.00000000000E+00  0.00000000000E+00  0.62506208379E+03  0.62506208379E+03  0.00000000000E+00 0.  1.
          1   -1    0    0  501    0 -0.00000000000E+00 -0.00000000000E+00 -0.33426569574E+02  0.33426569574E+02  0.00000000000E+00 0.  1.
          2    1    1    2  501    0 -0.29272975660E+02  0.72658471669E+01  0.10249030479E+03  0.10683614657E+03  0.00000000000E+00 0.  1.
          1    1    1    2  502    0  0.59658256869E+02 -0.63591364708E+02  0.82628677418E+02  0.12012688130E+03  0.00000000000E+00 0.  1.
         22    1    1    2    0    0  0.90751821245E+01 -0.16977007507E+02  0.29657094320E+01  0.19477503611E+02  0.00000000000E+00 0.  1.
         22    1    1    2    0    0 -0.39460463334E+02  0.73302525048E+02  0.40355082258E+03  0.41204812189E+03  0.00000000000E+00 0.  1.
</event>
<event>
 6    1  0.8017648E-006  0.4327773E+02  0.7818608E-02  0.1515280E+00
          2   -1    0    0  502    0  0.00000000000E+00  0.00000000000E+00  0.54669899123E+02  0.54669899123E+02  0.00000000000E+00 0.  1.
          1   -1    0    0  501    0 -0.00000000000E+00 -0.00000000000E+00 -0.21131335834E+03  0.21131335834E+03  0.00000000000E+00 0.  1.
          2    1    1    2  501    0 -0.15322770390E+02 -0.30251014465E+02  0.15881215641E+02  0.37444948642E+02  0.00000000000E+00 0.  1.
          1    1    1    2  502    0 -0.52613100471E+00  0.24523685429E+02 -0.21982461757E+02  0.32938071980E+02  0.00000000000E+00 0.  1.
         22    1    1    2    0    0 -0.21539995658E+01 -0.16628429487E+02  0.18018433065E+02  0.24613173534E+02  0.00000000000E+00 0.  1.
         22    1    1    2    0    0  0.18002900960E+02  0.22355758523E+02 -0.16856064617E+03  0.17098706331E+03  0.00000000000E+00 0. -1.
</event>
<event>
 6    1  0.8017648E-006  0.6594629E+02  0.7818608E-02  0.1414267E+00
          2   -1    0    0  502    0  0.00000000000E+00  0.00000000000E+00  0.36464247999E+02  0.36464247999E+02  0.00000000000E+00 0.  1.
          1   -1    0    0  501    0 -0.00000000000E+00 -0.00000000000E+00 -0.70707175230E+03  0.70707175230E+03  0.00000000000E+00 0.  1.
          2    1    1    2  501    0  0.17782831959E+02 -0.88899452427E+02 -0.15760412672E+03  0.18181969781E+03  0.00000000000E+00 0.  1.
          1    1    1    2  502    0 -0.39210872680E+02  0.11830000852E+02 -0.30594260273E+03  0.30867186075E+03  0.00000000000E+00 0.  1.
         22    1    1    2    0    0  0.30020980854E+02  0.17824673379E+02 -0.18651125262E+03  0.18975095686E+03  0.00000000000E+00 0.  1.
         22    1    1    2    0    0 -0.85929401335E+01  0.59244778196E+02 -0.20549522226E+02  0.63293484872E+02  0.00000000000E+00 0.  1.
</event>
<event>
 6    1  0.8017648E-006  0.1017032E+03  0.7818608E-02  0.1298876E+00
          2   -1    0    0  502    0  0.00000000000E+00  0.00000000000E+00  0.12468229632E+04  0.12468229632E+04  0.00000000000E+00 0. -1.
          1   -1    0    0  501    0 -0.00000000000E+00 -0.00000000000E+00 -0.74011654504E+02  0.74011654504E+02  0.00000000000E+00 0. -1.
          2    1    1    2  501    0  0.48775706065E+02  0.11313065515E+03  0.87091513150E+03  0.87958557338E+03  0.00000000000E+00 0. -1.
          1    1    1    2  502    0 -0.24808903719E+02 -0.64850950667E+02  0.30043398639E+03  0.30835321902E+03  0.00000000000E+00 0. -1.
         22    1    1    2    0    0 -0.29641664316E+02 -0.60202723131E+02 -0.47480344177E+02  0.82203279855E+02  0.00000000000E+00 0. -1.
         22    1    1    2    0    0  0.56748619703E+01  0.11923018648E+02  0.48942534984E+02  0.50692545436E+02  0.00000000000E+00 0.  1.
</event>
<event>
 6    1  0.8017648E-006  0.8569858E+02  0.7818608E-02  0.1375260E+00
          2   -1    0    0  502    0  0.00000000000E+00  0.00000000000E+00  0.15616442647E+04  0.15616442647E+04  0.00000000000E+00 0.  1.
          1   -1    0    0  501    0 -0.00000000000E+00 -0.00000000000E+00 -0.22444277519E+02  0.22444277519E+02  0.00000000000E+00 0.  1.
          2    1    1    2  501    0 -0.33356294744E+01 -0.62546342153E+02  0.27519255517E+03  0.28223060387E+03  0.00000000000E+00 0.  1.
          1    1    1    2  502    0 -0.47046018228E+00  0.67111999206E+02  0.10595582307E+04  0.10616816312E+04  0.00000000000E+00 0.  1.
         22    1    1    2    0    0  0.29975980052E+02 -0.18505375490E+02  0.20740768545E+03  0.21037812692E+03  0.00000000000E+00 0. -1.
         22    1    1    2    0    0 -0.26169890395E+02  0.13939718436E+02 -0.29584841941E+01  0.29798180181E+02  0.00000000000E+00 0.  1.
</event>
<event>
 6    1  0.8017648E-006  0.5575810E+02  0.7818608E-02  0.1420129E+00
          2   -1    0    0  502    0  0.00000000000E+00  0.00000000000E+00  0.11364222289E+03  0.11364222289E+03  0.00000000000E+00 0. -1.
          1   -1    0    0  501    0 -0.00000000000E+00 -0.00000000000E+00 -0.23774302745E+03  0.23774302745E+03  0.00000000000E+00 0. -1.
          2    1    1    2  501    0  0.55037617059E+02  0.33401191467E+02  0.14943540147E+02  0.66091514395E+02  0.00000000000E+00 0. -1.
          1    1    1    2  502    0 -0.65844175008E+02 -0.56125560276E+02 -0.12843739070E+03  0.15486025064E+03  0.00000000000E+00 0. -1.
         22    1    1    2    0    0  0.37852278196E+02  0.68147888776E+00  0.48663809190E+02  0.61655702923E+02  0.00000000000E+00 0. -1.
         22    1    1    2    0    0 -0.27045720246E+02  0.22042889920E+02 -0.59270763200E+02  0.68777782386E+02  0.00000000000E+00 0. -1.
</event>
<event>
 6    1  0.8017648E-006  0.7923406E+02  0.7818608E-02  0.1415250E+00
          2   -1    0    0  502    0  0.00000000000E+00  0.00000000000E+00  0.28536610648E+03  0.28536610648E+03  0.00000000000E+00 0.  1.
          1   -1    0    0  501    0 -0.00000000000E+00 -0.00000000000E+00 -0.39402628781E+03  0.39402628781E+03  0.00000000000E+00 0. -1.
          2    1    1    2  501    0 -0.10623670619E+03  0.26989528708E+01  0.21516467727E+03  0.23997783321E+03  0.00000000000E+00 0.  1.
          1    1    1    2  502    0  0.70169380044E+02  0.36736222765E+02  0.94749256048E+01  0.79768829589E+02  0.00000000000E+00 0. -1.
         22    1    1    2    0    0 -0.14969519898E+02 -0.40634725026E+01  0.45278438399E+01  0.16158579906E+02  0.00000000000E+00 0. -1.
         22    1    1    2    0    0  0.51036846039E+02 -0.35371703133E+02 -0.33782762804E+03  0.34348715159E+03  0.00000000000E+00 0. -1.
</event>
<event>
 6    1  0.8017648E-006  0.7130078E+02  0.7818608E-02  0.1359369E+00
          2   -1    0    0  502    0  0.00000000000E+00  0.00000000000E+00  0.37974298084E+03  0.37974298084E+03  0.00000000000E+00 0. -1.
          1   -1    0    0  501    0 -0.00000000000E+00 -0.00000000000E+00 -0.16547189641E+03  0.16547189641E+03  0.00000000000E+00 0. -1.
          2    1    1    2  501    0 -0.49029899354E+02  0.15999702616E+03  0.29229804623E+02  0.16987454456E+03  0.00000000000E+00 0. -1.
          1    1    1    2  502    0  0.53458562212E+02 -0.16239791721E+03  0.18127427251E+03  0.24918118561E+03  0.00000000000E+00 0. -1.
         22    1    1    2    0    0 -0.88611846212E+01  0.32701174650E+02  0.56093039210E+02  0.65531034359E+02  0.00000000000E+00 0. -1.
         22    1    1    2    0    0  0.44325217640E+01 -0.30300283604E+02 -0.52326031922E+02  0.60628112723E+02  0.00000000000E+00 0. -1.
</event>
<event>
 6    1  0.8017648E-006  0.2520301E+03  0.7818608E-02  0.1112739E+00
          2   -1    0    0  502    0  0.00000000000E+00  0.00000000000E+00  0.66402319924E+03  0.66402319924E+03  0.00000000000E+00 0.  1.
          1   -1    0    0  501    0 -0.00000000000E+00 -0.00000000000E+00 -0.97076620911E+02  0.97076620911E+02  0.00000000000E+00 0.  1.
          2    1    1    2  501    0 -0.12893633135E+03  0.94747639004E+02  0.16893943835E+03  0.23268482218E+03  0.00000000000E+00 0.  1.
          1    1    1    2  502    0  0.18081537100E+03 -0.10225858387E+03  0.20383010916E+03  0.29102874388E+03  0.00000000000E+00 0.  1.
         22    1    1    2    0    0  0.20904188758E+02 -0.27108468131E+02  0.89486586711E+01  0.35382660218E+02  0.00000000000E+00 0.  1.
         22    1    1    2    0    0 -0.72783228402E+02  0.34619412993E+02  0.18522837214E+03  0.20200359388E+03  0.00000000000E+00 0.  1.
</event>
<event>
 6    1  0.8017648E-006  0.7154163E+02  0.7818608E-02  0.1443563E+00
          2   -1    0    0  502    0  0.00000000000E+00  0.00000000000E+00  0.16632969262E+03  0.16632969262E+03  0.00000000000E+00 0.  1.
          1   -1    0    0  501    0 -0.00000000000E+00 -0.00000000000E+00 -0.68906774838E+02  0.68906774838E+02  0.00000000000E+00 0.  1.
          2    1    1    2  501    0 -0.71556484749E+01  0.23273287477E+02  0.44635312543E+02  0.50844472078E+02  0.00000000000E+00 0.  1.
          1    1    1    2  502    0  0.25678839131E+01  0.35295393535E+02  0.28618007816E+02  0.45512077561E+02  0.00000000000E+00 0.  1.
         22    1    1    2    0    0 -0.76660106816E+01 -0.15760153447E+02 -0.49660091533E+02  0.52661891796E+02  0.00000000000E+00 0.  1.
         22    1    1    2    0    0  0.12253775243E+02 -0.42808527565E+02  0.73829688959E+02  0.86218026026E+02  0.00000000000E+00 0.  1.
</event>
<event>
 6    1  0.8017648E-006  0.4283856E+02  0.7818608E-02  0.1592677E+00
          2   -1    0    0  502    0  0.00000000000E+00  0.00000000000E+00  0.28290682885E+03  0.28290682885E+03  0.00000000000E+00 0. -1.
          1   -1    0    0  501    0 -0.00000000000E+00 -0.00000000000E+00 -0.10485742661E+03  0.10485742661E+03  0.00000000000E+00 0.  1.
          2    1    1    2  501    0  0.19299041388E+02 -0.15744931665E+02  0.19474764239E+03  0.19633389949E+03  0.00000000000E+00 0. -1.
          1    1    1    2  502    0 -0.31874381709E+02  0.77848366183E+01 -0.47755071881E+02  0.57940717815E+02  0.00000000000E+00 0.  1.
         22    1    1    2    0    0 -0.42410885710E+01  0.10150617774E+02 -0.49735013705E+02  0.50937152077E+02  0.00000000000E+00 0. -1.
         22    1    1    2    0    0  0.16816428892E+02 -0.21905227280E+01  0.80791845431E+02  0.82552486084E+02  0.00000000000E+00 0. -1.
</event>
<event>
 6    1  0.8017648E-006  0.1737709E+03  0.7818608E-02  0.1314206E+00
          2   -1    0    0  502    0  0.00000000000E+00  0.00000000000E+00  0.70317250529E+03  0.70317250529E+03  0.00000000000E+00 0. -1.
          1   -1    0    0  501    0 -0.00000000000E+00 -0.00000000000E+00 -0.32869089005E+02  0.32869089005E+02  0.00000000000E+00 0. -1.
          2    1    1    2  501    0  0.54466888813E+02 -0.33595534882E+02  0.16882318541E+03  0.18054520175E+03  0.00000000000E+00 0. -1.
          1    1    1    2  502    0  0.58853105378E+02  0.36808833992E+02  0.12269181630E+03  0.14096758514E+03  0.00000000000E+00 0. -1.
         22    1    1    2    0    0 -0.76651967555E+01 -0.66845617893E+01 -0.83862279557E+01  0.13182087351E+02  0.00000000000E+00 0. -1.
         22    1    1    2    0    0 -0.10565479744E+03  0.34712626801E+01  0.38717464252E+03  0.40134672006E+03  0.00000000000E+00 0. -1.
</event>
<event>
 6    1  0.8017648E-006  0.6969242E+02  0.7818608E-02  0.1408564E+00
          2   -1    0    0  502    0  0.00000000000E+00  0.00000000000E+00  0.73768824769E+03  0.73768824769E+03  0.00000000000E+00 0.  1.
          1   -1    0    0  501    0 -0.00000000000E+00 -0.00000000000E+00 -0.48488299532E+02  0.48488299532E+02  0.00000000000E+00 0.  1.
          2    1    1    2  501    0 -0.88858080631E+01  0.11059373730E+03  0.22112589317E+03  0.24739966238E+03  0.00000000000E+00 0.  1.
          1    1    1    2  502    0  0.33600676134E+02 -0.97527499574E+02  0.35948172819E+03  0.37398894571E+03  0.00000000000E+00 0.  1.
         22    1    1    2    0    0  0.12786422575E+02  0.18298910175E+02  0.11348045260E+03  0.11565533208E+03  0.00000000000E+00 0. -1.
         22    1    1    2    0    0 -0.37501290646E+02 -0.31365147899E+02 -0.48881257963E+01  0.49132607062E+02  0.00000000000E+00 0. -1.
</event>
<event>
 6    1  0.8017648E-006  0.7878644E+02  0.7818608E-02  0.1426400E+00
          2   -1    0    0  502    0  0.00000000000E+00  0.00000000000E+00  0.42753251445E+03  0.42753251445E+03  0.00000000000E+00 0. -1.
          1   -1    0    0  501    0 -0.00000000000E+00 -0.00000000000E+00 -0.29901082826E+03  0.29901082826E+03  0.00000000000E+00 0. -1.
          2    1    1    2  501    0  0.43642448257E+02 -0.42590371736E+02  0.38187756531E+03  0.38671575859E+03  0.00000000000E+00 0. -1.
          1    1    1    2  502    0 -0.40898921868E+02  0.40575665405E+02 -0.19022535501E+03  0.19875812467E+03  0.00000000000E+00 0. -1.
         22    1    1    2    0    0  0.15805595068E+02 -0.62334438290E+01  0.36039144589E+02  0.39843350764E+02  0.00000000000E+00 0.  1.
         22    1    1    2    0    0 -0.18549121456E+02  0.82481501596E+01 -0.99169668705E+02  0.10122610868E+03  0.00000000000E+00 0. -1.
</event>
<event>
 6    1  0.8017648E-006  0.1324526E+03  0.7818608E-02  0.1350837E+00
          2   -1    0    0  502    0  0.00000000000E+00  0.00000000000E+00  0.13387503916E+03  0.13387503916E+03  0.00000000000E+00 0. -1.
          1   -1    0    0  501    0 -0.00000000000E+00 -0.00000000000E+00 -0.21941709498E+03  0.21941709498E+03  0.00000000000E+00 0. -1.
          2    1    1    2  501    0  0.43808596658E+00 -0.24842105620E+02  0.26289042362E+02  0.36172308183E+02  0.00000000000E+00 0. -1.
          1    1    1    2  502    0  0.25302034249E+02  0.12109078569E+03 -0.90008731717E+02  0.15298608793E+03  0.00000000000E+00 0. -1.
         22    1    1    2    0    0 -0.37722105751E+02 -0.97821157638E+02  0.31489546773E+02  0.10946930026E+03  0.00000000000E+00 0.  1.
         22    1    1    2    0    0  0.11981985536E+02  0.15724775702E+01 -0.53311913242E+02  0.54664437769E+02  0.00000000000E+00 0. -1.
</event>
<event>
 6    1  0.8017648E-006  0.6884621E+02  0.7818608E-02  0.1438938E+00
          2   -1    0    0  502    0  0.00000000000E+00  0.00000000000E+00  0.16204712320E+03  0.16204712320E+03  0.00000000000E+00 0.  1.
          1   -1    0    0  501    0 -0.00000000000E+00 -0.00000000000E+00 -0.22298024770E+03  0.22298024770E+03  0.00000000000E+00 0.  1.
          2    1    1    2  501    0 -0.82248935067E+01 -0.51894082719E+02  0.91168047101E+02  0.10522479511E+03  0.00000000000E+00 0.  1.
          1    1    1    2  502    0  0.28313778468E+02  0.40256063427E+02 -0.14499312483E+03  0.15311834293E+03  0.00000000000E+00 0.  1.
         22    1    1    2    0    0 -0.19155380582E+02 -0.87770792094E+01  0.56273794048E+02  0.60089147284E+02  0.00000000000E+00 0. -1.
         22    1    1    2    0    0 -0.93350437901E+00  0.20415098501E+02 -0.63381840815E+02  0.66595085572E+02  0.00000000000E+00 0.  1.
</event>
<event>
 6    1  0.8017648E-006  0.1594002E+03  0.7818608E-02  0.1190220E+00
          2   -1    0    0  502    0  0.00000000000E+00  0.00000000000E+00  0.11133177582E+03  0.11133177582E+03  0.00000000000E+00 0. -1.
          1   -1    0    0  501    0 -0.00000000000E+00 -0.00000000000E+00 -0.59111815874E+03  0.59111815874E+03  0.00000000000E+00 0. -1.
          2    1    1    2  501    0 -0.44154790001E+02 -0.12933945880E+03  0.26113142267E+02  0.13914106972E+03  0.00000000000E+00 0. -1.
          1    1    1    2  502    0  0.20734904505E+02  0.10513392382E+03 -0.30851834615E+03  0.32659860397E+03  0.00000000000E+00 0. -1.
         22    1    1    2    0    0 -0.32683385967E+01 -0.18148465957E+02  0.11620693298E+02  0.21796544830E+02  0.00000000000E+00 0.  1.
         22    1    1    2    0    0  0.26688224093E+02  0.42354000940E+02 -0.20900187234E+03  0.21491371604E+03  0.00000000000E+00 0. -1.
</event>
<event>
 6    1  0.8017648E-006  0.4209904E+03  0.7818608E-02  0.1175451E+00
          2   -1    0    0  502    0  0.00000000000E+00  0.00000000000E+00  0.97251695808E+03  0.97251695808E+03  0.00000000000E+00 0. -1.
          1   -1    0    0  501    0 -0.00000000000E+00 -0.00000000000E+00 -0.21078643898E+03  0.21078643898E+03  0.00000000000E+00 0. -1.
          2    1    1    2  501    0 -0.34798247329E+03 -0.59618100963E+01  0.36063391696E+03  0.50118276801E+03  0.00000000000E+00 0. -1.
          1    1    1    2  502    0  0.40570636224E+03  0.42516165323E+02  0.30296521079E+03  0.50812714513E+03  0.00000000000E+00 0. -1.
         22    1    1    2    0    0  0.62773489989E+01 -0.10012033288E+02 -0.27829183445E+02  0.30234241717E+02  0.00000000000E+00 0.  1.
         22    1    1    2    0    0 -0.64001237947E+02 -0.26542321939E+02  0.12596057481E+03  0.14375924220E+03  0.00000000000E+00 0. -1.
</event>
<event>
 6    1  0.8017648E-006  0.1214146E+03  0.7818608E-02  0.1363078E+00
          2   -1    0    0  502    0  0.00000000000E+00  0.00000000000E+00  0.46165103054E+03  0.46165103054E+03  0.00000000000E+00 0.  1.
          1   -1    0    0  501    0 -0.00000000000E+00 -0.00000000000E+00 -0.10446710947E+03  0.10446710947E+03  0.00000000000E+00 0. -1.
          2    1    1    2  501    0 -0.57272731829E+02 -0.31862863411E+02  0.27045984003E+03  0.27828750051E+03  0.00000000000E+00 0.  1.
          1    1    1    2  502    0  0.86640189721E+02  0.61435250703E+02 -0.34102820836E+02  0.11155184845E+03  0.00000000000E+00 0. -1.
         22    1    1    2    0    0  0.73735923067E+01  0.10413698634E+02 -0.20909893501E+02  0.24495685925E+02  0.00000000000E+00 0. -1.
         22    1    1    2    0    0 -0.36741050198E+02 -0.39986085926E+02  0.14173679537E+03  0.15178310512E+03  0.00000000000E+00 0.  1.
</event>
<event>
 6    1  0.8017648E-006  0.9768319E+02  0.7818608E-02  0.1366129E+00
          2   -1    0    0  502    0  0.00000000000E+00  0.00000000000E+00  0.32912851769E+03  0.32912851769E+03  0.00000000000E+00 0.  1.
          1   -1    0    0  501    0 -0.00000000000E+00 -0.00000000000E+00 -0.76712154748E+02  0.76712154748E+02  0.00000000000E+00 0. -1.
          2    1    1    2  501    0  0.23407645158E+02  0.41657791058E+01  0.34796698328E+02  0.42143585300E+02  0.00000000000E+00 0.  1.
          1    1    1    2  502    0 -0.61182769261E+02  0.38624582918E+02 -0.31491947097E+02  0.78910914276E+02  0.00000000000E+00 0. -1.
         22    1    1    2    0    0 -0.22263007440E+02 -0.68235193934E+01 -0.26891663120E+01  0.23439998563E+02  0.00000000000E+00 0. -1.
         22    1    1    2    0    0  0.60038131543E+02 -0.35966842630E+02  0.25180077802E+03  0.26134617430E+03  0.00000000000E+00 0.  1.
</event>
<event>
 6    1  0.8017648E-006  0.6270805E+02  0.7818608E-02  0.1436509E+00
          2   -1    0    0  502    0  0.00000000000E+00  0.00000000000E+00  0.26660638071E+03  0.26660638071E+03  0.00000000000E+00 0.  1.
          1   -1    0    0  501    0 -0.00000000000E+00 -0.00000000000E+00 -0.16579391521E+03  0.16579391521E+03  0.00000000000E+00 0.  1.
          2    1    1    2  501    0  0.66800040646E+02  0.11402634340E+03  0.13758856498E+03  0.19077438411E+03  0.00000000000E+00 0.  1.
          1    1    1    2  502    0 -0.20246337927E+02 -0.10146067064E+03 -0.34489179641E+02  0.10905817438E+03  0.00000000000E+00 0.  1.
         22    1    1    2    0    0 -0.33482939467E+02 -0.36700159557E+01  0.59726846116E+02  0.68570200520E+02  0.00000000000E+00 0.  1.
         22    1    1    2    0    0 -0.13070763252E+02 -0.88956568028E+01 -0.62013765962E+02  0.63997536912E+02  0.00000000000E+00 0.  1.
</event>
<event>
 6    1  0.8017648E-006  0.7356453E+02  0.7818608E-02  0.1425807E+00
          2   -1    0    0  502    0  0.00000000000E+00  0.00000000000E+00  0.15530786362E+03  0.15530786362E+03  0.00000000000E+00 0.  1.
          1   -1    0    0  501    0 -0.00000000000E+00 -0.00000000000E+00 -0.28037417990E+03  0.28037417990E+03  0.00000000000E+00 0. -1.
          2    1    1    2  501    0 -0.58765127374E+02 -0.17810101943E+02  0.10470843891E+03  0.12138532492E+03  0.00000000000E+00 0.  1.
          1    1    1    2  502    0  0.64119690515E+02  0.33012984359E+02 -0.14209583136E+03  0.15934998317E+03  0.00000000000E+00 0. -1.
         22    1    1    2    0    0  0.44051270995E+01 -0.20595030214E+02 -0.11944138545E+03  0.12128398482E+03  0.00000000000E+00 0.  1.
         22    1    1    2    0    0 -0.97596902401E+01  0.53921477981E+01  0.31762461613E+02  0.33662750618E+02  0.00000000000E+00 0. -1.
</event>
<event>
 6    1  0.8017648E-006  0.8301038E+02  0.7818608E-02  0.1352645E+00
          2   -1    0    0  502    0  0.00000000000E+00  0.00000000000E+00  0.76612461936E+03  0.76612461936E+03  0.00000000000E+00 0. -1.
          1   -1    0    0  501    0 -0.00000000000E+00 -0.00000000000E+00 -0.33516686349E+02  0.33516686349E+02  0.00000000000E+00 0. -1.
          2    1    1    2  501    0  0.23359284480E+02  0.19128278459E+02  0.45533377746E+03  0.45633364560E+03  0.00000000000E+00 0. -1.
          1    1    1    2  502    0 -0.66329203381E+02  0.92867163539E+01  0.11169671798E+03  0.13023810168E+03  0.00000000000E+00 0. -1.
         22    1    1    2    0    0  0.35741210447E+02  0.18638415466E+02  0.16016261329E+03  0.16515715955E+03  0.00000000000E+00 0.  1.
         22    1    1    2    0    0  0.72287084548E+01 -0.47053410279E+02  0.54148242866E+01  0.47912398884E+02  0.00000000000E+00 0. -1.
</event>
<event>
 6    1  0.8017648E-006  0.5706031E+02  0.7818608E-02  0.1432495E+00
          2   -1    0    0  502    0  0.00000000000E+00  0.00000000000E+00  0.17857582241E+03  0.17857582241E+03  0.00000000000E+00 0.  1.
          1   -1    0    0  501    0 -0.00000000000E+00 -0.00000000000E+00 -0.15997889889E+03  0.15997889889E+03  0.00000000000E+00 0. -1.
          2    1    1    2  501    0 -0.39821298929E+02  0.29884791104E+02  0.13345041063E+03  0.14243541935E+03  0.00000000000E+00 0.  1.
          1    1    1    2  502    0  0.93145475105E+01 -0.28588458461E+02 -0.37901283053E+02  0.48379417210E+02  0.00000000000E+00 0. -1.
         22    1    1    2    0    0 -0.10200818135E+02 -0.36331159498E+01  0.30737642521E+02  0.32589245003E+02  0.00000000000E+00 0.  1.
         22    1    1    2    0    0  0.40707569554E+02  0.23367833067E+01 -0.10768984658E+03  0.11515063974E+03  0.00000000000E+00 0. -1.
</event>
<event>
 6    1  0.8017648E-006  0.4056718E+02  0.7818608E-02  0.1576745E+00
          2   -1    0    0  502    0  0.00000000000E+00  0.00000000000E+00  0.11112619347E+03  0.11112619347E+03  0.00000000000E+00 0.  1.
          1   -1    0    0  501    0 -0.00000000000E+00 -0.00000000000E+00 -0.16785493542E+03  0.16785493542E+03  0.00000000000E+00 0. -1.
          2    1    1    2  501    0 -0.17464407724E+02  0.16328458961E+02  0.60076414860E+02  0.64659104012E+02  0.00000000000E+00 0.  1.
          1    1    1    2  502    0  0.36117768239E+02 -0.26043186249E+02 -0.70572829129E+02  0.83446179924E+02  0.00000000000E+00 0. -1.
         22    1    1    2    0    0 -0.14456491696E+02 -0.62552547215E+01 -0.86202184798E+02  0.87629532851E+02  0.00000000000E+00 0. -1.
         22    1    1    2    0    0 -0.41968688191E+01  0.15969982010E+02  0.39969857114E+02  0.43246312108E+02  0.00000000000E+00 0.  1.
</event>
<event>
 6    1  0.8017648E-006  0.5369366E+02  0.7818608E-02  0.1461096E+00
          2   -1    0    0  502    0  0.00000000000E+00  0.00000000000E+00  0.17938202943E+03  0.17938202943E+03  0.00000000000E+00 0. -1.
          1   -1    0    0  501    0 -0.00000000000E+00 -0.00000000000E+00 -0.81249034658E+02  0.81249034658E+02  0.00000000000E+00 0.  1.
          2    1    1    2  501    0  0.85292455027E+01 -0.20787266773E+02  0.45217451160E+02  0.50492339797E+02  0.00000000000E+00 0. -1.
          1    1    1    2  502    0 -0.54023856896E+02  0.17457199637E+02 -0.12771401722E+02  0.58193123606E+02  0.00000000000E+00 0.  1.
         22    1    1    2    0    0  0.22504910417E+02  0.22811755093E+02 -0.34641247876E+02  0.47189651595E+02  0.00000000000E+00 0.  1.
         22    1    1    2    0    0  0.22989700977E+02 -0.19481687957E+02  0.10032819321E+03  0.10475594909E+03  0.00000000000E+00 0. -1.
</event>
<event>
 6    1  0.8017648E-006  0.3864994E+02  0.7818608E-02  0.1592423E+00
          2   -1    0    0  502    0  0.00000000000E+00  0.00000000000E+00  0.17411700153E+03  0.17411700153E+03  0.00000000000E+00 0. -1.
          1   -1    0    0  501    0 -0.00000000000E+00 -0.00000000000E+00 -0.78388733773E+02  0.78388733773E+02  0.00000000000E+00 0. -1.
          2    1    1    2  501    0 -0.38817728398E+02  0.22048667652E+01  0.74874232238E+02  0.84367221885E+02  0.00000000000E+00 0. -1.
          1    1    1    2  502    0  0.22538723537E+02 -0.28677957655E+02  0.12405056139E+01  0.36496002084E+02  0.00000000000E+00 0. -1.
         22    1    1    2    0    0  0.83372602383E+01 -0.11899917345E+02 -0.49830275458E+02  0.51905436067E+02  0.00000000000E+00 0. -1.
         22    1    1    2    0    0  0.79417446224E+01  0.38373008235E+02  0.69443805366E+02  0.79737075269E+02  0.00000000000E+00 0.  1.
</event>
<event>
 6    1  0.8017648E-006  0.7935252E+02  0.7818608E-02  0.1388784E+00
          2   -1    0    0  502    0  0.00000000000E+00  0.00000000000E+00  0.14548686183E+03  0.14548686183E+03  0.00000000000E+00 0. -1.
          1   -1    0    0  501    0 -0.00000000000E+00 -0.00000000000E+00 -0.31313170723E+03  0.31313170723E+03  0.00000000000E+00 0.  1.
          2    1    1    2  501    0 -0.17177390193E+02 -0.67288766544E+02  0.97707573682E+02  0.11987331142E+03  0.00000000000E+00 0. -1.
          1    1    1    2  502    0  0.37581227060E+02  0.37903356209E+02 -0.15921974562E+03  0.16792837888E+03  0.00000000000E+00 0.  1.
         22    1    1    2    0    0 -0.29024353942E+02  0.74899148247E+01  0.24108328058E+02  0.38467173377E+02  0.00000000000E+00 0. -1.
         22    1    1    2    0    0  0.86205170752E+01  0.21895495511E+02 -0.13024100152E+03  0.13234970538E+03  0.00000000000E+00 0.  1.
</event>
<event>
 6    1  0.8017648E-006  0.1439332E+03  0.7818608E-02  0.1278153E+00
          2   -1    0    0  502    0  0.00000000000E+00  0.00000000000E+00  0.13288148949E+04  0.13288148949E+04  0.00000000000E+00 0.  1.
          1   -1    0    0  501    0 -0.00000000000E+00 -0.00000000000E+00 -0.29398498708E+02  0.29398498708E+02  0.00000000000E+00 0.  1.
          2    1    1    2  501    0  0.48285529706E+02 -0.76942328492E+02  0.76803492675E+03  0.77338817097E+03  0.00000000000E+00 0.  1.
          1    1    1    2  502    0 -0.72345904165E+02  0.29103584209E+02  0.36273128077E+03  0.37101877380E+03  0.00000000000E+00 0.  1.
         22    1    1    2    0    0 -0.23184603565E+02  0.26131773561E+02 -0.24119924751E+01  0.35017326278E+02  0.00000000000E+00 0. -1.
         22    1    1    2    0    0  0.47244978025E+02  0.21706970722E+02  0.17106218116E+03  0.17878912257E+03  0.00000000000E+00 0.  1.
</event>
<event>
 6    1  0.8017648E-006  0.4016453E+02  0.7818608E-02  0.1574679E+00
          2   -1    0    0  502    0  0.00000000000E+00  0.00000000000E+00  0.96899768370E+02  0.96899768370E+02  0.00000000000E+00 0.  1.
          1   -1    0    0  501    0 -0.00000000000E+00 -0.00000000000E+00 -0.17522530307E+03  0.17522530307E+03  0.00000000000E+00 0.  1.
          2    1    1    2  501    0  0.31942657888E+01 -0.24197196280E+02  0.12521782433E+02  0.27431782243E+02  0.00000000000E+00 0.  1.
          1    1    1    2  502    0 -0.52625520401E+01  0.30119559006E+02 -0.10913090225E+03  0.11333329658E+03  0.00000000000E+00 0.  1.
         22    1    1    2    0    0 -0.59091643609E+00 -0.16641558115E+02  0.73340054876E+02  0.75206743633E+02  0.00000000000E+00 0.  1.
         22    1    1    2    0    0  0.26592026874E+01  0.10719195388E+02 -0.55056469763E+02  0.56153248984E+02  0.00000000000E+00 0.  1.
</event>
<event>
 6    1  0.8017648E-006  0.5683380E+02  0.7818608E-02  0.1413364E+00
          2   -1    0    0  502    0  0.00000000000E+00  0.00000000000E+00  0.12477706950E+03  0.12477706950E+03  0.00000000000E+00 0.  1.
          1   -1    0    0  501    0 -0.00000000000E+00 -0.00000000000E+00 -0.17403474946E+03  0.17403474946E+03  0.00000000000E+00 0. -1.
          2    1    1    2  501    0 -0.37007147623E+02  0.33178102066E+01  0.76996262588E+02  0.85492463366E+02  0.00000000000E+00 0.  1.
          1    1    1    2  502    0  0.32395814872E+02  0.25648476230E+01 -0.64380675883E+02  0.72117533872E+02  0.00000000000E+00 0. -1.
         22    1    1    2    0    0 -0.13931192532E+02 -0.11639950783E+02  0.36588160328E+02  0.40844339335E+02  0.00000000000E+00 0. -1.
         22    1    1    2    0    0  0.18542525283E+02  0.57572929536E+01 -0.98461426990E+02  0.10035748239E+03  0.00000000000E+00 0. -1.
</event>
<event>
 6    1  0.8017648E-006  0.1177058E+03  0.7818608E-02  0.1318124E+00
          2   -1    0    0  502    0  0.00000000000E+00  0.00000000000E+00  0.11085880507E+04  0.11085880507E+04  0.00000000000E+00 0. -1.
          1   -1    0    0  501    0 -0.00000000000E+00 -0.00000000000E+00 -0.63940255195E+02  0.63940255195E+02  0.00000000000E+00 0. -1.
          2    1    1    2  501    0  0.25689915613E+02 -0.31261063284E+02  0.12129602146E+02  0.42241603783E+02  0.00000000000E+00 0. -1.
          1    1    1    2  502    0 -0.77821183512E+02  0.81175084523E+02  0.96516401164E+03  0.97169290432E+03  0.00000000000E+00 0. -1.
         22    1    1    2    0    0 -0.75553446512E+01  0.29548961770E+02 -0.10596529286E+02  0.32287935942E+02  0.00000000000E+00 0. -1.
         22    1    1    2    0    0  0.59686612549E+02 -0.79462983009E+02  0.77950710960E+02  0.12630586180E+03  0.00000000000E+00 0.  1.
</event>
<event>
 6    1  0.8017648E-006  0.5440057E+02  0.7818608E-02  0.1479651E+00
          2   -1    0    0  502    0  0.00000000000E+00  0.00000000000E+00  0.24565968373E+03  0.24565968373E+03  0.00000000000E+00 0. -1.
          1   -1    0    0  501    0 -0.00000000000E+00 -0.00000000000E+00 -0.15065478875E+03  0.15065478875E+03  0.00000000000E+00 0. -1.
          2    1    1    2  501    0  0.34471206810E+02 -0.64401917551E+02  0.13986442327E+03  0.15779077279E+03  0.00000000000E+00 0. -1.
          1    1    1    2  502    0 -0.81156959646E+02  0.25419270704E+02 -0.49787818416E+02  0.98546528527E+02  0.00000000000E+00 0. -1.
         22    1    1    2    0    0  0.10364793679E+02  0.15899302515E+02  0.64077279242E+02  0.66828994333E+02  0.00000000000E+00 0.  1.
         22    1    1    2    0    0  0.36320959157E+02  0.23083344332E+02 -0.59148989113E+02  0.73148176824E+02  0.00000000000E+00 0.  1.
</event>
<event>
 6    1  0.8017648E-006  0.9526926E+02  0.7818608E-02  0.1357714E+00
          2   -1    0    0  502    0  0.00000000000E+00  0.00000000000E+00  0.30242282338E+03  0.30242282338E+03  0.00000000000E+00 0. -1.
          1   -1    0    0  501    0 -0.00000000000E+00 -0.00000000000E+00 -0.78360943119E+02  0.78360943119E+02  0.00000000000E+00 0. -1.
          2    1    1    2  501    0 -0.69265355616E+02 -0.10465317539E+01  0.71807882392E+02  0.99775531524E+02  0.00000000000E+00 0. -1.
          1    1    1    2  502    0  0.79025015946E+02 -0.25661025639E+02  0.13008498954E+03  0.15435525869E+03  0.00000000000E+00 0. -1.
         22    1    1    2    0    0  0.24980205891E+02  0.14536563676E+02 -0.42997694989E+02  0.51808533508E+02  0.00000000000E+00 0. -1.
         22    1    1    2    0    0 -0.34739866222E+02  0.12170993716E+02  0.65166703319E+02  0.74844442777E+02  0.00000000000E+00 0. -1.
</event>
<event>
 6    1  0.8017648E-006  0.1151964E+03  0.7818608E-02  0.1287207E+00
          2   -1    0    0  502    0  0.00000000000E+00  0.00000000000E+00  0.10544560264E+04  0.10544560264E+04  0.00000000000E+00 0. -1.
          1   -1    0    0  501    0 -0.00000000000E+00 -0.00000000000E+00 -0.45348065419E+02  0.45348065419E+02  0.00000000000E+00 0. -1.
          2    1    1    2  501    0 -0.12052114318E+03  0.13150588542E+02  0.54615348720E+03  0.55944786666E+03  0.00000000000E+00 0. -1.
          1    1    1    2  502    0  0.84914996829E+02 -0.59554312430E+01  0.36560960296E+03  0.37538833975E+03  0.00000000000E+00 0. -1.
         22    1    1    2    0    0  0.49758414067E+02 -0.28613039129E+02 -0.67133097280E+01  0.57789915264E+02  0.00000000000E+00 0. -1.
         22    1    1    2    0    0 -0.14152267720E+02  0.21417881830E+02  0.10405818052E+03  0.10717797011E+03  0.00000000000E+00 0. -1.
</event>
<event>
 6    1  0.8017648E-006  0.1202662E+03  0.7818608E-02  0.1306583E+00
          2   -1    0    0  502    0  0.00000000000E+00  0.00000000000E+00  0.15566092883E+04  0.15566092883E+04  0.00000000000E+00 0.  1.
          1   -1    0    0  501    0 -0.00000000000E+00 -0.00000000000E+00 -0.74522639761E+03  0.74522639761E+03  0.00000000000E+00 0.  1.
          2    1    1    2  501    0 -0.19519642628E+03  0.18888380819E+03  0.14526869318E+04  0.14778626660E+04  0.00000000000E+00 0.  1.
          1    1    1    2  502    0  0.24116655908E+03 -0.19664357606E+03 -0.61013675708E+03  0.68490646629E+03  0.00000000000E+00 0.  1.
         22    1    1    2    0    0  0.13996055395E+01  0.13906582501E+02 -0.73757231838E+02  0.75069842020E+02  0.00000000000E+00 0.  1.
         22    1    1    2    0    0 -0.47369738341E+02 -0.61468146265E+01  0.42589947880E+02  0.63996711642E+02  0.00000000000E+00 0.  1.
</event>
<event>
 6    1  0.8017648E-006  0.2686272E+03  0.7818608E-02  0.1186362E+00
          2   -1    0    0  502    0  0.00000000000E+00  0.00000000000E+00  0.24082462043E+03  0.24082462043E+03  0.00000000000E+00 0.  1.
          1   -1    0    0  501    0 -0.00000000000E+00 -0.00000000000E+00 -0.41983974649E+03  0.41983974649E+03  0.00000000000E+00 0.  1.
          2    1    1    2  501    0  0.50538586466E+02  0.68535617490E+02  0.90934267895E+02  0.12458057900E+03  0.00000000000E+00 0.  1.
          1    1    1    2  502    0 -0.16713914338E+03 -0.18060803489E+03 -0.20927629735E+03  0.32303455566E+03  0.00000000000E+00 0.  1.
         22    1    1    2    0    0  0.32031893034E+02 -0.15548250056E+02 -0.47531146753E+02  0.59388552456E+02  0.00000000000E+00 0.  1.
         22    1    1    2    0    0  0.84568663884E+02  0.12762066745E+03 -0.13141949852E+02  0.15366067980E+03  0.00000000000E+00 0. -1.
</event>
<event>
 6    1  0.8017648E-006  0.2983303E+02  0.7818608E-02  0.1643439E+00
          2   -1    0    0  502    0  0.00000000000E+00  0.00000000000E+00  0.86952844453E+02  0.86952844453E+02  0.00000000000E+00 0. -1.
          1   -1    0    0  501    0 -0.00000000000E+00 -0.00000000000E+00 -0.33705748141E+03  0.33705748141E+03  0.00000000000E+00 0. -1.
          2    1    1    2  501    0  0.30821977281E+02 -0.88569367692E+01  0.30158002311E+02  0.44022093496E+02  0.00000000000E+00 0. -1.
          1    1    1    2  502    0 -0.43955232228E+02 -0.57287617056E+01 -0.24530271292E+03  0.24927555459E+03  0.00000000000E+00 0. -1.
         22    1    1    2    0    0  0.23161835964E+01  0.20714773902E+02 -0.80681688717E+02  0.83330675376E+02  0.00000000000E+00 0. -1.
         22    1    1    2    0    0  0.10817071351E+02 -0.61290754271E+01  0.45721762365E+02  0.47382002405E+02  0.00000000000E+00 0. -1.
</event>
<event>
 6    1  0.8017648E-006  0.2564153E+03  0.7818608E-02  0.1205100E+00
          2   -1    0    0  502    0  0.00000000000E+00  0.00000000000E+00  0.17035783594E+03  0.17035783594E+03  0.00000000000E+00 0. -1.
          1   -1    0    0  501    0 -0.00000000000E+00 -0.00000000000E+00 -0.47202829325E+03  0.47202829325E+03  0.00000000000E+00 0. -1.
          2    1    1    2  501    0 -0.60523657479E+02 -0.19471746784E+03 -0.86627295439E+02  0.22154524078E+03  0.00000000000E+00 0. -1.
          1    1    1    2  502    0  0.10169208683E+03  0.20975162479E+03 -0.13569936756E+03  0.26972456874E+03  0.00000000000E+00 0. -1.
         22    1    1    2    0    0 -0.10474604550E+02  0.25070416519E+02 -0.94548231273E+02  0.98374850251E+02  0.00000000000E+00 0. -1.
         22    1    1    2    0    0 -0.30693824798E+02 -0.40104573460E+02  0.15204436970E+02  0.52741469422E+02  0.00000000000E+00 0.  1.
</event>
<event>
 6    1  0.8017648E-006  0.9424623E+02  0.7818608E-02  0.1412524E+00
          2   -1    0    0  502    0  0.00000000000E+00  0.00000000000E+00  0.77326179968E+03  0.77326179968E+03  0.00000000000E+00 0. -1.
          1   -1    0    0  501    0 -0.00000000000E+00 -0.00000000000E+00 -0.26691210656E+03  0.26691210656E+03  0.00000000000E+00 0.  1.
          2    1    1    2  501    0  0.23955421911E+02  0.70780692067E+02  0.69682871858E+03  0.70082382355E+03  0.00000000000E+00 0. -1.
          1    1    1    2  502    0 -0.18879069554E+02 -0.91558703563E+02 -0.19055685498E+03  0.21225298690E+03  0.00000000000E+00 0.  1.
         22    1    1    2    0    0  0.53175896817E+01  0.14220880383E+02  0.62069304800E+02  0.63899208111E+02  0.00000000000E+00 0. -1.
         22    1    1    2    0    0 -0.10393942039E+02  0.65571311129E+01 -0.61991475282E+02  0.63197887680E+02  0.00000000000E+00 0.  1.
</event>
<event>
 6    1  0.8017648E-006  0.1090657E+03  0.7818608E-02  0.1347167E+00
          2   -1    0    0  502    0  0.00000000000E+00  0.00000000000E+00  0.47214140899E+03  0.47214140899E+03  0.00000000000E+00 0.  1.
          1   -1    0    0  501    0 -0.00000000000E+00 -0.00000000000E+00 -0.73881043249E+02  0.73881043249E+02  0.00000000000E+00 0.  1.
          2    1    1    2  501    0 -0.60586438191E+02 -0.33670966802E+02  0.25034580672E+03  0.25976426514E+03  0.00000000000E+00 0.  1.
          1    1    1    2  502    0  0.74850895873E+02  0.27624748684E+02  0.14066071709E+03  0.16171339056E+03  0.00000000000E+00 0.  1.
         22    1    1    2    0    0 -0.21152676686E+02  0.28038514690E+02  0.58568600347E+02  0.68292569022E+02  0.00000000000E+00 0.  1.
         22    1    1    2    0    0  0.68882190041E+01 -0.21992296573E+02 -0.51314758420E+02  0.56252227523E+02  0.00000000000E+00 0.  1.
</event>
<event>
 6    1  0.8017648E-006  0.5773515E+02  0.7818608E-02  0.1464618E+00
          2   -1    0    0  502    0  0.00000000000E+00  0.00000000000E+00  0.14204418696E+03  0.14204418696E+03  0.00000000000E+00 0. -1.
          1   -1    0    0  501    0 -0.00000000000E+00 -0.00000000000E+00 -0.13288195580E+03  0.13288195580E+03  0.00000000000E+00 0. -1.
          2    1    1    2  501    0  0.32705213759E+02 -0.26998297596E+02  0.55160006590E+00  0.42412773344E+02  0.00000000000E+00 0. -1.
          1    1    1    2  502    0 -0.94156706738E+01  0.33029586926E+02 -0.73199819366E+02  0.80856799479E+02  0.00000000000E+00 0. -1.
         22    1    1    2    0    0 -0.18769010716E+02  0.18042332743E+02 -0.28533924522E+02  0.38626239561E+02  0.00000000000E+00 0. -1.
         22    1    1    2    0    0 -0.45205323700E+01 -0.24073622073E+02  0.11034437499E+03  0.11303033037E+03  0.00000000000E+00 0. -1.
</event>
<event>
 6    1  0.8017648E-006  0.1768739E+03  0.7818608E-02  0.1228076E+00
          2   -1    0    0  502    0  0.00000000000E+00  0.00000000000E+00  0.27360087380E+03  0.27360087380E+03  0.00000000000E+00 0. -1.
          1   -1    0    0  501    0 -0.00000000000E+00 -0.00000000000E+00 -0.18036036851E+03  0.18036036851E+03  0.00000000000E+00 0. -1.
          2    1    1    2  501    0  0.42214351777E+02  0.27124529039E+02 -0.11992534991E+03  0.12999954278E+03  0.00000000000E+00 0. -1.
          1    1    1    2  502    0 -0.31966181302E+02 -0.23420439134E+02  0.19838886489E+03  0.20230792231E+03  0.00000000000E+00 0. -1.
         22    1    1    2    0    0  0.49158668509E+02 -0.13414743174E+02 -0.16831860034E+02  0.53664155040E+02  0.00000000000E+00 0. -1.
         22    1    1    2    0    0 -0.59406838983E+02  0.97106532693E+01  0.31608850346E+02  0.67989622187E+02  0.00000000000E+00 0. -1.
</event>
<event>
 6    1  0.8017648E-006  0.6293454E+02  0.7818608E-02  0.1410324E+00
          2   -1    0    0  502    0  0.00000000000E+00  0.00000000000E+00  0.11817720381E+03  0.11817720381E+03  0.00000000000E+00 0.  1.
          1   -1    0    0  501    0 -0.00000000000E+00 -0.00000000000E+00 -0.11573701433E+03  0.11573701433E+03  0.00000000000E+00 0. -1.
          2    1    1    2  501    0 -0.32606257358E+02 -0.93569372209E+01  0.21813217149E+02  0.40330345094E+02  0.00000000000E+00 0.  1.
          1    1    1    2  502    0 -0.10686003503E+02 -0.19164973390E+02 -0.53675797231E+02  0.57987740810E+02  0.00000000000E+00 0. -1.
         22    1    1    2    0    0  0.40259044192E+02  0.14262326169E+02 -0.40814969080E+02  0.59076782986E+02  0.00000000000E+00 0. -1.
         22    1    1    2    0    0  0.30332166688E+01  0.14259584441E+02  0.75117738635E+02  0.76519349249E+02  0.00000000000E+00 0.  1.
</event>
<event>
 6    1  0.8017648E-006  0.1531479E+03  0.7818608E-02  0.1321267E+00
          2   -1    0    0  502    0  0.00000000000E+00  0.00000000000E+00  0.11132650527E+04  0.11132650527E+04  0.00000000000E+00 0. -1.
          1   -1    0    0  501    0 -0.00000000000E+00 -0.00000000000E+00 -0.11361842020E+03  0.11361842020E+03  0.00000000000E+00 0.  1.
          2    1    1    2  501    0 -0.13023913146E+03 -0.26296432250E+02  0.92318551534E+03  0.93269782322E+03  0.00000000000E+00 0. -1.
          1    1    1    2  502    0  0.15589966239E+03  0.34615482515E+02  0.48107427486E+02  0.16678507409E+03  0.00000000000E+00 0.  1.
         22    1    1    2    0    0 -0.17565934602E+02  0.19685805910E+01  0.75979521927E+02  0.78008493898E+02  0.00000000000E+00 0. -1.
         22    1    1    2    0    0 -0.80945963225E+01 -0.10287630856E+02 -0.47625832236E+02  0.49392081698E+02  0.00000000000E+00 0. -1.
</event>
<event>
 6    1  0.8017648E-006  0.4753875E+02  0.7818608E-02  0.1460603E+00
          2   -1    0    0  502    0  0.00000000000E+00  0.00000000000E+00  0.58688828768E+02  0.58688828768E+02  0.00000000000E+00 0.  1.
          1   -1    0    0  501    0 -0.00000000000E+00 -0.00000000000E+00 -0.47107165395E+03  0.47107165395E+03  0.00000000000E+00 0.  1.
          2    1    1    2  501    0 -0.15715595232E+02  0.52310566829E+02  0.61637339487E+01  0.54966962365E+02  0.00000000000E+00 0.  1.
          1    1    1    2  502    0  0.47851667015E+02  0.48220755928E+01 -0.24565923925E+03  0.25032278418E+03  0.00000000000E+00 0.  1.
         22    1    1    2    0    0 -0.45466394645E+02 -0.12580619532E+02 -0.17158185677E+03  0.17794886514E+03  0.00000000000E+00 0.  1.
         22    1    1    2    0    0  0.13330322862E+02 -0.44552022890E+02 -0.13054631084E+01  0.46521871041E+02  0.00000000000E+00 0.  1.
</event>
<event>
 6    1  0.8017648E-006  0.7887444E+02  0.7818608E-02  0.1430354E+00
          2   -1    0    0  502    0  0.00000000000E+00  0.00000000000E+00  0.18261389705E+03  0.18261389705E+03  0.00000000000E+00 0.  1.
          1   -1    0    0  501    0 -0.00000000000E+00 -0.00000000000E+00 -0.12550887822E+03  0.12550887822E+03  0.00000000000E+00 0.  1.
          2    1    1    2  501    0  0.17569298261E+02 -0.36131886775E+02  0.91530189416E+01  0.41206446572E+02  0.00000000000E+00 0.  1.
          1    1    1    2  502    0 -0.90420841882E+02  0.42736240435E+02 -0.21980343615E+02  0.10239848826E+03  0.00000000000E+00 0.  1.
         22    1    1    2    0    0  0.30314669223E+01 -0.15655137414E+02  0.89926664920E+02  0.91329503354E+02  0.00000000000E+00 0.  1.
         22    1    1    2    0    0  0.69820076698E+02  0.90507837541E+01 -0.19994321412E+02  0.73188337086E+02  0.00000000000E+00 0.  1.
</event>
<event>
 6    1  0.8017648E-006  0.1017224E+03  0.7818608E-02  0.1298111E+00
          2   -1    0    0  502    0  0.00000000000E+00  0.00000000000E+00  0.16936097722E+03  0.16936097722E+03  0.00000000000E+00 0.  1.
          1   -1    0    0  501    0 -0.00000000000E+00 -0.00000000000E+00 -0.22578736540E+03  0.22578736540E+03  0.00000000000E+00 0.  1.
          2    1    1    2  501    0 -0.92932251677E+01 -0.51797732990E+02  0.58299303579E+02  0.78537748724E+02  0.00000000000E+00 0.  1.
          1    1    1    2  502    0 -0.18793303725E+02 -0.84311892417E+02 -0.92529625039E+02  0.12658362840E+03  0.00000000000E+00 0.  1.
         22    1    1    2    0    0  0.38210072302E+02  0.14603428477E+03 -0.49835173940E+02  0.15896404158E+03  0.00000000000E+00 0.  1.
         22    1    1    2    0    0 -0.10123543409E+02 -0.99246593621E+01  0.27639107221E+02  0.31062923922E+02  0.00000000000E+00 0. -1.
</event>
<event>
 6    1  0.8017648E-006  0.2324466E+03  0.7818608E-02  0.1192086E+00
          2   -1    0    0  502    0  0.00000000000E+00  0.00000000000E+00  0.18380943106E+03  0.18380943106E+03  0.00000000000E+00 0.  1.
          1   -1    0    0  501    0 -0.00000000000E+00 -0.00000000000E+00 -0.10792897486E+04  0.10792897486E+04  0.00000000000E+00 0.  1.
          2    1    1    2  501    0 -0.30809130912E+02  0.19048421461E+03  0.90114591860E+02  0.21296496949E+03  0.00000000000E+00 0.  1.
          1    1    1    2  502    0 -0.38667589399E+01 -0.21528749604E+03 -0.72485852584E+03  0.75616369938E+03  0.00000000000E+00 0.  1.
         22    1    1    2    0    0  0.47851076423E+02 -0.73898432492E+01 -0.25395676041E+03  0.25853118082E+03  0.00000000000E+00 0.  1.
         22    1    1    2    0    0 -0.13175186571E+02  0.32193124681E+02 -0.67796231413E+01  0.35439329958E+02  0.00000000000E+00 0.  1.
</event>
<event>
 6    1  0.8017648E-006  0.8148813E+02  0.7818608E-02  0.1415220E+00
          2   -1    0    0  502    0  0.00000000000E+00  0.00000000000E+00  0.34328954394E+03  0.34328954394E+03  0.00000000000E+00 0. -1.
          1   -1    0    0  501    0 -0.00000000000E+00 -0.00000000000E+00 -0.79041618556E+02  0.79041618556E+02  0.00000000000E+00 0. -1.
          2    1    1    2  501    0  0.53697701121E+02  0.21382601602E+02  0.20040281302E+03  0.20857120181E+03  0.00000000000E+00 0. -1.
          1    1    1    2  502    0 -0.55164326312E+02 -0.29778933712E+02 -0.16348476616E+02  0.64785495893E+02  0.00000000000E+00 0. -1.
         22    1    1    2    0    0  0.15514757344E+02  0.20019853593E+02  0.11063118095E+03  0.11349343784E+03  0.00000000000E+00 0. -1.
         22    1    1    2    0    0 -0.14048132154E+02 -0.11623521483E+02 -0.30437591975E+02  0.35481026957E+02  0.00000000000E+00 0. -1.
</event>
<event>
 6    1  0.8017648E-006  0.4573647E+02  0.7818608E-02  0.1500089E+00
          2   -1    0    0  502    0  0.00000000000E+00  0.00000000000E+00  0.12718873746E+03  0.12718873746E+03  0.00000000000E+00 0. -1.
          1   -1    0    0  501    0 -0.00000000000E+00 -0.00000000000E+00 -0.20218253750E+03  0.20218253750E+03  0.00000000000E+00 0.  1.
          2    1    1    2  501    0 -0.45743010807E+02 -0.48935505188E+02  0.29286355268E+02  0.73108120689E+02  0.00000000000E+00 0. -1.
          1    1    1    2  502    0  0.73659228333E+02  0.50318807044E+01 -0.96824945690E+02  0.12176235810E+03  0.00000000000E+00 0.  1.
         22    1    1    2    0    0 -0.16552475358E+02  0.26247429682E+02 -0.65660647101E+02  0.72623911924E+02  0.00000000000E+00 0. -1.
         22    1    1    2    0    0 -0.11363742169E+02  0.17656194802E+02  0.58205437483E+02  0.61876884242E+02  0.00000000000E+00 0. -1.
</event>
<event>
 6    1  0.8017648E-006  0.9340187E+02  0.7818608E-02  0.1294840E+00
          2   -1    0    0  502    0  0.00000000000E+00  0.00000000000E+00  0.27928458247E+03  0.27928458247E+03  0.00000000000E+00 0. -1.
          1   -1    0    0  501    0 -0.00000000000E+00 -0.00000000000E+00 -0.58699959024E+02  0.58699959024E+02  0.00000000000E+00 0.  1.
          2    1    1    2  501    0 -0.26076173498E+02 -0.17606645399E+02  0.51099015003E+02  0.60008917011E+02  0.00000000000E+00 0. -1.
          1    1    1    2  502    0  0.58778147669E+02  0.29009855338E+02  0.27543905797E+01  0.65605099022E+02  0.00000000000E+00 0.  1.
         22    1    1    2    0    0 -0.58605194578E+02 -0.46952247831E+01  0.17480019789E+03  0.18442267526E+03  0.00000000000E+00 0. -1.
         22    1    1    2    0    0  0.25903220406E+02 -0.67079851556E+01 -0.80689800275E+01  0.27947850202E+02  0.00000000000E+00 0. -1.
</event>
<event>
 6    1  0.8017648E-006  0.4776527E+02  0.7818608E-02  0.1476057E+00
          2   -1    0    0  502    0  0.00000000000E+00  0.00000000000E+00  0.94378952761E+03  0.94378952761E+03  0.00000000000E+00 0. -1.
          1   -1    0    0  501    0 -0.00000000000E+00 -0.00000000000E+00 -0.72859053062E+02  0.72859053062E+02  0.00000000000E+00 0. -1.
          2    1    1    2  501    0 -0.76347203152E+02  0.66486031295E+01  0.76579708139E+03  0.76962216004E+03  0.00000000000E+00 0. -1.
          1    1    1    2  502    0  0.62778610006E+02 -0.14592771495E+02 -0.22680831653E+02  0.68326590568E+02  0.00000000000E+00 0. -1.
         22    1    1    2    0    0  0.63347221985E+01  0.29452455185E+02  0.14633818229E+03  0.14940695906E+03  0.00000000000E+00 0. -1.
         22    1    1    2    0    0  0.72338709479E+01 -0.21508286820E+02 -0.18523957479E+02  0.29292871001E+02  0.00000000000E+00 0. -1.
</event>
<event>
 6    1  0.9639686E-006  0.3466270E+03  0.7818608E-02  0.1205221E+00
          2   -1    0    0  502    0  0.00000000000E+00  0.00000000000E+00  0.11984689856E+04  0.11984689856E+04  0.00000000000E+00 0. -1.
          1   -1    0    0  501    0 -0.00000000000E+00 -0.00000000000E+00 -0.54279414146E+03  0.54279414146E+03  0.00000000000E+00 0.  1.
          2    1    1    2  501    0 -0.51479885010E+02  0.32610238757E+03  0.10462068283E+04  0.10970604693E+04  0.00000000000E+00 0. -1.
          1    1    1    2  502    0  0.52200657000E+02 -0.33295222115E+03 -0.39103074554E+03  0.51622391859E+03  0.00000000000E+00 0.  1.
         22    1    1    2    0    0 -0.88015639824E+01  0.14268791691E+02  0.62656376253E+02  0.64860522894E+02  0.00000000000E+00 0.  1.
         22    1    1    2    0    0  0.80807919919E+01 -0.74189581073E+01 -0.62157614875E+02  0.63118216273E+02  0.00000000000E+00 0. -1.
</event>
<event>
 6    1  0.8017648E-006  0.6473147E+02  0.7818608E-02  0.1402054E+00
          2   -1    0    0  502    0  0.00000000000E+00  0.00000000000E+00  0.21536738699E+03  0.21536738699E+03  0.00000000000E+00 0.  1.
          1   -1    0    0  501    0 -0.00000000000E+00 -0.00000000000E+00 -0.12771970711E+03  0.12771970711E+03  0.00000000000E+00 0. -1.
          2    1    1    2  501    0 -0.18833091272E+02 -0.63421653057E+02  0.94659734384E+02  0.11548790723E+03  0.00000000000E+00 0.  1.
          1    1    1    2  502    0 -0.52528269198E+02 -0.15299532113E+02 -0.29456170871E+02  0.62136629698E+02  0.00000000000E+00 0. -1.
         22    1    1    2    0    0  0.11973830219E+01  0.44674737426E+02 -0.44216120967E+02  0.62867569092E+02  0.00000000000E+00 0. -1.
         22    1    1    2    0    0  0.70163977448E+02  0.34046447744E+02  0.66660237336E+02  0.10259498807E+03  0.00000000000E+00 0. -1.
</event>
<event>
 6    1  0.8017648E-006  0.2954654E+02  0.7818608E-02  0.1643561E+00
          2   -1    0    0  502    0  0.00000000000E+00  0.00000000000E+00  0.14700990525E+03  0.14700990525E+03  0.00000000000E+00 0. -1.
          1   -1    0    0  501    0 -0.00000000000E+00 -0.00000000000E+00 -0.24501640911E+03  0.24501640911E+03  0.00000000000E+00 0.  1.
          2    1    1    2  501    0 -0.12743178458E+02  0.39272574085E+02  0.83681902805E+02  0.93313367368E+02  0.00000000000E+00 0. -1.
          1    1    1    2  502    0  0.16425865155E+01 -0.55914173224E+02 -0.16242754331E+03  0.17178998714E+03  0.00000000000E+00 0.  1.
         22    1    1    2    0    0  0.17575908639E+02  0.68376217981E+01  0.51681129637E+02  0.55014587128E+02  0.00000000000E+00 0.  1.
         22    1    1    2    0    0 -0.64753166967E+01  0.98039773406E+01 -0.70941992994E+02  0.71908372725E+02  0.00000000000E+00 0.  1.
</event>
<event>
 6    1  0.8017648E-006  0.4079189E+02  0.7818608E-02  0.1581535E+00
          2   -1    0    0  502    0  0.00000000000E+00  0.00000000000E+00  0.75022236044E+02  0.75022236044E+02  0.00000000000E+00 0.  1.
          1   -1    0    0  501    0 -0.00000000000E+00 -0.00000000000E+00 -0.25242852730E+03  0.25242852730E+03  0.00000000000E+00 0.  1.
          2    1    1    2  501    0  0.15087641266E+02  0.33855656685E+02  0.19743724917E+02  0.41995917446E+02  0.00000000000E+00 0.  1.
          1    1    1    2  502    0  0.50302519013E+00 -0.74120230056E+02 -0.80258410224E+02  0.10924959473E+03  0.00000000000E+00 0.  1.
         22    1    1    2    0    0 -0.18524813894E+02  0.28367348415E+02 -0.14321581931E+03  0.14716876736E+03  0.00000000000E+00 0. -1.
         22    1    1    2    0    0  0.29341474375E+01  0.11897224957E+02  0.26324213358E+02  0.29036483806E+02  0.00000000000E+00 0.  1.
</event>
<event>
 6    1  0.8017648E-006  0.5450451E+02  0.7818608E-02  0.1487182E+00
          2   -1    0    0  502    0  0.00000000000E+00  0.00000000000E+00  0.25090333524E+03  0.25090333524E+03  0.00000000000E+00 0.  1.
          1   -1    0    0  501    0 -0.00000000000E+00 -0.00000000000E+00 -0.93943525754E+02  0.93943525754E+02  0.00000000000E+00 0. -1.
          2    1    1    2  501    0 -0.49483212966E+02  0.52957321242E+01  0.14024629943E+03  0.14881417153E+03  0.00000000000E+00 0.  1.
          1    1    1    2  502    0  0.60617653121E+02 -0.31422835240E+02 -0.15271242177E+01  0.68295142966E+02  0.00000000000E+00 0. -1.
         22    1    1    2    0    0 -0.19469301762E+02  0.40208536853E+02  0.64618399934E+02  0.78557735183E+02  0.00000000000E+00 0. -1.
         22    1    1    2    0    0  0.83348616076E+01 -0.14081433737E+02 -0.46377765657E+02  0.49179811320E+02  0.00000000000E+00 0. -1.
</event>
<event>
 6    1  0.8017648E-006  0.3893856E+02  0.7818608E-02  0.1562464E+00
          2   -1    0    0  502    0  0.00000000000E+00  0.00000000000E+00  0.42117732646E+03  0.42117732646E+03  0.00000000000E+00 0. -1.
          1   -1    0    0  501    0 -0.00000000000E+00 -0.00000000000E+00 -0.80362383944E+02  0.80362383944E+02  0.00000000000E+00 0.  1.
          2    1    1    2  501    0  0.27973448324E+02 -0.45337656651E+02  0.31083211709E+03  0.31536426864E+03  0.00000000000E+00 0. -1.
          1    1    1    2  502    0 -0.92264340402E+01  0.57150216212E+02 -0.47224323498E+01  0.58082490180E+02  0.00000000000E+00 0.  1.
         22    1    1    2    0    0  0.13781754868E+02 -0.10239164662E+02 -0.41667680771E+02  0.45066316480E+02  0.00000000000E+00 0.  1.
         22    1    1    2    0    0 -0.32528769152E+02 -0.15733949000E+01  0.76372938542E+02  0.83026635098E+02  0.00000000000E+00 0. -1.
</event>
<event>
 6    1  0.8017648E-006  0.1095638E+03  0.7818608E-02  0.1267392E+00
          2   -1    0    0  502    0  0.00000000000E+00  0.00000000000E+00  0.35407975465E+03  0.35407975465E+03  0.00000000000E+00 0. -1.
          1   -1    0    0  501    0 -0.00000000000E+00 -0.00000000000E+00 -0.18809737429E+03  0.18809737429E+03  0.00000000000E+00 0. -1.
          2    1    1    2  501    0  0.92018665161E+02 -0.39956063186E+02  0.22717520463E+03  0.24833947597E+03  0.00000000000E+00 0. -1.
          1    1    1    2  502    0 -0.15777485115E+02  0.85176470153E+02 -0.10270088039E+03  0.13435561372E+03  0.00000000000E+00 0. -1.
         22    1    1    2    0    0 -0.86613376627E+02 -0.44626653435E+02 -0.17992308217E+02  0.99081473356E+02  0.00000000000E+00 0. -1.
         22    1    1    2    0    0  0.10372196580E+02 -0.59375353224E+00  0.59500364332E+02  0.60400565898E+02  0.00000000000E+00 0.  1.
</event>
<event>
 6    1  0.8017648E-006  0.7936387E+02  0.7818608E-02  0.1429841E+00
          2   -1    0    0  502    0  0.00000000000E+00  0.00000000000E+00  0.22504617833E+03  0.22504617833E+03  0.00000000000E+00 0. -1.
          1   -1    0    0  501    0 -0.00000000000E+00 -0.00000000000E+00 -0.49670596432E+03  0.49670596432E+03  0.00000000000E+00 0.  1.
          2    1    1    2  501    0 -0.27034963385E+02  0.47215592390E+02  0.16296958272E+03  0.17181177579E+03  0.00000000000E+00 0. -1.
          1    1    1    2  502    0  0.47295481443E+02 -0.74679120284E+02 -0.41077627530E+03  0.42017970193E+03  0.00000000000E+00 0.  1.
         22    1    1    2    0    0 -0.20729778238E+02  0.11695352585E+02  0.49396450297E+02  0.54831690471E+02  0.00000000000E+00 0. -1.
         22    1    1    2    0    0  0.46926017892E+00  0.15768175309E+02 -0.73249543712E+02  0.74928974447E+02  0.00000000000E+00 0.  1.
</event>
<event>
 6    1  0.8017648E-006  0.3885362E+03  0.7818608E-02  0.1126349E+00
          2   -1    0    0  502    0  0.00000000000E+00  0.00000000000E+00  0.16596806378E+04  0.16596806378E+04  0.00000000000E+00 0.  1.
          1   -1    0    0  501    0 -0.00000000000E+00 -0.00000000000E+00 -0.12365314399E+03  0.12365314399E+03  0.00000000000E+00 0.  1.
          2    1    1    2  501    0 -0.19336812681E+03 -0.28927760775E+03  0.93282705560E+03  0.99560990476E+03  0.00000000000E+00 0.  1.
          1    1    1    2  502    0  0.18148130640E+03  0.32817582958E+03  0.41926249808E+03  0.56250856170E+03  0.00000000000E+00 0.  1.
         22    1    1    2    0    0 -0.34289048763E+02 -0.25590480094E+02  0.16982322999E+03  0.17513006875E+03  0.00000000000E+00 0.  1.
         22    1    1    2    0    0  0.46175869180E+02 -0.13307741733E+02  0.14114710180E+02  0.50085246610E+02  0.00000000000E+00 0.  1.
</event>
<event>
 6    1  0.8017648E-006  0.5332498E+02  0.7818608E-02  0.1496531E+00
          2   -1    0    0  502    0  0.00000000000E+00  0.00000000000E+00  0.51946641950E+03  0.51946641950E+03  0.00000000000E+00 0. -1.
          1   -1    0    0  501    0 -0.00000000000E+00 -0.00000000000E+00 -0.37298983091E+03  0.37298983091E+03  0.00000000000E+00 0.  1.
          2    1    1    2  501    0  0.57801624702E-01 -0.91836551285E+02  0.48064439322E+03  0.48933933852E+03  0.00000000000E+00 0. -1.
          1    1    1    2  502    0  0.32376669294E+02  0.71383701816E+02 -0.21824757482E+03  0.23189628180E+03  0.00000000000E+00 0.  1.
         22    1    1    2    0    0 -0.35300174884E+02  0.73653257123E+01 -0.13950822451E+03  0.14409335542E+03  0.00000000000E+00 0. -1.
         22    1    1    2    0    0  0.28657039659E+01  0.13087523757E+02  0.23587994702E+02  0.27127274676E+02  0.00000000000E+00 0.  1.
</event>
<event>
 6    1  0.8017648E-006  0.9274917E+02  0.7818608E-02  0.1332871E+00
          2   -1    0    0  502    0  0.00000000000E+00  0.00000000000E+00  0.80005145108E+02  0.80005145108E+02  0.00000000000E+00 0.  1.
          1   -1    0    0  501    0 -0.00000000000E+00 -0.00000000000E+00 -0.46066493069E+03  0.46066493069E+03  0.00000000000E+00 0.  1.
          2    1    1    2  501    0 -0.79464996420E+02  0.44612640520E+02 -0.95749247196E+02  0.13218506606E+03  0.00000000000E+00 0.  1.
          1    1    1    2  502    0  0.12811714889E+03 -0.39758491477E+02 -0.21833549653E+03  0.25625208395E+03  0.00000000000E+00 0.  1.
         22    1    1    2    0    0 -0.72119093670E+02 -0.37135483674E+02 -0.82174625201E+01  0.81533640356E+02  0.00000000000E+00 0.  1.
         22    1    1    2    0    0  0.23466941200E+02  0.32281334631E+02 -0.58357579333E+02  0.70699285431E+02  0.00000000000E+00 0.  1.
</event>
<event>
 6    1  0.8017648E-006  0.6821815E+02  0.7818608E-02  0.1401298E+00
          2   -1    0    0  502    0  0.00000000000E+00  0.00000000000E+00  0.38070593774E+03  0.38070593774E+03  0.00000000000E+00 0.  1.
          1   -1    0    0  501    0 -0.00000000000E+00 -0.00000000000E+00 -0.72963396496E+02  0.72963396496E+02  0.00000000000E+00 0.  1.
          2    1    1    2  501    0  0.22560408136E+02 -0.35536922587E+02  0.13610796289E+03  0.14246832084E+03  0.00000000000E+00 0.  1.
          1    1    1    2  502    0  0.48527734969E+01  0.72625529449E+02  0.15965983498E+03  0.17546874321E+03  0.00000000000E+00 0.  1.
         22    1    1    2    0    0 -0.65540094358E+02 -0.30803151842E+02 -0.30261767863E+02  0.78486385609E+02  0.00000000000E+00 0.  1.
         22    1    1    2    0    0  0.38126912725E+02 -0.62854550203E+01  0.42236511236E+02  0.57245884569E+02  0.00000000000E+00 0.  1.
</event>
<event>
 6    1  0.8017648E-006  0.4457428E+02  0.7818608E-02  0.1578694E+00
          2   -1    0    0  502    0  0.00000000000E+00  0.00000000000E+00  0.16736521958E+03  0.16736521958E+03  0.00000000000E+00 0. -1.
          1   -1    0    0  501    0 -0.00000000000E+00 -0.00000000000E+00 -0.22576305266E+03  0.22576305266E+03  0.00000000000E+00 0. -1.
          2    1    1    2  501    0 -0.14532353450E+02  0.20648845314E+02  0.93282362274E+02  0.96639346133E+02  0.00000000000E+00 0. -1.
          1    1    1    2  502    0  0.36423524494E+02 -0.11506369046E+02 -0.16851911646E+03  0.17279398797E+03  0.00000000000E+00 0. -1.
         22    1    1    2    0    0 -0.19258956078E+02  0.21456861916E+01  0.68273604624E+02  0.70970391339E+02  0.00000000000E+00 0. -1.
         22    1    1    2    0    0 -0.26322149663E+01 -0.11288162460E+02 -0.51434683512E+02  0.52724546800E+02  0.00000000000E+00 0.  1.
</event>
<event>
 6    1  0.8017648E-006  0.9880474E+02  0.7818608E-02  0.1341264E+00
          2   -1    0    0  502    0  0.00000000000E+00  0.00000000000E+00  0.43552920610E+03  0.43552920610E+03  0.00000000000E+00 0. -1.
          1   -1    0    0  501    0 -0.00000000000E+00 -0.00000000000E+00 -0.20692419320E+03  0.20692419320E+03  0.00000000000E+00 0. -1.
          2    1    1    2  501    0 -0.13817412916E+03  0.77528361866E+02  0.22514452235E+03  0.27530490879E+03  0.00000000000E+00 0. -1.
          1    1    1    2  502    0  0.20550355502E+03 -0.44634964208E+02 -0.46973835847E+02  0.21547745221E+03  0.00000000000E+00 0. -1.
         22    1    1    2    0    0 -0.49735752148E+02 -0.24395886447E+02 -0.34004736181E+02  0.65000972301E+02  0.00000000000E+00 0.  1.
         22    1    1    2    0    0 -0.17593673712E+02 -0.84975112111E+01  0.84439062578E+02  0.86670066001E+02  0.00000000000E+00 0.  1.
</event>
<event>
 6    1  0.8017648E-006  0.4754148E+02  0.7818608E-02  0.1512625E+00
          2   -1    0    0  502    0  0.00000000000E+00  0.00000000000E+00  0.46139500629E+03  0.46139500629E+03  0.00000000000E+00 0.  1.
          1   -1    0    0  501    0 -0.00000000000E+00 -0.00000000000E+00 -0.48691246303E+02  0.48691246303E+02  0.00000000000E+00 0.  1.
          2    1    1    2  501    0 -0.33974839657E+02 -0.21738985428E+02  0.21694919021E+03  0.22066677219E+03  0.00000000000E+00 0.  1.
          1    1    1    2  502    0  0.14615791408E+02  0.60375343990E+02  0.11296500068E+02  0.63138058524E+02  0.00000000000E+00 0.  1.
         22    1    1    2    0    0  0.17567028587E+02 -0.14817102878E+01 -0.15145223211E+02  0.23241638170E+02  0.00000000000E+00 0.  1.
         22    1    1    2    0    0  0.17920196622E+01 -0.37154648274E+02  0.19960329293E+03  0.20303978371E+03  0.00000000000E+00 0.  1.
</event>
<event>
 6    1  0.8017648E-006  0.8717473E+02  0.7818608E-02  0.1361075E+00
          2   -1    0    0  502    0  0.00000000000E+00  0.00000000000E+00  0.75581144629E+03  0.75581144629E+03  0.00000000000E+00 0.  1.
          1   -1    0    0  501    0 -0.00000000000E+00 -0.00000000000E+00 -0.27150821830E+02  0.27150821830E+02  0.00000000000E+00 0. -1.
          2    1    1    2  501    0  0.49100872267E+02 -0.20718341706E+02  0.33510718433E+03  0.33931839080E+03  0.00000000000E+00 0.  1.
          1    1    1    2  502    0 -0.67935081678E+02 -0.21257612005E+01  0.17419849640E+03  0.18698879734E+03  0.00000000000E+00 0. -1.
         22    1    1    2    0    0 -0.26186569537E+02  0.24190616524E+02  0.31281265078E+01  0.35786974270E+02  0.00000000000E+00 0. -1.
         22    1    1    2    0    0  0.45020778948E+02 -0.13465136183E+01  0.21622681722E+03  0.22086810572E+03  0.00000000000E+00 0.  1.
</event>
<event>
 6    1  0.8017648E-006  0.6330607E+02  0.7818608E-02  0.1476931E+00
          2   -1    0    0  502    0  0.00000000000E+00  0.00000000000E+00  0.10346449623E+03  0.10346449623E+03  0.00000000000E+00 0.  1.
          1   -1    0    0  501    0 -0.00000000000E+00 -0.00000000000E+00 -0.14248483360E+03  0.14248483360E+03  0.00000000000E+00 0.  1.
          2    1    1    2  501    0  0.43971850252E+02 -0.92970578683E+01 -0.65005093600E+01  0.45411623199E+02  0.00000000000E+00 0.  1.
          1    1    1    2  502    0  0.30209299523E+02  0.31432736485E+01 -0.40813736014E+02  0.50874777585E+02  0.00000000000E+00 0.  1.
         22    1    1    2    0    0  0.38947183802E+01  0.15083915317E+02 -0.49642719760E+02  0.52029731479E+02  0.00000000000E+00 0. -1.
         22    1    1    2    0    0 -0.78075868155E+02 -0.89301310969E+01  0.57936627772E+02  0.97633197567E+02  0.00000000000E+00 0.  1.
</event>
<event>
 6    1  0.8017648E-006  0.3701096E+02  0.7818608E-02  0.1573684E+00
          2   -1    0    0  502    0  0.00000000000E+00  0.00000000000E+00  0.76347610691E+03  0.76347610691E+03  0.00000000000E+00 0. -1.
          1   -1    0    0  501    0 -0.00000000000E+00 -0.00000000000E+00 -0.50139493878E+02  0.50139493878E+02  0.00000000000E+00 0. -1.
          2    1    1    2  501    0 -0.34051186526E+02  0.38061751349E+01  0.55162109399E+03  0.55268417890E+03  0.00000000000E+00 0. -1.
          1    1    1    2  502    0  0.64372750991E+02 -0.26129382833E+02  0.45276703930E+02  0.82925120658E+02  0.00000000000E+00 0. -1.
         22    1    1    2    0    0 -0.16144808580E+02  0.18536626399E+02  0.14437397408E+03  0.14645171817E+03  0.00000000000E+00 0.  1.
         22    1    1    2    0    0 -0.14176755885E+02  0.37865812995E+01 -0.27935158970E+02  0.31554583059E+02  0.00000000000E+00 0. -1.
</event>
<event>
 6    1  0.8017648E-006  0.3218250E+02  0.7818608E-02  0.1577878E+00
          2   -1    0    0  502    0  0.00000000000E+00  0.00000000000E+00  0.67872198320E+02  0.67872198320E+02  0.00000000000E+00 0.  1.
          1   -1    0    0  501    0 -0.00000000000E+00 -0.00000000000E+00 -0.27765367408E+03  0.27765367408E+03  0.00000000000E+00 0.  1.
          2    1    1    2  501    0  0.15033829415E+02 -0.21979210683E+02  0.65999998259E+01  0.27434681096E+02  0.00000000000E+00 0.  1.
          1    1    1    2  502    0 -0.41803027175E+02  0.18121930675E+02 -0.18114961844E+03  0.18679154615E+03  0.00000000000E+00 0.  1.
         22    1    1    2    0    0  0.99254783691E+01  0.20527851713E+02 -0.78620865762E+02  0.81860542082E+02  0.00000000000E+00 0.  1.
         22    1    1    2    0    0  0.16843719391E+02 -0.16670571705E+02  0.43389008615E+02  0.49439103071E+02  0.00000000000E+00 0.  1.
</event>
<event>
 6    1  0.8017648E-006  0.1235589E+03  0.7818608E-02  0.1357468E+00
          2   -1    0    0  502    0  0.00000000000E+00  0.00000000000E+00  0.26653984011E+03  0.26653984011E+03  0.00000000000E+00 0. -1.
          1   -1    0    0  501    0 -0.00000000000E+00 -0.00000000000E+00 -0.11855638735E+03  0.11855638735E+03  0.00000000000E+00 0. -1.
          2    1    1    2  501    0  0.45452430832E+01  0.23172114939E+02  0.15094977177E+03  0.15278560058E+03  0.00000000000E+00 0. -1.
          1    1    1    2  502    0 -0.32201013222E+02  0.34704700276E+02 -0.65553131698E+02  0.80861205465E+02  0.00000000000E+00 0. -1.
         22    1    1    2    0    0 -0.73203516584E+01  0.11108368996E+02 -0.28800749385E+02  0.31724857372E+02  0.00000000000E+00 0. -1.
         22    1    1    2    0    0  0.34976121797E+02 -0.68985184211E+02  0.91387562067E+02  0.11972456405E+03  0.00000000000E+00 0. -1.
</event>
<event>
 6    1  0.8017648E-006  0.4262945E+02  0.7818608E-02  0.1510055E+00
          2   -1    0    0  502    0  0.00000000000E+00  0.00000000000E+00  0.53358107619E+02  0.53358107619E+02  0.00000000000E+00 0.  1.
          1   -1    0    0  501    0 -0.00000000000E+00 -0.00000000000E+00 -0.49543229610E+03  0.49543229610E+03  0.00000000000E+00 0.  1.
          2    1    1    2  501    0  0.25332172657E+02 -0.31401286644E+02 -0.33641248451E+01  0.40485517292E+02  0.00000000000E+00 0.  1.
          1    1    1    2  502    0 -0.80577665458E+01  0.57595988474E+02 -0.34670717253E+03  0.35155097636E+03  0.00000000000E+00 0.  1.
         22    1    1    2    0    0 -0.31457658197E+02 -0.71384385137E+01 -0.11753427421E+03  0.12188046266E+03  0.00000000000E+00 0.  1.
         22    1    1    2    0    0  0.14183252086E+02 -0.19056263316E+02  0.25531383106E+02  0.34873447415E+02  0.00000000000E+00 0.  1.
</event>
<event>
 6    1  0.8017648E-006  0.1006187E+03  0.7818608E-02  0.1373614E+00
          2   -1    0    0  502    0  0.00000000000E+00  0.00000000000E+00  0.19468765578E+03  0.19468765578E+03  0.00000000000E+00 0. -1.
          1   -1    0    0  501    0 -0.00000000000E+00 -0.00000000000E+00 -0.20317512601E+03  0.20317512601E+03  0.00000000000E+00 0.  1.
          2    1    1    2  501    0 -0.51889723448E+02 -0.47695386665E+02  0.92652324917E+02  0.11641239891E+03  0.00000000000E+00 0. -1.
          1    1    1    2  502    0  0.62119003502E+02  0.56490258451E+02 -0.12641702375E+03  0.15176028397E+03  0.00000000000E+00 0.  1.
         22    1    1    2    0    0 -0.26901376339E+02 -0.58573295179E-01  0.73315930867E+02  0.78095538916E+02  0.00000000000E+00 0. -1.
         22    1    1    2    0    0  0.16672096285E+02 -0.87362984908E+01 -0.48038702262E+02  0.51594559993E+02  0.00000000000E+00 0.  1.
</event>
<event>
 6    1  0.8017648E-006  0.9415508E+02  0.7818608E-02  0.1335918E+00
          2   -1    0    0  502    0  0.00000000000E+00  0.00000000000E+00  0.33512927182E+03  0.33512927182E+03  0.00000000000E+00 0. -1.
          1   -1    0    0  501    0 -0.00000000000E+00 -0.00000000000E+00 -0.43973441054E+03  0.43973441054E+03  0.00000000000E+00 0. -1.
          2    1    1    2  501    0 -0.48951137095E+02  0.29685929451E+02  0.13419204276E+03  0.14589370298E+03  0.00000000000E+00 0. -1.
          1    1    1    2  502    0 -0.47805771096E+01 -0.66097124139E+02 -0.40699221760E+03  0.41235221464E+03  0.00000000000E+00 0. -1.
         22    1    1    2    0    0  0.11130987728E+02  0.27574204291E+02  0.17047636621E+03  0.17305035992E+03  0.00000000000E+00 0. -1.
         22    1    1    2    0    0  0.42600726477E+02  0.88369903972E+01 -0.22813300999E+01  0.43567404819E+02  0.00000000000E+00 0.  1.
</event>
<event>
 6    1  0.8017648E-006  0.3314276E+02  0.7818608E-02  0.1583596E+00
          2   -1    0    0  502    0  0.00000000000E+00  0.00000000000E+00  0.17658400667E+03  0.17658400667E+03  0.00000000000E+00 0.  1.
          1   -1    0    0  501    0 -0.00000000000E+00 -0.00000000000E+00 -0.16059121637E+03  0.16059121637E+03  0.00000000000E+00 0.  1.
          2    1    1    2  501    0  0.37353400930E+02  0.87379189985E+01  0.17912687614E+02  0.42337833755E+02  0.00000000000E+00 0.  1.
          1    1    1    2  502    0 -0.44878350454E+02  0.10153254947E+02 -0.11409246636E+03  0.12302132256E+03  0.00000000000E+00 0.  1.
         22    1    1    2    0    0  0.24236277458E+02  0.10823636476E+02 -0.21316010567E+02  0.34042922290E+02  0.00000000000E+00 0.  1.
         22    1    1    2    0    0 -0.16711327934E+02 -0.29714810421E+02  0.13348857961E+03  0.13777314443E+03  0.00000000000E+00 0.  1.
</event>
<event>
 6    1  0.8017648E-006  0.1483090E+03  0.7818608E-02  0.1317569E+00
          2   -1    0    0  502    0  0.00000000000E+00  0.00000000000E+00  0.84692999906E+03  0.84692999906E+03  0.00000000000E+00 0. -1.
          1   -1    0    0  501    0 -0.00000000000E+00 -0.00000000000E+00 -0.66074053769E+02  0.66074053769E+02  0.00000000000E+00 0. -1.
          2    1    1    2  501    0  0.12489431095E+03 -0.31879929741E+02  0.34168333878E+03  0.36518820193E+03  0.00000000000E+00 0. -1.
          1    1    1    2  502    0 -0.13367628580E+03  0.35390303180E+02  0.38432526339E+03  0.40844550558E+03  0.00000000000E+00 0. -1.
         22    1    1    2    0    0  0.15985030477E+02 -0.17121407149E+02  0.94222796188E+02  0.97090674648E+02  0.00000000000E+00 0. -1.
         22    1    1    2    0    0 -0.72030556244E+01  0.13611033710E+02 -0.39375453062E+02  0.42279670680E+02  0.00000000000E+00 0. -1.
</event>
<event>
 6    1  0.8017648E-006  0.7451475E+02  0.7818608E-02  0.1430276E+00
          2   -1    0    0  502    0  0.00000000000E+00  0.00000000000E+00  0.33646949163E+03  0.33646949163E+03  0.00000000000E+00 0. -1.
          1   -1    0    0  501    0 -0.00000000000E+00 -0.00000000000E+00 -0.18651261769E+03  0.18651261769E+03  0.00000000000E+00 0.  1.
          2    1    1    2  501    0 -0.56721921109E+02 -0.72042907845E+01  0.21960711526E+03  0.22692854209E+03  0.00000000000E+00 0. -1.
          1    1    1    2  502    0  0.58879605771E+02  0.10413191807E+02 -0.14029172124E+03  0.15250249043E+03  0.00000000000E+00 0.  1.
         22    1    1    2    0    0  0.58185737775E+01  0.13963175051E+02 -0.33998495914E+02  0.37211876904E+02  0.00000000000E+00 0.  1.
         22    1    1    2    0    0 -0.79762584397E+01 -0.17172076073E+02  0.10463997582E+03  0.10633919990E+03  0.00000000000E+00 0. -1.
</event>
<event>
 6    1  0.8017648E-006  0.7610071E+02  0.7818608E-02  0.1467080E+00
          2   -1    0    0  502    0  0.00000000000E+00  0.00000000000E+00  0.24535922753E+03  0.24535922753E+03  0.00000000000E+00 0. -1.
          1   -1    0    0  501    0 -0.00000000000E+00 -0.00000000000E+00 -0.12995778858E+03  0.12995778858E+03  0.00000000000E+00 0.  1.
          2    1    1    2  501    0  0.36265676817E+01  0.31366017771E+02  0.75833677439E+02  0.82144541498E+02  0.00000000000E+00 0. -1.
          1    1    1    2  502    0 -0.25667945302E+02 -0.64694091647E+02 -0.85246994709E+02  0.11005098372E+03  0.00000000000E+00 0.  1.
         22    1    1    2    0    0  0.15261334344E+02  0.41112675007E+02  0.14980023402E+03  0.15608738092E+03  0.00000000000E+00 0. -1.
         22    1    1    2    0    0  0.67800432761E+01 -0.77846011313E+01 -0.24985477799E+02  0.27034109981E+02  0.00000000000E+00 0.  1.
</event>
<event>
 6    1  0.8017648E-006  0.2041779E+02  0.7818608E-02  0.1763718E+00
          2   -1    0    0  502    0  0.00000000000E+00  0.00000000000E+00  0.97474238255E+03  0.97474238255E+03  0.00000000000E+00 0. -1.
          1   -1    0    0  501    0 -0.00000000000E+00 -0.00000000000E+00 -0.10227347731E+03  0.10227347731E+03  0.00000000000E+00 0.  1.
          2    1    1    2  501    0  0.20344969732E+02  0.29303973482E+00  0.88739749578E+03  0.88763073357E+03  0.00000000000E+00 0. -1.
          1    1    1    2  502    0 -0.10367413526E+02 -0.27175010469E+02 -0.49872385156E+02  0.57734038993E+02  0.00000000000E+00 0.  1.
         22    1    1    2    0    0 -0.21692415262E+02  0.16498243294E+02  0.79702775025E+02  0.84233516242E+02  0.00000000000E+00 0. -1.
         22    1    1    2    0    0  0.11714859056E+02  0.10383727441E+02 -0.44758980408E+02  0.47417571062E+02  0.00000000000E+00 0.  1.
</event>
<event>
 6    1  0.8017648E-006  0.1834969E+03  0.7818608E-02  0.1251830E+00
          2   -1    0    0  502    0  0.00000000000E+00  0.00000000000E+00  0.30201886196E+03  0.30201886196E+03  0.00000000000E+00 0.  1.
          1   -1    0    0  501    0 -0.00000000000E+00 -0.00000000000E+00 -0.75678261807E+02  0.75678261807E+02  0.00000000000E+00 0.  1.
          2    1    1    2  501    0 -0.61145460227E+02  0.37978873313E+02  0.89636111580E+02  0.11495996966E+03  0.00000000000E+00 0.  1.
          1    1    1    2  502    0 -0.22444360735E+02 -0.65085871392E+02  0.18596190433E+02  0.71314362384E+02  0.00000000000E+00 0.  1.
         22    1    1    2    0    0  0.11081031931E+03  0.34349554065E+02  0.11454316238E+03  0.16303053327E+03  0.00000000000E+00 0.  1.
         22    1    1    2    0    0 -0.27220498345E+02 -0.72425559864E+01  0.35651357619E+01  0.28392258459E+02  0.00000000000E+00 0. -1.
</event>
<event>
 6    1  0.8017648E-006  0.6864651E+02  0.7818608E-02  0.1427127E+00
          2   -1    0    0  502    0  0.00000000000E+00  0.00000000000E+00  0.11439905574E+04  0.11439905574E+04  0.00000000000E+00 0. -1.
          1   -1    0    0  501    0 -0.00000000000E+00 -0.00000000000E+00 -0.30123211419E+02  0.30123211419E+02  0.00000000000E+00 0.  1.
          2    1    1    2  501    0 -0.60224545900E+02  0.23860299593E+02  0.71753524696E+03  0.72045342699E+03  0.00000000000E+00 0. -1.
          1    1    1    2  502    0  0.78813638565E+02  0.21840753881E+02  0.12972057496E+03  0.15334939100E+03  0.00000000000E+00 0.  1.
         22    1    1    2    0    0  0.19876447063E+02 -0.41194718733E+01 -0.65567300578E+01  0.21331523748E+02  0.00000000000E+00 0.  1.
         22    1    1    2    0    0 -0.38465539728E+02 -0.41581581600E+02  0.27316825414E+03  0.27897942710E+03  0.00000000000E+00 0. -1.
</event>
<event>
 6    1  0.8017648E-006  0.3223439E+02  0.7818608E-02  0.1602074E+00
          2   -1    0    0  502    0  0.00000000000E+00  0.00000000000E+00  0.13357248020E+03  0.13357248020E+03  0.00000000000E+00 0. -1.
          1   -1    0    0  501    0 -0.00000000000E+00 -0.00000000000E+00 -0.10198051937E+03  0.10198051937E+03  0.00000000000E+00 0.  1.
          2    1    1    2  501    0  0.11727657215E+02  0.17894173671E+02  0.74549659756E+02  0.77558952835E+02  0.00000000000E+00 0. -1.
          1    1    1    2  502    0 -0.21659661843E+02 -0.98499964049E+01 -0.17690928950E+02  0.29650166061E+02  0.00000000000E+00 0.  1.
         22    1    1    2    0    0  0.11794617481E+02 -0.19805763039E+02 -0.74347532648E+02  0.77839173055E+02  0.00000000000E+00 0.  1.
         22    1    1    2    0    0 -0.18626128526E+01  0.11761585773E+02  0.49080762671E+02  0.50504707611E+02  0.00000000000E+00 0.  1.
</event>
<event>
 6    1  0.8017648E-006  0.3946530E+02  0.7818608E-02  0.1585871E+00
          2   -1    0    0  502    0  0.00000000000E+00  0.00000000000E+00  0.17696956796E+03  0.17696956796E+03  0.00000000000E+00 0. -1.
          1   -1    0    0  501    0 -0.00000000000E+00 -0.00000000000E+00 -0.42878177050E+03  0.42878177050E+03  0.00000000000E+00 0.  1.
          2    1    1    2  501    0  0.28050287677E+02  0.76591426138E+00  0.12976373371E+03  0.13276306659E+03  0.00000000000E+00 0. -1.
          1    1    1    2  502    0 -0.37389336896E+02 -0.96921502879E+01 -0.34318869639E+03  0.34535544243E+03  0.00000000000E+00 0.  1.
         22    1    1    2    0    0  0.93173528545E+01 -0.63617804440E+01  0.43188043333E+02  0.44637343128E+02  0.00000000000E+00 0. -1.
         22    1    1    2    0    0  0.21696364105E-01  0.15288016471E+02 -0.81575283200E+02  0.82995486308E+02  0.00000000000E+00 0.  1.
</event>
<event>
 6    1  0.9511780E-006  0.1561278E+03  0.7818608E-02  0.1223475E+00
          2   -1    0    0  502    0  0.00000000000E+00  0.00000000000E+00  0.11685834911E+04  0.11685834911E+04  0.00000000000E+00 0. -1.
          1   -1    0    0  501    0 -0.00000000000E+00 -0.00000000000E+00 -0.51494574517E+02  0.51494574517E+02  0.00000000000E+00 0. -1.
          2    1    1    2  501    0  0.14102270838E+03  0.11893083619E+03  0.52994040364E+03  0.56113169531E+03  0.00000000000E+00 0. -1.
          1    1    1    2  502    0 -0.91051931301E+02 -0.82930332419E+02  0.44113608055E+03  0.45800538839E+03  0.00000000000E+00 0. -1.
         22    1    1    2    0    0  0.11152103522E+02  0.17950897381E+02  0.10965673583E+03  0.11167454429E+03  0.00000000000E+00 0. -1.
         22    1    1    2    0    0 -0.61122880597E+02 -0.53951401155E+02  0.36355696612E+02  0.89266437675E+02  0.00000000000E+00 0. -1.
</event>
<event>
 6    1  0.8017648E-006  0.2264939E+02  0.7818608E-02  0.1698499E+00
          2   -1    0    0  502    0  0.00000000000E+00  0.00000000000E+00  0.14894108178E+03  0.14894108178E+03  0.00000000000E+00 0.  1.
          1   -1    0    0  501    0 -0.00000000000E+00 -0.00000000000E+00 -0.98115293211E+02  0.98115293211E+02  0.00000000000E+00 0. -1.
          2    1    1    2  501    0  0.20988990352E+02  0.25150122689E+02  0.60005799340E+02  0.68364920403E+02  0.00000000000E+00 0.  1.
          1    1    1    2  502    0 -0.19482806543E+02 -0.46096886821E+02 -0.95857524240E+01  0.50954777744E+02  0.00000000000E+00 0. -1.
         22    1    1    2    0    0 -0.65040195828E+01  0.10125883015E+02 -0.62532336224E+02  0.63679893618E+02  0.00000000000E+00 0. -1.
         22    1    1    2    0    0  0.49978357735E+01  0.10820881117E+02  0.62938077876E+02  0.64056783226E+02  0.00000000000E+00 0.  1.
</event>
<event>
 6    1  0.8017648E-006  0.9374791E+02  0.7818608E-02  0.1357114E+00
          2   -1    0    0  502    0  0.00000000000E+00  0.00000000000E+00  0.70322160435E+03  0.70322160435E+03  0.00000000000E+00 0. -1.
          1   -1    0    0  501    0 -0.00000000000E+00 -0.00000000000E+00 -0.13905483727E+03  0.13905483727E+03  0.00000000000E+00 0. -1.
          2    1    1    2  501    0 -0.74810234288E+02 -0.15694566503E+03  0.53877155404E+03  0.56613010904E+03  0.00000000000E+00 0. -1.
          1    1    1    2  502    0  0.78771437560E+02  0.97145832049E+02  0.50060508833E+02  0.13471565093E+03  0.00000000000E+00 0. -1.
         22    1    1    2    0    0 -0.16388604507E+02  0.68890121213E+01  0.47713167242E+02  0.50917493791E+02  0.00000000000E+00 0.  1.
         22    1    1    2    0    0  0.12427401236E+02  0.52910820862E+02 -0.72378463033E+02  0.90513187861E+02  0.00000000000E+00 0. -1.
</event>
<event>
 6    1  0.8017648E-006  0.7197313E+02  0.7818608E-02  0.1431001E+00
          2   -1    0    0  502    0  0.00000000000E+00  0.00000000000E+00  0.39313572991E+03  0.39313572991E+03  0.00000000000E+00 0.  1.
          1   -1    0    0  501    0 -0.00000000000E+00 -0.00000000000E+00 -0.62398733419E+02  0.62398733419E+02  0.00000000000E+00 0.  1.
          2    1    1    2  501    0  0.48618960770E+02  0.11864449006E+02  0.18900215404E+03  0.19551568410E+03  0.00000000000E+00 0.  1.
          1    1    1    2  502    0 -0.57259438955E+02 -0.14050742298E+01  0.12387551325E+03  0.13647622638E+03  0.00000000000E+00 0.  1.
         22    1    1    2    0    0 -0.20193313487E+02 -0.49127293462E+01 -0.47523646186E+02  0.51869082949E+02  0.00000000000E+00 0.  1.
         22    1    1    2    0    0  0.28833791673E+02 -0.55466454303E+01  0.65382975385E+02  0.71673469904E+02  0.00000000000E+00 0. -1.
</event>
<event>
 6    1  0.8017648E-006  0.5000572E+02  0.7818608E-02  0.1508649E+00
          2   -1    0    0  502    0  0.00000000000E+00  0.00000000000E+00  0.60036413473E+03  0.60036413473E+03  0.00000000000E+00 0. -1.
          1   -1    0    0  501    0 -0.00000000000E+00 -0.00000000000E+00 -0.11816613635E+03  0.11816613635E+03  0.00000000000E+00 0. -1.
          2    1    1    2  501    0  0.15820860566E+02  0.23622660538E+02  0.47072020554E+03  0.47157803344E+03  0.00000000000E+00 0. -1.
          1    1    1    2  502    0 -0.23471989689E+02 -0.29210202737E+02 -0.82749038304E+02  0.90838172506E+02  0.00000000000E+00 0. -1.
         22    1    1    2    0    0 -0.13051650232E+01 -0.12687370386E+02 -0.28756571582E+02  0.31458118701E+02  0.00000000000E+00 0. -1.
         22    1    1    2    0    0  0.89562941454E+01  0.18274912586E+02  0.12298340273E+03  0.12465594644E+03  0.00000000000E+00 0. -1.
</event>
<event>
 6    1  0.8017648E-006  0.1501024E+03  0.7818608E-02  0.1265212E+00
          2   -1    0    0  502    0  0.00000000000E+00  0.00000000000E+00  0.85282492343E+03  0.85282492343E+03  0.00000000000E+00 0. -1.
          1   -1    0    0  501    0 -0.00000000000E+00 -0.00000000000E+00 -0.66177268074E+02  0.66177268074E+02  0.00000000000E+00 0.  1.
          2    1    1    2  501    0  0.44491145343E+02 -0.93978128464E+02  0.31961643191E+03  0.33610417164E+03  0.00000000000E+00 0. -1.
          1    1    1    2  502    0  0.35509235893E+01  0.14798930453E+03  0.38912627788E+03  0.41633244343E+03  0.00000000000E+00 0.  1.
         22    1    1    2    0    0 -0.10384703555E+02 -0.41974788063E+02  0.10835494619E+03  0.11666413015E+03  0.00000000000E+00 0.  1.
         22    1    1    2    0    0 -0.37657365377E+02 -0.12036388008E+02 -0.30450000623E+02  0.49901446286E+02  0.00000000000E+00 0.  1.
</event>
<event>
 6    1  0.8017648E-006  0.2686837E+02  0.7818608E-02  0.1704143E+00
          2   -1    0    0  502    0  0.00000000000E+00  0.00000000000E+00  0.24413452048E+03  0.24413452048E+03  0.00000000000E+00 0.  1.
          1   -1    0    0  501    0 -0.00000000000E+00 -0.00000000000E+00 -0.72806006093E+02  0.72806006093E+02  0.00000000000E+00 0.  1.
          2    1    1    2  501    0  0.23263660484E+02  0.11944384677E+02  0.14029422273E+03  0.14271066939E+03  0.00000000000E+00 0.  1.
          1    1    1    2  502    0 -0.27941294856E+02  0.16426461401E+02 -0.17712790216E+02  0.36936263071E+02  0.00000000000E+00 0.  1.
         22    1    1    2    0    0  0.99432714049E+01 -0.19443142796E+02  0.91105102390E+02  0.93685880097E+02  0.00000000000E+00 0.  1.
         22    1    1    2    0    0 -0.52656370330E+01 -0.89277032817E+01 -0.42358020522E+02  0.43607714017E+02  0.00000000000E+00 0.  1.
</event>
<event>
 6    1  0.8017648E-006  0.5648374E+03  0.7818608E-02  0.1068780E+00
          2   -1    0    0  502    0  0.00000000000E+00  0.00000000000E+00  0.19271468249E+04  0.19271468249E+04  0.00000000000E+00 0.  1.
          1   -1    0    0  501    0 -0.00000000000E+00 -0.00000000000E+00 -0.28588595451E+03  0.28588595451E+03  0.00000000000E+00 0. -1.
          2    1    1    2  501    0 -0.54506022118E+03  0.17045073595E+03  0.12864489771E+04  0.14075137899E+04  0.00000000000E+00 0.  1.
          1    1    1    2  502    0  0.48637802299E+03 -0.18198572705E+03  0.40489407455E+03  0.65849950471E+03  0.00000000000E+00 0. -1.
         22    1    1    2    0    0 -0.11517190112E+02  0.10367667269E+02  0.34067984344E+02  0.37426751796E+02  0.00000000000E+00 0. -1.
         22    1    1    2    0    0  0.70199388297E+02  0.11673238279E+01 -0.84150165580E+02  0.10959273301E+03  0.00000000000E+00 0.  1.
</event>
<event>
 6    1  0.8017648E-006  0.5051272E+02  0.7818608E-02  0.1532694E+00
          2   -1    0    0  502    0  0.00000000000E+00  0.00000000000E+00  0.13750151976E+03  0.13750151976E+03  0.00000000000E+00 0. -1.
          1   -1    0    0  501    0 -0.00000000000E+00 -0.00000000000E+00 -0.10494268157E+03  0.10494268157E+03  0.00000000000E+00 0. -1.
          2    1    1    2  501    0  0.17383892432E+01  0.31381790169E+02  0.67353507168E+02  0.74325861442E+02  0.00000000000E+00 0. -1.
          1    1    1    2  502    0 -0.16022565349E+02 -0.28637015820E+02 -0.19162987214E+02  0.38000280978E+02  0.00000000000E+00 0. -1.
         22    1    1    2    0    0  0.17592866837E+02  0.11187153554E+02  0.54598134327E+02  0.58443285673E+02  0.00000000000E+00 0.  1.
         22    1    1    2    0    0 -0.33086907315E+01 -0.13931927903E+02 -0.70229816096E+02  0.71674773236E+02  0.00000000000E+00 0. -1.
</event>
<event>
 6    1  0.8017648E-006  0.6233170E+02  0.7818608E-02  0.1414615E+00
          2   -1    0    0  502    0  0.00000000000E+00  0.00000000000E+00  0.11267328368E+03  0.11267328368E+03  0.00000000000E+00 0.  1.
          1   -1    0    0  501    0 -0.00000000000E+00 -0.00000000000E+00 -0.22369689875E+03  0.22369689875E+03  0.00000000000E+00 0.  1.
          2    1    1    2  501    0  0.70548565439E+02 -0.31140942607E+02  0.16675015789E+02  0.78898127630E+02  0.00000000000E+00 0.  1.
          1    1    1    2  502    0 -0.71265389168E+02  0.49609861777E+02 -0.92819211279E+02  0.12710350137E+03  0.00000000000E+00 0.  1.
         22    1    1    2    0    0 -0.94811829685E+01 -0.46215577700E+02  0.32162760711E+02  0.57098297953E+02  0.00000000000E+00 0.  1.
         22    1    1    2    0    0  0.10198006698E+02  0.27746658530E+02 -0.67042180281E+02  0.73270255473E+02  0.00000000000E+00 0.  1.
</event>
<event>
 6    1  0.8017648E-006  0.9130371E+02  0.7818608E-02  0.1342082E+00
          2   -1    0    0  502    0  0.00000000000E+00  0.00000000000E+00  0.60908004089E+03  0.60908004089E+03  0.00000000000E+00 0. -1.
          1   -1    0    0  501    0 -0.00000000000E+00 -0.00000000000E+00 -0.94786213890E+02  0.94786213890E+02  0.00000000000E+00 0. -1.
          2    1    1    2  501    0  0.20752979567E+02 -0.64723884068E+02  0.43069921970E+03  0.43602945449E+03  0.00000000000E+00 0. -1.
          1    1    1    2  502    0 -0.73938514574E+02  0.56469308689E+02 -0.21367477346E+02  0.95458136632E+02  0.00000000000E+00 0. -1.
         22    1    1    2    0    0  0.35689175897E+02  0.23755516975E+02 -0.18521490426E+02  0.46702114198E+02  0.00000000000E+00 0. -1.
         22    1    1    2    0    0  0.17496359110E+02 -0.15500941596E+02  0.12348357508E+03  0.12567654947E+03  0.00000000000E+00 0. -1.
</event>
<event>
 6    1  0.8017648E-006  0.1491049E+03  0.7818608E-02  0.1315429E+00
          2   -1    0    0  502    0  0.00000000000E+00  0.00000000000E+00  0.65847873284E+03  0.65847873284E+03  0.00000000000E+00 0.  1.
          1   -1    0    0  501    0 -0.00000000000E+00 -0.00000000000E+00 -0.37000638359E+03  0.37000638359E+03  0.00000000000E+00 0.  1.
          2    1    1    2  501    0  0.13234546114E+03  0.34430919681E+02  0.59081556074E+03  0.60643535198E+03  0.00000000000E+00 0.  1.
          1    1    1    2  502    0 -0.13804397808E+03 -0.26703490417E+02 -0.24712669222E+03  0.28432519813E+03  0.00000000000E+00 0.  1.
         22    1    1    2    0    0  0.95796422362E+01  0.75349273157E+01  0.39690614973E+02  0.41519749421E+02  0.00000000000E+00 0.  1.
         22    1    1    2    0    0 -0.38811253012E+01 -0.15262356581E+02 -0.94907134254E+02  0.96204816898E+02  0.00000000000E+00 0.  1.
</event>
<event>
 6    1  0.8017648E-006  0.1103297E+03  0.7818608E-02  0.1340905E+00
          2   -1    0    0  502    0  0.00000000000E+00  0.00000000000E+00  0.63583907525E+03  0.63583907525E+03  0.00000000000E+00 0. -1.
          1   -1    0    0  501    0 -0.00000000000E+00 -0.00000000000E+00 -0.29460152706E+02  0.29460152706E+02  0.00000000000E+00 0. -1.
          2    1    1    2  501    0  0.18564246979E+02  0.33721570245E+02  0.92545109727E+02  0.10023159632E+03  0.00000000000E+00 0. -1.
          1    1    1    2  502    0 -0.40333607629E+02 -0.79571798575E+02  0.13194767618E+03  0.15927542272E+03  0.00000000000E+00 0. -1.
         22    1    1    2    0    0  0.43914935942E+02  0.57006808738E+02  0.37232571936E+03  0.37921595317E+03  0.00000000000E+00 0. -1.
         22    1    1    2    0    0 -0.22145575292E+02 -0.11156580408E+02  0.95604172809E+01  0.26576255756E+02  0.00000000000E+00 0.  1.
</event>
<event>
 6    1  0.8017648E-006  0.7412556E+02  0.7818608E-02  0.1373511E+00
          2   -1    0    0  502    0  0.00000000000E+00  0.00000000000E+00  0.91867713157E+02  0.91867713157E+02  0.00000000000E+00 0.  1.
          1   -1    0    0  501    0 -0.00000000000E+00 -0.00000000000E+00 -0.22142897085E+03  0.22142897085E+03  0.00000000000E+00 0. -1.
          2    1    1    2  501    0 -0.13545354652E+02  0.25674729186E+02  0.61323556621E+01  0.29669414174E+02  0.00000000000E+00 0.  1.
          1    1    1    2  502    0  0.35892528345E+02 -0.45829303070E+02 -0.13962238824E+03  0.15127131225E+03  0.00000000000E+00 0. -1.
         22    1    1    2    0    0 -0.45228422247E+02 -0.13349572323E+02 -0.47444400049E+02  0.66893888780E+02  0.00000000000E+00 0.  1.
         22    1    1    2    0    0  0.22881248554E+02  0.33504146206E+02  0.51373174939E+02  0.65462068801E+02  0.00000000000E+00 0.  1.
</event>
<event>
 6    1  0.8017648E-006  0.1653757E+03  0.7818608E-02  0.1312066E+00
          2   -1    0    0  502    0  0.00000000000E+00  0.00000000000E+00  0.43710875123E+03  0.43710875123E+03  0.00000000000E+00 0. -1.
          1   -1    0    0  501    0 -0.00000000000E+00 -0.00000000000E+00 -0.23798401319E+03  0.23798401319E+03  0.00000000000E+00 0. -1.
          2    1    1    2  501    0 -0.13456443512E+03  0.19908002509E+01  0.28800848738E+03  0.31790004606E+03  0.00000000000E+00 0. -1.
          1    1    1    2  502    0  0.15493671837E+03 -0.12068277236E+02 -0.15390669939E+03  0.21871968849E+03  0.00000000000E+00 0. -1.
         22    1    1    2    0    0 -0.29326824423E+02  0.16972581458E+01  0.98517428549E+02  0.10280382796E+03  0.00000000000E+00 0. -1.
         22    1    1    2    0    0  0.89545411692E+01  0.83802188396E+01 -0.33494478502E+02  0.35669201918E+02  0.00000000000E+00 0.  1.
</event>
<event>
 6    1  0.8017648E-006  0.1157975E+03  0.7818608E-02  0.1338801E+00
          2   -1    0    0  502    0  0.00000000000E+00  0.00000000000E+00  0.21880425043E+03  0.21880425043E+03  0.00000000000E+00 0. -1.
          1   -1    0    0  501    0 -0.00000000000E+00 -0.00000000000E+00 -0.11315932401E+04  0.11315932401E+04  0.00000000000E+00 0. -1.
          2    1    1    2  501    0  0.45126836122E+02 -0.66109343796E+02  0.17189132385E+03  0.18961409202E+03  0.00000000000E+00 0. -1.
          1    1    1    2  502    0 -0.68390346823E+02  0.10273825111E+03 -0.99724696284E+03  0.10048551600E+04  0.00000000000E+00 0. -1.
         22    1    1    2    0    0  0.20760438318E+01 -0.29854004950E+02  0.26421498782E+02  0.39920761108E+02  0.00000000000E+00 0.  1.
         22    1    1    2    0    0  0.21187466869E+02 -0.67749023652E+01 -0.11385484946E+03  0.11600747735E+03  0.00000000000E+00 0. -1.
</event>
<event>
 6    1  0.8017648E-006  0.2907025E+03  0.7818608E-02  0.1181352E+00
          2   -1    0    0  502    0  0.00000000000E+00  0.00000000000E+00  0.16381006321E+04  0.16381006321E+04  0.00000000000E+00 0.  1.
          1   -1    0    0  501    0 -0.00000000000E+00 -0.00000000000E+00 -0.39797408317E+02  0.39797408317E+02  0.00000000000E+00 0.  1.
          2    1    1    2  501    0  0.13870312574E+01 -0.16998042540E+03  0.89711673425E+03  0.91307924286E+03  0.00000000000E+00 0.  1.
          1    1    1    2  502    0 -0.83186385497E+02  0.11934061763E+03  0.29857796074E+03  0.33213093260E+03  0.00000000000E+00 0.  1.
         22    1    1    2    0    0 -0.29739365709E+02  0.10141187634E+02  0.38293175242E+02  0.49534238962E+02  0.00000000000E+00 0.  1.
         22    1    1    2    0    0  0.11153871995E+03  0.40498620136E+02  0.36431535351E+03  0.38315362596E+03  0.00000000000E+00 0.  1.
</event>
<event>
 6    1  0.8017648E-006  0.3113519E+02  0.7818608E-02  0.1604011E+00
          2   -1    0    0  502    0  0.00000000000E+00  0.00000000000E+00  0.32071854079E+03  0.32071854079E+03  0.00000000000E+00 0. -1.
          1   -1    0    0  501    0 -0.00000000000E+00 -0.00000000000E+00 -0.74245359836E+02  0.74245359836E+02  0.00000000000E+00 0. -1.
          2    1    1    2  501    0 -0.12215885452E+02  0.33297615774E+02  0.16896614823E+03  0.17264853988E+03  0.00000000000E+00 0. -1.
          1    1    1    2  502    0  0.29072899215E+02 -0.56399443277E+02  0.68310737463E+02  0.93233510732E+02  0.00000000000E+00 0. -1.
         22    1    1    2    0    0 -0.16722840192E+02  0.21199721869E+01  0.66213996233E+02  0.68325990394E+02  0.00000000000E+00 0. -1.
         22    1    1    2    0    0 -0.13417357157E+00  0.20981855316E+02 -0.57017700970E+02  0.60755859627E+02  0.00000000000E+00 0. -1.
</event>
<event>
 6    1  0.8017648E-006  0.5389162E+02  0.7818608E-02  0.1448561E+00
          2   -1    0    0  502    0  0.00000000000E+00  0.00000000000E+00  0.45250548553E+03  0.45250548553E+03  0.00000000000E+00 0. -1.
          1   -1    0    0  501    0 -0.00000000000E+00 -0.00000000000E+00 -0.34697561623E+02  0.34697561623E+02  0.00000000000E+00 0. -1.
          2    1    1    2  501    0  0.15571571808E+02 -0.37057036623E+02  0.15003040886E+03  0.15532167072E+03  0.00000000000E+00 0. -1.
          1    1    1    2  502    0  0.17339086640E+02  0.43059065523E+02  0.15348853790E+03  0.16035416526E+03  0.00000000000E+00 0. -1.
         22    1    1    2    0    0 -0.33811896901E+02  0.17503116943E+02 -0.14400229827E+02  0.40705897531E+02  0.00000000000E+00 0. -1.
         22    1    1    2    0    0  0.90123845279E+00 -0.23505145843E+02  0.12868920698E+03  0.13082131365E+03  0.00000000000E+00 0. -1.
</event>
<event>
 6    1  0.8017648E-006  0.8083205E+02  0.7818608E-02  0.1368407E+00
          2   -1    0    0  502    0  0.00000000000E+00  0.00000000000E+00  0.30753884016E+03  0.30753884016E+03  0.00000000000E+00 0. -1.
          1   -1    0    0  501    0 -0.00000000000E+00 -0.00000000000E+00 -0.41670188960E+03  0.41670188960E+03  0.00000000000E+00 0. -1.
          2    1    1    2  501    0 -0.51907000124E+02  0.44217822040E+02  0.25534596626E+03  0.26429361500E+03  0.00000000000E+00 0. -1.
          1    1    1    2  502    0  0.27927087593E+02 -0.27338904818E+02 -0.32374601535E+03  0.32609633606E+03  0.00000000000E+00 0. -1.
         22    1    1    2    0    0  0.25987637952E+02 -0.29837324656E+02 -0.81747281900E+02  0.90819829151E+02  0.00000000000E+00 0.  1.
         22    1    1    2    0    0 -0.20077254219E+01  0.12958407435E+02  0.40984281554E+02  0.43030949550E+02  0.00000000000E+00 0.  1.
</event>
<event>
 6    1  0.8017648E-006  0.7732057E+02  0.7818608E-02  0.1427085E+00
          2   -1    0    0  502    0  0.00000000000E+00  0.00000000000E+00  0.24926873130E+03  0.24926873130E+03  0.00000000000E+00 0.  1.
          1   -1    0    0  501    0 -0.00000000000E+00 -0.00000000000E+00 -0.11251347944E+03  0.11251347944E+03  0.00000000000E+00 0.  1.
          2    1    1    2  501    0 -0.26342591233E+02 -0.17050833129E+02  0.85234959410E+02  0.90827646280E+02  0.00000000000E+00 0.  1.
          1    1    1    2  502    0  0.58258531110E+02  0.63364961607E+02 -0.50318479871E+02  0.99705186540E+02  0.00000000000E+00 0.  1.
         22    1    1    2    0    0 -0.14542891423E+02 -0.42491354094E+02  0.13022393959E+03  0.13775080873E+03  0.00000000000E+00 0.  1.
         22    1    1    2    0    0 -0.17373048454E+02 -0.38227743840E+01 -0.28385167271E+02  0.33498569187E+02  0.00000000000E+00 0.  1.
</event>
<event>
 6    1  0.8017648E-006  0.7934992E+02  0.7818608E-02  0.1332757E+00
          2   -1    0    0  502    0  0.00000000000E+00  0.00000000000E+00  0.13869120297E+03  0.13869120297E+03  0.00000000000E+00 0. -1.
          1   -1    0    0  501    0 -0.00000000000E+00 -0.00000000000E+00 -0.39835323013E+03  0.39835323013E+03  0.00000000000E+00 0. -1.
          2    1    1    2  501    0  0.43178612513E+01 -0.56903196402E+02  0.71337286924E+02  0.91354398866E+02  0.00000000000E+00 0. -1.
          1    1    1    2  502    0 -0.42037824577E+01  0.60681269825E+02 -0.31169095891E+03  0.31757068844E+03  0.00000000000E+00 0. -1.
         22    1    1    2    0    0 -0.10234424609E+02  0.12143069845E+02 -0.71176634541E+02  0.72926750215E+02  0.00000000000E+00 0. -1.
         22    1    1    2    0    0  0.10120345815E+02 -0.15921143268E+02  0.51868279366E+02  0.55192595579E+02  0.00000000000E+00 0. -1.
</event>
<event>
 6    1  0.8017648E-006  0.1848893E+03  0.7818608E-02  0.1253307E+00
          2   -1    0    0  502    0  0.00000000000E+00  0.00000000000E+00  0.44783599897E+03  0.44783599897E+03  0.00000000000E+00 0.  1.
          1   -1    0    0  501    0 -0.00000000000E+00 -0.00000000000E+00 -0.80914007992E+02  0.80914007992E+02  0.00000000000E+00 0.  1.
          2    1    1    2  501    0  0.36025718588E+02  0.45014018495E+02  0.16910895491E+03  0.17866715672E+03  0.00000000000E+00 0.  1.
          1    1    1    2  502    0  0.24838014971E+02 -0.12367538875E+03  0.88065768972E+02  0.15384442933E+03  0.00000000000E+00 0.  1.
         22    1    1    2    0    0 -0.38779810094E+01 -0.26456057484E+02 -0.85160292320E+01  0.28062153663E+02  0.00000000000E+00 0.  1.
         22    1    1    2    0    0 -0.56985752550E+02  0.10511742774E+03  0.11826329633E+03  0.16817626725E+03  0.00000000000E+00 0.  1.
</event>
<event>
 6    1  0.8017648E-006  0.3537237E+02  0.7818608E-02  0.1577602E+00
          2   -1    0    0  502    0  0.00000000000E+00  0.00000000000E+00  0.19413701273E+03  0.19413701273E+03  0.00000000000E+00 0. -1.
          1   -1    0    0  501    0 -0.00000000000E+00 -0.00000000000E+00 -0.13354203555E+03  0.13354203555E+03  0.00000000000E+00 0. -1.
          2    1    1    2  501    0 -0.17245556196E+02 -0.16592877472E+02  0.13981616404E+03  0.14184954183E+03  0.00000000000E+00 0. -1.
          1    1    1    2  502    0  0.41910682424E+02  0.84696523809E+01 -0.11636639643E+02  0.44313109741E+02  0.00000000000E+00 0. -1.
         22    1    1    2    0    0 -0.17584498577E+02  0.15604514449E+02 -0.10247495542E+03  0.10513720535E+03  0.00000000000E+00 0. -1.
         22    1    1    2    0    0 -0.70806276517E+01 -0.74812893579E+01  0.34890408212E+02  0.36379191355E+02  0.00000000000E+00 0. -1.
</event>
<event>
 6    1  0.8017648E-006  0.8157230E+02  0.7818608E-02  0.1430936E+00
          2   -1    0    0  502    0  0.00000000000E+00  0.00000000000E+00  0.13390178730E+03  0.13390178730E+03  0.00000000000E+00 0.  1.
          1   -1    0    0  501    0 -0.00000000000E+00 -0.00000000000E+00 -0.11117316975E+03  0.11117316975E+03  0.00000000000E+00 0. -1.
          2    1    1    2  501    0  0.85574401660E+01  0.23981710075E+02  0.78615413462E+02  0.82636162993E+02  0.00000000000E+00 0.  1.
          1    1    1    2  502    0  0.23067439088E+02 -0.17306269196E+01 -0.72383102203E+01  0.24238295123E+02  0.00000000000E+00 0. -1.
         22    1    1    2    0    0  0.12279274804E+02 -0.73075300469E+01 -0.80616157183E+02  0.81872738955E+02  0.00000000000E+00 0. -1.
         22    1    1    2    0    0 -0.43904154058E+02 -0.14943553109E+02  0.31967671495E+02  0.56327759975E+02  0.00000000000E+00 0. -1.
</event>
<event>
 6    1  0.8017648E-006  0.9422342E+02  0.7818608E-02  0.1391082E+00
          2   -1    0    0  502    0  0.00000000000E+00  0.00000000000E+00  0.53238185117E+03  0.53238185117E+03  0.00000000000E+00 0.  1.
          1   -1    0    0  501    0 -0.00000000000E+00 -0.00000000000E+00 -0.48557159418E+02  0.48557159418E+02  0.00000000000E+00 0.  1.
          2    1    1    2  501    0  0.64800537099E+02 -0.29358523527E+02  0.20668321460E+03  0.21858404267E+03  0.00000000000E+00 0.  1.
          1    1    1    2  502    0 -0.68469335286E+02  0.51128351864E+02  0.19023166198E+03  0.20854314531E+03  0.00000000000E+00 0.  1.
         22    1    1    2    0    0 -0.16825019815E+02 -0.38299352377E+01 -0.29544710736E+02  0.34214611325E+02  0.00000000000E+00 0.  1.
         22    1    1    2    0    0  0.20493818001E+02 -0.17939893100E+02  0.11645452591E+03  0.11959721128E+03  0.00000000000E+00 0.  1.
</event>
<event>
 6    1  0.8017648E-006  0.7433044E+02  0.7818608E-02  0.1458488E+00
          2   -1    0    0  502    0  0.00000000000E+00  0.00000000000E+00  0.47747128642E+03  0.47747128642E+03  0.00000000000E+00 0.  1.
          1   -1    0    0  501    0 -0.00000000000E+00 -0.00000000000E+00 -0.34104669199E+02  0.34104669199E+02  0.00000000000E+00 0.  1.
          2    1    1    2  501    0  0.13841253170E+02  0.22083603987E+02  0.11243024978E+03  0.11541155453E+03  0.00000000000E+00 0.  1.
          1    1    1    2  502    0 -0.65084420136E+02 -0.46196003609E+02  0.15890704865E+03  0.17782435886E+03  0.00000000000E+00 0.  1.
         22    1    1    2    0    0  0.38712033488E+02  0.23515095596E+02  0.19061164252E+03  0.19591931891E+03  0.00000000000E+00 0.  1.
         22    1    1    2    0    0  0.12531133478E+02  0.59730402599E+00 -0.18582323734E+02  0.22420723309E+02  0.00000000000E+00 0.  1.
</event>
<event>
 6    1  0.8017648E-006  0.3294715E+03  0.7818608E-02  0.1175258E+00
          2   -1    0    0  502    0  0.00000000000E+00  0.00000000000E+00  0.98903606173E+03  0.98903606173E+03  0.00000000000E+00 0. -1.
          1   -1    0    0  501    0 -0.00000000000E+00 -0.00000000000E+00 -0.14793279170E+03  0.14793279170E+03  0.00000000000E+00 0. -1.
          2    1    1    2  501    0  0.24797406005E+03 -0.77172541384E+01  0.45980792030E+03  0.52246915128E+03  0.00000000000E+00 0. -1.
          1    1    1    2  502    0 -0.33019114073E+03  0.33099703286E+02  0.24695045025E+03  0.41364997842E+03  0.00000000000E+00 0. -1.
         22    1    1    2    0    0  0.18515757880E+02  0.16441185896E+02 -0.17929751243E+02  0.30571585879E+02  0.00000000000E+00 0.  1.
         22    1    1    2    0    0  0.63701322795E+02 -0.41823635044E+02  0.15227465073E+03  0.17027813785E+03  0.00000000000E+00 0. -1.
</event>
<event>
 6    1  0.8017648E-006  0.1107431E+03  0.7818608E-02  0.1309390E+00
          2   -1    0    0  502    0  0.00000000000E+00  0.00000000000E+00  0.13974740864E+03  0.13974740864E+03  0.00000000000E+00 0.  1.
          1   -1    0    0  501    0 -0.00000000000E+00 -0.00000000000E+00 -0.11720146231E+03  0.11720146231E+03  0.00000000000E+00 0.  1.
          2    1    1    2  501    0  0.42935353846E+01 -0.59334891622E+02 -0.10328886366E+02  0.60380043917E+02  0.00000000000E+00 0.  1.
          1    1    1    2  502    0  0.36275057228E+02  0.53566615166E+02  0.11079032531E+02  0.65635409643E+02  0.00000000000E+00 0.  1.
         22    1    1    2    0    0 -0.58817802346E+01  0.42466344488E+02 -0.34703204195E+02  0.55157031595E+02  0.00000000000E+00 0.  1.
         22    1    1    2    0    0 -0.34686812378E+02 -0.36698068032E+02  0.56499004364E+02  0.75776385797E+02  0.00000000000E+00 0.  1.
</event>
<event>
 6    1  0.8017648E-006  0.1150559E+03  0.7818608E-02  0.1326233E+00
          2   -1    0    0  502    0  0.00000000000E+00  0.00000000000E+00  0.28259754233E+03  0.28259754233E+03  0.00000000000E+00 0. -1.
          1   -1    0    0  501    0 -0.00000000000E+00 -0.00000000000E+00 -0.82821379832E+02  0.82821379832E+02  0.00000000000E+00 0. -1.
          2    1    1    2  501    0  0.45287254885E+02  0.35678478567E+02  0.42142433706E+02  0.71413402149E+02  0.00000000000E+00 0. -1.
          1    1    1    2  502    0 -0.52316499309E+02 -0.80637433213E+02  0.12231046456E+03  0.15556111814E+03  0.00000000000E+00 0. -1.
         22    1    1    2    0    0 -0.69705811729E+01 -0.27391647470E+02 -0.29096197558E+02  0.40564517319E+02  0.00000000000E+00 0. -1.
         22    1    1    2    0    0  0.13999825597E+02  0.72350602116E+02  0.64419461788E+02  0.97879884554E+02  0.00000000000E+00 0. -1.
</event>
<event>
 6    1  0.8017648E-006  0.7254218E+02  0.7818608E-02  0.1435302E+00
          2   -1    0    0  502    0  0.00000000000E+00  0.00000000000E+00  0.92725765045E+03  0.92725765045E+03  0.00000000000E+00 0. -1.
          1   -1    0    0  501    0 -0.00000000000E+00 -0.00000000000E+00 -0.23459448236E+02  0.23459448236E+02  0.00000000000E+00 0.  1.
          2    1    1    2  501    0 -0.39605023798E+02  0.54397175006E+02  0.50558946851E+03  0.51004737155E+03  0.00000000000E+00 0. -1.
          1    1    1    2  502    0 -0.31959776466E+02 -0.25051318591E+02  0.60059216041E+02  0.72499002106E+02  0.00000000000E+00 0.  1.
         22    1    1    2    0    0  0.83441509241E+02 -0.44203718813E+02  0.33601396721E+03  0.34902985601E+03  0.00000000000E+00 0. -1.
         22    1    1    2    0    0 -0.11876708977E+02  0.14857862398E+02  0.21355504494E+01  0.19140869021E+02  0.00000000000E+00 0.  1.
</event>
<event>
 6    1  0.8017648E-006  0.5048987E+03  0.7818608E-02  0.1061654E+00
          2   -1    0    0  502    0  0.00000000000E+00  0.00000000000E+00  0.51205110105E+03  0.51205110105E+03  0.00000000000E+00 0. -1.
          1   -1    0    0  501    0 -0.00000000000E+00 -0.00000000000E+00 -0.74621375685E+03  0.74621375685E+03  0.00000000000E+00 0. -1.
          2    1    1    2  501    0 -0.85908548407E+02 -0.45964996288E+03  0.14638867728E+03  0.48998776709E+03  0.00000000000E+00 0. -1.
          1    1    1    2  502    0  0.17546708749E+03  0.45701831360E+03 -0.37635282391E+03  0.61749160790E+03  0.00000000000E+00 0. -1.
         22    1    1    2    0    0 -0.11969602286E+03 -0.37665899225E+01 -0.61628900967E+01  0.11991374526E+03  0.00000000000E+00 0. -1.
         22    1    1    2    0    0  0.30137483775E+02  0.63982391960E+01  0.19643809201E+01  0.30871737649E+02  0.00000000000E+00 0. -1.
</event>
<event>
 6    1  0.8017648E-006  0.4458807E+02  0.7818608E-02  0.1590617E+00
          2   -1    0    0  502    0  0.00000000000E+00  0.00000000000E+00  0.26979346193E+03  0.26979346193E+03  0.00000000000E+00 0. -1.
          1   -1    0    0  501    0 -0.00000000000E+00 -0.00000000000E+00 -0.15258338850E+03  0.15258338850E+03  0.00000000000E+00 0.  1.
          2    1    1    2  501    0  0.17321632872E+02 -0.19895135013E+02  0.18987397697E+03  0.19169763299E+03  0.00000000000E+00 0. -1.
          1    1    1    2  502    0 -0.20053528029E+02  0.41839245630E+02 -0.89480566714E+02  0.10079403891E+03  0.00000000000E+00 0.  1.
         22    1    1    2    0    0 -0.63054878556E+01 -0.77662354966E+01 -0.55114578343E+02  0.56015090260E+02  0.00000000000E+00 0. -1.
         22    1    1    2    0    0  0.90373830128E+01 -0.14177875121E+02  0.71931241512E+02  0.73870088264E+02  0.00000000000E+00 0. -1.
</event>
<event>
 6    1  0.8017648E-006  0.2282213E+02  0.7818608E-02  0.1707366E+00
          2   -1    0    0  502    0  0.00000000000E+00  0.00000000000E+00  0.18257184922E+03  0.18257184922E+03  0.00000000000E+00 0.  1.
          1   -1    0    0  501    0 -0.00000000000E+00 -0.00000000000E+00 -0.43886193372E+03  0.43886193372E+03  0.00000000000E+00 0.  1.
          2    1    1    2  501    0  0.32679629831E+02 -0.19191707017E+01  0.13485019243E+03  0.13876676771E+03  0.00000000000E+00 0.  1.
          1    1    1    2  502    0 -0.22026878816E+02 -0.67375365344E+01 -0.34247348622E+03  0.34324723823E+03  0.00000000000E+00 0.  1.
         22    1    1    2    0    0 -0.13783291321E+02 -0.12975059966E+02  0.42046108859E+02  0.46110807528E+02  0.00000000000E+00 0.  1.
         22    1    1    2    0    0  0.31305403064E+01  0.21631767202E+02 -0.90712899570E+02  0.93308969469E+02  0.00000000000E+00 0.  1.
</event>
<event>
 6    1  0.8017648E-006  0.4078974E+02  0.7818608E-02  0.1564308E+00
          2   -1    0    0  502    0  0.00000000000E+00  0.00000000000E+00  0.17635559828E+03  0.17635559828E+03  0.00000000000E+00 0. -1.
          1   -1    0    0  501    0 -0.00000000000E+00 -0.00000000000E+00 -0.12858981775E+03  0.12858981775E+03  0.00000000000E+00 0.  1.
          2    1    1    2  501    0  0.22167033105E+02 -0.10994862866E+02  0.11207288394E+03  0.11477192898E+03  0.00000000000E+00 0. -1.
          1    1    1    2  502    0 -0.33646731405E+02 -0.10658667885E+02 -0.53296848331E+02  0.63923890505E+02  0.00000000000E+00 0.  1.
         22    1    1    2    0    0 -0.39914140317E+01  0.17656709887E+02 -0.66284563349E+02  0.68711964958E+02  0.00000000000E+00 0.  1.
         22    1    1    2    0    0  0.15471112331E+02  0.39968208644E+01  0.55274308268E+02  0.57537631584E+02  0.00000000000E+00 0.  1.
</event>
<event>
 6    1  0.8017648E-006  0.3112273E+03  0.7818608E-02  0.1139634E+00
          2   -1    0    0  502    0  0.00000000000E+00  0.00000000000E+00  0.13557530409E+04  0.13557530409E+04  0.00000000000E+00 0. -1.
          1   -1    0    0  501    0 -0.00000000000E+00 -0.00000000000E+00 -0.13038469743E+03  0.13038469743E+03  0.00000000000E+00 0. -1.
          2    1    1    2  501    0 -0.23810371167E+02 -0.49483851829E+02  0.69666204037E+02  0.88707188840E+02  0.00000000000E+00 0. -1.
          1    1    1    2  502    0 -0.87140599683E+02  0.30818391412E+03  0.16476143690E+03  0.36016265787E+03  0.00000000000E+00 0. -1.
         22    1    1    2    0    0  0.11927188675E+03 -0.25292424738E+03  0.98786684890E+03  0.10266827012E+04  0.00000000000E+00 0. -1.
         22    1    1    2    0    0 -0.83209158989E+01 -0.57758149080E+01  0.30738536584E+01  0.10585190389E+02  0.00000000000E+00 0. -1.
</event>
<event>
 6    1  0.8017648E-006  0.5286477E+02  0.7818608E-02  0.1450399E+00
          2   -1    0    0  502    0  0.00000000000E+00  0.00000000000E+00  0.42634022003E+03  0.42634022003E+03  0.00000000000E+00 0.  1.
          1   -1    0    0  501    0 -0.00000000000E+00 -0.00000000000E+00 -0.54064697780E+02  0.54064697780E+02  0.00000000000E+00 0.  1.
          2    1    1    2  501    0 -0.23434894386E+02 -0.92108197959E+01  0.18027302760E+03  0.18202306985E+03  0.00000000000E+00 0.  1.
          1    1    1    2  502    0  0.80576560287E+02  0.24986788210E+02  0.11875309355E+03  0.14566818074E+03  0.00000000000E+00 0.  1.
         22    1    1    2    0    0 -0.39120711654E+02 -0.32734317154E+01 -0.28573658143E+02  0.48555116880E+02  0.00000000000E+00 0.  1.
         22    1    1    2    0    0 -0.18020954247E+02 -0.12502536699E+02  0.10182305924E+03  0.10415855034E+03  0.00000000000E+00 0.  1.
</event>
<event>
 6    1  0.8017648E-006  0.6421834E+02  0.7818608E-02  0.1475612E+00
          2   -1    0    0  502    0  0.00000000000E+00  0.00000000000E+00  0.29391270487E+03  0.29391270487E+03  0.00000000000E+00 0. -1.
          1   -1    0    0  501    0 -0.00000000000E+00 -0.00000000000E+00 -0.43790498442E+02  0.43790498442E+02  0.00000000000E+00 0. -1.
          2    1    1    2  501    0 -0.17889698741E+01  0.32309028814E+02  0.91092197680E+02  0.96668827624E+02  0.00000000000E+00 0. -1.
          1    1    1    2  502    0 -0.31414239888E+02 -0.42713917907E+02  0.31769415278E+02  0.61811236825E+02  0.00000000000E+00 0. -1.
         22    1    1    2    0    0  0.22426626899E+02  0.21133176301E+02  0.14930001137E+03  0.15244690265E+03  0.00000000000E+00 0. -1.
         22    1    1    2    0    0  0.10776582863E+02 -0.10728287207E+02 -0.22039417893E+02  0.26776236212E+02  0.00000000000E+00 0. -1.
</event>
<event>
 6    1  0.8017648E-006  0.1117093E+03  0.7818608E-02  0.1278807E+00
          2   -1    0    0  502    0  0.00000000000E+00  0.00000000000E+00  0.76546511954E+02  0.76546511954E+02  0.00000000000E+00 0.  1.
          1   -1    0    0  501    0 -0.00000000000E+00 -0.00000000000E+00 -0.32051015317E+03  0.32051015317E+03  0.00000000000E+00 0. -1.
          2    1    1    2  501    0  0.95701524219E+02 -0.11585571588E+02 -0.48821753064E+02  0.10805818238E+03  0.00000000000E+00 0.  1.
          1    1    1    2  502    0 -0.76141134997E+02 -0.29905176200E+02 -0.96637524399E+02  0.12661201809E+03  0.00000000000E+00 0. -1.
         22    1    1    2    0    0  0.35686693127E+02 -0.74363412088E+01  0.33504365270E+01  0.36606893638E+02  0.00000000000E+00 0. -1.
         22    1    1    2    0    0 -0.55247082348E+02  0.48927088996E+02 -0.10185480028E+03  0.12577957102E+03  0.00000000000E+00 0. -1.
</event>
<event>
 6    1  0.8017648E-006  0.1778476E+03  0.7818608E-02  0.1213313E+00
          2   -1    0    0  502    0  0.00000000000E+00  0.00000000000E+00  0.88336844897E+02  0.88336844897E+02  0.00000000000E+00 0.  1.
          1   -1    0    0  501    0 -0.00000000000E+00 -0.00000000000E+00 -0.32465384781E+03  0.32465384781E+03  0.00000000000E+00 0.  1.
          2    1    1    2  501    0  0.81478369074E+02 -0.42371881213E+02  0.54959627193E+01  0.92001666022E+02  0.00000000000E+00 0.  1.
          1    1    1    2  502    0 -0.55040315157E+02  0.33516702054E+02 -0.27209269337E+02  0.69951053938E+02  0.00000000000E+00 0.  1.
         22    1    1    2    0    0 -0.48934304042E+02 -0.47669675301E+02 -0.97167778979E+02  0.11877938090E+03  0.00000000000E+00 0.  1.
         22    1    1    2    0    0  0.22496250124E+02  0.56524854460E+02 -0.11743591732E+03  0.13225859185E+03  0.00000000000E+00 0.  1.
</event>
<event>
 6    1  0.8017648E-006  0.5195044E+02  0.7818608E-02  0.1438554E+00
          2   -1    0    0  502    0  0.00000000000E+00  0.00000000000E+00  0.18188338149E+03  0.18188338149E+03  0.00000000000E+00 0.  1.
          1   -1    0    0  501    0 -0.00000000000E+00 -0.00000000000E+00 -0.12078726425E+03  0.12078726425E+03  0.00000000000E+00 0.  1.
          2    1    1    2  501    0 -0.17296741852E+02 -0.11229317661E+02  0.84790536859E+02  0.87262305692E+02  0.00000000000E+00 0.  1.
          1    1    1    2  502    0  0.17526512026E+02  0.33020068258E+02 -0.71619285185E+02  0.80788771138E+02  0.00000000000E+00 0.  1.
         22    1    1    2    0    0 -0.59248477325E+01 -0.30025340350E+02  0.88074583952E+02  0.93240319723E+02  0.00000000000E+00 0.  1.
         22    1    1    2    0    0  0.56950775582E+01  0.82345897540E+01 -0.40149718385E+02  0.41379249186E+02  0.00000000000E+00 0.  1.
</event>
<event>
 6    1  0.8017648E-006  0.1007636E+03  0.7818608E-02  0.1394012E+00
          2   -1    0    0  502    0  0.00000000000E+00  0.00000000000E+00  0.12010301995E+03  0.12010301995E+03  0.00000000000E+00 0.  1.
          1   -1    0    0  501    0 -0.00000000000E+00 -0.00000000000E+00 -0.26160942804E+03  0.26160942804E+03  0.00000000000E+00 0.  1.
          2    1    1    2  501    0  0.14839545708E+02 -0.40859098315E+02  0.48774833222E+02  0.65335001245E+02  0.00000000000E+00 0.  1.
          1    1    1    2  502    0 -0.74561718676E+01  0.85484890262E+02 -0.15435634586E+03  0.17660448032E+03  0.00000000000E+00 0.  1.
         22    1    1    2    0    0 -0.22333981338E+01 -0.57064155063E+02  0.35399287386E+02  0.67189399519E+02  0.00000000000E+00 0.  1.
         22    1    1    2    0    0 -0.51499757070E+01  0.12438363116E+02 -0.71324182837E+02  0.72583566902E+02  0.00000000000E+00 0. -1.
</event>
<event>
 6    1  0.8017648E-006  0.4834843E+02  0.7818608E-02  0.1513159E+00
          2   -1    0    0  502    0  0.00000000000E+00  0.00000000000E+00  0.40029904659E+03  0.40029904659E+03  0.00000000000E+00 0. -1.
          1   -1    0    0  501    0 -0.00000000000E+00 -0.00000000000E+00 -0.12564963096E+03  0.12564963096E+03  0.00000000000E+00 0. -1.
          2    1    1    2  501    0 -0.31808996247E+02  0.33722786518E+02  0.30618512620E+03  0.30967461969E+03  0.00000000000E+00 0. -1.
          1    1    1    2  502    0  0.60582004883E+01 -0.33453585394E+02 -0.72253738672E+02  0.79852657569E+02  0.00000000000E+00 0. -1.
         22    1    1    2    0    0  0.75950979713E+01 -0.11182662404E+02 -0.45589927007E+02  0.47551854813E+02  0.00000000000E+00 0.  1.
         22    1    1    2    0    0  0.18155697787E+02  0.10913461280E+02  0.86307955106E+02  0.88869545480E+02  0.00000000000E+00 0. -1.
</event>
<event>
 6    1  0.8017648E-006  0.7627831E+02  0.7818608E-02  0.1413540E+00
          2   -1    0    0  502    0  0.00000000000E+00  0.00000000000E+00  0.98664961221E+03  0.98664961221E+03  0.00000000000E+00 0.  1.
          1   -1    0    0  501    0 -0.00000000000E+00 -0.00000000000E+00 -0.17920963717E+03  0.17920963717E+03  0.00000000000E+00 0.  1.
          2    1    1    2  501    0  0.45101818615E+02 -0.48652370421E+02  0.88539291828E+03  0.88787490500E+03  0.00000000000E+00 0.  1.
          1    1    1    2  502    0 -0.23425151817E+02  0.56933488477E+02 -0.12430947266E+03  0.13871915816E+03  0.00000000000E+00 0.  1.
         22    1    1    2    0    0 -0.12830597230E+02 -0.18867946124E+02  0.90335761347E+02  0.93172814674E+02  0.00000000000E+00 0.  1.
         22    1    1    2    0    0 -0.88460695678E+01  0.10586828068E+02 -0.43979231918E+02  0.46092371554E+02  0.00000000000E+00 0.  1.
</event>
<event>
 6    1  0.8017648E-006  0.1445741E+03  0.7818608E-02  0.1254844E+00
          2   -1    0    0  502    0  0.00000000000E+00  0.00000000000E+00  0.70068220168E+03  0.70068220168E+03  0.00000000000E+00 0.  1.
          1   -1    0    0  501    0 -0.00000000000E+00 -0.00000000000E+00 -0.31379296714E+03  0.31379296714E+03  0.00000000000E+00 0.  1.
          2    1    1    2  501    0  0.91207832987E+02 -0.41506463464E+02  0.41136993250E+03  0.42339919305E+03  0.00000000000E+00 0.  1.
          1    1    1    2  502    0 -0.16389690228E+03  0.95257875234E+02 -0.25228231043E+03  0.31556714266E+03  0.00000000000E+00 0.  1.
         22    1    1    2    0    0  0.21221923573E+02 -0.36614065989E+02  0.21585389422E+03  0.21996332312E+03  0.00000000000E+00 0.  1.
         22    1    1    2    0    0  0.51467145716E+02 -0.17137345781E+02  0.11947718250E+02  0.55545509989E+02  0.00000000000E+00 0.  1.
</event>
<event>
 6    1  0.8017648E-006  0.6502042E+02  0.7818608E-02  0.1424116E+00
          2   -1    0    0  502    0  0.00000000000E+00  0.00000000000E+00  0.33075139429E+03  0.33075139429E+03  0.00000000000E+00 0.  1.
          1   -1    0    0  501    0 -0.00000000000E+00 -0.00000000000E+00 -0.21836934564E+03  0.21836934564E+03  0.00000000000E+00 0.  1.
          2    1    1    2  501    0 -0.34057817993E+01 -0.40496668781E+02  0.30279337778E+03  0.30550844368E+03  0.00000000000E+00 0.  1.
          1    1    1    2  502    0  0.10639035083E+02  0.21144704229E+02 -0.29356041878E+02  0.37710274186E+02  0.00000000000E+00 0.  1.
         22    1    1    2    0    0 -0.19357615503E+02  0.24596849518E+02 -0.18005822255E+03  0.18275854506E+03  0.00000000000E+00 0.  1.
         22    1    1    2    0    0  0.12124362220E+02 -0.52448849660E+01  0.19002935304E+02  0.23143477001E+02  0.00000000000E+00 0.  1.
</event>
<event>
 6    1  0.8017648E-006  0.3152524E+03  0.7818608E-02  0.1216862E+00
          2   -1    0    0  502    0  0.00000000000E+00  0.00000000000E+00  0.10409413145E+04  0.10409413145E+04  0.00000000000E+00 0. -1.
          1   -1    0    0  501    0 -0.00000000000E+00 -0.00000000000E+00 -0.22876881594E+03  0.22876881594E+03  0.00000000000E+00 0. -1.
          2    1    1    2  501    0  0.10113947389E+03  0.21982511674E+03  0.63549812024E+03  0.68000745287E+03  0.00000000000E+00 0. -1.
          1    1    1    2  502    0 -0.15018347839E+03 -0.27188243240E+03 -0.56391546945E+02  0.31568202482E+03  0.00000000000E+00 0. -1.
         22    1    1    2    0    0 -0.70973526253E+01  0.88927383030E+01 -0.13402209957E+02  0.17580456210E+02  0.00000000000E+00 0.  1.
         22    1    1    2    0    0  0.56141357131E+02  0.43164577352E+02  0.24646813520E+03  0.25644019651E+03  0.00000000000E+00 0. -1.
</event>
<event>
 6    1  0.8017648E-006  0.2429853E+03  0.7818608E-02  0.1117825E+00
          2   -1    0    0  502    0  0.00000000000E+00  0.00000000000E+00  0.87443538557E+03  0.87443538557E+03  0.00000000000E+00 0.  1.
          1   -1    0    0  501    0 -0.00000000000E+00 -0.00000000000E+00 -0.21046809272E+03  0.21046809272E+03  0.00000000000E+00 0. -1.
          2    1    1    2  501    0  0.19459338296E+03  0.16500734159E+02  0.68498039025E+03  0.71227592543E+03  0.00000000000E+00 0.  1.
          1    1    1    2  502    0 -0.21130861603E+03 -0.23580487527E+02 -0.85650695589E+02  0.22922349848E+03  0.00000000000E+00 0. -1.
         22    1    1    2    0    0  0.43268164288E+02  0.69949456319E+01  0.94060489754E+02  0.10377108961E+03  0.00000000000E+00 0. -1.
         22    1    1    2    0    0 -0.26552931220E+02  0.84807736209E-01 -0.29422891562E+02  0.39632964772E+02  0.00000000000E+00 0.  1.
</event>
<event>
 6    1  0.8017648E-006  0.7666151E+02  0.7818608E-02  0.1393113E+00
          2   -1    0    0  502    0  0.00000000000E+00  0.00000000000E+00  0.68237475082E+02  0.68237475082E+02  0.00000000000E+00 0.  1.
          1   -1    0    0  501    0 -0.00000000000E+00 -0.00000000000E+00 -0.20286246712E+03  0.20286246712E+03  0.00000000000E+00 0.  1.
          2    1    1    2  501    0 -0.99373108761E+00 -0.31869450663E+02 -0.10829412541E+02  0.33673811234E+02  0.00000000000E+00 0.  1.
          1    1    1    2  502    0  0.51096551438E+02  0.42350073058E+02 -0.24623688514E+02  0.70786384940E+02  0.00000000000E+00 0.  1.
         22    1    1    2    0    0 -0.21694548227E+02  0.22161485072E+02 -0.11610222527E+03  0.12017284034E+03  0.00000000000E+00 0.  1.
         22    1    1    2    0    0 -0.28408272123E+02 -0.32642107467E+02  0.16930334287E+02  0.46466905685E+02  0.00000000000E+00 0.  1.
</event>
<event>
 6    1  0.8017648E-006  0.7302380E+02  0.7818608E-02  0.1455852E+00
          2   -1    0    0  502    0  0.00000000000E+00  0.00000000000E+00  0.11253852922E+03  0.11253852922E+03  0.00000000000E+00 0. -1.
          1   -1    0    0  501    0 -0.00000000000E+00 -0.00000000000E+00 -0.37592804786E+03  0.37592804786E+03  0.00000000000E+00 0.  1.
          2    1    1    2  501    0 -0.56672656516E+02 -0.55729921020E+01  0.57100048494E+02  0.80642816019E+02  0.00000000000E+00 0. -1.
          1    1    1    2  502    0  0.48410212452E+02 -0.16978073436E+01 -0.25996823149E+03  0.26444264521E+03  0.00000000000E+00 0.  1.
         22    1    1    2    0    0 -0.68601840064E+01 -0.11915815561E+02  0.38766157035E+02  0.41132270985E+02  0.00000000000E+00 0. -1.
         22    1    1    2    0    0  0.15122628070E+02  0.19186615006E+02 -0.99287492675E+02  0.10224884487E+03  0.00000000000E+00 0.  1.
</event>
<event>
 6    1  0.8017648E-006  0.8258344E+02  0.7818608E-02  0.1392215E+00
          2   -1    0    0  502    0  0.00000000000E+00  0.00000000000E+00  0.64528347194E+02  0.64528347194E+02  0.00000000000E+00 0. -1.
          1   -1    0    0  501    0 -0.00000000000E+00 -0.00000000000E+00 -0.18645761691E+03  0.18645761691E+03  0.00000000000E+00 0. -1.
          2    1    1    2  501    0  0.22824963479E+02  0.60513727752E+00  0.27992860699E+01  0.23003937738E+02  0.00000000000E+00 0. -1.
          1    1    1    2  502    0  0.38312428410E+02  0.32056965052E+02 -0.46686852996E+02  0.68375093577E+02  0.00000000000E+00 0. -1.
         22    1    1    2    0    0 -0.39342073204E+02 -0.45246556966E+02  0.16162399790E+02  0.62098895387E+02  0.00000000000E+00 0. -1.
         22    1    1    2    0    0 -0.21795318685E+02  0.12584454637E+02 -0.94204102576E+02  0.97508037398E+02  0.00000000000E+00 0. -1.
</event>
<event>
 6    1  0.8017648E-006  0.6930210E+02  0.7818608E-02  0.1413635E+00
          2   -1    0    0  502    0  0.00000000000E+00  0.00000000000E+00  0.39107376117E+03  0.39107376117E+03  0.00000000000E+00 0.  1.
          1   -1    0    0  501    0 -0.00000000000E+00 -0.00000000000E+00 -0.10708225037E+03  0.10708225037E+03  0.00000000000E+00 0. -1.
          2    1    1    2  501    0  0.73213113334E+02 -0.10595667400E+02  0.27587896221E+03  0.28562498126E+03  0.00000000000E+00 0.  1.
          1    1    1    2  502    0 -0.55633006500E+02  0.50231921492E+02 -0.16843164201E+02  0.76824276952E+02  0.00000000000E+00 0. -1.
         22    1    1    2    0    0 -0.17286955315E+01 -0.57635532269E+02  0.66326419469E+02  0.87886500031E+02  0.00000000000E+00 0. -1.
         22    1    1    2    0    0 -0.15851411302E+02  0.17999278177E+02 -0.41370706671E+02  0.47820253300E+02  0.00000000000E+00 0. -1.
</event>
<event>
 6    1  0.8017648E-006  0.7501462E+02  0.7818608E-02  0.1344547E+00
          2   -1    0    0  502    0  0.00000000000E+00  0.00000000000E+00  0.40054819381E+03  0.40054819381E+03  0.00000000000E+00 0. -1.
          1   -1    0    0  501    0 -0.00000000000E+00 -0.00000000000E+00 -0.25966591374E+03  0.25966591374E+03  0.00000000000E+00 0. -1.
          2    1    1    2  501    0 -0.49043443625E+02 -0.16134900948E+02  0.32462481413E+03  0.32870482859E+03  0.00000000000E+00 0. -1.
          1    1    1    2  502    0  0.58389363810E+02  0.13404338866E+02 -0.19806364631E+03  0.20692559555E+03  0.00000000000E+00 0. -1.
         22    1    1    2    0    0  0.95945220986E+01  0.10335555158E+02 -0.52684082276E+02  0.54538895111E+02  0.00000000000E+00 0. -1.
         22    1    1    2    0    0 -0.18940442283E+02 -0.76049930768E+01  0.67005194523E+02  0.70044788290E+02  0.00000000000E+00 0.  1.
</event>
<event>
 6    1  0.8017648E-006  0.8587894E+02  0.7818608E-02  0.1392178E+00
          2   -1    0    0  502    0  0.00000000000E+00  0.00000000000E+00  0.35803759134E+03  0.35803759134E+03  0.00000000000E+00 0. -1.
          1   -1    0    0  501    0 -0.00000000000E+00 -0.00000000000E+00 -0.29158814156E+03  0.29158814156E+03  0.00000000000E+00 0. -1.
          2    1    1    2  501    0 -0.49323680026E+02 -0.33372618553E+02  0.31150325648E+03  0.31714481847E+03  0.00000000000E+00 0. -1.
          1    1    1    2  502    0  0.57238566683E+02  0.62167104036E+01 -0.17082670297E+03  0.18026830961E+03  0.00000000000E+00 0. -1.
         22    1    1    2    0    0 -0.22192134910E+02  0.29925686765E+01  0.33830132715E+02  0.40569991356E+02  0.00000000000E+00 0.  1.
         22    1    1    2    0    0  0.14277248253E+02  0.24163339473E+02 -0.10805723645E+03  0.11164261347E+03  0.00000000000E+00 0. -1.
</event>
<event>
 6    1  0.8017648E-006  0.7062842E+02  0.7818608E-02  0.1393295E+00
          2   -1    0    0  502    0  0.00000000000E+00  0.00000000000E+00  0.31499303724E+03  0.31499303724E+03  0.00000000000E+00 0. -1.
          1   -1    0    0  501    0 -0.00000000000E+00 -0.00000000000E+00 -0.10363650987E+03  0.10363650987E+03  0.00000000000E+00 0. -1.
          2    1    1    2  501    0 -0.84876933820E+02 -0.14357050039E+02 -0.28259697960E+02  0.90602589971E+02  0.00000000000E+00 0. -1.
          1    1    1    2  502    0  0.23840367650E+02 -0.15512768911E+02 -0.18001279422E+02  0.33660885160E+02  0.00000000000E+00 0. -1.
         22    1    1    2    0    0  0.57577432909E+02  0.39857048475E+02  0.26950807288E+03  0.27845708186E+03  0.00000000000E+00 0. -1.
         22    1    1    2    0    0  0.34591332614E+01 -0.99872295252E+01 -0.11890568124E+02  0.15908990125E+02  0.00000000000E+00 0. -1.
</event>
<event>
 6    1  0.8017648E-006  0.1618025E+03  0.7818608E-02  0.1283506E+00
          2   -1    0    0  502    0  0.00000000000E+00  0.00000000000E+00  0.12527381394E+04  0.12527381394E+04  0.00000000000E+00 0. -1.
          1   -1    0    0  501    0 -0.00000000000E+00 -0.00000000000E+00 -0.65059617913E+02  0.65059617913E+02  0.00000000000E+00 0. -1.
          2    1    1    2  501    0 -0.14897032019E+03  0.10466398861E+03  0.12983635045E+03  0.22361615484E+03  0.00000000000E+00 0. -1.
          1    1    1    2  502    0 -0.23668672944E+02 -0.51314584250E+02  0.17203157215E+03  0.18107527289E+03  0.00000000000E+00 0. -1.
         22    1    1    2    0    0  0.17347679114E+02 -0.13872776724E+02  0.13056512258E+02  0.25765644122E+02  0.00000000000E+00 0.  1.
         22    1    1    2    0    0  0.15529131402E+03 -0.39476627639E+02  0.87275408667E+03  0.88734068549E+03  0.00000000000E+00 0. -1.
</event>
<event>
 6    1  0.8017648E-006  0.1951623E+03  0.7818608E-02  0.1174237E+00
          2   -1    0    0  502    0  0.00000000000E+00  0.00000000000E+00  0.24219400329E+04  0.24219400329E+04  0.00000000000E+00 0.  1.
          1   -1    0    0  501    0 -0.00000000000E+00 -0.00000000000E+00 -0.51531866636E+02  0.51531866636E+02  0.00000000000E+00 0.  1.
          2    1    1    2  501    0 -0.24847595431E+03 -0.98836460632E+02  0.82761472063E+03  0.86974425645E+03  0.00000000000E+00 0.  1.
          1    1    1    2  502    0  0.15764112538E+03  0.55965094597E+02  0.13189602580E+04  0.13295258472E+04  0.00000000000E+00 0.  1.
         22    1    1    2    0    0 -0.24567072042E+02  0.35188500632E+01  0.89090957601E+02  0.92483090675E+02  0.00000000000E+00 0. -1.
         22    1    1    2    0    0  0.11540190098E+03  0.39352515972E+02  0.13474223000E+03  0.18171870517E+03  0.00000000000E+00 0.  1.
</event>
<event>
 6    1  0.8017648E-006  0.3241791E+02  0.7818608E-02  0.1589528E+00
          2   -1    0    0  502    0  0.00000000000E+00  0.00000000000E+00  0.20272290955E+03  0.20272290955E+03  0.00000000000E+00 0.  1.
          1   -1    0    0  501    0 -0.00000000000E+00 -0.00000000000E+00 -0.26814439110E+03  0.26814439110E+03  0.00000000000E+00 0.  1.
          2    1    1    2  501    0  0.26107436177E+02  0.32990896456E+02  0.11535624230E+03  0.12278868071E+03  0.00000000000E+00 0.  1.
          1    1    1    2  502    0 -0.47771259630E+02 -0.56772509116E+00 -0.20618281780E+03  0.21164538718E+03  0.00000000000E+00 0.  1.
         22    1    1    2    0    0 -0.42456193943E+01 -0.27479138577E+02  0.75149377562E+02  0.80128380047E+02  0.00000000000E+00 0. -1.
         22    1    1    2    0    0  0.25909442848E+02 -0.49440327880E+01 -0.49744283606E+02  0.56304852725E+02  0.00000000000E+00 0. -1.
</event>
<event>
 6    1  0.8017648E-006  0.9619688E+02  0.7818608E-02  0.1343473E+00
          2   -1    0    0  502    0  0.00000000000E+00  0.00000000000E+00  0.13416248596E+03  0.13416248596E+03  0.00000000000E+00 0.  1.
          1   -1    0    0  501    0 -0.00000000000E+00 -0.00000000000E+00 -0.10865215665E+03  0.10865215665E+03  0.00000000000E+00 0.  1.
          2    1    1    2  501    0  0.45010512146E+01  0.19780124259E+02 -0.85144051771E+01  0.22000178937E+02  0.00000000000E+00 0.  1.
          1    1    1    2  502    0 -0.48551892253E+02 -0.63292025245E+02  0.25152532231E+02  0.83640998192E+02  0.00000000000E+00 0.  1.
         22    1    1    2    0    0  0.65677376755E+02  0.14997535341E+02  0.49076373877E+02  0.83348271467E+02  0.00000000000E+00 0.  1.
         22    1    1    2    0    0 -0.21626535717E+02  0.28514365645E+02 -0.40204171624E+02  0.53825194019E+02  0.00000000000E+00 0.  1.
</event>
<event>
 6    1  0.8017648E-006  0.2068260E+03  0.7818608E-02  0.1251995E+00
          2   -1    0    0  502    0  0.00000000000E+00  0.00000000000E+00  0.49878690643E+03  0.49878690643E+03  0.00000000000E+00 0.  1.
          1   -1    0    0  501    0 -0.00000000000E+00 -0.00000000000E+00 -0.99047037991E+02  0.99047037991E+02  0.00000000000E+00 0.  1.
          2    1    1    2  501    0  0.73787546003E+02  0.12303557445E+02  0.69305872049E+02  0.10197687665E+03  0.00000000000E+00 0.  1.
          1    1    1    2  502    0 -0.17849503676E+03 -0.71022983617E+02  0.13229888085E+03  0.23325465960E+03  0.00000000000E+00 0.  1.
         22    1    1    2    0    0 -0.28072570139E+01 -0.19404448761E+02 -0.46469967205E+01  0.20149637768E+02  0.00000000000E+00 0.  1.
         22    1    1    2    0    0  0.10751474778E+03  0.78123874933E+02  0.20278211226E+03  0.24245277041E+03  0.00000000000E+00 0.  1.
</event>
<event>
 6    1  0.8017648E-006  0.6421760E+02  0.7818608E-02  0.1407301E+00
          2   -1    0    0  502    0  0.00000000000E+00  0.00000000000E+00  0.47678134215E+03  0.47678134215E+03  0.00000000000E+00 0. -1.
          1   -1    0    0  501    0 -0.00000000000E+00 -0.00000000000E+00 -0.59422810231E+02  0.59422810231E+02  0.00000000000E+00 0.  1.
          2    1    1    2  501    0 -0.36769200416E+02 -0.63308529680E+01  0.33252131547E+03  0.33460794826E+03  0.00000000000E+00 0. -1.
          1    1    1    2  502    0 -0.22598936894E+02 -0.20833157949E+01 -0.15572766696E+02  0.27523866298E+02  0.00000000000E+00 0.  1.
         22    1    1    2    0    0  0.41127955820E+02 -0.92098695858E+01 -0.23047333798E+02  0.48036549032E+02  0.00000000000E+00 0. -1.
         22    1    1    2    0    0  0.18240181490E+02  0.17624038349E+02  0.12345731694E+03  0.12603578879E+03  0.00000000000E+00 0. -1.
</event>
<event>
 6    1  0.8017648E-006  0.1653927E+03  0.7818608E-02  0.1256833E+00
          2   -1    0    0  502    0  0.00000000000E+00  0.00000000000E+00  0.79113330176E+03  0.79113330176E+03  0.00000000000E+00 0. -1.
          1   -1    0    0  501    0 -0.00000000000E+00 -0.00000000000E+00 -0.90427416977E+02  0.90427416977E+02  0.00000000000E+00 0. -1.
          2    1    1    2  501    0  0.73936843004E+02  0.56230107642E+02  0.34199282096E+03  0.35438336776E+03  0.00000000000E+00 0. -1.
          1    1    1    2  502    0 -0.82916900462E+02 -0.14509471686E+03  0.37051959868E+02  0.17117399619E+03  0.00000000000E+00 0. -1.
         22    1    1    2    0    0 -0.23883041238E+02  0.25356156739E+02  0.99940003454E+01  0.36238299991E+02  0.00000000000E+00 0. -1.
         22    1    1    2    0    0  0.32863098696E+02  0.63508452477E+02  0.31166710360E+03  0.31976505478E+03  0.00000000000E+00 0. -1.
</event>
<event>
 6    1  0.8017648E-006  0.7203667E+02  0.7818608E-02  0.1408416E+00
          2   -1    0    0  502    0  0.00000000000E+00  0.00000000000E+00  0.26315486603E+03  0.26315486603E+03  0.00000000000E+00 0.  1.
          1   -1    0    0  501    0 -0.00000000000E+00 -0.00000000000E+00 -0.96947566617E+02  0.96947566617E+02  0.00000000000E+00 0. -1.
          2    1    1    2  501    0  0.38627960189E+02 -0.62876650652E+01  0.19403551500E+03  0.19794300978E+03  0.00000000000E+00 0.  1.
          1    1    1    2  502    0 -0.26898207526E+02  0.89168833312E+00 -0.16683191753E+02  0.31664452676E+02  0.00000000000E+00 0. -1.
         22    1    1    2    0    0  0.71738549978E+01  0.27836367727E+02  0.52812093726E+02  0.60128568980E+02  0.00000000000E+00 0.  1.
         22    1    1    2    0    0 -0.18903607660E+02 -0.22440390995E+02 -0.63957117567E+02  0.70366401201E+02  0.00000000000E+00 0. -1.
</event>
<event>
 6    1  0.8017648E-006  0.7078255E+02  0.7818608E-02  0.1456624E+00
          2   -1    0    0  502    0  0.00000000000E+00  0.00000000000E+00  0.10937541170E+03  0.10937541170E+03  0.00000000000E+00 0.  1.
          1   -1    0    0  501    0 -0.00000000000E+00 -0.00000000000E+00 -0.11559573509E+03  0.11559573509E+03  0.00000000000E+00 0.  1.
          2    1    1    2  501    0  0.24142726441E+02  0.36472641709E+01  0.53028483092E+01  0.24985875532E+02  0.00000000000E+00 0.  1.
          1    1    1    2  502    0 -0.56501677041E+02  0.27049148256E+02  0.94842087717E+01  0.63356500423E+02  0.00000000000E+00 0.  1.
         22    1    1    2    0    0  0.39271866479E+02 -0.17465425419E+02  0.48923874904E+02  0.65121932691E+02  0.00000000000E+00 0.  1.
         22    1    1    2    0    0 -0.69129158789E+01 -0.13230987008E+02 -0.69931255376E+02  0.71506838146E+02  0.00000000000E+00 0.  1.
</event>
<event>
 6    1  0.8017648E-006  0.2345100E+03  0.7818608E-02  0.1236520E+00
          2   -1    0    0  502    0  0.00000000000E+00  0.00000000000E+00  0.57950490427E+03  0.57950490427E+03  0.00000000000E+00 0. -1.
          1   -1    0    0  501    0 -0.00000000000E+00 -0.00000000000E+00 -0.37840531288E+03  0.37840531288E+03  0.00000000000E+00 0.  1.
          2    1    1    2  501    0 -0.43111274259E+02  0.42792036201E+02  0.31243144534E+03  0.31828155518E+03  0.00000000000E+00 0. -1.
          1    1    1    2  502    0 -0.15907324806E+03 -0.17740314334E+03 -0.23891689211E+03  0.33742770315E+03  0.00000000000E+00 0.  1.
         22    1    1    2    0    0  0.19976267685E+03  0.11639446925E+03  0.69711478435E+02  0.24147979162E+03  0.00000000000E+00 0. -1.
         22    1    1    2    0    0  0.24218454662E+01  0.18216637889E+02  0.57873559727E+02  0.60721167206E+02  0.00000000000E+00 0.  1.
</event>
<event>
 6    1  0.8017648E-006  0.7996658E+02  0.7818608E-02  0.1399256E+00
          2   -1    0    0  502    0  0.00000000000E+00  0.00000000000E+00  0.80706282029E+03  0.80706282029E+03  0.00000000000E+00 0. -1.
          1   -1    0    0  501    0 -0.00000000000E+00 -0.00000000000E+00 -0.21323172622E+03  0.21323172622E+03  0.00000000000E+00 0. -1.
          2    1    1    2  501    0 -0.26161196393E+02  0.61204713202E+02  0.67594757904E+03  0.67921686869E+03  0.00000000000E+00 0. -1.
          1    1    1    2  502    0  0.42070770123E+02 -0.39630882468E+02 -0.17631042586E+03  0.18554223996E+03  0.00000000000E+00 0. -1.
         22    1    1    2    0    0 -0.24319952002E+02 -0.47405109875E+01  0.12059526492E+03  0.12311437947E+03  0.00000000000E+00 0. -1.
         22    1    1    2    0    0  0.84103782728E+01 -0.16833319746E+02 -0.26401324036E+02  0.32421058392E+02  0.00000000000E+00 0. -1.
</event>
<event>
 6    1  0.8017648E-006  0.2053740E+03  0.7818608E-02  0.1229638E+00
          2   -1    0    0  502    0  0.00000000000E+00  0.00000000000E+00  0.40333882723E+03  0.40333882723E+03  0.00000000000E+00 0. -1.
          1   -1    0    0  501    0 -0.00000000000E+00 -0.00000000000E+00 -0.13899254373E+03  0.13899254373E+03  0.00000000000E+00 0. -1.
          2    1    1    2  501    0  0.77441640254E+02 -0.11420425736E+03  0.10853227858E+03  0.17555362581E+03  0.00000000000E+00 0. -1.
          1    1    1    2  502    0 -0.74022813112E+02  0.17329144146E+03  0.56096442779E+02  0.19661157503E+03  0.00000000000E+00 0. -1.
         22    1    1    2    0    0 -0.31180556903E+02 -0.45799693155E+01 -0.18869388877E+02  0.36732234948E+02  0.00000000000E+00 0. -1.
         22    1    1    2    0    0  0.27761729761E+02 -0.54507214786E+02  0.11858695101E+03  0.13343393517E+03  0.00000000000E+00 0. -1.
</event>
<event>
 6    1  0.8017648E-006  0.1085864E+03  0.7818608E-02  0.1263361E+00
          2   -1    0    0  502    0  0.00000000000E+00  0.00000000000E+00  0.44076934790E+03  0.44076934790E+03  0.00000000000E+00 0. -1.
          1   -1    0    0  501    0 -0.00000000000E+00 -0.00000000000E+00 -0.90793759064E+03  0.90793759064E+03  0.00000000000E+00 0.  1.
          2    1    1    2  501    0 -0.33610066828E+02  0.81169116641E+02  0.36494632535E+03  0.37537165913E+03  0.00000000000E+00 0. -1.
          1    1    1    2  502    0  0.39657734196E+02 -0.87994486421E+02 -0.84004613928E+03  0.84557275361E+03  0.00000000000E+00 0.  1.
         22    1    1    2    0    0 -0.13666246463E+02  0.14607605611E+02  0.65854015666E+02  0.68825139400E+02  0.00000000000E+00 0. -1.
         22    1    1    2    0    0  0.76185790949E+01 -0.77822358313E+01 -0.57922444475E+02  0.58937386402E+02  0.00000000000E+00 0. -1.
</event>
<event>
 6    1  0.8017648E-006  0.6133068E+02  0.7818608E-02  0.1478147E+00
          2   -1    0    0  502    0  0.00000000000E+00  0.00000000000E+00  0.26270340157E+03  0.26270340157E+03  0.00000000000E+00 0.  1.
          1   -1    0    0  501    0 -0.00000000000E+00 -0.00000000000E+00 -0.21200498219E+03  0.21200498219E+03  0.00000000000E+00 0.  1.
          2    1    1    2  501    0  0.47253202506E+02  0.89394555565E+01  0.20066397537E+03  0.20634633513E+03  0.00000000000E+00 0.  1.
          1    1    1    2  502    0 -0.54254523887E+02 -0.18210423729E+02 -0.12512037919E+03  0.13758736200E+03  0.00000000000E+00 0.  1.
         22    1    1    2    0    0  0.11307390110E+02 -0.70094413228E+01  0.51193314696E+02  0.52893712371E+02  0.00000000000E+00 0. -1.
         22    1    1    2    0    0 -0.43060687300E+01  0.16280409496E+02 -0.76038491499E+02  0.77880974254E+02  0.00000000000E+00 0.  1.
</event>
<event>
 6    1  0.8017648E-006  0.2619050E+03  0.7818608E-02  0.1138986E+00
          2   -1    0    0  502    0  0.00000000000E+00  0.00000000000E+00  0.45360851989E+03  0.45360851989E+03  0.00000000000E+00 0.  1.
          1   -1    0    0  501    0 -0.00000000000E+00 -0.00000000000E+00 -0.42176539196E+03  0.42176539196E+03  0.00000000000E+00 0. -1.
          2    1    1    2  501    0 -0.13301709416E+03 -0.20272024972E+03  0.26515257779E+03  0.35929783814E+03  0.00000000000E+00 0.  1.
          1    1    1    2  502    0  0.44397189293E+02  0.27586022808E+03 -0.18876496632E+03  0.33719755095E+03  0.00000000000E+00 0. -1.
         22    1    1    2    0    0  0.99082322284E+02 -0.58773079715E+02 -0.79289784491E+02  0.13985153347E+03  0.00000000000E+00 0. -1.
         22    1    1    2    0    0 -0.10462417418E+02 -0.14366898647E+02  0.34745300961E+02  0.39026989300E+02  0.00000000000E+00 0. -1.
</event>
<event>
 6    1  0.8017648E-006  0.4094702E+02  0.7818608E-02  0.1581275E+00
          2   -1    0    0  502    0  0.00000000000E+00  0.00000000000E+00  0.11028089738E+03  0.11028089738E+03  0.00000000000E+00 0.  1.
          1   -1    0    0  501    0 -0.00000000000E+00 -0.00000000000E+00 -0.16266689384E+03  0.16266689384E+03  0.00000000000E+00 0.  1.
          2    1    1    2  501    0 -0.32321220901E+01  0.21410934479E+02  0.53034314825E+02  0.57284494215E+02  0.00000000000E+00 0.  1.
          1    1    1    2  502    0  0.10413784048E+00 -0.25970790082E+02 -0.78657244315E+02  0.82833899253E+02  0.00000000000E+00 0.  1.
         22    1    1    2    0    0  0.14922694213E+02  0.12964898798E+02  0.50494456165E+02  0.54226059297E+02  0.00000000000E+00 0.  1.
         22    1    1    2    0    0 -0.11794709963E+02 -0.84050431958E+01 -0.77257523136E+02  0.78603338449E+02  0.00000000000E+00 0.  1.
</event>
<event>
 6    1  0.8017648E-006  0.5353979E+02  0.7818608E-02  0.1439106E+00
          2   -1    0    0  502    0  0.00000000000E+00  0.00000000000E+00  0.89672560334E+02  0.89672560334E+02  0.00000000000E+00 0.  1.
          1   -1    0    0  501    0 -0.00000000000E+00 -0.00000000000E+00 -0.30525403066E+03  0.30525403066E+03  0.00000000000E+00 0. -1.
          2    1    1    2  501    0 -0.27028567620E+02  0.43652418828E+02  0.27328190202E+02  0.58162764007E+02  0.00000000000E+00 0.  1.
          1    1    1    2  502    0  0.45052049217E+02 -0.62361462639E+01  0.12577651818E+02  0.47188706107E+02  0.00000000000E+00 0. -1.
         22    1    1    2    0    0 -0.38026550511E+01 -0.44526269346E+02 -0.26650872390E+03  0.27022943726E+03  0.00000000000E+00 0. -1.
         22    1    1    2    0    0 -0.14220826545E+02  0.71099967814E+01  0.11021411557E+02  0.19345683616E+02  0.00000000000E+00 0. -1.
</event>
<event>
 6    1  0.8017648E-006  0.1727063E+03  0.7818608E-02  0.1314852E+00
          2   -1    0    0  502    0  0.00000000000E+00  0.00000000000E+00  0.10200340835E+03  0.10200340835E+03  0.00000000000E+00 0. -1.
          1   -1    0    0  501    0 -0.00000000000E+00 -0.00000000000E+00 -0.15981329643E+04  0.15981329643E+04  0.00000000000E+00 0.  1.
          2    1    1    2  501    0 -0.30345422833E+02 -0.78458460961E+01 -0.34272204504E+01  0.31530109862E+02  0.00000000000E+00 0. -1.
          1    1    1    2  502    0  0.16943328235E+03  0.31305805812E-01 -0.14670110222E+04  0.14767630065E+04  0.00000000000E+00 0.  1.
         22    1    1    2    0    0 -0.13929614803E+03  0.18052123464E+02  0.22785190431E+02  0.14229708683E+03  0.00000000000E+00 0. -1.
         22    1    1    2    0    0  0.20828850787E+00 -0.10237583174E+02 -0.48476503806E+02  0.49546169525E+02  0.00000000000E+00 0. -1.
</event>
<event>
 6    1  0.8017648E-006  0.2151816E+03  0.7818608E-02  0.1254317E+00
          2   -1    0    0  502    0  0.00000000000E+00  0.00000000000E+00  0.43631655204E+03  0.43631655204E+03  0.00000000000E+00 0. -1.
          1   -1    0    0  501    0 -0.00000000000E+00 -0.00000000000E+00 -0.21866310188E+03  0.21866310188E+03  0.00000000000E+00 0. -1.
          2    1    1    2  501    0  0.22511816125E+02 -0.19369249543E+03  0.23837615248E+03  0.30797200315E+03  0.00000000000E+00 0. -1.
          1    1    1    2  502    0 -0.12231864475E+02  0.19895187229E+03  0.46385287247E+02  0.20465351419E+03  0.00000000000E+00 0. -1.
         22    1    1    2    0    0 -0.13380355520E+02 -0.21592491482E+02  0.32566969834E+02  0.41302265391E+02  0.00000000000E+00 0. -1.
         22    1    1    2    0    0  0.31004038699E+01  0.16333114622E+02 -0.99674959408E+02  0.10105187119E+03  0.00000000000E+00 0.  1.
</event>
<event>
 6    1  0.8017648E-006  0.2872431E+02  0.7818608E-02  0.1658536E+00
          2   -1    0    0  502    0  0.00000000000E+00  0.00000000000E+00  0.19289677820E+03  0.19289677820E+03  0.00000000000E+00 0. -1.
          1   -1    0    0  501    0 -0.00000000000E+00 -0.00000000000E+00 -0.84301637205E+02  0.84301637205E+02  0.00000000000E+00 0. -1.
          2    1    1    2  501    0  0.48098820247E+02  0.28871014518E+02  0.91873825919E+02  0.10764679223E+03  0.00000000000E+00 0. -1.
          1    1    1    2  502    0 -0.34058702222E+02 -0.19136202547E+02 -0.12501932991E+02  0.41018139567E+02  0.00000000000E+00 0. -1.
         22    1    1    2    0    0 -0.19859213175E+02  0.29143382706E+00  0.76922766247E+02  0.79445486018E+02  0.00000000000E+00 0.  1.
         22    1    1    2    0    0  0.58190951504E+01 -0.10026245798E+02 -0.47699518178E+02  0.49087997591E+02  0.00000000000E+00 0. -1.
</event>
<event>
 6    1  0.8017648E-006  0.2308796E+03  0.7818608E-02  0.1248688E+00
          2   -1    0    0  502    0  0.00000000000E+00  0.00000000000E+00  0.15902183665E+03  0.15902183665E+03  0.00000000000E+00 0. -1.
          1   -1    0    0  501    0 -0.00000000000E+00 -0.00000000000E+00 -0.73068614056E+03  0.73068614056E+03  0.00000000000E+00 0.  1.
          2    1    1    2  501    0  0.15389196704E+03 -0.89502680558E+02  0.34242297024E+01  0.17805952010E+03  0.00000000000E+00 0. -1.
          1    1    1    2  502    0 -0.18636782448E+03  0.10459177629E+03 -0.53745567448E+03  0.57838655560E+03  0.00000000000E+00 0.  1.
         22    1    1    2    0    0  0.43081525988E+02 -0.44014644307E+01  0.37101712737E+02  0.57025677187E+02  0.00000000000E+00 0. -1.
         22    1    1    2    0    0 -0.10605668554E+02 -0.10687631304E+02 -0.74734571858E+02  0.76236224323E+02  0.00000000000E+00 0.  1.
</event>
<event>
 6    1  0.8017648E-006  0.3928372E+03  0.7818608E-02  0.1160387E+00
          2   -1    0    0  502    0  0.00000000000E+00  0.00000000000E+00  0.79890838548E+03  0.79890838548E+03  0.00000000000E+00 0.  1.
          1   -1    0    0  501    0 -0.00000000000E+00 -0.00000000000E+00 -0.80098687990E+02  0.80098687990E+02  0.00000000000E+00 0.  1.
          2    1    1    2  501    0 -0.53513122301E+02  0.12126931011E+03  0.61298905849E+02  0.14603922655E+03  0.00000000000E+00 0.  1.
          1    1    1    2  502    0  0.47965778574E+02  0.23939089135E+02  0.66099502887E+01  0.54013769963E+02  0.00000000000E+00 0.  1.
         22    1    1    2    0    0 -0.20035729162E+02  0.45858223558E+01  0.15797405193E+02  0.25923314228E+02  0.00000000000E+00 0.  1.
         22    1    1    2    0    0  0.25583072889E+02 -0.14979422161E+03  0.63510343616E+03  0.65303076272E+03  0.00000000000E+00 0.  1.
</event>
<event>
 6    1  0.8017648E-006  0.8823522E+02  0.7818608E-02  0.1379094E+00
          2   -1    0    0  502    0  0.00000000000E+00  0.00000000000E+00  0.57822076292E+03  0.57822076292E+03  0.00000000000E+00 0. -1.
          1   -1    0    0  501    0 -0.00000000000E+00 -0.00000000000E+00 -0.48253674261E+02  0.48253674261E+02  0.00000000000E+00 0.  1.
          2    1    1    2  501    0 -0.45006337344E+01  0.68755707233E+02  0.37480708517E+03  0.38108785611E+03  0.00000000000E+00 0. -1.
          1    1    1    2  502    0  0.38500792300E+01 -0.67094468817E+02  0.42206660545E+02  0.79359265686E+02  0.00000000000E+00 0.  1.
         22    1    1    2    0    0 -0.10855395823E+02  0.21109589769E+02  0.13204534268E+03  0.13416194290E+03  0.00000000000E+00 0. -1.
         22    1    1    2    0    0  0.11505950328E+02 -0.22770828185E+02 -0.19091999741E+02  0.31865372480E+02  0.00000000000E+00 0.  1.
</event>
<event>
 6    1  0.8017648E-006  0.5232863E+02  0.7818608E-02  0.1500242E+00
          2   -1    0    0  502    0  0.00000000000E+00  0.00000000000E+00  0.73963366366E+02  0.73963366366E+02  0.00000000000E+00 0.  1.
          1   -1    0    0  501    0 -0.00000000000E+00 -0.00000000000E+00 -0.18271668559E+03  0.18271668559E+03  0.00000000000E+00 0. -1.
          2    1    1    2  501    0 -0.13340716850E+02  0.21744639750E+02  0.20599095240E+02  0.32789126378E+02  0.00000000000E+00 0.  1.
          1    1    1    2  502    0  0.12411315091E+02 -0.43793930977E+02 -0.79728908112E+02  0.91807668097E+02  0.00000000000E+00 0. -1.
         22    1    1    2    0    0  0.19754828042E+02  0.25687550409E+01 -0.85125776866E+02  0.87425680555E+02  0.00000000000E+00 0. -1.
         22    1    1    2    0    0 -0.18825426282E+02  0.19480536187E+02  0.35502270517E+02  0.44657576924E+02  0.00000000000E+00 0.  1.
</event>
<event>
 6    1  0.8017648E-006  0.1007832E+03  0.7818608E-02  0.1391000E+00
          2   -1    0    0  502    0  0.00000000000E+00  0.00000000000E+00  0.28978696243E+03  0.28978696243E+03  0.00000000000E+00 0. -1.
          1   -1    0    0  501    0 -0.00000000000E+00 -0.00000000000E+00 -0.11943426159E+03  0.11943426159E+03  0.00000000000E+00 0. -1.
          2    1    1    2  501    0 -0.65753774029E+02  0.59636533910E+02  0.20800110447E+03  0.22615157403E+03  0.00000000000E+00 0. -1.
          1    1    1    2  502    0  0.22457916446E+02 -0.36747527876E+02 -0.18820000869E+02  0.46999268599E+02  0.00000000000E+00 0. -1.
         22    1    1    2    0    0  0.37552668134E+01  0.13610823407E+02  0.48135906844E+02  0.50163951902E+02  0.00000000000E+00 0. -1.
         22    1    1    2    0    0  0.39540590770E+02 -0.36499829441E+02 -0.66964309603E+02  0.85906429493E+02  0.00000000000E+00 0. -1.
</event>
<event>
 6    1  0.8017648E-006  0.9550255E+02  0.7818608E-02  0.1379123E+00
          2   -1    0    0  502    0  0.00000000000E+00  0.00000000000E+00  0.10974712154E+03  0.10974712154E+03  0.00000000000E+00 0. -1.
          1   -1    0    0  501    0 -0.00000000000E+00 -0.00000000000E+00 -0.42317386469E+03  0.42317386469E+03  0.00000000000E+00 0.  1.
          2    1    1    2  501    0 -0.43400063441E+02  0.46251124936E+02  0.46791772266E+02  0.78817523536E+02  0.00000000000E+00 0. -1.
          1    1    1    2  502    0  0.34955604350E+02 -0.74733266789E+02 -0.30598337995E+03  0.31691131922E+03  0.00000000000E+00 0.  1.
         22    1    1    2    0    0  0.20035909100E+02 -0.17378613648E+01 -0.88088810081E+02  0.90355388755E+02  0.00000000000E+00 0. -1.
         22    1    1    2    0    0 -0.11591450009E+02  0.30220003218E+02  0.33853674613E+02  0.46836754719E+02  0.00000000000E+00 0. -1.
</event>
<event>
 6    1  0.8017648E-006  0.1044894E+03  0.7818608E-02  0.1316623E+00
          2   -1    0    0  502    0  0.00000000000E+00  0.00000000000E+00  0.60600029607E+03  0.60600029607E+03  0.00000000000E+00 0.  1.
          1   -1    0    0  501    0 -0.00000000000E+00 -0.00000000000E+00 -0.33526432628E+03  0.33526432628E+03  0.00000000000E+00 0.  1.
          2    1    1    2  501    0  0.64842494988E+02 -0.57150415328E+02  0.53496980232E+03  0.54190719549E+03  0.00000000000E+00 0.  1.
          1    1    1    2  502    0 -0.66751266264E+02  0.27986401926E+02 -0.26267795935E+03  0.27246776061E+03  0.00000000000E+00 0.  1.
         22    1    1    2    0    0 -0.20928645943E+01  0.44739568682E+02 -0.55085904177E+02  0.70996238823E+02  0.00000000000E+00 0.  1.
         22    1    1    2    0    0  0.40016358702E+01 -0.15575555279E+02  0.53530030996E+02  0.55893427434E+02  0.00000000000E+00 0.  1.
</event>
<event>
 6    1  0.8017648E-006  0.4177527E+02  0.7818608E-02  0.1572043E+00
          2   -1    0    0  502    0  0.00000000000E+00  0.00000000000E+00  0.34471482057E+03  0.34471482057E+03  0.00000000000E+00 0. -1.
          1   -1    0    0  501    0 -0.00000000000E+00 -0.00000000000E+00 -0.63811039516E+02  0.63811039516E+02  0.00000000000E+00 0. -1.
          2    1    1    2  501    0  0.29046213034E+02 -0.17908304178E+02  0.17560243987E+03  0.17888713408E+03  0.00000000000E+00 0. -1.
          1    1    1    2  502    0 -0.33030557261E+02  0.65565353014E+01  0.97288973053E+02  0.10295217407E+03  0.00000000000E+00 0. -1.
         22    1    1    2    0    0 -0.93894259202E+01  0.12071480023E+02 -0.57664502170E+02  0.59657998287E+02  0.00000000000E+00 0. -1.
         22    1    1    2    0    0  0.13373770147E+02 -0.71971114700E+00  0.65676870294E+02  0.67028553645E+02  0.00000000000E+00 0.  1.
</event>
<event>
 6    1  0.8017648E-006  0.5947873E+02  0.7818608E-02  0.1484889E+00
          2   -1    0    0  502    0  0.00000000000E+00  0.00000000000E+00  0.13334738654E+04  0.13334738654E+04  0.00000000000E+00 0. -1.
          1   -1    0    0  501    0 -0.00000000000E+00 -0.00000000000E+00 -0.45561582006E+02  0.45561582006E+02  0.00000000000E+00 0. -1.
          2    1    1    2  501    0  0.53390877744E+01 -0.74850916581E+02  0.10050550851E+04  0.10078526131E+04  0.00000000000E+00 0. -1.
          1    1    1    2  502    0  0.52457694565E+02  0.62019601867E+02  0.36403759374E+02  0.89013900214E+02  0.00000000000E+00 0. -1.
         22    1    1    2    0    0 -0.12961486165E+02  0.26568015330E+01 -0.13073963436E+02  0.18600732187E+02  0.00000000000E+00 0. -1.
         22    1    1    2    0    0 -0.44835296174E+02  0.10174513181E+02  0.25952740232E+03  0.26356820191E+03  0.00000000000E+00 0. -1.
</event>
<event>
 6    1  0.8017648E-006  0.8868779E+02  0.7818608E-02  0.1379920E+00
          2   -1    0    0  502    0  0.00000000000E+00  0.00000000000E+00  0.10585052401E+04  0.10585052401E+04  0.00000000000E+00 0. -1.
          1   -1    0    0  501    0 -0.00000000000E+00 -0.00000000000E+00 -0.32071389419E+02  0.32071389419E+02  0.00000000000E+00 0. -1.
          2    1    1    2  501    0 -0.69945368107E+02 -0.61419605336E+02  0.16743653112E+03  0.19157169518E+03  0.00000000000E+00 0. -1.
          1    1    1    2  502    0  0.44213746665E+02  0.11970960160E+03  0.40597843817E+03  0.42556284655E+03  0.00000000000E+00 0. -1.
         22    1    1    2    0    0 -0.20753969542E+02  0.45977748104E+01  0.98541503357E+01  0.23430131536E+02  0.00000000000E+00 0. -1.
         22    1    1    2    0    0  0.46485590984E+02 -0.62887771071E+02  0.44316473110E+03  0.45001195630E+03  0.00000000000E+00 0. -1.
</event>
<event>
 6    1  0.8017648E-006  0.4628417E+02  0.7818608E-02  0.1577645E+00
          2   -1    0    0  502    0  0.00000000000E+00  0.00000000000E+00  0.15275461793E+03  0.15275461793E+03  0.00000000000E+00 0.  1.
          1   -1    0    0  501    0 -0.00000000000E+00 -0.00000000000E+00 -0.11410390350E+03  0.11410390350E+03  0.00000000000E+00 0.  1.
          2    1    1    2  501    0  0.27638141880E+02  0.43412575645E+01  0.77073623996E+02  0.81994249308E+02  0.00000000000E+00 0.  1.
          1    1    1    2  502    0 -0.39166232182E+02 -0.26228458660E+01 -0.40483090942E+02  0.56389304978E+02  0.00000000000E+00 0.  1.
         22    1    1    2    0    0  0.13873349801E+02 -0.11941424153E+02  0.63531144509E+02  0.66115609111E+02  0.00000000000E+00 0.  1.
         22    1    1    2    0    0 -0.23452594994E+01  0.10223012454E+02 -0.61470963136E+02  0.62359358035E+02  0.00000000000E+00 0.  1.
</event>
<event>
 6    1  0.1831138E-005  0.8373915E+02  0.7818608E-02  0.1416091E+00
          2   -1    0    0  502    0  0.00000000000E+00  0.00000000000E+00  0.21998130811E+04  0.21998130811E+04  0.00000000000E+00 0. -1.
          1   -1    0    0  501    0 -0.00000000000E+00 -0.00000000000E+00 -0.47513871027E+03  0.47513871027E+03  0.00000000000E+00 0. -1.
          2    1    1    2  501    0 -0.11307377410E+03 -0.57625572554E+02  0.21613660517E+04  0.21650888191E+04  0.00000000000E+00 0. -1.
          1    1    1    2  502    0  0.75328947642E+02  0.76297112527E+02 -0.30452425433E+03  0.32284782980E+03  0.00000000000E+00 0. -1.
         22    1    1    2    0    0  0.47944438548E+02 -0.19881659209E+02 -0.15420277992E+03  0.16270355527E+03  0.00000000000E+00 0. -1.
         22    1    1    2    0    0 -0.10199612090E+02  0.12101192368E+01  0.22035353335E+02  0.24311587195E+02  0.00000000000E+00 0.  1.
</event>
<event>
 6    1  0.8017648E-006  0.1221930E+03  0.7818608E-02  0.1358369E+00
          2   -1    0    0  502    0  0.00000000000E+00  0.00000000000E+00  0.14435392928E+03  0.14435392928E+03  0.00000000000E+00 0.  1.
          1   -1    0    0  501    0 -0.00000000000E+00 -0.00000000000E+00 -0.14171767210E+03  0.14171767210E+03  0.00000000000E+00 0. -1.
          2    1    1    2  501    0 -0.40372649902E+02  0.80537201902E+01 -0.86163741294E+01  0.42060137567E+02  0.00000000000E+00 0.  1.
          1    1    1    2  502    0  0.77722414077E+02 -0.43102821626E+02 -0.46984297227E+02  0.10052935426E+03  0.00000000000E+00 0. -1.
         22    1    1    2    0    0  0.10728504552E+02  0.82719896638E+01 -0.33706705094E+02  0.36327243100E+02  0.00000000000E+00 0.  1.
         22    1    1    2    0    0 -0.48078268726E+02  0.26777111772E+02  0.91943633634E+02  0.10715486645E+03  0.00000000000E+00 0.  1.
</event>
<event>
 6    1  0.8017648E-006  0.4047072E+02  0.7818608E-02  0.1551531E+00
          2   -1    0    0  502    0  0.00000000000E+00  0.00000000000E+00  0.10228011703E+03  0.10228011703E+03  0.00000000000E+00 0. -1.
          1   -1    0    0  501    0 -0.00000000000E+00 -0.00000000000E+00 -0.14441217437E+03  0.14441217437E+03  0.00000000000E+00 0. -1.
          2    1    1    2  501    0  0.29978720831E+02 -0.14870431571E+02  0.14786361026E+02  0.36585378366E+02  0.00000000000E+00 0. -1.
          1    1    1    2  502    0 -0.17938680219E+02  0.16151649781E+02  0.43497031131E+02  0.49745992360E+02  0.00000000000E+00 0. -1.
         22    1    1    2    0    0 -0.15106549848E+02  0.15720446714E+02 -0.12688935144E+03  0.12874877786E+03  0.00000000000E+00 0. -1.
         22    1    1    2    0    0  0.30665092364E+01 -0.17001664924E+02  0.26473901940E+02  0.31612142809E+02  0.00000000000E+00 0. -1.
</event>
<event>
 6    1  0.8017648E-006  0.2657007E+02  0.7818608E-02  0.1648875E+00
          2   -1    0    0  502    0  0.00000000000E+00  0.00000000000E+00  0.13740273991E+03  0.13740273991E+03  0.00000000000E+00 0. -1.
          1   -1    0    0  501    0 -0.00000000000E+00 -0.00000000000E+00 -0.43299231206E+03  0.43299231206E+03  0.00000000000E+00 0. -1.
          2    1    1    2  501    0 -0.19764778517E+02 -0.43760265464E+02  0.53516425378E+02  0.71900035386E+02  0.00000000000E+00 0. -1.
          1    1    1    2  502    0  0.28632420965E+02  0.30741971433E+02 -0.37139105831E+03  0.37375955176E+03  0.00000000000E+00 0. -1.
         22    1    1    2    0    0 -0.23471129460E+02 -0.14330031715E+01 -0.46953704112E+02  0.52512834108E+02  0.00000000000E+00 0.  1.
         22    1    1    2    0    0  0.14603487012E+02  0.14451297203E+02  0.69238764895E+02  0.72222630719E+02  0.00000000000E+00 0.  1.
</event>
<event>
 6    1  0.8017648E-006  0.3932019E+02  0.7818608E-02  0.1541082E+00
          2   -1    0    0  502    0  0.00000000000E+00  0.00000000000E+00  0.61410495417E+03  0.61410495417E+03  0.00000000000E+00 0. -1.
          1   -1    0    0  501    0 -0.00000000000E+00 -0.00000000000E+00 -0.63983364354E+02  0.63983364354E+02  0.00000000000E+00 0.  1.
          2    1    1    2  501    0 -0.26221844605E+02 -0.31052973853E+02  0.30929081798E+03  0.31194980751E+03  0.00000000000E+00 0. -1.
          1    1    1    2  502    0  0.34389734123E+02  0.42281971025E+02  0.23873786884E+03  0.24487994794E+03  0.00000000000E+00 0.  1.
         22    1    1    2    0    0 -0.34425173772E+02 -0.18349744117E+02 -0.49444805151E+02  0.62980905478E+02  0.00000000000E+00 0.  1.
         22    1    1    2    0    0  0.26257284254E+02  0.71207469441E+01  0.51537708152E+02  0.58277657597E+02  0.00000000000E+00 0.  1.
</event>
<event>
 6    1  0.8017648E-006  0.1115777E+03  0.7818608E-02  0.1292076E+00
          2   -1    0    0  502    0  0.00000000000E+00  0.00000000000E+00  0.43179707873E+03  0.43179707873E+03  0.00000000000E+00 0. -1.
          1   -1    0    0  501    0 -0.00000000000E+00 -0.00000000000E+00 -0.13193132604E+03  0.13193132604E+03  0.00000000000E+00 0. -1.
          2    1    1    2  501    0 -0.17911123008E+02 -0.99104904975E+01  0.37721932070E+02  0.42918181560E+02  0.00000000000E+00 0. -1.
          1    1    1    2  502    0  0.10236567379E+03  0.79034589224E+02 -0.71863600742E+02  0.14795125743E+03  0.00000000000E+00 0. -1.
         22    1    1    2    0    0 -0.28534973967E+02 -0.83178466058E+02  0.28135445511E+03  0.29477657872E+03  0.00000000000E+00 0. -1.
         22    1    1    2    0    0 -0.55919576816E+02  0.14054367332E+02  0.52652966256E+02  0.78082387053E+02  0.00000000000E+00 0.  1.
</event>
<event>
 6    1  0.8017648E-006  0.3932598E+02  0.7818608E-02  0.1526363E+00
          2   -1    0    0  502    0  0.00000000000E+00  0.00000000000E+00  0.99292498473E+02  0.99292498473E+02  0.00000000000E+00 0.  1.
          1   -1    0    0  501    0 -0.00000000000E+00 -0.00000000000E+00 -0.13989547247E+03  0.13989547247E+03  0.00000000000E+00 0.  1.
          2    1    1    2  501    0 -0.48494592503E+02 -0.24356488375E+01  0.14984505880E+01  0.48578835324E+02  0.00000000000E+00 0.  1.
          1    1    1    2  502    0  0.56006228991E+02 -0.99122649722E-02 -0.12243376214E+02  0.57328858747E+02  0.00000000000E+00 0.  1.
         22    1    1    2    0    0 -0.33525634997E+02 -0.56774514172E+00  0.43767985013E+02  0.55135533448E+02  0.00000000000E+00 0.  1.
         22    1    1    2    0    0  0.26013998509E+02  0.30133062442E+01 -0.73626033388E+02  0.78144743428E+02  0.00000000000E+00 0.  1.
</event>
<event>
 6    1  0.8017648E-006  0.6185358E+02  0.7818608E-02  0.1447338E+00
          2   -1    0    0  502    0  0.00000000000E+00  0.00000000000E+00  0.49244572198E+02  0.49244572198E+02  0.00000000000E+00 0. -1.
          1   -1    0    0  501    0 -0.00000000000E+00 -0.00000000000E+00 -0.23142780186E+03  0.23142780186E+03  0.00000000000E+00 0. -1.
          2    1    1    2  501    0  0.20513173003E+02 -0.31342940164E+01 -0.58997658487E+01  0.21573625164E+02  0.00000000000E+00 0. -1.
          1    1    1    2  502    0 -0.32905368426E+02  0.42852411886E+02 -0.69627984803E+02  0.88131428807E+02  0.00000000000E+00 0. -1.
         22    1    1    2    0    0 -0.19588610513E+02 -0.16546293082E+02 -0.12487050762E+03  0.12747602579E+03  0.00000000000E+00 0. -1.
         22    1    1    2    0    0  0.31980805936E+02 -0.23171824788E+02  0.18215028614E+02  0.43491294299E+02  0.00000000000E+00 0. -1.
</event>
<event>
 6    1  0.8017648E-006  0.1761600E+03  0.7818608E-02  0.1297837E+00
          2   -1    0    0  502    0  0.00000000000E+00  0.00000000000E+00  0.47890455052E+03  0.47890455052E+03  0.00000000000E+00 0. -1.
          1   -1    0    0  501    0 -0.00000000000E+00 -0.00000000000E+00 -0.49131155169E+03  0.49131155169E+03  0.00000000000E+00 0. -1.
          2    1    1    2  501    0 -0.13767966290E+03 -0.10482627471E+03  0.17305138437E+03  0.24472641680E+03  0.00000000000E+00 0. -1.
          1    1    1    2  502    0  0.11267432645E+03 -0.12384942774E+03 -0.36951252189E+03  0.40567682757E+03  0.00000000000E+00 0. -1.
         22    1    1    2    0    0  0.31385712237E+01  0.12783990587E+02 -0.18676756681E+02  0.22849557649E+02  0.00000000000E+00 0. -1.
         22    1    1    2    0    0  0.21866765226E+02  0.21589171186E+03  0.20273089303E+03  0.29696330019E+03  0.00000000000E+00 0. -1.
</event>
<event>
 6    1  0.8017648E-006  0.2133486E+03  0.7818608E-02  0.1163637E+00
          2   -1    0    0  502    0  0.00000000000E+00  0.00000000000E+00  0.13329244657E+04  0.13329244657E+04  0.00000000000E+00 0.  1.
          1   -1    0    0  501    0 -0.00000000000E+00 -0.00000000000E+00 -0.22433569091E+03  0.22433569091E+03  0.00000000000E+00 0. -1.
          2    1    1    2  501    0  0.12920223705E+03  0.14546991565E+03  0.10298748460E+04  0.10480920345E+04  0.00000000000E+00 0.  1.
          1    1    1    2  502    0 -0.24029100691E+03 -0.21286718434E+03  0.60308798182E+02  0.32663336834E+03  0.00000000000E+00 0. -1.
         22    1    1    2    0    0  0.10121308796E+02  0.44301885925E+01  0.56517612430E+02  0.57587394258E+02  0.00000000000E+00 0.  1.
         22    1    1    2    0    0  0.10096746107E+03  0.62967080101E+02 -0.38112481819E+02  0.12494735948E+03  0.00000000000E+00 0.  1.
</event>
<event>
 6    1  0.8017648E-006  0.1419013E+03  0.7818608E-02  0.1344889E+00
          2   -1    0    0  502    0  0.00000000000E+00  0.00000000000E+00  0.49672467522E+03  0.49672467522E+03  0.00000000000E+00 0. -1.
          1   -1    0    0  501    0 -0.00000000000E+00 -0.00000000000E+00 -0.19938829446E+03  0.19938829446E+03  0.00000000000E+00 0. -1.
          2    1    1    2  501    0  0.43389679038E+02 -0.10740455126E+02  0.69431277518E+02  0.82575564916E+02  0.00000000000E+00 0. -1.
          1    1    1    2  502    0 -0.10252727925E+03  0.58385910284E+02 -0.15994068844E+03  0.19875055051E+03  0.00000000000E+00 0. -1.
         22    1    1    2    0    0  0.33464254955E+01  0.10353939901E+02 -0.62563972573E+01  0.12551698758E+02  0.00000000000E+00 0. -1.
         22    1    1    2    0    0  0.55791174714E+02 -0.57999395058E+02  0.39410218893E+03  0.40223515551E+03  0.00000000000E+00 0. -1.
</event>
<event>
 6    1  0.8017648E-006  0.1231446E+03  0.7818608E-02  0.1303339E+00
          2   -1    0    0  502    0  0.00000000000E+00  0.00000000000E+00  0.73645657960E+03  0.73645657960E+03  0.00000000000E+00 0. -1.
          1   -1    0    0  501    0 -0.00000000000E+00 -0.00000000000E+00 -0.10030461465E+03  0.10030461465E+03  0.00000000000E+00 0. -1.
          2    1    1    2  501    0  0.17890333047E+02  0.12144301351E+03  0.20173468413E+03  0.23614688719E+03  0.00000000000E+00 0. -1.
          1    1    1    2  502    0 -0.41981239973E+02 -0.10499227178E+03  0.45528290956E+03  0.46911440969E+03  0.00000000000E+00 0. -1.
         22    1    1    2    0    0  0.66136378264E+01  0.13666818378E+02  0.50154692457E+02  0.52402436063E+02  0.00000000000E+00 0.  1.
         22    1    1    2    0    0  0.17477269099E+02 -0.30117560109E+02 -0.71020321202E+02  0.79097461311E+02  0.00000000000E+00 0. -1.
</event>
<event>
 6    1  0.8017648E-006  0.7790234E+02  0.7818608E-02  0.1444369E+00
          2   -1    0    0  502    0  0.00000000000E+00  0.00000000000E+00  0.11342885908E+03  0.11342885908E+03  0.00000000000E+00 0. -1.
          1   -1    0    0  501    0 -0.00000000000E+00 -0.00000000000E+00 -0.98363645437E+02  0.98363645437E+02  0.00000000000E+00 0. -1.
          2    1    1    2  501    0  0.14033594015E+02  0.25898759372E+02  0.28011057560E+00  0.29457867538E+02  0.00000000000E+00 0. -1.
          1    1    1    2  502    0 -0.32461130769E+02 -0.40364891634E+02 -0.28097469148E+01  0.51874311226E+02  0.00000000000E+00 0. -1.
         22    1    1    2    0    0  0.27402511342E+02  0.24432711982E+02  0.68554022949E+02  0.77765732204E+02  0.00000000000E+00 0. -1.
         22    1    1    2    0    0 -0.89749745884E+01 -0.99665797193E+01 -0.50959172965E+02  0.52694593550E+02  0.00000000000E+00 0. -1.
</event>
<event>
 6    1  0.8017648E-006  0.3928551E+02  0.7818608E-02  0.1529791E+00
          2   -1    0    0  502    0  0.00000000000E+00  0.00000000000E+00  0.21508184365E+03  0.21508184365E+03  0.00000000000E+00 0. -1.
          1   -1    0    0  501    0 -0.00000000000E+00 -0.00000000000E+00 -0.66479901551E+02  0.66479901551E+02  0.00000000000E+00 0. -1.
          2    1    1    2  501    0 -0.44020086291E+02 -0.13483994858E+02  0.57156269694E+02  0.73392269891E+02  0.00000000000E+00 0. -1.
          1    1    1    2  502    0  0.59596642939E+02 -0.65831340878E+00  0.16940494125E+02  0.61961064931E+02  0.00000000000E+00 0. -1.
         22    1    1    2    0    0  0.12747011285E+02  0.18342315927E+02 -0.30254196242E+02  0.37606425522E+02  0.00000000000E+00 0.  1.
         22    1    1    2    0    0 -0.28323567933E+02 -0.42000076600E+01  0.10475937452E+03  0.10860198486E+03  0.00000000000E+00 0. -1.
</event>
<event>
 6    1  0.8017648E-006  0.6588972E+02  0.7818608E-02  0.1404183E+00
          2   -1    0    0  502    0  0.00000000000E+00  0.00000000000E+00  0.10955313754E+03  0.10955313754E+03  0.00000000000E+00 0. -1.
          1   -1    0    0  501    0 -0.00000000000E+00 -0.00000000000E+00 -0.15444467400E+03  0.15444467400E+03  0.00000000000E+00 0.  1.
          2    1    1    2  501    0  0.84188835146E+01 -0.30569337447E+02  0.30057770103E+02  0.43690176644E+02  0.00000000000E+00 0. -1.
          1    1    1    2  502    0 -0.20286942300E+02 -0.18844724402E+02 -0.82351598022E+02  0.86881927709E+02  0.00000000000E+00 0.  1.
         22    1    1    2    0    0 -0.21193616609E+02  0.25206573007E+02  0.58980447804E+02  0.67551713012E+02  0.00000000000E+00 0. -1.
         22    1    1    2    0    0  0.33061675395E+02  0.24207488842E+02 -0.51578156352E+02  0.65873994175E+02  0.00000000000E+00 0.  1.
</event>
<event>
 6    1  0.8017648E-006  0.4149327E+02  0.7818608E-02  0.1516675E+00
          2   -1    0    0  502    0  0.00000000000E+00  0.00000000000E+00  0.80868158962E+03  0.80868158962E+03  0.00000000000E+00 0.  1.
          1   -1    0    0  501    0 -0.00000000000E+00 -0.00000000000E+00 -0.10748690768E+03  0.10748690768E+03  0.00000000000E+00 0.  1.
          2    1    1    2  501    0 -0.91575885798E+02  0.18522113078E+02  0.66248535930E+03  0.66904115181E+03  0.00000000000E+00 0.  1.
          1    1    1    2  502    0  0.10573498341E+03 -0.44483324993E+02  0.30051013972E+02  0.11858210809E+03  0.00000000000E+00 0.  1.
         22    1    1    2    0    0 -0.31611665020E+01  0.12827332577E+02  0.66716808698E+02  0.68012248879E+02  0.00000000000E+00 0. -1.
         22    1    1    2    0    0 -0.10997931106E+02  0.13133879337E+02 -0.58058500026E+02  0.60532988530E+02  0.00000000000E+00 0. -1.
</event>
<event>
 6    1  0.8017648E-006  0.2086354E+03  0.7818608E-02  0.1236537E+00
          2   -1    0    0  502    0  0.00000000000E+00  0.00000000000E+00  0.54911046831E+03  0.54911046831E+03  0.00000000000E+00 0.  1.
          1   -1    0    0  501    0 -0.00000000000E+00 -0.00000000000E+00 -0.80367810948E+02  0.80367810948E+02  0.00000000000E+00 0.  1.
          2    1    1    2  501    0 -0.39210399111E+02  0.13933338056E+01  0.56147596353E+02  0.68497805467E+02  0.00000000000E+00 0.  1.
          1    1    1    2  502    0 -0.41793521564E+02  0.14457031464E+03  0.26337757080E+03  0.30333977504E+03  0.00000000000E+00 0.  1.
         22    1    1    2    0    0  0.10138087307E+03 -0.12967359148E+03  0.15987179045E+03  0.22946091418E+03  0.00000000000E+00 0.  1.
         22    1    1    2    0    0 -0.20376952392E+02 -0.16290056961E+02 -0.10654300253E+02  0.28179784571E+02  0.00000000000E+00 0.  1.
</event>
<event>
 6    1  0.8017648E-006  0.5682904E+02  0.7818608E-02  0.1472752E+00
          2   -1    0    0  502    0  0.00000000000E+00  0.00000000000E+00  0.18935284700E+03  0.18935284700E+03  0.00000000000E+00 0. -1.
          1   -1    0    0  501    0 -0.00000000000E+00 -0.00000000000E+00 -0.12185897123E+03  0.12185897123E+03  0.00000000000E+00 0.  1.
          2    1    1    2  501    0 -0.41676760204E+02  0.55368891692E+01  0.12232759569E+03  0.12935087997E+03  0.00000000000E+00 0. -1.
          1    1    1    2  502    0  0.32219137320E+02 -0.77541608092E-01 -0.47632180780E+02  0.57505682052E+02  0.00000000000E+00 0.  1.
         22    1    1    2    0    0 -0.78234312370E+01 -0.21474180113E+02  0.54074328108E+02  0.58705872348E+02  0.00000000000E+00 0. -1.
         22    1    1    2    0    0  0.17281054121E+02  0.16014832552E+02 -0.61275867249E+02  0.65649383853E+02  0.00000000000E+00 0.  1.
</event>
<event>
 6    1  0.8017648E-006  0.9204136E+02  0.7818608E-02  0.1430447E+00
          2   -1    0    0  502    0  0.00000000000E+00  0.00000000000E+00  0.25844079740E+03  0.25844079740E+03  0.00000000000E+00 0. -1.
          1   -1    0    0  501    0 -0.00000000000E+00 -0.00000000000E+00 -0.58601512596E+02  0.58601512596E+02  0.00000000000E+00 0. -1.
          2    1    1    2  501    0 -0.16338472806E+02 -0.19732484243E+02  0.63839541576E+02  0.68788107233E+02  0.00000000000E+00 0. -1.
          1    1    1    2  502    0 -0.35050978542E+02  0.58515239378E+02  0.41938248058E+02  0.80071349348E+02  0.00000000000E+00 0. -1.
         22    1    1    2    0    0 -0.60092745540E+01 -0.80190395235E+01 -0.28052755242E+02  0.29788814213E+02  0.00000000000E+00 0.  1.
         22    1    1    2    0    0  0.57398725902E+02 -0.30763715611E+02  0.12211425041E+03  0.13839403920E+03  0.00000000000E+00 0. -1.
</event>
<event>
 6    1  0.8017648E-006  0.6399385E+02  0.7818608E-02  0.1428060E+00
          2   -1    0    0  502    0  0.00000000000E+00  0.00000000000E+00  0.39395889672E+02  0.39395889672E+02  0.00000000000E+00 0. -1.
          1   -1    0    0  501    0 -0.00000000000E+00 -0.00000000000E+00 -0.25505146003E+03  0.25505146003E+03  0.00000000000E+00 0. -1.
          2    1    1    2  501    0 -0.10354858311E+02  0.31895896097E+02 -0.20753871436E+02  0.39437221733E+02  0.00000000000E+00 0. -1.
          1    1    1    2  502    0  0.11966830750E+02 -0.36545189646E+02 -0.59136342900E+02  0.70539797108E+02  0.00000000000E+00 0. -1.
         22    1    1    2    0    0 -0.66891944581E+01  0.35144392151E+02  0.86309357952E+01  0.36801721086E+02  0.00000000000E+00 0. -1.
         22    1    1    2    0    0  0.50772220185E+01 -0.30495098602E+02 -0.14439629182E+03  0.14766860977E+03  0.00000000000E+00 0. -1.
</event>
<event>
 6    1  0.8017648E-006  0.4962659E+02  0.7818608E-02  0.1464492E+00
          2   -1    0    0  502    0  0.00000000000E+00  0.00000000000E+00  0.18761532296E+03  0.18761532296E+03  0.00000000000E+00 0.  1.
          1   -1    0    0  501    0 -0.00000000000E+00 -0.00000000000E+00 -0.79118713711E+02  0.79118713711E+02  0.00000000000E+00 0.  1.
          2    1    1    2  501    0  0.25102731052E+02 -0.13303312239E+02  0.78430354961E+02  0.83417299177E+02  0.00000000000E+00 0.  1.
          1    1    1    2  502    0 -0.28535637805E+02  0.45153672633E+02  0.45949054817E+01  0.53612031612E+02  0.00000000000E+00 0.  1.
         22    1    1    2    0    0  0.22241375746E+02  0.19026089796E+01  0.68398315423E+02  0.71948789210E+02  0.00000000000E+00 0.  1.
         22    1    1    2    0    0 -0.18808468994E+02 -0.33752969374E+02 -0.42926966618E+02  0.57755916671E+02  0.00000000000E+00 0.  1.
</event>
<event>
 6    1  0.8017648E-006  0.1649538E+03  0.7818608E-02  0.1185739E+00
          2   -1    0    0  502    0  0.00000000000E+00  0.00000000000E+00  0.13905293224E+03  0.13905293224E+03  0.00000000000E+00 0.  1.
          1   -1    0    0  501    0 -0.00000000000E+00 -0.00000000000E+00 -0.53663342507E+03  0.53663342507E+03  0.00000000000E+00 0. -1.
          2    1    1    2  501    0  0.13170343843E+03  0.38975762415E+02  0.67300241401E+02  0.15295171867E+03  0.00000000000E+00 0.  1.
          1    1    1    2  502    0 -0.10132722773E+03 -0.45374992691E+02 -0.24584024470E+03  0.26974714633E+03  0.00000000000E+00 0. -1.
         22    1    1    2    0    0  0.11600687382E+02  0.14502537074E+02  0.92365963013E+01  0.20741606508E+02  0.00000000000E+00 0. -1.
         22    1    1    2    0    0 -0.41976898089E+02 -0.81033067978E+01 -0.22827708583E+03  0.23224588580E+03  0.00000000000E+00 0.  1.
</event>
<event>
 6    1  0.8017648E-006  0.1514915E+03  0.7818608E-02  0.1247713E+00
          2   -1    0    0  502    0  0.00000000000E+00  0.00000000000E+00  0.22803252017E+03  0.22803252017E+03  0.00000000000E+00 0. -1.
          1   -1    0    0  501    0 -0.00000000000E+00 -0.00000000000E+00 -0.55514926787E+03  0.55514926787E+03  0.00000000000E+00 0. -1.
          2    1    1    2  501    0  0.14298999488E+03  0.45962376786E+02 -0.32415488070E+03  0.35726050075E+03  0.00000000000E+00 0. -1.
          1    1    1    2  502    0 -0.10024502920E+03 -0.18396088293E+03  0.74565794383E+02  0.22237520100E+03  0.00000000000E+00 0. -1.
         22    1    1    2    0    0  0.40487239042E+02  0.28298754966E+02 -0.10956590107E+02  0.50597262028E+02  0.00000000000E+00 0.  1.
         22    1    1    2    0    0 -0.83232204718E+02  0.10969975118E+03 -0.66571071286E+02  0.15294882426E+03  0.00000000000E+00 0. -1.
</event>
<event>
 6    1  0.8017648E-006  0.1094678E+03  0.7818608E-02  0.1393861E+00
          2   -1    0    0  502    0  0.00000000000E+00  0.00000000000E+00  0.25269574889E+03  0.25269574889E+03  0.00000000000E+00 0.  1.
          1   -1    0    0  501    0 -0.00000000000E+00 -0.00000000000E+00 -0.60878209934E+02  0.60878209934E+02  0.00000000000E+00 0. -1.
          2    1    1    2  501    0 -0.75397590737E+00  0.28715687337E+02  0.65126877827E+01  0.29454613918E+02  0.00000000000E+00 0.  1.
          1    1    1    2  502    0 -0.48277492460E+02 -0.47406393103E+02  0.17936430404E+02  0.69998556563E+02  0.00000000000E+00 0. -1.
         22    1    1    2    0    0  0.88276848770E+01 -0.57312969776E+01 -0.19101388183E+02  0.21809145234E+02  0.00000000000E+00 0.  1.
         22    1    1    2    0    0  0.40203783490E+02  0.24422002743E+02  0.18646980895E+03  0.19231164311E+03  0.00000000000E+00 0.  1.
</event>
<event>
 6    1  0.8017648E-006  0.1002016E+03  0.7818608E-02  0.1296235E+00
          2   -1    0    0  502    0  0.00000000000E+00  0.00000000000E+00  0.69715478146E+03  0.69715478146E+03  0.00000000000E+00 0.  1.
          1   -1    0    0  501    0 -0.00000000000E+00 -0.00000000000E+00 -0.49426849687E+02  0.49426849687E+02  0.00000000000E+00 0. -1.
          2    1    1    2  501    0  0.97160558839E+01 -0.71249318827E+02  0.25658091743E+03  0.26646694798E+03  0.00000000000E+00 0.  1.
          1    1    1    2  502    0  0.71342651820E+02  0.90721501685E+02  0.24958017388E+03  0.27497350423E+03  0.00000000000E+00 0. -1.
         22    1    1    2    0    0 -0.76805369593E+01 -0.26154667320E+02  0.12717929939E+03  0.13006779565E+03  0.00000000000E+00 0.  1.
         22    1    1    2    0    0 -0.73378170745E+02  0.66824844622E+01  0.14387541071E+02  0.75073383290E+02  0.00000000000E+00 0. -1.
</event>
<event>
 6    1  0.8017648E-006  0.2078792E+03  0.7818608E-02  0.1281168E+00
          2   -1    0    0  502    0  0.00000000000E+00  0.00000000000E+00  0.61949648978E+03  0.61949648978E+03  0.00000000000E+00 0. -1.
          1   -1    0    0  501    0 -0.00000000000E+00 -0.00000000000E+00 -0.10382665950E+03  0.10382665950E+03  0.00000000000E+00 0. -1.
          2    1    1    2  501    0 -0.90971214029E+00  0.17150807683E+03  0.26387353806E+03  0.31471430232E+03  0.00000000000E+00 0. -1.
          1    1    1    2  502    0  0.28527116695E+01 -0.19641417871E+03  0.18050093029E+03  0.26677191269E+03  0.00000000000E+00 0. -1.
         22    1    1    2    0    0  0.63592943849E+01 -0.89126250346E+01 -0.31476151803E+02  0.33326020500E+02  0.00000000000E+00 0. -1.
         22    1    1    2    0    0 -0.83022939141E+01  0.33818726916E+02  0.10277151373E+03  0.10851091378E+03  0.00000000000E+00 0. -1.
</event>
<event>
 6    1  0.8017648E-006  0.7368816E+02  0.7818608E-02  0.1451903E+00
          2   -1    0    0  502    0  0.00000000000E+00  0.00000000000E+00  0.10411004060E+03  0.10411004060E+03  0.00000000000E+00 0.  1.
          1   -1    0    0  501    0 -0.00000000000E+00 -0.00000000000E+00 -0.29665394246E+03  0.29665394246E+03  0.00000000000E+00 0.  1.
          2    1    1    2  501    0  0.42578971399E+02  0.55117714155E+02  0.22841682648E+02  0.73298524441E+02  0.00000000000E+00 0.  1.
          1    1    1    2  502    0  0.55059172341E+01  0.19588193426E+02 -0.16023051140E+03  0.16151727223E+03  0.00000000000E+00 0.  1.
         22    1    1    2    0    0 -0.13761172181E+02 -0.34129608510E+01 -0.81368001524E+02  0.82594006039E+02  0.00000000000E+00 0.  1.
         22    1    1    2    0    0 -0.34323716452E+02 -0.71292946730E+02  0.26212928411E+02  0.83354180341E+02  0.00000000000E+00 0.  1.
</event>
<event>
 6    1  0.8017648E-006  0.1139555E+03  0.7818608E-02  0.1367553E+00
          2   -1    0    0  502    0  0.00000000000E+00  0.00000000000E+00  0.90725218714E+02  0.90725218714E+02  0.00000000000E+00 0. -1.
          1   -1    0    0  501    0 -0.00000000000E+00 -0.00000000000E+00 -0.14564558071E+03  0.14564558071E+03  0.00000000000E+00 0. -1.
          2    1    1    2  501    0 -0.34139075241E+02  0.80561807727E+01 -0.27000545002E+02  0.44265200071E+02  0.00000000000E+00 0. -1.
          1    1    1    2  502    0  0.36973860983E+02  0.29653953014E+02 -0.44557086220E+02  0.65051958139E+02  0.00000000000E+00 0. -1.
         22    1    1    2    0    0  0.13227972575E+02  0.54939763908E+01 -0.46627674018E+02  0.48778099793E+02  0.00000000000E+00 0. -1.
         22    1    1    2    0    0 -0.16062758317E+02 -0.43204110177E+02  0.63264943245E+02  0.78275541421E+02  0.00000000000E+00 0. -1.
</event>
<event>
 6    1  0.8747499E-006  0.1350233E+03  0.7818608E-02  0.1319789E+00
          2   -1    0    0  502    0  0.00000000000E+00  0.00000000000E+00  0.29667245300E+03  0.29667245300E+03  0.00000000000E+00 0. -1.
          1   -1    0    0  501    0 -0.00000000000E+00 -0.00000000000E+00 -0.11801740329E+04  0.11801740329E+04  0.00000000000E+00 0.  1.
          2    1    1    2  501    0 -0.92403864216E+01 -0.11179227814E+03  0.23623627084E+03  0.26151572391E+03  0.00000000000E+00 0. -1.
          1    1    1    2  502    0  0.16731897800E+02  0.14785103187E+03 -0.10692338416E+04  0.10795373509E+04  0.00000000000E+00 0.  1.
         22    1    1    2    0    0  0.63607241927E+01 -0.18551726376E+02 -0.89085456072E+02  0.91218659535E+02  0.00000000000E+00 0. -1.
         22    1    1    2    0    0 -0.13852235571E+02 -0.17507027362E+02  0.38581446868E+02  0.44574751596E+02  0.00000000000E+00 0. -1.
</event>
<event>
 6    1  0.8017648E-006  0.7614479E+02  0.7818608E-02  0.1370013E+00
          2   -1    0    0  502    0  0.00000000000E+00  0.00000000000E+00  0.21153417299E+03  0.21153417299E+03  0.00000000000E+00 0. -1.
          1   -1    0    0  501    0 -0.00000000000E+00 -0.00000000000E+00 -0.18907806206E+03  0.18907806206E+03  0.00000000000E+00 0.  1.
          2    1    1    2  501    0  0.35891924013E+02 -0.48940827740E+02  0.14400260482E+03  0.15626959085E+03  0.00000000000E+00 0. -1.
          1    1    1    2  502    0 -0.72570901370E+02  0.16706057723E+02 -0.56018971699E+02  0.93186658275E+02  0.00000000000E+00 0.  1.
         22    1    1    2    0    0  0.14618823760E+02 -0.82341948858E+01  0.35965980661E+02  0.39687072686E+02  0.00000000000E+00 0.  1.
         22    1    1    2    0    0  0.22060153597E+02  0.40468964903E+02 -0.10149350285E+03  0.11146891324E+03  0.00000000000E+00 0.  1.
</event>
<event>
 6    1  0.8017648E-006  0.1641367E+03  0.7818608E-02  0.1277665E+00
          2   -1    0    0  502    0  0.00000000000E+00  0.00000000000E+00  0.48863102526E+03  0.48863102526E+03  0.00000000000E+00 0. -1.
          1   -1    0    0  501    0 -0.00000000000E+00 -0.00000000000E+00 -0.76145911163E+02  0.76145911163E+02  0.00000000000E+00 0. -1.
          2    1    1    2  501    0  0.26889582874E+02  0.24106992308E+02  0.54338010945E+02  0.65244280813E+02  0.00000000000E+00 0. -1.
          1    1    1    2  502    0 -0.12000168016E+03  0.85923611033E+02  0.95430155683E+02  0.17575603770E+03  0.00000000000E+00 0. -1.
         22    1    1    2    0    0  0.76269828498E+02 -0.93246477036E+02  0.27259655144E+03  0.29802830751E+03  0.00000000000E+00 0. -1.
         22    1    1    2    0    0  0.16842268789E+02 -0.16784126306E+02 -0.98796039738E+01  0.25748310401E+02  0.00000000000E+00 0. -1.
</event>
<event>
 6    1  0.8017648E-006  0.2222839E+03  0.7818608E-02  0.1254525E+00
          2   -1    0    0  502    0  0.00000000000E+00  0.00000000000E+00  0.11732444924E+04  0.11732444924E+04  0.00000000000E+00 0.  1.
          1   -1    0    0  501    0 -0.00000000000E+00 -0.00000000000E+00 -0.59893383728E+02  0.59893383728E+02  0.00000000000E+00 0. -1.
          2    1    1    2  501    0  0.40638865599E+02  0.80673954297E+01  0.97877909722E+03  0.97965561368E+03  0.00000000000E+00 0.  1.
          1    1    1    2  502    0  0.22809459575E+02  0.29740012369E+02 -0.19347149759E+02  0.42178809675E+02  0.00000000000E+00 0. -1.
         22    1    1    2    0    0  0.51388697464E+01  0.14112938018E+02 -0.15321469023E+02  0.21455312041E+02  0.00000000000E+00 0. -1.
         22    1    1    2    0    0 -0.68587194921E+02 -0.51920345816E+02  0.16924063025E+03  0.18984814075E+03  0.00000000000E+00 0.  1.
</event>
<event>
 6    1  0.8017648E-006  0.2180704E+03  0.7818608E-02  0.1231782E+00
          2   -1    0    0  502    0  0.00000000000E+00  0.00000000000E+00  0.72496578166E+03  0.72496578166E+03  0.00000000000E+00 0.  1.
          1   -1    0    0  501    0 -0.00000000000E+00 -0.00000000000E+00 -0.15821368280E+03  0.15821368280E+03  0.00000000000E+00 0.  1.
          2    1    1    2  501    0  0.71523081526E+02 -0.18738691000E+03  0.51583146010E+03  0.55345415390E+03  0.00000000000E+00 0.  1.
          1    1    1    2  502    0 -0.63537899916E+02  0.18583557940E+03  0.28412662001E+01  0.19641792202E+03  0.00000000000E+00 0.  1.
         22    1    1    2    0    0  0.14107663015E+02 -0.10542327408E+02  0.85999902802E+02  0.87784680354E+02  0.00000000000E+00 0. -1.
         22    1    1    2    0    0 -0.22092844626E+02  0.12093658015E+02 -0.37920530243E+02  0.45522708199E+02  0.00000000000E+00 0. -1.
</event>
<event>
 6    1  0.8017648E-006  0.8994334E+02  0.7818608E-02  0.1422740E+00
          2   -1    0    0  502    0  0.00000000000E+00  0.00000000000E+00  0.32458905283E+03  0.32458905283E+03  0.00000000000E+00 0.  1.
          1   -1    0    0  501    0 -0.00000000000E+00 -0.00000000000E+00 -0.57436915545E+02  0.57436915545E+02  0.00000000000E+00 0.  1.
          2    1    1    2  501    0 -0.21579125968E+02  0.16457186265E+01  0.18345751760E+03  0.18472960735E+03  0.00000000000E+00 0.  1.
          1    1    1    2  502    0 -0.33725939397E+02  0.34797095055E+01 -0.14792599691E+01  0.33937229947E+02  0.00000000000E+00 0.  1.
         22    1    1    2    0    0  0.15508944408E+01 -0.11976428150E+02 -0.32031846576E+02  0.34232722647E+02  0.00000000000E+00 0.  1.
         22    1    1    2    0    0  0.53754170924E+02  0.68510000177E+01  0.11720572622E+03  0.12912640842E+03  0.00000000000E+00 0.  1.
</event>
<event>
 6    1  0.8017648E-006  0.5213000E+02  0.7818608E-02  0.1503127E+00
          2   -1    0    0  502    0  0.00000000000E+00  0.00000000000E+00  0.12037524777E+03  0.12037524777E+03  0.00000000000E+00 0.  1.
          1   -1    0    0  501    0 -0.00000000000E+00 -0.00000000000E+00 -0.14116598086E+03  0.14116598086E+03  0.00000000000E+00 0.  1.
          2    1    1    2  501    0 -0.34587854897E+02  0.15179814303E+02  0.67733344547E+02  0.77553545581E+02  0.00000000000E+00 0.  1.
          1    1    1    2  502    0  0.37040701818E+02  0.52674582518E+01 -0.33462727385E+02  0.50194759006E+02  0.00000000000E+00 0.  1.
         22    1    1    2    0    0  0.12474825361E+02 -0.14815717868E+02 -0.91757033824E+02  0.93778888988E+02  0.00000000000E+00 0. -1.
         22    1    1    2    0    0 -0.14927672282E+02 -0.56315546871E+01  0.36695683573E+02  0.40014035048E+02  0.00000000000E+00 0.  1.
</event>
<event>
 6    1  0.8017648E-006  0.6996852E+02  0.7818608E-02  0.1433904E+00
          2   -1    0    0  502    0  0.00000000000E+00  0.00000000000E+00  0.22774815325E+03  0.22774815325E+03  0.00000000000E+00 0. -1.
          1   -1    0    0  501    0 -0.00000000000E+00 -0.00000000000E+00 -0.22675075379E+03  0.22675075379E+03  0.00000000000E+00 0.  1.
          2    1    1    2  501    0  0.19614586075E+02 -0.15826393630E+02  0.45065206274E+02  0.51634092795E+02  0.00000000000E+00 0. -1.
          1    1    1    2  502    0 -0.49043082549E+02  0.29055272865E+02 -0.19649690944E+03  0.20459830949E+03  0.00000000000E+00 0.  1.
         22    1    1    2    0    0  0.39535877057E+02  0.59167370264E+01  0.16729449807E+03  0.17200448377E+03  0.00000000000E+00 0. -1.
         22    1    1    2    0    0 -0.10107380583E+02 -0.19145616262E+02 -0.14865395453E+02  0.26262020986E+02  0.00000000000E+00 0. -1.
</event>
<event>
 6    1  0.8017648E-006  0.1262709E+03  0.7818608E-02  0.1316567E+00
          2   -1    0    0  502    0  0.00000000000E+00  0.00000000000E+00  0.36546768617E+03  0.36546768617E+03  0.00000000000E+00 0.  1.
          1   -1    0    0  501    0 -0.00000000000E+00 -0.00000000000E+00 -0.33900623649E+03  0.33900623649E+03  0.00000000000E+00 0.  1.
          2    1    1    2  501    0 -0.15573528194E+03 -0.91820520443E+01 -0.48065085319E+02  0.16324227562E+03  0.00000000000E+00 0.  1.
          1    1    1    2  502    0  0.23135061610E+03 -0.61940991422E+01 -0.14765306609E+03  0.27452304523E+03  0.00000000000E+00 0.  1.
         22    1    1    2    0    0 -0.83451550539E+02  0.56623354910E+00  0.23250421001E+03  0.24702771015E+03  0.00000000000E+00 0.  1.
         22    1    1    2    0    0  0.78362163813E+01  0.14809917637E+02 -0.10324608922E+02  0.19680891672E+02  0.00000000000E+00 0.  1.
</event>
<event>
 6    1  0.8017648E-006  0.6502199E+02  0.7818608E-02  0.1384084E+00
          2   -1    0    0  502    0  0.00000000000E+00  0.00000000000E+00  0.41450054041E+03  0.41450054041E+03  0.00000000000E+00 0. -1.
          1   -1    0    0  501    0 -0.00000000000E+00 -0.00000000000E+00 -0.15888775901E+03  0.15888775901E+03  0.00000000000E+00 0. -1.
          2    1    1    2  501    0  0.91189532588E+02  0.85322125790E+01  0.24112844660E+03  0.25793653728E+03  0.00000000000E+00 0. -1.
          1    1    1    2  502    0 -0.10741478933E+03 -0.46517422262E+01 -0.10106552017E+03  0.14755953050E+03  0.00000000000E+00 0. -1.
         22    1    1    2    0    0  0.15435176602E+02 -0.41931847031E+02 -0.16039717062E+01  0.44711264771E+02  0.00000000000E+00 0. -1.
         22    1    1    2    0    0  0.79008014456E+00  0.38051376678E+02  0.11715382668E+03  0.12318096687E+03  0.00000000000E+00 0.  1.
</event>
<event>
 6    1  0.8017648E-006  0.1114809E+03  0.7818608E-02  0.1349236E+00
          2   -1    0    0  502    0  0.00000000000E+00  0.00000000000E+00  0.96690560047E+03  0.96690560047E+03  0.00000000000E+00 0.  1.
          1   -1    0    0  501    0 -0.00000000000E+00 -0.00000000000E+00 -0.12446167019E+03  0.12446167019E+03  0.00000000000E+00 0.  1.
          2    1    1    2  501    0 -0.67529281881E+02 -0.10628452367E+03  0.48849689602E+03  0.50446587725E+03  0.00000000000E+00 0.  1.
          1    1    1    2  502    0  0.10501620742E+03 -0.83003316461E+01 -0.71520789822E+02  0.12732840493E+03  0.00000000000E+00 0.  1.
         22    1    1    2    0    0  0.12226697000E+02  0.16620066368E+02  0.50381132224E+00  0.20639102487E+02  0.00000000000E+00 0. -1.
         22    1    1    2    0    0 -0.49713622536E+02  0.97964788947E+02  0.42496401276E+03  0.43893388600E+03  0.00000000000E+00 0.  1.
</event>
<event>
 6    1  0.8017648E-006  0.7697292E+02  0.7818608E-02  0.1388415E+00
          2   -1    0    0  502    0  0.00000000000E+00  0.00000000000E+00  0.22909847032E+03  0.22909847032E+03  0.00000000000E+00 0.  1.
          1   -1    0    0  501    0 -0.00000000000E+00 -0.00000000000E+00 -0.69086425121E+02  0.69086425121E+02  0.00000000000E+00 0.  1.
          2    1    1    2  501    0 -0.50521989033E+01 -0.47931410862E+02  0.69175925099E+02  0.84310458867E+02  0.00000000000E+00 0.  1.
          1    1    1    2  502    0  0.24737033666E+02  0.58694872043E+02  0.30462929391E+02  0.70604524684E+02  0.00000000000E+00 0.  1.
         22    1    1    2    0    0 -0.28452581218E+02  0.16791632881E+02 -0.32291708777E+02  0.46198081871E+02  0.00000000000E+00 0.  1.
         22    1    1    2    0    0  0.87677464552E+01 -0.27555094061E+02  0.92664899487E+02  0.97071830020E+02  0.00000000000E+00 0.  1.
</event>
<event>
 6    1  0.8017648E-006  0.1257917E+03  0.7818608E-02  0.1360365E+00
          2   -1    0    0  502    0  0.00000000000E+00  0.00000000000E+00  0.34290358490E+03  0.34290358490E+03  0.00000000000E+00 0. -1.
          1   -1    0    0  501    0 -0.00000000000E+00 -0.00000000000E+00 -0.20391302037E+03  0.20391302037E+03  0.00000000000E+00 0.  1.
          2    1    1    2  501    0 -0.37553127030E+02 -0.92986900079E+02  0.21839489696E+03  0.24031881315E+03  0.00000000000E+00 0. -1.
          1    1    1    2  502    0  0.44186657046E+02  0.12652699674E+03 -0.11058465532E+03  0.17375415838E+03  0.00000000000E+00 0.  1.
         22    1    1    2    0    0  0.77674513656E+00 -0.11982351654E+02 -0.48449439610E+02  0.49915210935E+02  0.00000000000E+00 0.  1.
         22    1    1    2    0    0 -0.74102751520E+01 -0.21557745003E+02  0.79629762499E+02  0.82828422797E+02  0.00000000000E+00 0. -1.
</event>
<event>
 6    1  0.8017648E-006  0.4969948E+02  0.7818608E-02  0.1487451E+00
          2   -1    0    0  502    0  0.00000000000E+00  0.00000000000E+00  0.85090530758E+02  0.85090530758E+02  0.00000000000E+00 0.  1.
          1   -1    0    0  501    0 -0.00000000000E+00 -0.00000000000E+00 -0.12815612212E+03  0.12815612212E+03  0.00000000000E+00 0. -1.
          2    1    1    2  501    0 -0.24406546036E+02  0.44840912948E+01  0.26092466597E+02  0.36008379265E+02  0.00000000000E+00 0.  1.
          1    1    1    2  502    0  0.34163645753E+02  0.37761282484E+01 -0.31721889203E+02  0.46772770821E+02  0.00000000000E+00 0. -1.
         22    1    1    2    0    0  0.14707281946E+02 -0.23547358045E+02 -0.76799207894E+02  0.81663336610E+02  0.00000000000E+00 0. -1.
         22    1    1    2    0    0 -0.24464381663E+02  0.15287138502E+02  0.39363039138E+02  0.48802166181E+02  0.00000000000E+00 0.  1.
</event>
<event>
 6    1  0.8017648E-006  0.1926996E+03  0.7818608E-02  0.1263891E+00
          2   -1    0    0  502    0  0.00000000000E+00  0.00000000000E+00  0.53725077708E+03  0.53725077708E+03  0.00000000000E+00 0. -1.
          1   -1    0    0  501    0 -0.00000000000E+00 -0.00000000000E+00 -0.18055176142E+03  0.18055176142E+03  0.00000000000E+00 0. -1.
          2    1    1    2  501    0 -0.54467237844E+02  0.15315986876E+03  0.30463421896E+03  0.34529209773E+03  0.00000000000E+00 0. -1.
          1    1    1    2  502    0  0.43445734688E+02 -0.19537986820E+03  0.10858519767E+03  0.22770939794E+03  0.00000000000E+00 0. -1.
         22    1    1    2    0    0  0.10409868133E+02  0.16100459798E+02 -0.95759314625E+02  0.97659799804E+02  0.00000000000E+00 0. -1.
         22    1    1    2    0    0  0.61163502342E+00  0.26119539642E+02  0.39238913655E+02  0.47141243018E+02  0.00000000000E+00 0. -1.
</event>
<event>
 6    1  0.8017648E-006  0.4231625E+03  0.7818608E-02  0.1164045E+00
          2   -1    0    0  502    0  0.00000000000E+00  0.00000000000E+00  0.24297072512E+03  0.24297072512E+03  0.00000000000E+00 0.  1.
          1   -1    0    0  501    0 -0.00000000000E+00 -0.00000000000E+00 -0.81829395272E+03  0.81829395272E+03  0.00000000000E+00 0.  1.
          2    1    1    2  501    0  0.20563612761E+03 -0.11112643006E+03  0.40520088773E+01  0.23377707161E+03  0.00000000000E+00 0.  1.
          1    1    1    2  502    0 -0.36835432841E+03  0.85991802537E+02 -0.42097175686E+03  0.56594763136E+03  0.00000000000E+00 0.  1.
         22    1    1    2    0    0 -0.13509959780E+02  0.67598056440E+01 -0.53584952090E+02  0.55673701836E+02  0.00000000000E+00 0.  1.
         22    1    1    2    0    0  0.17622816058E+03  0.18374821881E+02 -0.10481852753E+03  0.20586627304E+03  0.00000000000E+00 0. -1.
</event>
<event>
 6    1  0.8017648E-006  0.2341843E+03  0.7818608E-02  0.1170879E+00
          2   -1    0    0  502    0  0.00000000000E+00  0.00000000000E+00  0.11383922022E+03  0.11383922022E+03  0.00000000000E+00 0.  1.
          1   -1    0    0  501    0 -0.00000000000E+00 -0.00000000000E+00 -0.90503485573E+03  0.90503485573E+03  0.00000000000E+00 0.  1.
          2    1    1    2  501    0  0.26566477349E+02  0.18323154870E+03 -0.23311048499E+03  0.29769124335E+03  0.00000000000E+00 0.  1.
          1    1    1    2  502    0 -0.13242713470E+03 -0.18231943568E+03 -0.12429984006E+03  0.25734757211E+03  0.00000000000E+00 0.  1.
         22    1    1    2    0    0  0.39289288056E+02  0.36119231367E+02 -0.51961786215E+02  0.74486738800E+02  0.00000000000E+00 0.  1.
         22    1    1    2    0    0  0.66571369294E+02 -0.37031344382E+02 -0.38182352424E+03  0.38934852169E+03  0.00000000000E+00 0.  1.
</event>
<event>
 6    1  0.8017648E-006  0.9708288E+02  0.7818608E-02  0.1411420E+00
          2   -1    0    0  502    0  0.00000000000E+00  0.00000000000E+00  0.16335895086E+03  0.16335895086E+03  0.00000000000E+00 0.  1.
          1   -1    0    0  501    0 -0.00000000000E+00 -0.00000000000E+00 -0.11003616534E+03  0.11003616534E+03  0.00000000000E+00 0.  1.
          2    1    1    2  501    0 -0.45861740232E+02  0.51160198558E+01  0.34287479519E+02  0.57490035033E+02  0.00000000000E+00 0.  1.
          1    1    1    2  502    0  0.69046715115E+02 -0.39670976827E+02 -0.57022306741E+01  0.79835773343E+02  0.00000000000E+00 0.  1.
         22    1    1    2    0    0 -0.33354518636E+02  0.39790523162E+02  0.71255633913E+02  0.88165611274E+02  0.00000000000E+00 0.  1.
         22    1    1    2    0    0  0.10169543753E+02 -0.52355661911E+01 -0.46518097234E+02  0.47903696556E+02  0.00000000000E+00 0.  1.
</event>
<event>
 6    1  0.8017648E-006  0.4091400E+02  0.7818608E-02  0.1596994E+00
          2   -1    0    0  502    0  0.00000000000E+00  0.00000000000E+00  0.31526413568E+03  0.31526413568E+03  0.00000000000E+00 0. -1.
          1   -1    0    0  501    0 -0.00000000000E+00 -0.00000000000E+00 -0.65347709745E+02  0.65347709745E+02  0.00000000000E+00 0. -1.
          2    1    1    2  501    0  0.24142216642E+02  0.28871223468E+02  0.15052199928E+03  0.15515562006E+03  0.00000000000E+00 0. -1.
          1    1    1    2  502    0  0.20953329980E+02 -0.82414283780E+01 -0.30684769166E+02  0.38059404064E+02  0.00000000000E+00 0. -1.
         22    1    1    2    0    0 -0.88420084707E+01  0.80894079026E+01 -0.23837993000E+02  0.26680883498E+02  0.00000000000E+00 0. -1.
         22    1    1    2    0    0 -0.36253538151E+02 -0.28719202993E+02  0.15391718882E+03  0.16071593780E+03  0.00000000000E+00 0. -1.
</event>
<event>
 6    1  0.8017648E-006  0.3369744E+02  0.7818608E-02  0.1635791E+00
          2   -1    0    0  502    0  0.00000000000E+00  0.00000000000E+00  0.65127426462E+02  0.65127426462E+02  0.00000000000E+00 0.  1.
          1   -1    0    0  501    0 -0.00000000000E+00 -0.00000000000E+00 -0.33428439173E+03  0.33428439173E+03  0.00000000000E+00 0.  1.
          2    1    1    2  501    0  0.29374313928E+02  0.91764208411E+01  0.30268638853E+02  0.43165350875E+02  0.00000000000E+00 0.  1.
          1    1    1    2  502    0 -0.36895855055E+02 -0.30843586257E+02 -0.17578317493E+03  0.18224257330E+03  0.00000000000E+00 0.  1.
         22    1    1    2    0    0  0.74593512329E+01 -0.10282733176E+02  0.21725153187E+02  0.25166620818E+02  0.00000000000E+00 0.  1.
         22    1    1    2    0    0  0.62189894416E-01  0.31949898592E+02 -0.14536758237E+03  0.14883727320E+03  0.00000000000E+00 0.  1.
</event>
<event>
 6    1  0.8017648E-006  0.1687994E+03  0.7818608E-02  0.1266333E+00
          2   -1    0    0  502    0  0.00000000000E+00  0.00000000000E+00  0.67396095415E+03  0.67396095415E+03  0.00000000000E+00 0. -1.
          1   -1    0    0  501    0 -0.00000000000E+00 -0.00000000000E+00 -0.10935953968E+03  0.10935953968E+03  0.00000000000E+00 0. -1.
          2    1    1    2  501    0  0.45439278124E+02 -0.34415908866E+02  0.68528135388E+01  0.57412053028E+02  0.00000000000E+00 0. -1.
          1    1    1    2  502    0 -0.15915404003E+03  0.24410531417E+02  0.53149443541E+03  0.55534873492E+03  0.00000000000E+00 0. -1.
         22    1    1    2    0    0  0.12066355401E+03 -0.16290324839E+02 -0.13379612219E+02  0.12249115059E+03  0.00000000000E+00 0. -1.
         22    1    1    2    0    0 -0.69487920973E+01  0.26295702288E+02  0.39633777737E+02  0.48068555295E+02  0.00000000000E+00 0.  1.
</event>
<event>
 6    1  0.8017648E-006  0.1803401E+03  0.7818608E-02  0.1173643E+00
          2   -1    0    0  502    0  0.00000000000E+00  0.00000000000E+00  0.28733315187E+03  0.28733315187E+03  0.00000000000E+00 0. -1.
          1   -1    0    0  501    0 -0.00000000000E+00 -0.00000000000E+00 -0.35001897851E+03  0.35001897851E+03  0.00000000000E+00 0. -1.
          2    1    1    2  501    0 -0.17430545156E+03  0.90049498316E+02  0.12024493682E+03  0.23010899031E+03  0.00000000000E+00 0. -1.
          1    1    1    2  502    0  0.11360856256E+03  0.84776288879E+02 -0.83084458682E+02  0.16430749197E+03  0.00000000000E+00 0. -1.
         22    1    1    2    0    0  0.70386690449E+02 -0.18025473748E+03 -0.11427057940E+03  0.22473055398E+03  0.00000000000E+00 0. -1.
         22    1    1    2    0    0 -0.96898014496E+01  0.54289502899E+01  0.14424274622E+02  0.18205094116E+02  0.00000000000E+00 0. -1.
</event>
<event>
 6    1  0.8017648E-006  0.1072659E+03  0.7818608E-02  0.1378102E+00
          2   -1    0    0  502    0  0.00000000000E+00  0.00000000000E+00  0.38021903712E+03  0.38021903712E+03  0.00000000000E+00 0.  1.
          1   -1    0    0  501    0 -0.00000000000E+00 -0.00000000000E+00 -0.16663401078E+03  0.16663401078E+03  0.00000000000E+00 0.  1.
          2    1    1    2  501    0 -0.68988745047E+01 -0.95875080035E+02  0.18199754130E+03  0.20582208453E+03  0.00000000000E+00 0.  1.
          1    1    1    2  502    0 -0.50036079336E+02  0.14061474397E+03 -0.68635272320E+02  0.16427694928E+03  0.00000000000E+00 0.  1.
         22    1    1    2    0    0  0.67409735137E+02 -0.48170151671E+02  0.12481158915E+03  0.14980777246E+03  0.00000000000E+00 0. -1.
         22    1    1    2    0    0 -0.10474781296E+02  0.34304877358E+01 -0.24588831791E+02  0.26946241633E+02  0.00000000000E+00 0.  1.
</event>
<event>
 6    1  0.8017648E-006  0.9183822E+02  0.7818608E-02  0.1314136E+00
          2   -1    0    0  502    0  0.00000000000E+00  0.00000000000E+00  0.33762445038E+03  0.33762445038E+03  0.00000000000E+00 0. -1.
          1   -1    0    0  501    0 -0.00000000000E+00 -0.00000000000E+00 -0.16684310647E+03  0.16684310647E+03  0.00000000000E+00 0. -1.
          2    1    1    2  501    0  0.55100005466E+02 -0.39066687124E+02 -0.21558304373E+02  0.70901178640E+02  0.00000000000E+00 0. -1.
          1    1    1    2  502    0 -0.34800769607E+02  0.79877614118E+02  0.26621361104E+03  0.28010928851E+03  0.00000000000E+00 0. -1.
         22    1    1    2    0    0  0.45117019613E+02 -0.18914409905E+02  0.44052114214E+01  0.49119306270E+02  0.00000000000E+00 0.  1.
         22    1    1    2    0    0 -0.65416255472E+02 -0.21896517090E+02 -0.78279174188E+02  0.10433778344E+03  0.00000000000E+00 0. -1.
</event>
<event>
 6    1  0.8017648E-006  0.3151831E+02  0.7818608E-02  0.1588468E+00
          2   -1    0    0  502    0  0.00000000000E+00  0.00000000000E+00  0.41374963466E+02  0.41374963466E+02  0.00000000000E+00 0. -1.
          1   -1    0    0  501    0 -0.00000000000E+00 -0.00000000000E+00 -0.10474963816E+04  0.10474963816E+04  0.00000000000E+00 0. -1.
          2    1    1    2  501    0 -0.15833018458E+02 -0.15836698066E+02  0.20588314906E+02  0.30419799306E+02  0.00000000000E+00 0. -1.
          1    1    1    2  502    0 -0.23348850174E+02  0.17385644966E+02 -0.78382841180E+03  0.78436879629E+03  0.00000000000E+00 0. -1.
         22    1    1    2    0    0 -0.10052749873E+02 -0.25734268972E+01  0.11202833386E+02  0.15270356311E+02  0.00000000000E+00 0. -1.
         22    1    1    2    0    0  0.49234618506E+02  0.10244799966E+01 -0.25408415459E+03  0.25881239312E+03  0.00000000000E+00 0.  1.
</event>
<event>
 6    1  0.8017648E-006  0.8777731E+02  0.7818608E-02  0.1335533E+00
          2   -1    0    0  502    0  0.00000000000E+00  0.00000000000E+00  0.17508124160E+03  0.17508124160E+03  0.00000000000E+00 0.  1.
          1   -1    0    0  501    0 -0.00000000000E+00 -0.00000000000E+00 -0.45984800055E+03  0.45984800055E+03  0.00000000000E+00 0.  1.
          2    1    1    2  501    0 -0.16913108705E+03 -0.32888582003E+02 -0.19394843203E+03  0.25942817449E+03  0.00000000000E+00 0.  1.
          1    1    1    2  502    0  0.18839341354E+03  0.40277829638E+02  0.35731024311E+02  0.19593643848E+03  0.00000000000E+00 0.  1.
         22    1    1    2    0    0  0.27538631672E+02  0.10508939441E+02 -0.12605525658E+03  0.12945555899E+03  0.00000000000E+00 0.  1.
         22    1    1    2    0    0 -0.46800958161E+02 -0.17898187076E+02 -0.49409465360E+00  0.50109070186E+02  0.00000000000E+00 0.  1.
</event>
<event>
 6    1  0.8017648E-006  0.5275374E+02  0.7818608E-02  0.1493722E+00
          2   -1    0    0  502    0  0.00000000000E+00  0.00000000000E+00  0.15304743257E+03  0.15304743257E+03  0.00000000000E+00 0.  1.
          1   -1    0    0  501    0 -0.00000000000E+00 -0.00000000000E+00 -0.11012441848E+04  0.11012441848E+04  0.00000000000E+00 0.  1.
          2    1    1    2  501    0 -0.12102896844E+02 -0.36768530618E+02  0.96107198507E+02  0.10360983815E+03  0.00000000000E+00 0.  1.
          1    1    1    2  502    0 -0.25115435873E+01  0.45737574580E+02 -0.10240473254E+04  0.10250712943E+04  0.00000000000E+00 0.  1.
         22    1    1    2    0    0  0.21110141108E+02  0.26341269762E+01 -0.70498615395E+02  0.73638518827E+02  0.00000000000E+00 0.  1.
         22    1    1    2    0    0 -0.64957006764E+01 -0.11603170939E+02  0.50241990057E+02  0.51971966174E+02  0.00000000000E+00 0.  1.
</event>
<event>
 6    1  0.8017648E-006  0.3466345E+03  0.7818608E-02  0.1188745E+00
          2   -1    0    0  502    0  0.00000000000E+00  0.00000000000E+00  0.70194089350E+03  0.70194089350E+03  0.00000000000E+00 0. -1.
          1   -1    0    0  501    0 -0.00000000000E+00 -0.00000000000E+00 -0.37413398368E+03  0.37413398368E+03  0.00000000000E+00 0. -1.
          2    1    1    2  501    0  0.57575877730E+02 -0.31909454332E+03  0.47808797568E+03  0.57767155181E+03  0.00000000000E+00 0. -1.
          1    1    1    2  502    0 -0.47111486989E+02  0.34275091907E+03 -0.14472962192E+03  0.37502579670E+03  0.00000000000E+00 0. -1.
         22    1    1    2    0    0 -0.14164441138E+02 -0.68134953700E+01 -0.62203714122E+02  0.64158843213E+02  0.00000000000E+00 0.  1.
         22    1    1    2    0    0  0.37000503968E+01 -0.16842880372E+02  0.56652270176E+02  0.59218685466E+02  0.00000000000E+00 0.  1.
</event>
<event>
 6    1  0.8017648E-006  0.8641044E+02  0.7818608E-02  0.1371958E+00
          2   -1    0    0  502    0  0.00000000000E+00  0.00000000000E+00  0.29727729902E+02  0.29727729902E+02  0.00000000000E+00 0.  1.
          1   -1    0    0  501    0 -0.00000000000E+00 -0.00000000000E+00 -0.65890771982E+03  0.65890771982E+03  0.00000000000E+00 0. -1.
          2    1    1    2  501    0 -0.24791555074E+02  0.13560181326E+01 -0.56908440994E+02  0.62088893085E+02  0.00000000000E+00 0.  1.
          1    1    1    2  502    0  0.26008671417E+02 -0.53970236905E+01 -0.45193529432E+03  0.45271524063E+03  0.00000000000E+00 0. -1.
         22    1    1    2    0    0 -0.29532856755E+02  0.77800303684E+01 -0.13727057062E+03  0.14062691087E+03  0.00000000000E+00 0.  1.
         22    1    1    2    0    0  0.28315740411E+02 -0.37390248105E+01  0.16934316015E+02  0.33204405136E+02  0.00000000000E+00 0.  1.
</event>
<event>
 6    1  0.8017648E-006  0.6059807E+02  0.7818608E-02  0.1434274E+00
          2   -1    0    0  502    0  0.00000000000E+00  0.00000000000E+00  0.42489822711E+02  0.42489822711E+02  0.00000000000E+00 0.  1.
          1   -1    0    0  501    0 -0.00000000000E+00 -0.00000000000E+00 -0.19637866937E+03  0.19637866937E+03  0.00000000000E+00 0.  1.
          2    1    1    2  501    0  0.55358109246E+01  0.20101253500E+02 -0.15376870512E+02  0.25906635088E+02  0.00000000000E+00 0.  1.
          1    1    1    2  502    0 -0.72843735838E+01 -0.37946828038E+02 -0.41981889983E+02  0.57057014846E+02  0.00000000000E+00 0.  1.
         22    1    1    2    0    0 -0.30016083827E+02 -0.14048067915E+02 -0.10499620943E+03  0.11010230467E+03  0.00000000000E+00 0. -1.
         22    1    1    2    0    0  0.31764646486E+02  0.31893642452E+02  0.84661232683E+01  0.45802537467E+02  0.00000000000E+00 0.  1.
</event>
<event>
 6    1  0.8017648E-006  0.1004269E+03  0.7818608E-02  0.1363981E+00
          2   -1    0    0  502    0  0.00000000000E+00  0.00000000000E+00  0.54052934314E+03  0.54052934314E+03  0.00000000000E+00 0.  1.
          1   -1    0    0  501    0 -0.00000000000E+00 -0.00000000000E+00 -0.77390996559E+03  0.77390996559E+03  0.00000000000E+00 0.  1.
          2    1    1    2  501    0 -0.20688438401E+02 -0.14596514697E+03  0.44126646576E+03  0.46524179672E+03  0.00000000000E+00 0.  1.
          1    1    1    2  502    0  0.64159426702E+02  0.19071553946E+03 -0.67623556206E+03  0.70553765627E+03  0.00000000000E+00 0.  1.
         22    1    1    2    0    0 -0.15910346060E+01 -0.11715333102E+02 -0.60592270687E+02  0.61734947055E+02  0.00000000000E+00 0.  1.
         22    1    1    2    0    0 -0.41879953695E+02 -0.33035059386E+02  0.62180744538E+02  0.81924908675E+02  0.00000000000E+00 0. -1.
</event>
<event>
 6    1  0.8017648E-006  0.1479432E+03  0.7818608E-02  0.1235178E+00
          2   -1    0    0  502    0  0.00000000000E+00  0.00000000000E+00  0.54412227191E+03  0.54412227191E+03  0.00000000000E+00 0.  1.
          1   -1    0    0  501    0 -0.00000000000E+00 -0.00000000000E+00 -0.13732888394E+03  0.13732888394E+03  0.00000000000E+00 0. -1.
          2    1    1    2  501    0  0.81326939867E+02 -0.88551129762E+02  0.29905278266E+03  0.32231652230E+03  0.00000000000E+00 0.  1.
          1    1    1    2  502    0 -0.16179984070E+03  0.72510938043E+02  0.29725398066E+00  0.17730514078E+03  0.00000000000E+00 0. -1.
         22    1    1    2    0    0  0.12610691163E+02 -0.16427214622E+02  0.10451121408E+03  0.10654330941E+03  0.00000000000E+00 0.  1.
         22    1    1    2    0    0  0.67862209670E+02  0.32467406341E+02  0.29321372554E+01  0.75286183358E+02  0.00000000000E+00 0. -1.
</event>
<event>
 6    1  0.8017648E-006  0.8950904E+02  0.7818608E-02  0.1335148E+00
          2   -1    0    0  502    0  0.00000000000E+00  0.00000000000E+00  0.53360694057E+03  0.53360694057E+03  0.00000000000E+00 0. -1.
          1   -1    0    0  501    0 -0.00000000000E+00 -0.00000000000E+00 -0.18379238208E+03  0.18379238208E+03  0.00000000000E+00 0.  1.
          2    1    1    2  501    0  0.24390429784E+02 -0.70777046168E+02  0.44374704426E+03  0.45001746924E+03  0.00000000000E+00 0. -1.
          1    1    1    2  502    0 -0.68832122458E+02  0.57249563088E+02 -0.94924973327E+02  0.13048419106E+03  0.00000000000E+00 0.  1.
         22    1    1    2    0    0  0.12758066223E+01 -0.14238201535E+02  0.58264825756E+02  0.59992866125E+02  0.00000000000E+00 0. -1.
         22    1    1    2    0    0  0.43165886051E+02  0.27765684615E+02 -0.57272338191E+02  0.76904796226E+02  0.00000000000E+00 0.  1.
</event>
<event>
 6    1  0.8017648E-006  0.1373585E+03  0.7818608E-02  0.1302910E+00
          2   -1    0    0  502    0  0.00000000000E+00  0.00000000000E+00  0.79031849821E+03  0.79031849821E+03  0.00000000000E+00 0.  1.
          1   -1    0    0  501    0 -0.00000000000E+00 -0.00000000000E+00 -0.25973546190E+02  0.25973546190E+02  0.00000000000E+00 0.  1.
          2    1    1    2  501    0  0.17858878044E+02 -0.25709274584E+02  0.33299279837E+02  0.45702826633E+02  0.00000000000E+00 0.  1.
          1    1    1    2  502    0 -0.70104149253E+02  0.68283075616E+02  0.22623419316E+03  0.24649357053E+03  0.00000000000E+00 0.  1.
         22    1    1    2    0    0  0.54209730240E+02 -0.67786997501E+02  0.48288640363E+03  0.49062516313E+03  0.00000000000E+00 0.  1.
         22    1    1    2    0    0 -0.19644590305E+01  0.25213196470E+02  0.21925075394E+02  0.33470484110E+02  0.00000000000E+00 0. -1.
</event>
<event>
 6    1  0.8017648E-006  0.1138014E+03  0.7818608E-02  0.1371993E+00
          2   -1    0    0  502    0  0.00000000000E+00  0.00000000000E+00  0.22890739338E+03  0.22890739338E+03  0.00000000000E+00 0.  1.
          1   -1    0    0  501    0 -0.00000000000E+00 -0.00000000000E+00 -0.23997574878E+03  0.23997574878E+03  0.00000000000E+00 0. -1.
          2    1    1    2  501    0  0.55055009783E+02  0.73256408882E+02  0.14743581955E+03  0.17359399883E+03  0.00000000000E+00 0.  1.
          1    1    1    2  502    0 -0.62006621958E+02 -0.85226552250E+02 -0.13183854846E+03  0.16878918578E+03  0.00000000000E+00 0. -1.
         22    1    1    2    0    0 -0.13167539425E+02  0.22728390583E+01 -0.73451258559E+02  0.74656796581E+02  0.00000000000E+00 0. -1.
         22    1    1    2    0    0  0.20119151601E+02  0.96973043099E+01  0.46785632068E+02  0.51843160977E+02  0.00000000000E+00 0.  1.
</event>
<event>
 6    1  0.8017648E-006  0.7175600E+02  0.7818608E-02  0.1460277E+00
          2   -1    0    0  502    0  0.00000000000E+00  0.00000000000E+00  0.21368882450E+03  0.21368882450E+03  0.00000000000E+00 0.  1.
          1   -1    0    0  501    0 -0.00000000000E+00 -0.00000000000E+00 -0.10765656040E+03  0.10765656040E+03  0.00000000000E+00 0.  1.
          2    1    1    2  501    0 -0.24544186916E+02 -0.10735743569E+02  0.77734772231E+02  0.82221457753E+02  0.00000000000E+00 0.  1.
          1    1    1    2  502    0  0.31803043901E+02 -0.21091556227E+02 -0.69707969698E+02  0.79470047092E+02  0.00000000000E+00 0.  1.
         22    1    1    2    0    0  0.74151171350E+01 -0.11384747919E+02 -0.25001287575E+02  0.28454539668E+02  0.00000000000E+00 0. -1.
         22    1    1    2    0    0 -0.14673974120E+02  0.43212047715E+02  0.12300674914E+03  0.13119934039E+03  0.00000000000E+00 0.  1.
</event>
<event>
 6    1  0.8017648E-006  0.1531740E+03  0.7818608E-02  0.1275373E+00
          2   -1    0    0  502    0  0.00000000000E+00  0.00000000000E+00  0.12337508442E+03  0.12337508442E+03  0.00000000000E+00 0. -1.
          1   -1    0    0  501    0 -0.00000000000E+00 -0.00000000000E+00 -0.87171307260E+03  0.87171307260E+03  0.00000000000E+00 0. -1.
          2    1    1    2  501    0  0.12217156046E+03  0.17995146078E+02  0.48645793341E+02  0.13272576493E+03  0.00000000000E+00 0. -1.
          1    1    1    2  502    0 -0.12324430279E+03 -0.54606333554E+02 -0.65606115519E+03  0.66976656321E+03  0.00000000000E+00 0. -1.
         22    1    1    2    0    0  0.25264764512E+02  0.17924632614E+02  0.14494671973E+02  0.34200823028E+02  0.00000000000E+00 0. -1.
         22    1    1    2    0    0 -0.24192022179E+02  0.18686554862E+02 -0.15541729830E+03  0.15839500585E+03  0.00000000000E+00 0. -1.
</event>
<event>
 6    1  0.8017648E-006  0.1685265E+03  0.7818608E-02  0.1319876E+00
          2   -1    0    0  502    0  0.00000000000E+00  0.00000000000E+00  0.12574007179E+04  0.12574007179E+04  0.00000000000E+00 0.  1.
          1   -1    0    0  501    0 -0.00000000000E+00 -0.00000000000E+00 -0.73158535127E+02  0.73158535127E+02  0.00000000000E+00 0.  1.
          2    1    1    2  501    0 -0.13233312433E+03  0.20326895370E+02  0.93444674567E+03  0.94398938499E+03  0.00000000000E+00 0.  1.
          1    1    1    2  502    0  0.16713887663E+03 -0.26363463391E+02  0.13407726491E+03  0.21588688994E+03  0.00000000000E+00 0.  1.
         22    1    1    2    0    0 -0.31344887324E+02 -0.34209282429E+01  0.14046760117E+03  0.14396302195E+03  0.00000000000E+00 0.  1.
         22    1    1    2    0    0 -0.34608649741E+01  0.94574962637E+01 -0.24749428977E+02  0.26719956149E+02  0.00000000000E+00 0.  1.
</event>
<event>
 6    1  0.8017648E-006  0.5406932E+02  0.7818608E-02  0.1458594E+00
          2   -1    0    0  502    0  0.00000000000E+00  0.00000000000E+00  0.63460192476E+02  0.63460192476E+02  0.00000000000E+00 0. -1.
          1   -1    0    0  501    0 -0.00000000000E+00 -0.00000000000E+00 -0.16536652114E+03  0.16536652114E+03  0.00000000000E+00 0. -1.
          2    1    1    2  501    0  0.21631237955E+02  0.64559966630E+01  0.67780302508E+01  0.23569727246E+02  0.00000000000E+00 0. -1.
          1    1    1    2  502    0 -0.36467448402E+02 -0.18497531562E+02 -0.72720103362E+01  0.41532103260E+02  0.00000000000E+00 0. -1.
         22    1    1    2    0    0  0.27367389007E+02 -0.17608959904E+02 -0.12149920399E+03  0.12578197812E+03  0.00000000000E+00 0. -1.
         22    1    1    2    0    0 -0.12531178559E+02  0.29650494804E+02  0.20086855416E+02  0.37942904985E+02  0.00000000000E+00 0. -1.
</event>
<event>
 6    1  0.8017648E-006  0.4649851E+02  0.7818608E-02  0.1548413E+00
          2   -1    0    0  502    0  0.00000000000E+00  0.00000000000E+00  0.55928516699E+02  0.55928516699E+02  0.00000000000E+00 0. -1.
          1   -1    0    0  501    0 -0.00000000000E+00 -0.00000000000E+00 -0.15688010368E+04  0.15688010368E+04  0.00000000000E+00 0.  1.
          2    1    1    2  501    0  0.51188843758E+02  0.11345620112E+02  0.14586084767E+02  0.54422189315E+02  0.00000000000E+00 0. -1.
          1    1    1    2  502    0 -0.58628756061E+02 -0.44485474838E+02 -0.13375173339E+04  0.13395405582E+04  0.00000000000E+00 0.  1.
         22    1    1    2    0    0 -0.36209632381E+01  0.34568254975E+02 -0.20726741486E+03  0.21016150192E+03  0.00000000000E+00 0.  1.
         22    1    1    2    0    0  0.11060875541E+02 -0.14284002492E+01  0.17326143885E+02  0.20605304097E+02  0.00000000000E+00 0. -1.
</event>
<event>
 6    1  0.8017648E-006  0.5940316E+02  0.7818608E-02  0.1499703E+00
          2   -1    0    0  502    0  0.00000000000E+00  0.00000000000E+00  0.24496306162E+03  0.24496306162E+03  0.00000000000E+00 0. -1.
          1   -1    0    0  501    0 -0.00000000000E+00 -0.00000000000E+00 -0.18070071516E+03  0.18070071516E+03  0.00000000000E+00 0.  1.
          2    1    1    2  501    0 -0.20063636066E+02 -0.36071017431E+02  0.18087032626E+03  0.18552019489E+03  0.00000000000E+00 0. -1.
          1    1    1    2  502    0  0.43703756107E+02  0.54867560649E+02 -0.86831671812E+02  0.11162529614E+03  0.00000000000E+00 0.  1.
         22    1    1    2    0    0 -0.11657489578E+02 -0.72326026556E+01 -0.77120300911E+02  0.78331018231E+02  0.00000000000E+00 0.  1.
         22    1    1    2    0    0 -0.11982630463E+02 -0.11563940563E+02  0.47343992926E+02  0.50187267512E+02  0.00000000000E+00 0. -1.
</event>
<event>
 6    1  0.8017648E-006  0.1511491E+03  0.7818608E-02  0.1234674E+00
          2   -1    0    0  502    0  0.00000000000E+00  0.00000000000E+00  0.35280365204E+03  0.35280365204E+03  0.00000000000E+00 0.  1.
          1   -1    0    0  501    0 -0.00000000000E+00 -0.00000000000E+00 -0.22168067608E+03  0.22168067608E+03  0.00000000000E+00 0. -1.
          2    1    1    2  501    0  0.11171521274E+03  0.27825352960E+02  0.16295534234E+03  0.19952188507E+03  0.00000000000E+00 0.  1.
          1    1    1    2  502    0 -0.14202897001E+03  0.26148742948E+02 -0.13525653327E+03  0.19786438505E+03  0.00000000000E+00 0. -1.
         22    1    1    2    0    0  0.38960090019E+02 -0.59685311382E+02  0.13017477429E+03  0.14841056859E+03  0.00000000000E+00 0.  1.
         22    1    1    2    0    0 -0.86463327534E+01  0.57112154747E+01 -0.26750607395E+02  0.28687489404E+02  0.00000000000E+00 0. -1.
</event>
<event>
 6    1  0.8017648E-006  0.9290182E+02  0.7818608E-02  0.1320663E+00
          2   -1    0    0  502    0  0.00000000000E+00  0.00000000000E+00  0.61043308132E+02  0.61043308132E+02  0.00000000000E+00 0.  1.
          1   -1    0    0  501    0 -0.00000000000E+00 -0.00000000000E+00 -0.61988010418E+03  0.61988010418E+03  0.00000000000E+00 0.  1.
          2    1    1    2  501    0 -0.11909590881E+02  0.68757038707E+02  0.27939410275E+01  0.69836772786E+02  0.00000000000E+00 0.  1.
          1    1    1    2  502    0  0.26535398662E+02  0.12455051377E+02 -0.34649859408E+03  0.34773629576E+03  0.00000000000E+00 0.  1.
         22    1    1    2    0    0 -0.11791447293E+02 -0.58093336217E+02 -0.22879334674E+03  0.23634777227E+03  0.00000000000E+00 0.  1.
         22    1    1    2    0    0 -0.28343604874E+01 -0.23118753868E+02  0.13661203749E+02  0.27002571501E+02  0.00000000000E+00 0.  1.
</event>
<event>
 6    1  0.8017648E-006  0.7594808E+02  0.7818608E-02  0.1440355E+00
          2   -1    0    0  502    0  0.00000000000E+00  0.00000000000E+00  0.74414768336E+03  0.74414768336E+03  0.00000000000E+00 0. -1.
          1   -1    0    0  501    0 -0.00000000000E+00 -0.00000000000E+00 -0.32252776884E+02  0.32252776884E+02  0.00000000000E+00 0. -1.
          2    1    1    2  501    0 -0.17197639547E+02 -0.44414714989E+02  0.23560726128E+03  0.24037305856E+03  0.00000000000E+00 0. -1.
          1    1    1    2  502    0  0.14942285807E+02  0.64386034670E+02  0.34315282709E+03  0.34946057876E+03  0.00000000000E+00 0. -1.
         22    1    1    2    0    0 -0.89908803503E+01  0.12461138211E+02 -0.22469461933E+02  0.27221179521E+02  0.00000000000E+00 0. -1.
         22    1    1    2    0    0  0.11246234090E+02 -0.32432457893E+02  0.15560428004E+03  0.15934564341E+03  0.00000000000E+00 0.  1.
</event>
<event>
 6    1  0.8017648E-006  0.1009580E+03  0.7818608E-02  0.1393227E+00
          2   -1    0    0  502    0  0.00000000000E+00  0.00000000000E+00  0.54955340308E+03  0.54955340308E+03  0.00000000000E+00 0.  1.
          1   -1    0    0  501    0 -0.00000000000E+00 -0.00000000000E+00 -0.62663782034E+02  0.62663782034E+02  0.00000000000E+00 0. -1.
          2    1    1    2  501    0 -0.78072070567E+02 -0.12261908808E+03  0.19154135878E+03  0.24045536195E+03  0.00000000000E+00 0.  1.
          1    1    1    2  502    0  0.34448397758E+02  0.29647570274E+02  0.12387238970E+02  0.47107475209E+02  0.00000000000E+00 0. -1.
         22    1    1    2    0    0  0.38376980392E+02  0.80474560048E+02  0.29397022540E+03  0.30719283986E+03  0.00000000000E+00 0. -1.
         22    1    1    2    0    0  0.52466924179E+01  0.12496957755E+02 -0.11009202102E+02  0.17461508107E+02  0.00000000000E+00 0. -1.
</event>
<event>
 6    1  0.8017648E-006  0.6395820E+02  0.7818608E-02  0.1428304E+00
          2   -1    0    0  502    0  0.00000000000E+00  0.00000000000E+00  0.10893816491E+04  0.10893816491E+04  0.00000000000E+00 0.  1.
          1   -1    0    0  501    0 -0.00000000000E+00 -0.00000000000E+00 -0.31260053484E+03  0.31260053484E+03  0.00000000000E+00 0. -1.
          2    1    1    2  501    0  0.12851351167E+03  0.50233582460E+02  0.99084772217E+03  0.10004090883E+04  0.00000000000E+00 0.  1.
          1    1    1    2  502    0 -0.13894263030E+03 -0.69282469760E+02 -0.23033885993E+03  0.27777887883E+03  0.00000000000E+00 0. -1.
         22    1    1    2    0    0  0.10205123743E+02 -0.82867301403E+01 -0.50214624455E+02  0.51906868102E+02  0.00000000000E+00 0.  1.
         22    1    1    2    0    0  0.22399489053E+00  0.27335617441E+02  0.66486876484E+02  0.71887348673E+02  0.00000000000E+00 0. -1.
</event>
<event>
 6    1  0.8017648E-006  0.8884607E+02  0.7818608E-02  0.1400040E+00
          2   -1    0    0  502    0  0.00000000000E+00  0.00000000000E+00  0.79568648850E+03  0.79568648850E+03  0.00000000000E+00 0. -1.
          1   -1    0    0  501    0 -0.00000000000E+00 -0.00000000000E+00 -0.25484768790E+02  0.25484768790E+02  0.00000000000E+00 0.  1.
          2    1    1    2  501    0  0.11802369545E+02  0.22223658439E+02  0.46444344024E+03  0.46512460277E+03  0.00000000000E+00 0. -1.
          1    1    1    2  502    0 -0.34237375453E+02  0.91448745218E+01  0.16756612765E+02  0.39199626009E+02  0.00000000000E+00 0.  1.
         22    1    1    2    0    0 -0.17508692577E+02  0.34406362903E+01 -0.46616265741E+01  0.18442425441E+02  0.00000000000E+00 0. -1.
         22    1    1    2    0    0  0.39943698485E+02 -0.34809169251E+02  0.29366329328E+03  0.29840460307E+03  0.00000000000E+00 0.  1.
</event>
<event>
 6    1  0.8017648E-006  0.3030199E+02  0.7818608E-02  0.1648290E+00
          2   -1    0    0  502    0  0.00000000000E+00  0.00000000000E+00  0.31053128448E+03  0.31053128448E+03  0.00000000000E+00 0. -1.
          1   -1    0    0  501    0 -0.00000000000E+00 -0.00000000000E+00 -0.27232371333E+03  0.27232371333E+03  0.00000000000E+00 0.  1.
          2    1    1    2  501    0 -0.35330367869E+02 -0.15338060136E+02  0.26223744765E+03  0.26505088178E+03  0.00000000000E+00 0. -1.
          1    1    1    2  502    0  0.30921297323E+02  0.28358764843E+01 -0.18340474275E+03  0.18601469965E+03  0.00000000000E+00 0.  1.
         22    1    1    2    0    0 -0.16592278824E+01  0.23475797536E+02 -0.83689968275E+02  0.86936050618E+02  0.00000000000E+00 0.  1.
         22    1    1    2    0    0  0.60682984278E+01 -0.10973613884E+02  0.43064834530E+02  0.44853365767E+02  0.00000000000E+00 0. -1.
</event>
<event>
 6    1  0.8017648E-006  0.2758004E+02  0.7818608E-02  0.1637522E+00
          2   -1    0    0  502    0  0.00000000000E+00  0.00000000000E+00  0.16792863930E+03  0.16792863930E+03  0.00000000000E+00 0.  1.
          1   -1    0    0  501    0 -0.00000000000E+00 -0.00000000000E+00 -0.76162893374E+02  0.76162893374E+02  0.00000000000E+00 0.  1.
          2    1    1    2  501    0 -0.33076154803E+02 -0.33274095491E+02  0.38336647252E+02  0.60587919339E+02  0.00000000000E+00 0.  1.
          1    1    1    2  502    0  0.25683610112E+02  0.14182193038E+02  0.43887895624E+02  0.52791380073E+02  0.00000000000E+00 0.  1.
         22    1    1    2    0    0  0.21928122588E+02  0.57225957412E+01 -0.56979997457E+02  0.61321372885E+02  0.00000000000E+00 0.  1.
         22    1    1    2    0    0 -0.14535577896E+02  0.13369306712E+02  0.66521200509E+02  0.69390860377E+02  0.00000000000E+00 0.  1.
</event>
<event>
 6    1  0.8017648E-006  0.5807645E+02  0.7818608E-02  0.1498027E+00
          2   -1    0    0  502    0  0.00000000000E+00  0.00000000000E+00  0.34007608944E+02  0.34007608944E+02  0.00000000000E+00 0. -1.
          1   -1    0    0  501    0 -0.00000000000E+00 -0.00000000000E+00 -0.59216399946E+03  0.59216399946E+03  0.00000000000E+00 0. -1.
          2    1    1    2  501    0  0.24570346413E+02 -0.21104298564E+02 -0.11467009607E+02  0.34359651483E+02  0.00000000000E+00 0. -1.
          1    1    1    2  502    0 -0.50675598294E+01 -0.53778980057E+02 -0.30408907227E+03  0.30884951471E+03  0.00000000000E+00 0. -1.
         22    1    1    2    0    0 -0.76255814997E+01  0.65683693223E+02 -0.25503043562E+03  0.26346350818E+03  0.00000000000E+00 0.  1.
         22    1    1    2    0    0 -0.11877205084E+02  0.91995853973E+01  0.12430126978E+02  0.19498934042E+02  0.00000000000E+00 0. -1.
</event>
<event>
 6    1  0.8017648E-006  0.1036349E+03  0.7818608E-02  0.1314607E+00
          2   -1    0    0  502    0  0.00000000000E+00  0.00000000000E+00  0.38498654955E+02  0.38498654955E+02  0.00000000000E+00 0.  1.
          1   -1    0    0  501    0 -0.00000000000E+00 -0.00000000000E+00 -0.11523635349E+04  0.11523635349E+04  0.00000000000E+00 0. -1.
          2    1    1    2  501    0 -0.31489745859E+02 -0.23383456525E+02 -0.34993923950E+02  0.52563912019E+02  0.00000000000E+00 0.  1.
          1    1    1    2  502    0  0.55177415615E+02  0.11918609552E+03 -0.84090594700E+03  0.85110086609E+03  0.00000000000E+00 0. -1.
         22    1    1    2    0    0  0.85940443085E+01 -0.46818310115E+02 -0.22108646414E+03  0.22615268379E+03  0.00000000000E+00 0.  1.
         22    1    1    2    0    0 -0.32281714065E+02 -0.48984328878E+02 -0.16878544896E+02  0.61044727998E+02  0.00000000000E+00 0.  1.
</event>
<event>
 6    1  0.8017648E-006  0.6814873E+02  0.7818608E-02  0.1457417E+00
          2   -1    0    0  502    0  0.00000000000E+00  0.00000000000E+00  0.27513694155E+03  0.27513694155E+03  0.00000000000E+00 0.  1.
          1   -1    0    0  501    0 -0.00000000000E+00 -0.00000000000E+00 -0.17565377840E+03  0.17565377840E+03  0.00000000000E+00 0.  1.
          2    1    1    2  501    0  0.19493263984E+02  0.15792024382E+02  0.59652353262E+02  0.64713048333E+02  0.00000000000E+00 0.  1.
          1    1    1    2  502    0 -0.49039417890E+02 -0.36527270440E+02 -0.14758964040E+03  0.15975546296E+03  0.00000000000E+00 0.  1.
         22    1    1    2    0    0 -0.87134385371E+01  0.14052007773E+02 -0.13708228089E+02  0.21477859552E+02  0.00000000000E+00 0.  1.
         22    1    1    2    0    0  0.38259592443E+02  0.66832382847E+01  0.20112867839E+03  0.20484434910E+03  0.00000000000E+00 0. -1.
</event>
<event>
 6    1  0.8017648E-006  0.1165349E+03  0.7818608E-02  0.1347506E+00
          2   -1    0    0  502    0  0.00000000000E+00  0.00000000000E+00  0.51760907023E+03  0.51760907023E+03  0.00000000000E+00 0.  1.
          1   -1    0    0  501    0 -0.00000000000E+00 -0.00000000000E+00 -0.12175677671E+03  0.12175677671E+03  0.00000000000E+00 0.  1.
          2    1    1    2  501    0 -0.79237664000E+02  0.23759947909E+02  0.37579305226E+03  0.38479028138E+03  0.00000000000E+00 0.  1.
          1    1    1    2  502    0  0.11842382243E+03  0.47225612428E+00  0.63096348684E+01  0.11859273265E+03  0.00000000000E+00 0.  1.
         22    1    1    2    0    0 -0.27191713033E+02 -0.97778121391E+01  0.70506787962E+02  0.76198438413E+02  0.00000000000E+00 0.  1.
         22    1    1    2    0    0 -0.11994445402E+02 -0.14454391894E+02 -0.56757181567E+02  0.59784394494E+02  0.00000000000E+00 0.  1.
</event>
<event>
 6    1  0.8017648E-006  0.3633945E+02  0.7818608E-02  0.1574227E+00
          2   -1    0    0  502    0  0.00000000000E+00  0.00000000000E+00  0.19253211786E+03  0.19253211786E+03  0.00000000000E+00 0. -1.
          1   -1    0    0  501    0 -0.00000000000E+00 -0.00000000000E+00 -0.86330981845E+02  0.86330981845E+02  0.00000000000E+00 0. -1.
          2    1    1    2  501    0  0.28746258913E+02  0.22976188442E+02  0.97184163030E+02  0.10391830532E+03  0.00000000000E+00 0. -1.
          1    1    1    2  502    0 -0.19889876832E+02  0.72722929879E+01  0.40254088722E+02  0.45484998675E+02  0.00000000000E+00 0. -1.
         22    1    1    2    0    0  0.64440211194E+01  0.13206261746E+02  0.41128087772E+02  0.43674367326E+02  0.00000000000E+00 0.  1.
         22    1    1    2    0    0 -0.15300403200E+02 -0.43454743176E+02 -0.72365203514E+02  0.85785428379E+02  0.00000000000E+00 0. -1.
</event>
<event>
 6    1  0.8017648E-006  0.4421013E+03  0.7818608E-02  0.1158405E+00
          2   -1    0    0  502    0  0.00000000000E+00  0.00000000000E+00  0.45379446398E+03  0.45379446398E+03  0.00000000000E+00 0.  1.
          1   -1    0    0  501    0 -0.00000000000E+00 -0.00000000000E+00 -0.59751913873E+03  0.59751913873E+03  0.00000000000E+00 0.  1.
          2    1    1    2  501    0 -0.90546294245E+02  0.28450431765E+03  0.17520635334E+03  0.34617712867E+03  0.00000000000E+00 0.  1.
          1    1    1    2  502    0  0.87909378177E+02 -0.41458734533E+03 -0.30715029263E+03  0.52340426817E+03  0.00000000000E+00 0.  1.
         22    1    1    2    0    0  0.11944675805E+02 -0.92402272709E+01 -0.36887614686E+02  0.39859167042E+02  0.00000000000E+00 0.  1.
         22    1    1    2    0    0 -0.93077597366E+01  0.13932325495E+03  0.25106879222E+02  0.14187303883E+03  0.00000000000E+00 0. -1.
</event>
<event>
 6    1  0.8017648E-006  0.6106355E+02  0.7818608E-02  0.1470255E+00
          2   -1    0    0  502    0  0.00000000000E+00  0.00000000000E+00  0.76726743213E+02  0.76726743213E+02  0.00000000000E+00 0.  1.
          1   -1    0    0  501    0 -0.00000000000E+00 -0.00000000000E+00 -0.22643712890E+03  0.22643712890E+03  0.00000000000E+00 0.  1.
          2    1    1    2  501    0  0.46799723199E+02  0.23193883188E+02  0.22730167942E+02  0.56963416712E+02  0.00000000000E+00 0.  1.
          1    1    1    2  502    0 -0.27507496780E+02 -0.19682478901E+02 -0.90690860503E+02  0.96793050027E+02  0.00000000000E+00 0.  1.
         22    1    1    2    0    0 -0.15346130482E+02 -0.22190832292E+02 -0.11113588612E+03  0.11436398883E+03  0.00000000000E+00 0. -1.
         22    1    1    2    0    0 -0.39460959369E+01  0.18679428005E+02  0.29386192997E+02  0.35043416537E+02  0.00000000000E+00 0.  1.
</event>
<event>
 6    1  0.8017648E-006  0.2490166E+03  0.7818608E-02  0.1170618E+00
          2   -1    0    0  502    0  0.00000000000E+00  0.00000000000E+00  0.58155580381E+03  0.58155580381E+03  0.00000000000E+00 0.  1.
          1   -1    0    0  501    0 -0.00000000000E+00 -0.00000000000E+00 -0.20938212111E+03  0.20938212111E+03  0.00000000000E+00 0. -1.
          2    1    1    2  501    0 -0.56282199976E+02  0.15688276998E+03  0.20012257763E+03  0.26043988871E+03  0.00000000000E+00 0.  1.
          1    1    1    2  502    0  0.12374776636E+03 -0.25316544153E+03 -0.51469413001E+01  0.28183814765E+03  0.00000000000E+00 0. -1.
         22    1    1    2    0    0 -0.20596357439E+02  0.53087206167E+02  0.17592275106E+03  0.18490883089E+03  0.00000000000E+00 0.  1.
         22    1    1    2    0    0 -0.46869208945E+02  0.43195465382E+02  0.12752952962E+01  0.63751057676E+02  0.00000000000E+00 0.  1.
</event>
<event>
 6    1  0.8017648E-006  0.1166245E+03  0.7818608E-02  0.1249605E+00
          2   -1    0    0  502    0  0.00000000000E+00  0.00000000000E+00  0.51872993972E+03  0.51872993972E+03  0.00000000000E+00 0.  1.
          1   -1    0    0  501    0 -0.00000000000E+00 -0.00000000000E+00 -0.10326766711E+03  0.10326766711E+03  0.00000000000E+00 0. -1.
          2    1    1    2  501    0 -0.17334152305E+02  0.51332764702E+02  0.24912752244E+03  0.25495106982E+03  0.00000000000E+00 0.  1.
          1    1    1    2  502    0  0.12412882809E+02 -0.10078009013E+03 -0.49510453129E+02  0.11296898333E+03  0.00000000000E+00 0. -1.
         22    1    1    2    0    0 -0.10180116500E+01 -0.12060711382E+02 -0.12570735948E+02  0.17450516010E+02  0.00000000000E+00 0. -1.
         22    1    1    2    0    0  0.59392811457E+01  0.61508036811E+02  0.22841593925E+03  0.23662703767E+03  0.00000000000E+00 0. -1.
</event>
<event>
 6    1  0.8017648E-006  0.6055718E+02  0.7818608E-02  0.1433872E+00
          2   -1    0    0  502    0  0.00000000000E+00  0.00000000000E+00  0.27276150307E+03  0.27276150307E+03  0.00000000000E+00 0.  1.
          1   -1    0    0  501    0 -0.00000000000E+00 -0.00000000000E+00 -0.86976826301E+02  0.86976826301E+02  0.00000000000E+00 0.  1.
          2    1    1    2  501    0  0.53499873942E+02 -0.92294577350E+01  0.64829647370E+02  0.84559461800E+02  0.00000000000E+00 0.  1.
          1    1    1    2  502    0 -0.57409475908E+02  0.55692324662E+02 -0.19301553763E+02  0.82280209819E+02  0.00000000000E+00 0.  1.
         22    1    1    2    0    0 -0.26380123487E+02 -0.67206352267E+01 -0.14098464214E+02  0.30656884157E+02  0.00000000000E+00 0.  1.
         22    1    1    2    0    0  0.30289725452E+02 -0.39742231700E+02  0.15435504737E+03  0.16224177359E+03  0.00000000000E+00 0.  1.
</event>
<event>
 6    1  0.8017648E-006  0.5502622E+02  0.7818608E-02  0.1503190E+00
          2   -1    0    0  502    0  0.00000000000E+00  0.00000000000E+00  0.18740377618E+03  0.18740377618E+03  0.00000000000E+00 0.  1.
          1   -1    0    0  501    0 -0.00000000000E+00 -0.00000000000E+00 -0.14759073109E+03  0.14759073109E+03  0.00000000000E+00 0. -1.
          2    1    1    2  501    0  0.77460478003E+02 -0.78305940626E+00  0.10276863373E+03  0.12869394280E+03  0.00000000000E+00 0.  1.
          1    1    1    2  502    0 -0.55197742027E+02  0.29861793998E+02 -0.26306967653E+02  0.68048321161E+02  0.00000000000E+00 0. -1.
         22    1    1    2    0    0  0.96070614365E+01 -0.65572320025E+01  0.45682843895E+02  0.47140377038E+02  0.00000000000E+00 0.  1.
         22    1    1    2    0    0 -0.31869797412E+02 -0.22521502589E+02 -0.82331464882E+02  0.91111866272E+02  0.00000000000E+00 0.  1.
</event>
<event>
 6    1  0.8017648E-006  0.1742713E+03  0.7818608E-02  0.1290820E+00
          2   -1    0    0  502    0  0.00000000000E+00  0.00000000000E+00  0.27751576498E+03  0.27751576498E+03  0.00000000000E+00 0. -1.
          1   -1    0    0  501    0 -0.00000000000E+00 -0.00000000000E+00 -0.20526137671E+03  0.20526137671E+03  0.00000000000E+00 0.  1.
          2    1    1    2  501    0  0.17357652114E+03 -0.33253288923E+02  0.31382629641E+02  0.17949779764E+03  0.00000000000E+00 0. -1.
          1    1    1    2  502    0 -0.96984637574E+01  0.82611820642E+02 -0.12801876395E+02  0.84158547684E+02  0.00000000000E+00 0.  1.
         22    1    1    2    0    0  0.92677820088E+01  0.12414043099E+02 -0.16236399563E+02  0.22441499954E+02  0.00000000000E+00 0. -1.
         22    1    1    2    0    0 -0.17314583939E+03 -0.61772574818E+02  0.69910034588E+02  0.19667929641E+03  0.00000000000E+00 0.  1.
</event>
<event>
 6    1  0.8017648E-006  0.2978804E+02  0.7818608E-02  0.1627476E+00
          2   -1    0    0  502    0  0.00000000000E+00  0.00000000000E+00  0.19669573689E+03  0.19669573689E+03  0.00000000000E+00 0.  1.
          1   -1    0    0  501    0 -0.00000000000E+00 -0.00000000000E+00 -0.92741683860E+02  0.92741683860E+02  0.00000000000E+00 0. -1.
          2    1    1    2  501    0  0.13099033192E+02 -0.20287546075E+02  0.12018555040E+03  0.12258766546E+03  0.00000000000E+00 0.  1.
          1    1    1    2  502    0 -0.22868111724E+02  0.32609258437E+02  0.43851735596E+01  0.40069240282E+02  0.00000000000E+00 0. -1.
         22    1    1    2    0    0 -0.17542980810E+01 -0.23675638628E+02  0.49459061048E+02  0.54861754857E+02  0.00000000000E+00 0.  1.
         22    1    1    2    0    0  0.11523376613E+02  0.11353926265E+02 -0.70075731979E+02  0.71918760158E+02  0.00000000000E+00 0. -1.
</event>
<event>
 6    1  0.8017648E-006  0.2652725E+03  0.7818608E-02  0.1104319E+00
          2   -1    0    0  502    0  0.00000000000E+00  0.00000000000E+00  0.23270462055E+03  0.23270462055E+03  0.00000000000E+00 0.  1.
          1   -1    0    0  501    0 -0.00000000000E+00 -0.00000000000E+00 -0.36726470995E+03  0.36726470995E+03  0.00000000000E+00 0.  1.
          2    1    1    2  501    0 -0.16731803193E+03  0.15335254308E+03  0.33980454184E+02  0.22949291394E+03  0.00000000000E+00 0.  1.
          1    1    1    2  502    0  0.14755815090E+03 -0.13678402783E+03 -0.11574443542E+03  0.23212077136E+03  0.00000000000E+00 0.  1.
         22    1    1    2    0    0  0.38762116338E+02 -0.40133125705E+02 -0.80081201535E+02  0.97602091582E+02  0.00000000000E+00 0.  1.
         22    1    1    2    0    0 -0.19002235301E+02  0.23564610448E+02  0.27285093374E+02  0.40753553617E+02  0.00000000000E+00 0.  1.
</event>
<event>
 6    1  0.8017648E-006  0.5156634E+02  0.7818608E-02  0.1546547E+00
          2   -1    0    0  502    0  0.00000000000E+00  0.00000000000E+00  0.12129425800E+03  0.12129425800E+03  0.00000000000E+00 0.  1.
          1   -1    0    0  501    0 -0.00000000000E+00 -0.00000000000E+00 -0.15192111242E+03  0.15192111242E+03  0.00000000000E+00 0.  1.
          2    1    1    2  501    0  0.11866420833E+02  0.29106431707E+02  0.49396424022E+02  0.58549150432E+02  0.00000000000E+00 0.  1.
          1    1    1    2  502    0 -0.18424619799E+02 -0.35550494833E+02 -0.77608327161E+02  0.87329014322E+02  0.00000000000E+00 0.  1.
         22    1    1    2    0    0  0.41098255437E+01  0.17411495641E+02  0.60673364222E+02  0.63255892789E+02  0.00000000000E+00 0.  1.
         22    1    1    2    0    0  0.24483734228E+01 -0.10967432515E+02 -0.63088315501E+02  0.64081312885E+02  0.00000000000E+00 0. -1.
</event>
<event>
 6    1  0.8017648E-006  0.1030368E+03  0.7818608E-02  0.1275806E+00
          2   -1    0    0  502    0  0.00000000000E+00  0.00000000000E+00  0.22078214959E+03  0.22078214959E+03  0.00000000000E+00 0.  1.
          1   -1    0    0  501    0 -0.00000000000E+00 -0.00000000000E+00 -0.22301760574E+03  0.22301760574E+03  0.00000000000E+00 0.  1.
          2    1    1    2  501    0  0.88040665960E+02 -0.42290600737E+01 -0.19449727666E+02  0.90262593128E+02  0.00000000000E+00 0.  1.
          1    1    1    2  502    0  0.46319467850E+02  0.82601477668E+02 -0.88555230151E+02  0.12965541254E+03  0.00000000000E+00 0.  1.
         22    1    1    2    0    0 -0.14815137301E+03 -0.87005866010E+02  0.11345171625E+03  0.20588866401E+03  0.00000000000E+00 0.  1.
         22    1    1    2    0    0  0.13791239205E+02  0.86334484157E+01 -0.76822145779E+01  0.17993085649E+02  0.00000000000E+00 0. -1.
</event>
<event>
 6    1  0.8017648E-006  0.4233776E+02  0.7818608E-02  0.1602356E+00
          2   -1    0    0  502    0  0.00000000000E+00  0.00000000000E+00  0.18331517553E+03  0.18331517553E+03  0.00000000000E+00 0.  1.
          1   -1    0    0  501    0 -0.00000000000E+00 -0.00000000000E+00 -0.80083454964E+02  0.80083454964E+02  0.00000000000E+00 0. -1.
          2    1    1    2  501    0 -0.24713590197E+02 -0.87073185573E+01  0.97111980089E+02  0.10058486772E+03  0.00000000000E+00 0.  1.
          1    1    1    2  502    0  0.28078814292E+02  0.15953030349E+02 -0.18728305358E+02  0.37331868571E+02  0.00000000000E+00 0. -1.
         22    1    1    2    0    0  0.94129737064E+01  0.37683697535E+01 -0.48843114285E+02  0.49884411370E+02  0.00000000000E+00 0. -1.
         22    1    1    2    0    0 -0.12778197802E+02 -0.11014081545E+02  0.73691160115E+02  0.75597482832E+02  0.00000000000E+00 0. -1.
</event>
<event>
 6    1  0.8017648E-006  0.5131223E+02  0.7818608E-02  0.1447571E+00
          2   -1    0    0  502    0  0.00000000000E+00  0.00000000000E+00  0.18094315888E+03  0.18094315888E+03  0.00000000000E+00 0.  1.
          1   -1    0    0  501    0 -0.00000000000E+00 -0.00000000000E+00 -0.12357858831E+03  0.12357858831E+03  0.00000000000E+00 0.  1.
          2    1    1    2  501    0 -0.38473707848E+02 -0.54968541319E+02  0.74166019117E+01  0.67503871847E+02  0.00000000000E+00 0.  1.
          1    1    1    2  502    0 -0.25364258884E+02  0.61824605187E+02 -0.31482314599E+02  0.73869909759E+02  0.00000000000E+00 0.  1.
         22    1    1    2    0    0  0.27830030462E+02 -0.24736018270E+02  0.10848009373E+03  0.11469224878E+03  0.00000000000E+00 0.  1.
         22    1    1    2    0    0  0.36007936270E+02  0.17879954402E+02 -0.27049810472E+02  0.48455716798E+02  0.00000000000E+00 0.  1.
</event>
<event>
 6    1  0.8017648E-006  0.4920677E+02  0.7818608E-02  0.1497234E+00
          2   -1    0    0  502    0  0.00000000000E+00  0.00000000000E+00  0.98681045060E+02  0.98681045060E+02  0.00000000000E+00 0.  1.
          1   -1    0    0  501    0 -0.00000000000E+00 -0.00000000000E+00 -0.25053292216E+03  0.25053292216E+03  0.00000000000E+00 0. -1.
          2    1    1    2  501    0 -0.37254376139E+02 -0.58615254726E+01  0.61883843086E+02  0.72469690612E+02  0.00000000000E+00 0.  1.
          1    1    1    2  502    0  0.35822918501E+02 -0.88134771464E+01 -0.10310180443E+03  0.10950315496E+03  0.00000000000E+00 0. -1.
         22    1    1    2    0    0 -0.93467317116E+01 -0.78501345303E+01  0.25799575691E+02  0.28541270323E+02  0.00000000000E+00 0. -1.
         22    1    1    2    0    0  0.10778189350E+02  0.22525137149E+02 -0.13643349144E+03  0.13869985132E+03  0.00000000000E+00 0.  1.
</event>
<event>
 6    1  0.8017648E-006  0.8303819E+02  0.7818608E-02  0.1424019E+00
          2   -1    0    0  502    0  0.00000000000E+00  0.00000000000E+00  0.13975910896E+03  0.13975910896E+03  0.00000000000E+00 0. -1.
          1   -1    0    0  501    0 -0.00000000000E+00 -0.00000000000E+00 -0.11106205713E+04  0.11106205713E+04  0.00000000000E+00 0. -1.
          2    1    1    2  501    0  0.35425096238E+02  0.67475062769E+02  0.47678827960E+02  0.89894895154E+02  0.00000000000E+00 0. -1.
          1    1    1    2  502    0 -0.39734700553E+01 -0.10881261727E+03 -0.10179394521E+04  0.10237464052E+04  0.00000000000E+00 0. -1.
         22    1    1    2    0    0 -0.41588852207E+02  0.46189859342E+02  0.53177392885E+02  0.81798354800E+02  0.00000000000E+00 0. -1.
         22    1    1    2    0    0  0.10137226024E+02 -0.48523048435E+01 -0.53778231094E+02  0.54940025058E+02  0.00000000000E+00 0.  1.
</event>
<event>
 6    1  0.8017648E-006  0.4272789E+02  0.7818608E-02  0.1495484E+00
          2   -1    0    0  502    0  0.00000000000E+00  0.00000000000E+00  0.23669749884E+03  0.23669749884E+03  0.00000000000E+00 0.  1.
          1   -1    0    0  501    0 -0.00000000000E+00 -0.00000000000E+00 -0.67219542540E+02  0.67219542540E+02  0.00000000000E+00 0.  1.
          2    1    1    2  501    0  0.50283592676E+02 -0.37052849753E+01  0.79980058125E+02  0.94546171402E+02  0.00000000000E+00 0.  1.
          1    1    1    2  502    0 -0.27307853397E+02 -0.27509477045E+01  0.79891547557E+02  0.84474528359E+02  0.00000000000E+00 0.  1.
         22    1    1    2    0    0 -0.38775258974E+02  0.48123042061E+01 -0.49859476542E+02  0.63345452728E+02  0.00000000000E+00 0.  1.
         22    1    1    2    0    0  0.15799519695E+02  0.16439284737E+01  0.59465827157E+02  0.61550888888E+02  0.00000000000E+00 0. -1.
</event>
<event>
 6    1  0.8017648E-006  0.1934719E+03  0.7818608E-02  0.1156771E+00
          2   -1    0    0  502    0  0.00000000000E+00  0.00000000000E+00  0.32252143250E+03  0.32252143250E+03  0.00000000000E+00 0.  1.
          1   -1    0    0  501    0 -0.00000000000E+00 -0.00000000000E+00 -0.19655565162E+03  0.19655565162E+03  0.00000000000E+00 0. -1.
          2    1    1    2  501    0 -0.13272902381E+03  0.58409566297E+00  0.19072418596E+03  0.23236404635E+03  0.00000000000E+00 0.  1.
          1    1    1    2  502    0  0.14565206128E+03  0.16452873551E+02 -0.54369366489E+02  0.15633696945E+03  0.00000000000E+00 0. -1.
         22    1    1    2    0    0  0.37387091622E+02 -0.73741420796E+01 -0.51935996165E+02  0.64416770247E+02  0.00000000000E+00 0. -1.
         22    1    1    2    0    0 -0.50310129097E+02 -0.96628271342E+01  0.41546957579E+02  0.65959298071E+02  0.00000000000E+00 0.  1.
</event>
<event>
 6    1  0.8017648E-006  0.6127263E+02  0.7818608E-02  0.1448677E+00
          2   -1    0    0  502    0  0.00000000000E+00  0.00000000000E+00  0.72359241418E+03  0.72359241418E+03  0.00000000000E+00 0. -1.
          1   -1    0    0  501    0 -0.00000000000E+00 -0.00000000000E+00 -0.24929879559E+03  0.24929879559E+03  0.00000000000E+00 0.  1.
          2    1    1    2  501    0 -0.12007214905E+02 -0.41082275739E+02  0.57418156760E+03  0.57577460795E+03  0.00000000000E+00 0. -1.
          1    1    1    2  502    0  0.38007117195E+02  0.33173604542E+02 -0.21573996824E+03  0.22155984043E+03  0.00000000000E+00 0.  1.
         22    1    1    2    0    0 -0.23672476956E+00  0.10155092005E+02 -0.27798872085E+02  0.29596608276E+02  0.00000000000E+00 0.  1.
         22    1    1    2    0    0 -0.25763177520E+02 -0.22464208081E+01  0.14365089131E+03  0.14596015311E+03  0.00000000000E+00 0.  1.
</event>
<event>
 6    1  0.8017648E-006  0.1095388E+03  0.7818608E-02  0.1262975E+00
          2   -1    0    0  502    0  0.00000000000E+00  0.00000000000E+00  0.76711332208E+03  0.76711332208E+03  0.00000000000E+00 0.  1.
          1   -1    0    0  501    0 -0.00000000000E+00 -0.00000000000E+00 -0.19622809527E+03  0.19622809527E+03  0.00000000000E+00 0. -1.
          2    1    1    2  501    0 -0.87312214805E+02  0.25107707421E+02  0.67922721552E+03  0.68527617070E+03  0.00000000000E+00 0.  1.
          1    1    1    2  502    0  0.86752552015E+02 -0.16941596443E+02 -0.12601098847E+03  0.15392138314E+03  0.00000000000E+00 0. -1.
         22    1    1    2    0    0  0.14368210859E+02 -0.11656260039E+02 -0.50875476908E+02  0.54135275302E+02  0.00000000000E+00 0.  1.
         22    1    1    2    0    0 -0.13808548070E+02  0.34901490606E+01  0.68544476679E+02  0.70008588212E+02  0.00000000000E+00 0.  1.
</event>
<event>
 6    1  0.8017648E-006  0.1030179E+03  0.7818608E-02  0.1387484E+00
          2   -1    0    0  502    0  0.00000000000E+00  0.00000000000E+00  0.28903525252E+03  0.28903525252E+03  0.00000000000E+00 0.  1.
          1   -1    0    0  501    0 -0.00000000000E+00 -0.00000000000E+00 -0.14756152348E+03  0.14756152348E+03  0.00000000000E+00 0.  1.
          2    1    1    2  501    0  0.17562052176E+02 -0.12243008496E+03  0.11741149620E+02  0.12423930929E+03  0.00000000000E+00 0.  1.
          1    1    1    2  502    0  0.28002097987E+02  0.47306540971E+02 -0.52437002038E+02  0.75971478155E+02  0.00000000000E+00 0.  1.
         22    1    1    2    0    0 -0.57156546793E+02  0.82954687789E+02  0.19365195630E+03  0.21828749677E+03  0.00000000000E+00 0.  1.
         22    1    1    2    0    0  0.11592396630E+02 -0.78311438030E+01 -0.11482374842E+02  0.18098491785E+02  0.00000000000E+00 0. -1.
</event>
<event>
 6    1  0.8017648E-006  0.1661844E+03  0.7818608E-02  0.1252746E+00
          2   -1    0    0  502    0  0.00000000000E+00  0.00000000000E+00  0.21359167266E+03  0.21359167266E+03  0.00000000000E+00 0. -1.
          1   -1    0    0  501    0 -0.00000000000E+00 -0.00000000000E+00 -0.36842464117E+03  0.36842464117E+03  0.00000000000E+00 0. -1.
          2    1    1    2  501    0 -0.11573197056E+03 -0.21117334887E+02  0.11121684106E+03  0.16189199047E+03  0.00000000000E+00 0. -1.
          1    1    1    2  502    0  0.17752617800E+03 -0.25069754213E+02 -0.13637094943E+03  0.22525779077E+03  0.00000000000E+00 0. -1.
         22    1    1    2    0    0 -0.25248210059E+02  0.27366875577E+02 -0.14597344790E+03  0.15064748747E+03  0.00000000000E+00 0. -1.
         22    1    1    2    0    0 -0.36545997389E+02  0.18820213523E+02  0.16294587761E+02  0.44219045133E+02  0.00000000000E+00 0.  1.
</event>
<event>
 6    1  0.8017648E-006  0.8332136E+02  0.7818608E-02  0.1321457E+00
          2   -1    0    0  502    0  0.00000000000E+00  0.00000000000E+00  0.58393029798E+02  0.58393029798E+02  0.00000000000E+00 0.  1.
          1   -1    0    0  501    0 -0.00000000000E+00 -0.00000000000E+00 -0.49293496750E+03  0.49293496750E+03  0.00000000000E+00 0. -1.
          2    1    1    2  501    0 -0.24005629640E+02  0.85613472689E+01  0.71732702779E+00  0.25496695463E+02  0.00000000000E+00 0.  1.
          1    1    1    2  502    0  0.56573992325E+02 -0.37615628517E+02 -0.36955663456E+03  0.37574946210E+03  0.00000000000E+00 0. -1.
         22    1    1    2    0    0  0.15008489860E+02  0.32363623433E+01 -0.89603537434E+02  0.90909420468E+02  0.00000000000E+00 0. -1.
         22    1    1    2    0    0 -0.47576852545E+02  0.25817918905E+02  0.23900907264E+02  0.59172419274E+02  0.00000000000E+00 0.  1.
</event>
<event>
 6    1  0.8017648E-006  0.1456280E+03  0.7818608E-02  0.1206635E+00
          2   -1    0    0  502    0  0.00000000000E+00  0.00000000000E+00  0.18949755173E+03  0.18949755173E+03  0.00000000000E+00 0.  1.
          1   -1    0    0  501    0 -0.00000000000E+00 -0.00000000000E+00 -0.23488268422E+03  0.23488268422E+03  0.00000000000E+00 0.  1.
          2    1    1    2  501    0 -0.10511987970E+02 -0.10755069882E+03  0.70056685955E+02  0.12878506884E+03  0.00000000000E+00 0.  1.
          1    1    1    2  502    0  0.14473133652E+02  0.11517900010E+03 -0.11842159718E+03  0.16582927468E+03  0.00000000000E+00 0.  1.
         22    1    1    2    0    0 -0.18161714598E+00 -0.27612805944E+02  0.61713894707E+02  0.67609946286E+02  0.00000000000E+00 0.  1.
         22    1    1    2    0    0 -0.37795285353E+01  0.19984504665E+02 -0.58734115969E+02  0.62155946146E+02  0.00000000000E+00 0. -1.
</event>
<event>
 6    1  0.8017648E-006  0.2125207E+03  0.7818608E-02  0.1234987E+00
          2   -1    0    0  502    0  0.00000000000E+00  0.00000000000E+00  0.34808058859E+03  0.34808058859E+03  0.00000000000E+00 0. -1.
          1   -1    0    0  501    0 -0.00000000000E+00 -0.00000000000E+00 -0.29571482541E+03  0.29571482541E+03  0.00000000000E+00 0. -1.
          2    1    1    2  501    0  0.12703061721E+03  0.66845609067E+02 -0.33465328349E+02  0.14739417004E+03  0.00000000000E+00 0. -1.
          1    1    1    2  502    0 -0.18596208912E+03 -0.72113104461E+02  0.22617646241E+03  0.30155926544E+03  0.00000000000E+00 0. -1.
         22    1    1    2    0    0  0.65808176111E+02 -0.19265075309E+02 -0.19427587610E+02  0.71269140096E+02  0.00000000000E+00 0. -1.
         22    1    1    2    0    0 -0.68767042053E+01  0.24532570703E+02 -0.12091778327E+03  0.12357283842E+03  0.00000000000E+00 0. -1.
</event>
<event>
 6    1  0.8017648E-006  0.4313341E+02  0.7818608E-02  0.1520831E+00
          2   -1    0    0  502    0  0.00000000000E+00  0.00000000000E+00  0.24484164492E+02  0.24484164492E+02  0.00000000000E+00 0. -1.
          1   -1    0    0  501    0 -0.00000000000E+00 -0.00000000000E+00 -0.48045488101E+03  0.48045488101E+03  0.00000000000E+00 0. -1.
          2    1    1    2  501    0  0.53515322357E+01  0.33237980646E+02 -0.14677469034E+02  0.36726425798E+02  0.00000000000E+00 0. -1.
          1    1    1    2  502    0 -0.22392355085E+02  0.78142974827E+01 -0.87750717874E+02  0.90899226062E+02  0.00000000000E+00 0. -1.
         22    1    1    2    0    0  0.19463903102E+02 -0.61295991711E+02 -0.35091150804E+03  0.35675611921E+03  0.00000000000E+00 0. -1.
         22    1    1    2    0    0 -0.24230802533E+01  0.20243713582E+02 -0.26310215766E+01  0.20557274431E+02  0.00000000000E+00 0. -1.
</event>
<event>
 6    1  0.8017648E-006  0.6481278E+02  0.7818608E-02  0.1412763E+00
          2   -1    0    0  502    0  0.00000000000E+00  0.00000000000E+00  0.24686831888E+03  0.24686831888E+03  0.00000000000E+00 0. -1.
          1   -1    0    0  501    0 -0.00000000000E+00 -0.00000000000E+00 -0.91266293681E+02  0.91266293681E+02  0.00000000000E+00 0. -1.
          2    1    1    2  501    0 -0.46434948148E+02  0.17865559383E+02  0.13181095811E+03  0.14088829369E+03  0.00000000000E+00 0. -1.
          1    1    1    2  502    0  0.61335612539E+02  0.96018732734E+01  0.12228257960E+02  0.63275458344E+02  0.00000000000E+00 0. -1.
         22    1    1    2    0    0 -0.23252952831E+01 -0.37574822828E+02 -0.54348424228E+02  0.66113731742E+02  0.00000000000E+00 0. -1.
         22    1    1    2    0    0 -0.12575369108E+02  0.10107390172E+02  0.65911233363E+02  0.67857128791E+02  0.00000000000E+00 0.  1.
</event>
<event>
 6    1  0.8017648E-006  0.6833188E+02  0.7818608E-02  0.1386436E+00
          2   -1    0    0  502    0  0.00000000000E+00  0.00000000000E+00  0.39440116439E+03  0.39440116439E+03  0.00000000000E+00 0.  1.
          1   -1    0    0  501    0 -0.00000000000E+00 -0.00000000000E+00 -0.11679433692E+03  0.11679433692E+03  0.00000000000E+00 0. -1.
          2    1    1    2  501    0 -0.10558005440E+03 -0.42709078188E+02  0.15810173028E+03  0.19485217567E+03  0.00000000000E+00 0.  1.
          1    1    1    2  502    0  0.10587835931E+03  0.91343576185E+02  0.47254774116E+01  0.13991499568E+03  0.00000000000E+00 0. -1.
         22    1    1    2    0    0  0.18081513598E+02 -0.30751762008E+02 -0.18858773618E+02  0.40351770010E+02  0.00000000000E+00 0. -1.
         22    1    1    2    0    0 -0.18379818506E+02 -0.17882735989E+02  0.13363839340E+03  0.13607655994E+03  0.00000000000E+00 0.  1.
</event>
<event>
 6    1  0.8017648E-006  0.2804405E+03  0.7818608E-02  0.1180569E+00
          2   -1    0    0  502    0  0.00000000000E+00  0.00000000000E+00  0.73872386997E+03  0.73872386997E+03  0.00000000000E+00 0. -1.
          1   -1    0    0  501    0 -0.00000000000E+00 -0.00000000000E+00 -0.16597654965E+03  0.16597654965E+03  0.00000000000E+00 0. -1.
          2    1    1    2  501    0  0.19394142919E+03  0.14448947090E+03  0.35501964110E+03  0.42956888938E+03  0.00000000000E+00 0. -1.
          1    1    1    2  502    0 -0.19709094001E+03 -0.19924110999E+03  0.16844289030E+03  0.32697838741E+03  0.00000000000E+00 0. -1.
         22    1    1    2    0    0 -0.18219213336E+02  0.30605977584E+02 -0.39801223290E+02  0.53411637064E+02  0.00000000000E+00 0.  1.
         22    1    1    2    0    0  0.21368724159E+02  0.24145661502E+02  0.89086012213E+02  0.94741505759E+02  0.00000000000E+00 0.  1.
</event>
<event>
 6    1  0.8017648E-006  0.2022186E+03  0.7818608E-02  0.1190356E+00
          2   -1    0    0  502    0  0.00000000000E+00  0.00000000000E+00  0.12186485618E+03  0.12186485618E+03  0.00000000000E+00 0.  1.
          1   -1    0    0  501    0 -0.00000000000E+00 -0.00000000000E+00 -0.94496384893E+03  0.94496384893E+03  0.00000000000E+00 0.  1.
          2    1    1    2  501    0  0.92603685181E+02 -0.13942230672E+03 -0.45864069455E+02  0.17354404336E+03  0.00000000000E+00 0.  1.
          1    1    1    2  502    0 -0.54888742090E+02  0.18463239386E+03 -0.72065018053E+03  0.74594810648E+03  0.00000000000E+00 0.  1.
         22    1    1    2    0    0 -0.46884110000E+02 -0.60321239087E+02  0.11262746721E+02  0.77224485231E+02  0.00000000000E+00 0. -1.
         22    1    1    2    0    0  0.91691669090E+01  0.15111151943E+02 -0.67847489486E+02  0.70112070034E+02  0.00000000000E+00 0.  1.
</event>
<event>
 6    1  0.8017648E-006  0.9224842E+02  0.7818608E-02  0.1301906E+00
          2   -1    0    0  502    0  0.00000000000E+00  0.00000000000E+00  0.34719608674E+03  0.34719608674E+03  0.00000000000E+00 0. -1.
          1   -1    0    0  501    0 -0.00000000000E+00 -0.00000000000E+00 -0.15197074616E+03  0.15197074616E+03  0.00000000000E+00 0. -1.
          2    1    1    2  501    0  0.58337776719E+02 -0.21699916608E+02  0.25779186158E+03  0.26519959741E+03  0.00000000000E+00 0. -1.
          1    1    1    2  502    0 -0.46306298935E+02  0.31760191952E+02 -0.90427803874E+02  0.10644327516E+03  0.00000000000E+00 0. -1.
         22    1    1    2    0    0 -0.34209835238E+02 -0.90728574341E+01 -0.41589877709E+02  0.54610873431E+02  0.00000000000E+00 0. -1.
         22    1    1    2    0    0  0.22178357454E+02 -0.98741790938E+00  0.69451160588E+02  0.72913086895E+02  0.00000000000E+00 0. -1.
</event>
<event>
 6    1  0.8017648E-006  0.1078070E+03  0.7818608E-02  0.1370688E+00
          2   -1    0    0  502    0  0.00000000000E+00  0.00000000000E+00  0.61049613714E+03  0.61049613714E+03  0.00000000000E+00 0. -1.
          1   -1    0    0  501    0 -0.00000000000E+00 -0.00000000000E+00 -0.80115516532E+02  0.80115516532E+02  0.00000000000E+00 0. -1.
          2    1    1    2  501    0 -0.61557655218E+02  0.56051007364E+02  0.40485732963E+03  0.41332858321E+03  0.00000000000E+00 0. -1.
          1    1    1    2  502    0  0.64605706831E+02 -0.90394097799E+02  0.96460991536E+02  0.14713841497E+03  0.00000000000E+00 0. -1.
         22    1    1    2    0    0  0.71973267148E+01  0.14356898006E+02 -0.47612559180E+02  0.50248162393E+02  0.00000000000E+00 0. -1.
         22    1    1    2    0    0 -0.10245378327E+02  0.19986192428E+02  0.76674858615E+02  0.79896493093E+02  0.00000000000E+00 0.  1.
</event>
<event>
 6    1  0.8017648E-006  0.3406122E+02  0.7818608E-02  0.1565202E+00
          2   -1    0    0  502    0  0.00000000000E+00  0.00000000000E+00  0.42331415763E+02  0.42331415763E+02  0.00000000000E+00 0.  1.
          1   -1    0    0  501    0 -0.00000000000E+00 -0.00000000000E+00 -0.20188589272E+04  0.20188589272E+04  0.00000000000E+00 0. -1.
          2    1    1    2  501    0  0.19669983663E+02  0.20989535418E+02  0.80859527966E+00  0.28777120786E+02  0.00000000000E+00 0.  1.
          1    1    1    2  502    0 -0.22501084236E+02 -0.24756645013E+02 -0.18596212855E+04  0.18599221800E+04  0.00000000000E+00 0. -1.
         22    1    1    2    0    0  0.97067172425E+01 -0.20884387116E+02 -0.13795389008E+03  0.13986298213E+03  0.00000000000E+00 0. -1.
         22    1    1    2    0    0 -0.68756166702E+01  0.24651496711E+02  0.20239068836E+02  0.32628060041E+02  0.00000000000E+00 0.  1.
</event>
<event>
 6    1  0.8017648E-006  0.2648920E+02  0.7818608E-02  0.1655374E+00
          2   -1    0    0  502    0  0.00000000000E+00  0.00000000000E+00  0.83535928180E+02  0.83535928180E+02  0.00000000000E+00 0.  1.
          1   -1    0    0  501    0 -0.00000000000E+00 -0.00000000000E+00 -0.52355144065E+03  0.52355144065E+03  0.00000000000E+00 0. -1.
          2    1    1    2  501    0  0.33715917329E+02 -0.38330544563E+01  0.10631166685E+02  0.35559486679E+02  0.00000000000E+00 0.  1.
          1    1    1    2  502    0  0.65127097641E+00 -0.21983774594E+02 -0.43324309473E+03  0.43380097928E+03  0.00000000000E+00 0. -1.
         22    1    1    2    0    0 -0.21602239621E+02  0.34006710355E+01 -0.73124583128E+02  0.76324478234E+02  0.00000000000E+00 0. -1.
         22    1    1    2    0    0 -0.12764948684E+02  0.22416158015E+02  0.55720998698E+02  0.61402424634E+02  0.00000000000E+00 0. -1.
</event>
<event>
 6    1  0.8017648E-006  0.5212462E+02  0.7818608E-02  0.1535902E+00
          2   -1    0    0  502    0  0.00000000000E+00  0.00000000000E+00  0.14868464192E+03  0.14868464192E+03  0.00000000000E+00 0. -1.
          1   -1    0    0  501    0 -0.00000000000E+00 -0.00000000000E+00 -0.12603569872E+03  0.12603569872E+03  0.00000000000E+00 0.  1.
          2    1    1    2  501    0  0.20212800670E+02  0.18039176650E+02  0.54660712470E+02  0.61006251261E+02  0.00000000000E+00 0. -1.
          1    1    1    2  502    0 -0.36780567076E+02 -0.49331804716E+02 -0.54162955767E+02  0.81975989463E+02  0.00000000000E+00 0.  1.
         22    1    1    2    0    0  0.12208177128E+02  0.19583295741E+02  0.74461908116E+02  0.77955890227E+02  0.00000000000E+00 0. -1.
         22    1    1    2    0    0  0.43595892780E+01  0.11709332325E+02 -0.52310721619E+02  0.53782209684E+02  0.00000000000E+00 0.  1.
</event>
<event>
 6    1  0.8017648E-006  0.3038538E+02  0.7818608E-02  0.1629071E+00
          2   -1    0    0  502    0  0.00000000000E+00  0.00000000000E+00  0.30964667571E+03  0.30964667571E+03  0.00000000000E+00 0. -1.
          1   -1    0    0  501    0 -0.00000000000E+00 -0.00000000000E+00 -0.10781473459E+03  0.10781473459E+03  0.00000000000E+00 0.  1.
          2    1    1    2  501    0 -0.27655122452E+02  0.33240748334E+02  0.23560997910E+03  0.23954501748E+03  0.00000000000E+00 0. -1.
          1    1    1    2  502    0  0.90668533799E+01 -0.46536506746E+02 -0.23692129848E+02  0.53001616080E+02  0.00000000000E+00 0.  1.
         22    1    1    2    0    0  0.72375846760E+01  0.16147870822E+02  0.55520673531E+02  0.58272476808E+02  0.00000000000E+00 0. -1.
         22    1    1    2    0    0  0.11350684396E+02 -0.28521124099E+01 -0.65606581667E+02  0.66642299926E+02  0.00000000000E+00 0.  1.
</event>
<event>
 6    1  0.8017648E-006  0.1050965E+03  0.7818608E-02  0.1319616E+00
          2   -1    0    0  502    0  0.00000000000E+00  0.00000000000E+00  0.60006359896E+03  0.60006359896E+03  0.00000000000E+00 0.  1.
          1   -1    0    0  501    0 -0.00000000000E+00 -0.00000000000E+00 -0.12049769123E+03  0.12049769123E+03  0.00000000000E+00 0. -1.
          2    1    1    2  501    0 -0.16372906758E+02  0.30036945118E+02  0.16024504545E+03  0.16385592678E+03  0.00000000000E+00 0.  1.
          1    1    1    2  502    0  0.47421911568E+01  0.67627848383E+02 -0.93426983246E+02  0.11543229813E+03  0.00000000000E+00 0. -1.
         22    1    1    2    0    0  0.29581428173E+02 -0.29416648965E+02  0.28321804189E+02  0.50423454082E+02  0.00000000000E+00 0. -1.
         22    1    1    2    0    0 -0.17950712572E+02 -0.68248144537E+02  0.38442604134E+03  0.39084961120E+03  0.00000000000E+00 0.  1.
</event>
<event>
 6    1  0.8017648E-006  0.5896864E+02  0.7818608E-02  0.1439612E+00
          2   -1    0    0  502    0  0.00000000000E+00  0.00000000000E+00  0.13349417725E+04  0.13349417725E+04  0.00000000000E+00 0. -1.
          1   -1    0    0  501    0 -0.00000000000E+00 -0.00000000000E+00 -0.21281378394E+02  0.21281378394E+02  0.00000000000E+00 0. -1.
          2    1    1    2  501    0 -0.50066889597E+02 -0.43850726842E+02  0.17795329272E+03  0.18999198422E+03  0.00000000000E+00 0. -1.
          1    1    1    2  502    0  0.12165646142E+02  0.27794982590E+02  0.84430095861E+03  0.84484594614E+03  0.00000000000E+00 0. -1.
         22    1    1    2    0    0  0.59394306493E+02  0.51472744727E+02  0.10928693450E+03  0.13461337655E+03  0.00000000000E+00 0. -1.
         22    1    1    2    0    0 -0.21493063038E+02 -0.35417000475E+02  0.18211920831E+03  0.18677184401E+03  0.00000000000E+00 0.  1.
</event>
<event>
 6    1  0.8017648E-006  0.5456810E+02  0.7818608E-02  0.1437912E+00
          2   -1    0    0  502    0  0.00000000000E+00  0.00000000000E+00  0.16809543764E+03  0.16809543764E+03  0.00000000000E+00 0. -1.
          1   -1    0    0  501    0 -0.00000000000E+00 -0.00000000000E+00 -0.12691767964E+03  0.12691767964E+03  0.00000000000E+00 0. -1.
          2    1    1    2  501    0  0.23851407370E+01 -0.60113417632E+02  0.91357711302E+01  0.60850424731E+02  0.00000000000E+00 0. -1.
          1    1    1    2  502    0 -0.37317399482E+02  0.87984373403E+02 -0.48172719793E+01  0.95692446810E+02  0.00000000000E+00 0. -1.
         22    1    1    2    0    0 -0.52858884438E+01 -0.30822257266E+02  0.76055431443E+02  0.82233696327E+02  0.00000000000E+00 0. -1.
         22    1    1    2    0    0  0.40218147188E+02  0.29513014956E+01 -0.39196172598E+02  0.56236549415E+02  0.00000000000E+00 0. -1.
</event>
<event>
 6    1  0.8017648E-006  0.1863953E+03  0.7818608E-02  0.1217078E+00
          2   -1    0    0  502    0  0.00000000000E+00  0.00000000000E+00  0.95166024196E+02  0.95166024196E+02  0.00000000000E+00 0. -1.
          1   -1    0    0  501    0 -0.00000000000E+00 -0.00000000000E+00 -0.50098474357E+03  0.50098474357E+03  0.00000000000E+00 0. -1.
          2    1    1    2  501    0  0.84472563968E+01  0.68836520355E+02 -0.64831734909E+02  0.94936697470E+02  0.00000000000E+00 0. -1.
          1    1    1    2  502    0 -0.46453089912E+02 -0.17410320277E+03 -0.90818413427E+02  0.20178651836E+03  0.00000000000E+00 0. -1.
         22    1    1    2    0    0  0.81838974256E+02  0.72385169413E+02 -0.15553406273E+03  0.19007386755E+03  0.00000000000E+00 0. -1.
         22    1    1    2    0    0 -0.43833140741E+02  0.32881512998E+02 -0.94634508313E+02  0.10935368438E+03  0.00000000000E+00 0.  1.
</event>
<event>
 6    1  0.8017648E-006  0.7443310E+02  0.7818608E-02  0.1351474E+00
          2   -1    0    0  502    0  0.00000000000E+00  0.00000000000E+00  0.11228053802E+03  0.11228053802E+03  0.00000000000E+00 0. -1.
          1   -1    0    0  501    0 -0.00000000000E+00 -0.00000000000E+00 -0.36241221058E+03  0.36241221058E+03  0.00000000000E+00 0. -1.
          2    1    1    2  501    0 -0.18709269869E+02  0.13739842195E+02  0.39999126921E+02  0.46246623628E+02  0.00000000000E+00 0. -1.
          1    1    1    2  502    0  0.56404662067E+02  0.62630790330E+01 -0.28701368660E+03  0.29257062115E+03  0.00000000000E+00 0. -1.
         22    1    1    2    0    0 -0.47560476534E+02 -0.16234826034E+02  0.56334849147E+02  0.75492938299E+02  0.00000000000E+00 0. -1.
         22    1    1    2    0    0  0.98650843369E+01 -0.37680951943E+01 -0.59451962026E+02  0.60382565523E+02  0.00000000000E+00 0. -1.
</event>
<event>
 6    1  0.8017648E-006  0.1285479E+03  0.7818608E-02  0.1301276E+00
          2   -1    0    0  502    0  0.00000000000E+00  0.00000000000E+00  0.12626712851E+04  0.12626712851E+04  0.00000000000E+00 0.  1.
          1   -1    0    0  501    0 -0.00000000000E+00 -0.00000000000E+00 -0.40094434147E+02  0.40094434147E+02  0.00000000000E+00 0.  1.
          2    1    1    2  501    0 -0.14977927771E+02  0.12115897456E+03  0.43574798874E+03  0.45252640269E+03  0.00000000000E+00 0.  1.
          1    1    1    2  502    0 -0.90894295128E+01 -0.11198864314E+03  0.67319373731E+03  0.68250559109E+03  0.00000000000E+00 0.  1.
         22    1    1    2    0    0  0.11561524431E+02  0.20061334804E+02  0.12995071615E+03  0.13199740387E+03  0.00000000000E+00 0.  1.
         22    1    1    2    0    0  0.12505832853E+02 -0.29231666225E+02 -0.16315591224E+02  0.35736321616E+02  0.00000000000E+00 0.  1.
</event>
<event>
 6    1  0.8017648E-006  0.9491898E+02  0.7818608E-02  0.1300040E+00
          2   -1    0    0  502    0  0.00000000000E+00  0.00000000000E+00  0.48970521769E+02  0.48970521769E+02  0.00000000000E+00 0.  1.
          1   -1    0    0  501    0 -0.00000000000E+00 -0.00000000000E+00 -0.44156609132E+03  0.44156609132E+03  0.00000000000E+00 0.  1.
          2    1    1    2  501    0  0.52994786927E+02 -0.60609176987E+02 -0.11519017806E+03  0.14053717266E+03  0.00000000000E+00 0.  1.
          1    1    1    2  502    0 -0.69055886644E+02 -0.62567531609E-01 -0.67364000964E+02  0.96470866176E+02  0.00000000000E+00 0.  1.
         22    1    1    2    0    0  0.39005963231E+02 -0.16794268281E+02 -0.19829087676E+02  0.46869023168E+02  0.00000000000E+00 0.  1.
         22    1    1    2    0    0 -0.22944863514E+02  0.77466012799E+02 -0.19021230285E+03  0.20665955108E+03  0.00000000000E+00 0.  1.
</event>
<event>
 6    1  0.8017648E-006  0.3587616E+02  0.7818608E-02  0.1561232E+00
          2   -1    0    0  502    0  0.00000000000E+00  0.00000000000E+00  0.35684417538E+03  0.35684417538E+03  0.00000000000E+00 0. -1.
          1   -1    0    0  501    0 -0.00000000000E+00 -0.00000000000E+00 -0.75356756529E+02  0.75356756529E+02  0.00000000000E+00 0. -1.
          2    1    1    2  501    0  0.23079615803E+02 -0.13193806735E+02  0.18034267195E+03  0.18229159204E+03  0.00000000000E+00 0. -1.
          1    1    1    2  502    0 -0.34664265353E+02 -0.76394456733E+01  0.11921453400E+03  0.12438680613E+03  0.00000000000E+00 0. -1.
         22    1    1    2    0    0  0.17170823920E+01  0.27606189461E+02 -0.68404234957E+02  0.73784750650E+02  0.00000000000E+00 0. -1.
         22    1    1    2    0    0  0.98675671576E+01 -0.67729370526E+01  0.50334447853E+02  0.51737783085E+02  0.00000000000E+00 0. -1.
</event>
<event>
 6    1  0.8017648E-006  0.3821222E+02  0.7818608E-02  0.1533391E+00
          2   -1    0    0  502    0  0.00000000000E+00  0.00000000000E+00  0.21186357118E+03  0.21186357118E+03  0.00000000000E+00 0. -1.
          1   -1    0    0  501    0 -0.00000000000E+00 -0.00000000000E+00 -0.96710025958E+02  0.96710025958E+02  0.00000000000E+00 0. -1.
          2    1    1    2  501    0 -0.55138433678E+02  0.35170742540E+02  0.79236686762E+02  0.10274084158E+03  0.00000000000E+00 0. -1.
          1    1    1    2  502    0  0.42808563955E+02 -0.53419199581E+02 -0.84962270794E+01  0.68980938717E+02  0.00000000000E+00 0. -1.
         22    1    1    2    0    0 -0.49103523230E+01  0.19688644629E+02  0.87815001416E+02  0.90128956284E+02  0.00000000000E+00 0. -1.
         22    1    1    2    0    0  0.17240222046E+02 -0.14401875875E+01 -0.43401915879E+02  0.46722860555E+02  0.00000000000E+00 0. -1.
</event>
<event>
 6    1  0.8017648E-006  0.7905001E+02  0.7818608E-02  0.1417694E+00
          2   -1    0    0  502    0  0.00000000000E+00  0.00000000000E+00  0.51835071551E+03  0.51835071551E+03  0.00000000000E+00 0.  1.
          1   -1    0    0  501    0 -0.00000000000E+00 -0.00000000000E+00 -0.41113346418E+02  0.41113346418E+02  0.00000000000E+00 0.  1.
          2    1    1    2  501    0  0.14988657243E+02 -0.21058121343E+02  0.19814090176E+03  0.19981972192E+03  0.00000000000E+00 0.  1.
          1    1    1    2  502    0 -0.26798067415E+02  0.75164920504E+02  0.50569440109E+02  0.94473117682E+02  0.00000000000E+00 0.  1.
         22    1    1    2    0    0 -0.15674298789E+02 -0.11129358929E+02 -0.97078082412E+01  0.21535733411E+02  0.00000000000E+00 0. -1.
         22    1    1    2    0    0  0.27483708961E+02 -0.42977440233E+02  0.23823483546E+03  0.24363548891E+03  0.00000000000E+00 0.  1.
</event>
<event>
 6    1  0.8017648E-006  0.6798790E+02  0.7818608E-02  0.1390840E+00
          2   -1    0    0  502    0  0.00000000000E+00  0.00000000000E+00  0.65275524137E+03  0.65275524137E+03  0.00000000000E+00 0. -1.
          1   -1    0    0  501    0 -0.00000000000E+00 -0.00000000000E+00 -0.20811683474E+02  0.20811683474E+02  0.00000000000E+00 0. -1.
          2    1    1    2  501    0 -0.29228851215E+02  0.12012273436E+02  0.11308540112E+03  0.11741775165E+03  0.00000000000E+00 0. -1.
          1    1    1    2  502    0  0.24480050424E+02 -0.89220054144E+01  0.32022811475E+03  0.32128635285E+03  0.00000000000E+00 0. -1.
         22    1    1    2    0    0  0.31678085137E+02  0.34338896309E+02  0.17856637561E+03  0.18457684409E+03  0.00000000000E+00 0. -1.
         22    1    1    2    0    0 -0.26929284346E+02 -0.37429164330E+02  0.20063666423E+02  0.50285976257E+02  0.00000000000E+00 0. -1.
</event>
<event>
 6    1  0.8017648E-006  0.9323845E+02  0.7818608E-02  0.1298104E+00
          2   -1    0    0  502    0  0.00000000000E+00  0.00000000000E+00  0.52666579447E+03  0.52666579447E+03  0.00000000000E+00 0.  1.
          1   -1    0    0  501    0 -0.00000000000E+00 -0.00000000000E+00 -0.19125632621E+03  0.19125632621E+03  0.00000000000E+00 0. -1.
          2    1    1    2  501    0  0.54685980009E+02  0.53237749738E+00  0.37776305608E+03  0.38170114799E+03  0.00000000000E+00 0.  1.
          1    1    1    2  502    0 -0.76382705681E+02  0.94451733228E+01 -0.14871530132E+03  0.16745079837E+03  0.00000000000E+00 0. -1.
         22    1    1    2    0    0 -0.10008867296E+02  0.47988916046E+01 -0.27899793021E+02  0.30026742011E+02  0.00000000000E+00 0. -1.
         22    1    1    2    0    0  0.31705592969E+02 -0.14776442425E+02  0.13426150652E+03  0.13874343231E+03  0.00000000000E+00 0.  1.
</event>
<event>
 6    1  0.8017648E-006  0.2748117E+03  0.7818608E-02  0.1184628E+00
          2   -1    0    0  502    0  0.00000000000E+00  0.00000000000E+00  0.70173037303E+03  0.70173037303E+03  0.00000000000E+00 0. -1.
          1   -1    0    0  501    0 -0.00000000000E+00 -0.00000000000E+00 -0.23285314080E+03  0.23285314080E+03  0.00000000000E+00 0.  1.
          2    1    1    2  501    0  0.70149424797E+02  0.24047138146E+03  0.48272187870E+03  0.54384541855E+03  0.00000000000E+00 0. -1.
          1    1    1    2  502    0 -0.85170269211E+02 -0.24259533747E+03 -0.30683955363E+02  0.25893624241E+03  0.00000000000E+00 0.  1.
         22    1    1    2    0    0 -0.12744133089E+02  0.22711431584E+02  0.66430755244E+02  0.71353116926E+02  0.00000000000E+00 0. -1.
         22    1    1    2    0    0  0.27764977503E+02 -0.20587475575E+02 -0.49591446346E+02  0.60448735942E+02  0.00000000000E+00 0.  1.
</event>
<event>
 6    1  0.8017648E-006  0.1600777E+03  0.7818608E-02  0.1188877E+00
          2   -1    0    0  502    0  0.00000000000E+00  0.00000000000E+00  0.63290630846E+02  0.63290630846E+02  0.00000000000E+00 0.  1.
          1   -1    0    0  501    0 -0.00000000000E+00 -0.00000000000E+00 -0.50293495980E+03  0.50293495980E+03  0.00000000000E+00 0. -1.
          2    1    1    2  501    0 -0.49012968469E+02  0.46839421456E+01 -0.44737264163E+02  0.66525432708E+02  0.00000000000E+00 0.  1.
          1    1    1    2  502    0  0.13147300931E+03  0.27867562859E+02 -0.27601160137E+03  0.30699211281E+03  0.00000000000E+00 0. -1.
         22    1    1    2    0    0  0.22732653326E+02 -0.62631794680E+01 -0.69814646078E+02  0.73689115555E+02  0.00000000000E+00 0. -1.
         22    1    1    2    0    0 -0.10519269417E+03 -0.26288325536E+02 -0.49080817346E+02  0.11901892958E+03  0.00000000000E+00 0.  1.
</event>
<event>
 6    1  0.8017648E-006  0.7229450E+02  0.7818608E-02  0.1455885E+00
          2   -1    0    0  502    0  0.00000000000E+00  0.00000000000E+00  0.45603145604E+03  0.45603145604E+03  0.00000000000E+00 0.  1.
          1   -1    0    0  501    0 -0.00000000000E+00 -0.00000000000E+00 -0.98350057421E+02  0.98350057421E+02  0.00000000000E+00 0. -1.
          2    1    1    2  501    0  0.13550721224E+02  0.50950374881E+02  0.31411785672E+03  0.31851152358E+03  0.00000000000E+00 0.  1.
          1    1    1    2  502    0 -0.40015923510E+02 -0.70759447749E+02 -0.25619795793E+02  0.85232314978E+02  0.00000000000E+00 0. -1.
         22    1    1    2    0    0  0.15572899415E+02  0.10756644795E+02  0.10782955257E+03  0.10947800241E+03  0.00000000000E+00 0.  1.
         22    1    1    2    0    0  0.10892302871E+02  0.90524280726E+01 -0.38646214874E+02  0.41159672496E+02  0.00000000000E+00 0. -1.
</event>
<event>
 6    1  0.8017648E-006  0.4333580E+02  0.7818608E-02  0.1513242E+00
          2   -1    0    0  502    0  0.00000000000E+00  0.00000000000E+00  0.84284734417E+02  0.84284734417E+02  0.00000000000E+00 0.  1.
          1   -1    0    0  501    0 -0.00000000000E+00 -0.00000000000E+00 -0.28948483932E+03  0.28948483932E+03  0.00000000000E+00 0. -1.
          2    1    1    2  501    0  0.29040598185E+02  0.71138901095E+01  0.39790061415E+02  0.49771605990E+02  0.00000000000E+00 0.  1.
          1    1    1    2  502    0 -0.10450096210E+02 -0.23133469655E+02 -0.17485285319E+03  0.17668582908E+03  0.00000000000E+00 0. -1.
         22    1    1    2    0    0 -0.28042047572E+02  0.87784292374E+01 -0.10575278437E+03  0.10975913927E+03  0.00000000000E+00 0.  1.
         22    1    1    2    0    0  0.94515455960E+01  0.72411503081E+01  0.35615471240E+02  0.37552999396E+02  0.00000000000E+00 0.  1.
</event>
<event>
 6    1  0.8017648E-006  0.6565253E+03  0.7818608E-02  0.1045112E+00
          2   -1    0    0  502    0  0.00000000000E+00  0.00000000000E+00  0.59896023228E+03  0.59896023228E+03  0.00000000000E+00 0.  1.
          1   -1    0    0  501    0 -0.00000000000E+00 -0.00000000000E+00 -0.12471063974E+04  0.12471063974E+04  0.00000000000E+00 0. -1.
          2    1    1    2  501    0  0.19662755222E+03 -0.19689469595E+03  0.35875432397E+02  0.28056543307E+03  0.00000000000E+00 0.  1.
          1    1    1    2  502    0 -0.32614409392E+03  0.61627848236E+03 -0.83229710716E+03  0.10857659105E+04  0.00000000000E+00 0. -1.
         22    1    1    2    0    0  0.89284552892E+02 -0.34218265712E+03  0.16637022531E+03  0.39081933689E+03  0.00000000000E+00 0.  1.
         22    1    1    2    0    0  0.40231988806E+02 -0.77201129297E+02 -0.18094715649E+02  0.88915949201E+02  0.00000000000E+00 0.  1.
</event>
<event>
 6    1  0.8017648E-006  0.2671033E+02  0.7818608E-02  0.1673124E+00
          2   -1    0    0  502    0  0.00000000000E+00  0.00000000000E+00  0.34050125475E+03  0.34050125475E+03  0.00000000000E+00 0.  1.
          1   -1    0    0  501    0 -0.00000000000E+00 -0.00000000000E+00 -0.55783666394E+02  0.55783666394E+02  0.00000000000E+00 0. -1.
          2    1    1    2  501    0  0.31426820839E+02  0.13285916426E+02  0.13352592810E+03  0.13781630570E+03  0.00000000000E+00 0.  1.
          1    1    1    2  502    0 -0.28318894922E+02  0.19104130806E+02  0.11893894542E+03  0.12374732466E+03  0.00000000000E+00 0. -1.
         22    1    1    2    0    0 -0.10863367710E+02 -0.11863579838E+02 -0.48469923606E+02  0.51069470126E+02  0.00000000000E+00 0. -1.
         22    1    1    2    0    0  0.77554417935E+01 -0.20526467395E+02  0.80722638443E+02  0.83651820651E+02  0.00000000000E+00 0.  1.
</event>
<event>
 6    1  0.8017648E-006  0.1019261E+03  0.7818608E-02  0.1313525E+00
          2   -1    0    0  502    0  0.00000000000E+00  0.00000000000E+00  0.10891225858E+04  0.10891225858E+04  0.00000000000E+00 0.  1.
          1   -1    0    0  501    0 -0.00000000000E+00 -0.00000000000E+00 -0.17907029423E+02  0.17907029423E+02  0.00000000000E+00 0.  1.
          2    1    1    2  501    0  0.27114154503E+02 -0.53646504918E+01  0.49421884299E+02  0.56625784736E+02  0.00000000000E+00 0.  1.
          1    1    1    2  502    0 -0.67262292669E+02  0.44716808847E+02  0.62600914152E+03  0.63119826859E+03  0.00000000000E+00 0.  1.
         22    1    1    2    0    0  0.23168040846E+02  0.45457893870E+02  0.12777726934E+03  0.13758709530E+03  0.00000000000E+00 0.  1.
         22    1    1    2    0    0  0.16980097320E+02 -0.84810052225E+02  0.26800726122E+03  0.28161846660E+03  0.00000000000E+00 0.  1.
</event>
<event>
 6    1  0.8017648E-006  0.6704606E+02  0.7818608E-02  0.1464957E+00
          2   -1    0    0  502    0  0.00000000000E+00  0.00000000000E+00  0.10091326423E+03  0.10091326423E+03  0.00000000000E+00 0.  1.
          1   -1    0    0  501    0 -0.00000000000E+00 -0.00000000000E+00 -0.96602096677E+02  0.96602096677E+02  0.00000000000E+00 0. -1.
          2    1    1    2  501    0  0.11751174344E+02 -0.25091686241E+02  0.96705139138E+01  0.29346237514E+02  0.00000000000E+00 0.  1.
          1    1    1    2  502    0 -0.29437034887E+02  0.28104707620E+02 -0.20732350237E+02  0.45675419644E+02  0.00000000000E+00 0. -1.
         22    1    1    2    0    0 -0.15255453780E+02 -0.30877814783E+01 -0.48331638395E+02  0.50776082307E+02  0.00000000000E+00 0.  1.
         22    1    1    2    0    0  0.32941314323E+02  0.74760099537E-01  0.63704642275E+02  0.71717621445E+02  0.00000000000E+00 0.  1.
</event>
<event>
 6    1  0.8017648E-006  0.1522487E+03  0.7818608E-02  0.1303838E+00
          2   -1    0    0  502    0  0.00000000000E+00  0.00000000000E+00  0.72112466165E+02  0.72112466165E+02  0.00000000000E+00 0.  1.
          1   -1    0    0  501    0 -0.00000000000E+00 -0.00000000000E+00 -0.77033355625E+03  0.77033355625E+03  0.00000000000E+00 0.  1.
          2    1    1    2  501    0  0.51688346348E+00  0.13397076281E+03 -0.31931561370E+02  0.13772456959E+03  0.00000000000E+00 0.  1.
          1    1    1    2  502    0 -0.25094727946E+02 -0.76380398289E+02 -0.34008190093E+03  0.34945587698E+03  0.00000000000E+00 0.  1.
         22    1    1    2    0    0  0.42832163534E+02 -0.57957425301E+02 -0.32899525597E+03  0.33679598548E+03  0.00000000000E+00 0.  1.
         22    1    1    2    0    0 -0.18254319052E+02  0.36706078152E+00  0.27876281891E+01  0.18469590374E+02  0.00000000000E+00 0.  1.
</event>
<event>
 6    1  0.8017648E-006  0.6716636E+02  0.7818608E-02  0.1416334E+00
          2   -1    0    0  502    0  0.00000000000E+00  0.00000000000E+00  0.21539956822E+03  0.21539956822E+03  0.00000000000E+00 0. -1.
          1   -1    0    0  501    0 -0.00000000000E+00 -0.00000000000E+00 -0.49938609135E+03  0.49938609135E+03  0.00000000000E+00 0.  1.
          2    1    1    2  501    0  0.14159925840E+03 -0.12301971915E+03  0.89264007179E+02  0.20773123082E+03  0.00000000000E+00 0. -1.
          1    1    1    2  502    0 -0.13234214306E+03  0.14779949276E+03 -0.31036052749E+03  0.36835144891E+03  0.00000000000E+00 0.  1.
         22    1    1    2    0    0 -0.16178762570E+02 -0.16298899496E+02 -0.98658863859E+02  0.10129648514E+03  0.00000000000E+00 0. -1.
         22    1    1    2    0    0  0.69216472211E+01 -0.84808741226E+01  0.35768861038E+02  0.37406494705E+02  0.00000000000E+00 0.  1.
</event>
<event>
 6    1  0.8017648E-006  0.1840745E+03  0.7818608E-02  0.1260798E+00
          2   -1    0    0  502    0  0.00000000000E+00  0.00000000000E+00  0.40669240259E+03  0.40669240259E+03  0.00000000000E+00 0.  1.
          1   -1    0    0  501    0 -0.00000000000E+00 -0.00000000000E+00 -0.56206605328E+02  0.56206605328E+02  0.00000000000E+00 0.  1.
          2    1    1    2  501    0  0.27989111773E+02  0.26375470052E+02 -0.22931853600E+01  0.38526802325E+02  0.00000000000E+00 0.  1.
          1    1    1    2  502    0 -0.55492795341E+02  0.21638777720E+02  0.17737577725E+02  0.62147475407E+02  0.00000000000E+00 0.  1.
         22    1    1    2    0    0 -0.44415917294E+01  0.22943431629E+02  0.60283893867E+01  0.24134420867E+02  0.00000000000E+00 0.  1.
         22    1    1    2    0    0  0.31945275297E+02 -0.70957679401E+02  0.32901301552E+03  0.33809030932E+03  0.00000000000E+00 0.  1.
</event>
<event>
 6    1  0.8017648E-006  0.5017380E+02  0.7818608E-02  0.1446565E+00
          2   -1    0    0  502    0  0.00000000000E+00  0.00000000000E+00  0.20259934316E+03  0.20259934316E+03  0.00000000000E+00 0. -1.
          1   -1    0    0  501    0 -0.00000000000E+00 -0.00000000000E+00 -0.26522814514E+03  0.26522814514E+03  0.00000000000E+00 0.  1.
          2    1    1    2  501    0  0.54070482714E+01  0.24831728709E+02  0.96767525330E+02  0.10004901239E+03  0.00000000000E+00 0. -1.
          1    1    1    2  502    0 -0.18963266935E+02 -0.30955456523E+02 -0.22584081261E+03  0.22873984878E+03  0.00000000000E+00 0.  1.
         22    1    1    2    0    0 -0.14067836985E+01 -0.11444827933E+02 -0.34039107433E+02  0.35939170296E+02  0.00000000000E+00 0.  1.
         22    1    1    2    0    0  0.14963002362E+02  0.17568555746E+02  0.10048359273E+03  0.10309945683E+03  0.00000000000E+00 0.  1.
</event>
<event>
 6    1  0.8017648E-006  0.5754097E+02  0.7818608E-02  0.1420492E+00
          2   -1    0    0  502    0  0.00000000000E+00  0.00000000000E+00  0.57512710582E+03  0.57512710582E+03  0.00000000000E+00 0.  1.
          1   -1    0    0  501    0 -0.00000000000E+00 -0.00000000000E+00 -0.10194003752E+03  0.10194003752E+03  0.00000000000E+00 0. -1.
          2    1    1    2  501    0 -0.10889652062E+03 -0.21142268518E+02  0.44090856343E+03  0.45464910539E+03  0.00000000000E+00 0.  1.
          1    1    1    2  502    0  0.95154269125E+02 -0.29026767788E+01  0.24254534489E+01  0.95229424495E+02  0.00000000000E+00 0. -1.
         22    1    1    2    0    0  0.23873427842E+02 -0.39376547396E+01 -0.42527418778E+02  0.48928795506E+02  0.00000000000E+00 0. -1.
         22    1    1    2    0    0 -0.10131176343E+02  0.27982600036E+02  0.72380470195E+02  0.78259817943E+02  0.00000000000E+00 0. -1.
</event>
<event>
 6    1  0.8017648E-006  0.4022585E+02  0.7818608E-02  0.1540813E+00
          2   -1    0    0  502    0  0.00000000000E+00  0.00000000000E+00  0.92719402152E+02  0.92719402152E+02  0.00000000000E+00 0.  1.
          1   -1    0    0  501    0 -0.00000000000E+00 -0.00000000000E+00 -0.39562753511E+03  0.39562753511E+03  0.00000000000E+00 0.  1.
          2    1    1    2  501    0  0.31268518269E+02  0.76230149943E+01  0.44472568724E+02  0.54896629780E+02  0.00000000000E+00 0.  1.
          1    1    1    2  502    0 -0.37533402820E+02 -0.26241857697E+02 -0.28920170733E+03  0.29280542847E+03  0.00000000000E+00 0.  1.
         22    1    1    2    0    0 -0.72555708703E+01  0.37753350494E+02 -0.91880713781E+02  0.99599319009E+02  0.00000000000E+00 0.  1.
         22    1    1    2    0    0  0.13520455421E+02 -0.19134507791E+02  0.33701719428E+02  0.41045559998E+02  0.00000000000E+00 0.  1.
</event>
<event>
 6    1  0.8017648E-006  0.1349184E+03  0.7818608E-02  0.1348672E+00
          2   -1    0    0  502    0  0.00000000000E+00  0.00000000000E+00  0.83377826219E+03  0.83377826219E+03  0.00000000000E+00 0. -1.
          1   -1    0    0  501    0 -0.00000000000E+00 -0.00000000000E+00 -0.60360392525E+02  0.60360392525E+02  0.00000000000E+00 0.  1.
          2    1    1    2  501    0  0.41665357782E+02 -0.38311789046E+02  0.49749370332E+03  0.50070328545E+03  0.00000000000E+00 0. -1.
          1    1    1    2  502    0 -0.67148131437E+02 -0.34726009980E+02 -0.52386104970E+01  0.75777373697E+02  0.00000000000E+00 0.  1.
         22    1    1    2    0    0  0.31206019255E+02  0.62644973745E+02  0.29279446513E+03  0.30104286602E+03  0.00000000000E+00 0. -1.
         22    1    1    2    0    0 -0.57232456004E+01  0.10392825280E+02 -0.11631688283E+02  0.16615129546E+02  0.00000000000E+00 0.  1.
</event>
<event>
 6    1  0.8017648E-006  0.8644608E+02  0.7818608E-02  0.1366429E+00
          2   -1    0    0  502    0  0.00000000000E+00  0.00000000000E+00  0.11557127819E+04  0.11557127819E+04  0.00000000000E+00 0. -1.
          1   -1    0    0  501    0 -0.00000000000E+00 -0.00000000000E+00 -0.13660615235E+03  0.13660615235E+03  0.00000000000E+00 0. -1.
          2    1    1    2  501    0  0.44342666723E+02  0.14452812855E+03  0.11191335603E+03  0.18809373007E+03  0.00000000000E+00 0. -1.
          1    1    1    2  502    0 -0.24786375167E+02 -0.16371236291E+03  0.95641077913E+03  0.97063777002E+03  0.00000000000E+00 0. -1.
         22    1    1    2    0    0  0.75952139695E+01 -0.15065180165E+02  0.34916164811E+02  0.38778673182E+02  0.00000000000E+00 0.  1.
         22    1    1    2    0    0 -0.27151505525E+02  0.34249414525E+02 -0.84133670458E+02  0.94808760947E+02  0.00000000000E+00 0. -1.
</event>
<event>
 6    1  0.8017648E-006  0.1233647E+03  0.7818608E-02  0.1239327E+00
          2   -1    0    0  502    0  0.00000000000E+00  0.00000000000E+00  0.27828909805E+03  0.27828909805E+03  0.00000000000E+00 0.  1.
          1   -1    0    0  501    0 -0.00000000000E+00 -0.00000000000E+00 -0.11257638243E+03  0.11257638243E+03  0.00000000000E+00 0.  1.
          2    1    1    2  501    0  0.92426261744E+02 -0.56797515780E+01  0.14950701731E+03  0.17586137058E+03  0.00000000000E+00 0.  1.
          1    1    1    2  502    0 -0.76206582410E+02 -0.10634284411E+02 -0.24529436338E+02  0.80760290085E+02  0.00000000000E+00 0.  1.
         22    1    1    2    0    0 -0.37943810691E+02  0.22598137618E+02 -0.34272080390E+02  0.55901557115E+02  0.00000000000E+00 0. -1.
         22    1    1    2    0    0  0.21724131357E+02 -0.62841016291E+01  0.75007215046E+02  0.78342262703E+02  0.00000000000E+00 0.  1.
</event>
<event>
 6    1  0.8017648E-006  0.2169744E+03  0.7818608E-02  0.1169726E+00
          2   -1    0    0  502    0  0.00000000000E+00  0.00000000000E+00  0.49785730666E+03  0.49785730666E+03  0.00000000000E+00 0. -1.
          1   -1    0    0  501    0 -0.00000000000E+00 -0.00000000000E+00 -0.28109950399E+03  0.28109950399E+03  0.00000000000E+00 0. -1.
          2    1    1    2  501    0  0.11874453935E+02 -0.18379624642E+03  0.21245809372E+03  0.28117699843E+03  0.00000000000E+00 0. -1.
          1    1    1    2  502    0  0.91452828278E+02  0.19774095420E+03  0.16222957664E+03  0.27163125797E+03  0.00000000000E+00 0. -1.
         22    1    1    2    0    0 -0.62552880550E+01 -0.29667133291E+02  0.96746168616E+01  0.31825550078E+02  0.00000000000E+00 0. -1.
         22    1    1    2    0    0 -0.97071994158E+02  0.15722425513E+02 -0.16760448455E+03  0.19432300418E+03  0.00000000000E+00 0. -1.
</event>
<event>
 6    1  0.8017648E-006  0.9342571E+02  0.7818608E-02  0.1348350E+00
          2   -1    0    0  502    0  0.00000000000E+00  0.00000000000E+00  0.48135125809E+03  0.48135125809E+03  0.00000000000E+00 0. -1.
          1   -1    0    0  501    0 -0.00000000000E+00 -0.00000000000E+00 -0.11017192991E+03  0.11017192991E+03  0.00000000000E+00 0.  1.
          2    1    1    2  501    0 -0.23481063857E+02 -0.38988478394E+02  0.28620682775E+03  0.28980305392E+03  0.00000000000E+00 0. -1.
          1    1    1    2  502    0  0.29344289938E+02  0.48040308520E+02 -0.79443497267E+02  0.97366461643E+02  0.00000000000E+00 0.  1.
         22    1    1    2    0    0  0.30245697768E+02  0.19394627066E+02  0.24750985228E+01  0.36014995560E+02  0.00000000000E+00 0.  1.
         22    1    1    2    0    0 -0.36108923849E+02 -0.28446457192E+02  0.16194089918E+03  0.16833867688E+03  0.00000000000E+00 0. -1.
</event>
<event>
 6    1  0.8017648E-006  0.6121228E+02  0.7818608E-02  0.1514253E+00
          2   -1    0    0  502    0  0.00000000000E+00  0.00000000000E+00  0.28753039854E+03  0.28753039854E+03  0.00000000000E+00 0. -1.
          1   -1    0    0  501    0 -0.00000000000E+00 -0.00000000000E+00 -0.14284634047E+03  0.14284634047E+03  0.00000000000E+00 0. -1.
          2    1    1    2  501    0  0.22251900794E+02 -0.27330524432E+02  0.18698533423E+03  0.19027774403E+03  0.00000000000E+00 0. -1.
          1    1    1    2  502    0 -0.43252046296E+02  0.30187065926E+02 -0.88498322660E+02  0.10302403395E+03  0.00000000000E+00 0. -1.
         22    1    1    2    0    0  0.21383356277E+02 -0.13134719877E+02  0.89301394719E+02  0.92760486688E+02  0.00000000000E+00 0. -1.
         22    1    1    2    0    0 -0.38321077555E+00  0.10278178383E+02 -0.43104348214E+02  0.44314474344E+02  0.00000000000E+00 0. -1.
</event>
<event>
 6    1  0.8017648E-006  0.2648460E+02  0.7818608E-02  0.1652022E+00
          2   -1    0    0  502    0  0.00000000000E+00  0.00000000000E+00  0.37816764327E+03  0.37816764327E+03  0.00000000000E+00 0.  1.
          1   -1    0    0  501    0 -0.00000000000E+00 -0.00000000000E+00 -0.42272159544E+03  0.42272159544E+03  0.00000000000E+00 0.  1.
          2    1    1    2  501    0  0.33225424743E+02 -0.33041916326E+02  0.33500817632E+03  0.33826938272E+03  0.00000000000E+00 0.  1.
          1    1    1    2  502    0 -0.24974913261E+02 -0.35612681451E+00 -0.32408657745E+03  0.32504766236E+03  0.00000000000E+00 0.  1.
         22    1    1    2    0    0 -0.89200265059E+01  0.14304771579E+02 -0.93505536933E+02  0.95013045419E+02  0.00000000000E+00 0.  1.
         22    1    1    2    0    0  0.66951502366E+00  0.19093271561E+02  0.38029985898E+02  0.42559148214E+02  0.00000000000E+00 0.  1.
</event>
<event>
 6    1  0.8017648E-006  0.1101281E+03  0.7818608E-02  0.1395240E+00
          2   -1    0    0  502    0  0.00000000000E+00  0.00000000000E+00  0.98053529639E+03  0.98053529639E+03  0.00000000000E+00 0. -1.
          1   -1    0    0  501    0 -0.00000000000E+00 -0.00000000000E+00 -0.11820272836E+03  0.11820272836E+03  0.00000000000E+00 0. -1.
          2    1    1    2  501    0  0.56086686072E+02 -0.22715902969E+02  0.72118658294E+03  0.72372081358E+03  0.00000000000E+00 0. -1.
          1    1    1    2  502    0 -0.94927784148E+02  0.52112134517E+02 -0.66427225472E+02  0.12704146981E+03  0.00000000000E+00 0. -1.
         22    1    1    2    0    0  0.36842665212E+02 -0.19483988782E+02  0.22445809505E+03  0.22829464346E+03  0.00000000000E+00 0. -1.
         22    1    1    2    0    0  0.19984328643E+01 -0.99122427656E+01 -0.16884884482E+02  0.19681097900E+02  0.00000000000E+00 0.  1.
</event>
<event>
 6    1  0.8017648E-006  0.7677972E+02  0.7818608E-02  0.1385447E+00
          2   -1    0    0  502    0  0.00000000000E+00  0.00000000000E+00  0.12846443415E+03  0.12846443415E+03  0.00000000000E+00 0. -1.
          1   -1    0    0  501    0 -0.00000000000E+00 -0.00000000000E+00 -0.27818147870E+03  0.27818147870E+03  0.00000000000E+00 0. -1.
          2    1    1    2  501    0 -0.34051158398E+02  0.48545772752E+02  0.73028914039E+02  0.94071226877E+02  0.00000000000E+00 0. -1.
          1    1    1    2  502    0  0.42095951124E+02 -0.31800259700E+02 -0.16872402737E+03  0.17677987168E+03  0.00000000000E+00 0. -1.
         22    1    1    2    0    0 -0.39501389019E+01  0.17935234446E+02  0.35353584505E+02  0.39839078420E+02  0.00000000000E+00 0. -1.
         22    1    1    2    0    0 -0.40946538235E+01 -0.34680747498E+02 -0.89375515724E+02  0.95955735878E+02  0.00000000000E+00 0.  1.
</event>
<event>
 6    1  0.8017648E-006  0.2277680E+02  0.7818608E-02  0.1742522E+00
          2   -1    0    0  502    0  0.00000000000E+00  0.00000000000E+00  0.13929915336E+03  0.13929915336E+03  0.00000000000E+00 0. -1.
          1   -1    0    0  501    0 -0.00000000000E+00 -0.00000000000E+00 -0.12308928610E+03  0.12308928610E+03  0.00000000000E+00 0. -1.
          2    1    1    2  501    0  0.15501633370E+02 -0.24039052929E+02  0.82857491397E+02  0.87655807472E+02  0.00000000000E+00 0. -1.
          1    1    1    2  502    0 -0.29226429403E+02  0.15753973462E+02 -0.35616851594E+02  0.48692216759E+02  0.00000000000E+00 0. -1.
         22    1    1    2    0    0  0.81607893413E+01  0.19903629413E+02  0.44495876531E+02  0.49423030812E+02  0.00000000000E+00 0. -1.
         22    1    1    2    0    0  0.55640066913E+01 -0.11618549945E+02 -0.75526649079E+02  0.76617384414E+02  0.00000000000E+00 0. -1.
</event>
<event>
 6    1  0.8017648E-006  0.1630332E+03  0.7818608E-02  0.1306908E+00
          2   -1    0    0  502    0  0.00000000000E+00  0.00000000000E+00  0.17707535770E+03  0.17707535770E+03  0.00000000000E+00 0. -1.
          1   -1    0    0  501    0 -0.00000000000E+00 -0.00000000000E+00 -0.37606012074E+03  0.37606012074E+03  0.00000000000E+00 0.  1.
          2    1    1    2  501    0  0.37470974566E+02 -0.47920383353E+02  0.36232880931E+02  0.70804369471E+02  0.00000000000E+00 0. -1.
          1    1    1    2  502    0  0.33453993870E+02  0.10033048671E+03 -0.29802349235E+03  0.31623310747E+03  0.00000000000E+00 0.  1.
         22    1    1    2    0    0 -0.83304782740E+02 -0.59070573664E+02  0.89588848613E+02  0.13584984835E+03  0.00000000000E+00 0. -1.
         22    1    1    2    0    0  0.12379814304E+02  0.66604703074E+01 -0.26783000242E+02  0.30248153149E+02  0.00000000000E+00 0. -1.
</event>
<event>
 6    1  0.8017648E-006  0.3274817E+02  0.7818608E-02  0.1584727E+00
          2   -1    0    0  502    0  0.00000000000E+00  0.00000000000E+00  0.40940808591E+03  0.40940808591E+03  0.00000000000E+00 0. -1.
          1   -1    0    0  501    0 -0.00000000000E+00 -0.00000000000E+00 -0.72685163363E+02  0.72685163363E+02  0.00000000000E+00 0. -1.
          2    1    1    2  501    0  0.19709748516E+01  0.52224936593E+02  0.26780862172E+03  0.27286037934E+03  0.00000000000E+00 0. -1.
          1    1    1    2  502    0  0.17403907391E+02 -0.67892161382E+02  0.26722710864E+02  0.75008965100E+02  0.00000000000E+00 0. -1.
         22    1    1    2    0    0 -0.27059374519E+00  0.15839918716E+02 -0.43569632288E+02  0.46360426051E+02  0.00000000000E+00 0.  1.
         22    1    1    2    0    0 -0.19104288497E+02 -0.17269392824E+00  0.85761222248E+02  0.87863478782E+02  0.00000000000E+00 0. -1.
</event>
<event>
 6    1  0.8017648E-006  0.3842070E+02  0.7818608E-02  0.1549568E+00
          2   -1    0    0  502    0  0.00000000000E+00  0.00000000000E+00  0.17455765431E+03  0.17455765431E+03  0.00000000000E+00 0.  1.
          1   -1    0    0  501    0 -0.00000000000E+00 -0.00000000000E+00 -0.17324586945E+03  0.17324586945E+03  0.00000000000E+00 0. -1.
          2    1    1    2  501    0  0.36027999821E+02 -0.32142156058E+02  0.44367494211E+02  0.65571407715E+02  0.00000000000E+00 0.  1.
          1    1    1    2  502    0 -0.47728015890E+02  0.61506898095E+02 -0.10943833059E+03  0.13430491508E+03  0.00000000000E+00 0. -1.
         22    1    1    2    0    0 -0.30727174491E+01 -0.23259114320E+02  0.10423256869E+03  0.10684033118E+03  0.00000000000E+00 0.  1.
         22    1    1    2    0    0  0.14772733518E+02 -0.61056277175E+01 -0.37849947454E+02  0.41086869772E+02  0.00000000000E+00 0. -1.
</event>
<event>
 6    1  0.8017648E-006  0.1773229E+03  0.7818608E-02  0.1209954E+00
          2   -1    0    0  502    0  0.00000000000E+00  0.00000000000E+00  0.22174738364E+03  0.22174738364E+03  0.00000000000E+00 0. -1.
          1   -1    0    0  501    0 -0.00000000000E+00 -0.00000000000E+00 -0.46646057274E+03  0.46646057274E+03  0.00000000000E+00 0. -1.
          2    1    1    2  501    0 -0.15167207058E+03 -0.15819182436E+02  0.10511163618E+03  0.18521101368E+03  0.00000000000E+00 0. -1.
          1    1    1    2  502    0  0.18344795903E+03  0.78327703837E+02 -0.12640116413E+03  0.23614749025E+03  0.00000000000E+00 0. -1.
         22    1    1    2    0    0 -0.13921878371E+02 -0.72712759775E+02 -0.23277076734E+03  0.24426050491E+03  0.00000000000E+00 0.  1.
         22    1    1    2    0    0 -0.17854010078E+02  0.10204238375E+02  0.93471061777E+01  0.22588947531E+02  0.00000000000E+00 0.  1.
</event>
<event>
 6    1  0.8017648E-006  0.5580387E+02  0.7818608E-02  0.1454562E+00
          2   -1    0    0  502    0  0.00000000000E+00  0.00000000000E+00  0.10271341805E+03  0.10271341805E+03  0.00000000000E+00 0.  1.
          1   -1    0    0  501    0 -0.00000000000E+00 -0.00000000000E+00 -0.18243423439E+03  0.18243423439E+03  0.00000000000E+00 0. -1.
          2    1    1    2  501    0  0.19789780308E+02  0.21814827557E+02  0.34888113093E+02  0.45658542915E+02  0.00000000000E+00 0.  1.
          1    1    1    2  502    0 -0.70089911137E+02 -0.83007075816E+01 -0.71139597925E+02  0.10021147530E+03  0.00000000000E+00 0. -1.
         22    1    1    2    0    0  0.26103934575E+02 -0.17444662163E+02 -0.85243893846E+02  0.90841912553E+02  0.00000000000E+00 0. -1.
         22    1    1    2    0    0  0.24196196254E+02  0.39305421871E+01  0.41774562336E+02  0.48435721667E+02  0.00000000000E+00 0.  1.
</event>
<event>
 6    1  0.8017648E-006  0.3557437E+02  0.7818608E-02  0.1575801E+00
          2   -1    0    0  502    0  0.00000000000E+00  0.00000000000E+00  0.12747903799E+03  0.12747903799E+03  0.00000000000E+00 0. -1.
          1   -1    0    0  501    0 -0.00000000000E+00 -0.00000000000E+00 -0.95518141202E+02  0.95518141202E+02  0.00000000000E+00 0. -1.
          2    1    1    2  501    0  0.23695455996E+02  0.48090317515E+01  0.13209494312E+01  0.24214589169E+02  0.00000000000E+00 0. -1.
          1    1    1    2  502    0 -0.25414708816E+02  0.10169794980E+02 -0.43857289562E+02  0.51699071576E+02  0.00000000000E+00 0. -1.
         22    1    1    2    0    0 -0.11403439186E+02  0.46767175225E+01 -0.33935873849E+02  0.36104759325E+02  0.00000000000E+00 0. -1.
         22    1    1    2    0    0  0.13122692006E+02 -0.19655544254E+02  0.10843311077E+03  0.11097875912E+03  0.00000000000E+00 0. -1.
</event>
<event>
 6    1  0.8017648E-006  0.8556840E+02  0.7818608E-02  0.1315212E+00
          2   -1    0    0  502    0  0.00000000000E+00  0.00000000000E+00  0.65525214952E+02  0.65525214952E+02  0.00000000000E+00 0.  1.
          1   -1    0    0  501    0 -0.00000000000E+00 -0.00000000000E+00 -0.25172641793E+03  0.25172641793E+03  0.00000000000E+00 0. -1.
          2    1    1    2  501    0  0.13513567678E+02 -0.43782536787E+02  0.23482748443E+02  0.51487537457E+02  0.00000000000E+00 0.  1.
          1    1    1    2  502    0 -0.10801810953E+02  0.31058984467E+02 -0.69871336551E+02  0.77222686482E+02  0.00000000000E+00 0. -1.
         22    1    1    2    0    0 -0.71322647690E+01 -0.37130668069E+02  0.22936338623E+01  0.37878971320E+02  0.00000000000E+00 0. -1.
         22    1    1    2    0    0  0.44205080440E+01  0.49854220389E+02 -0.14210624873E+03  0.15066243762E+03  0.00000000000E+00 0. -1.
</event>
<event>
 6    1  0.8017648E-006  0.4397749E+02  0.7818608E-02  0.1527470E+00
          2   -1    0    0  502    0  0.00000000000E+00  0.00000000000E+00  0.62570403505E+03  0.62570403505E+03  0.00000000000E+00 0. -1.
          1   -1    0    0  501    0 -0.00000000000E+00 -0.00000000000E+00 -0.76855042349E+02  0.76855042349E+02  0.00000000000E+00 0. -1.
          2    1    1    2  501    0  0.10113598231E+03  0.66990705294E+01  0.36088508121E+03  0.37484851114E+03  0.00000000000E+00 0. -1.
          1    1    1    2  502    0 -0.91564748385E+02 -0.98994644003E+01  0.18302406820E+03  0.20488999996E+03  0.00000000000E+00 0. -1.
         22    1    1    2    0    0 -0.16036527565E+02  0.11281663947E+02 -0.56867479187E+02  0.60152775055E+02  0.00000000000E+00 0.  1.
         22    1    1    2    0    0  0.64652936387E+01 -0.80812700761E+01  0.61807322478E+02  0.62667791247E+02  0.00000000000E+00 0.  1.
</event>
<event>
 6    1  0.8017648E-006  0.1023828E+03  0.7818608E-02  0.1353258E+00
          2   -1    0    0  502    0  0.00000000000E+00  0.00000000000E+00  0.11309218258E+04  0.11309218258E+04  0.00000000000E+00 0. -1.
          1   -1    0    0  501    0 -0.00000000000E+00 -0.00000000000E+00 -0.17990405535E+02  0.17990405535E+02  0.00000000000E+00 0. -1.
          2    1    1    2  501    0 -0.31313225860E+02 -0.16820335901E+02  0.33168547520E+03  0.33358461636E+03  0.00000000000E+00 0. -1.
          1    1    1    2  502    0  0.40238405337E+01 -0.44803142457E+02  0.49053025814E+03  0.49258851693E+03  0.00000000000E+00 0. -1.
         22    1    1    2    0    0  0.24807938244E+01  0.65504259703E+02  0.29031717586E+03  0.29762564570E+03  0.00000000000E+00 0. -1.
         22    1    1    2    0    0  0.24808591502E+02 -0.38807813452E+01  0.39851103855E+00  0.25113452315E+02  0.00000000000E+00 0. -1.
</event>
<event>
 6    1  0.8017648E-006  0.4979632E+02  0.7818608E-02  0.1480056E+00
          2   -1    0    0  502    0  0.00000000000E+00  0.00000000000E+00  0.89531523237E+02  0.89531523237E+02  0.00000000000E+00 0. -1.
          1   -1    0    0  501    0 -0.00000000000E+00 -0.00000000000E+00 -0.49345133173E+03  0.49345133173E+03  0.00000000000E+00 0.  1.
          2    1    1    2  501    0 -0.51873875734E+02 -0.68951556914E+02  0.70477137286E+01  0.86573012270E+02  0.00000000000E+00 0. -1.
          1    1    1    2  502    0  0.38058531281E+01  0.82563547064E+02 -0.32374881352E+03  0.33413248581E+03  0.00000000000E+00 0.  1.
         22    1    1    2    0    0  0.19654713576E+02 -0.48902723495E+00  0.32802114510E+02  0.38242981444E+02  0.00000000000E+00 0.  1.
         22    1    1    2    0    0  0.28413309030E+02 -0.13122962915E+02 -0.12002082321E+03  0.12403437544E+03  0.00000000000E+00 0.  1.
</event>
<event>
 6    1  0.8017648E-006  0.1192861E+03  0.7818608E-02  0.1369107E+00
          2   -1    0    0  502    0  0.00000000000E+00  0.00000000000E+00  0.42182547375E+03  0.42182547375E+03  0.00000000000E+00 0.  1.
          1   -1    0    0  501    0 -0.00000000000E+00 -0.00000000000E+00 -0.16382839949E+03  0.16382839949E+03  0.00000000000E+00 0. -1.
          2    1    1    2  501    0  0.43577853162E+02  0.75948006905E+02  0.30765466735E+03  0.31987266745E+03  0.00000000000E+00 0.  1.
          1    1    1    2  502    0 -0.80365664122E+02 -0.79646174831E+02 -0.75316598403E+02  0.13592182728E+03  0.00000000000E+00 0. -1.
         22    1    1    2    0    0  0.88557582505E+01 -0.83475018326E+01 -0.48342010715E+02  0.49850328394E+02  0.00000000000E+00 0. -1.
         22    1    1    2    0    0  0.27932052710E+02  0.12045669759E+02  0.74001016027E+02  0.80009050122E+02  0.00000000000E+00 0. -1.
</event>
<event>
 6    1  0.8017648E-006  0.4449575E+02  0.7818608E-02  0.1516018E+00
          2   -1    0    0  502    0  0.00000000000E+00  0.00000000000E+00  0.56612844085E+02  0.56612844085E+02  0.00000000000E+00 0.  1.
          1   -1    0    0  501    0 -0.00000000000E+00 -0.00000000000E+00 -0.17224291852E+03  0.17224291852E+03  0.00000000000E+00 0. -1.
          2    1    1    2  501    0  0.27887169749E+02 -0.65810885245E+01  0.11125018172E+02  0.30737127259E+02  0.00000000000E+00 0.  1.
          1    1    1    2  502    0 -0.21749766821E+02 -0.28192358152E+01 -0.33838132096E+02  0.40323933725E+02  0.00000000000E+00 0. -1.
         22    1    1    2    0    0  0.11355706098E+02 -0.10036009999E+02  0.29205838859E+02  0.32903716829E+02  0.00000000000E+00 0.  1.
         22    1    1    2    0    0 -0.17493109026E+02  0.19436334339E+02 -0.12212279937E+03  0.12489098479E+03  0.00000000000E+00 0. -1.
</event>
<event>
 6    1  0.8017648E-006  0.1325970E+03  0.7818608E-02  0.1269662E+00
          2   -1    0    0  502    0  0.00000000000E+00  0.00000000000E+00  0.20645226692E+04  0.20645226692E+04  0.00000000000E+00 0. -1.
          1   -1    0    0  501    0 -0.00000000000E+00 -0.00000000000E+00 -0.24392604666E+02  0.24392604666E+02  0.00000000000E+00 0. -1.
          2    1    1    2  501    0 -0.15193183879E+02  0.60813129964E+02  0.18025960356E+03  0.19084704422E+03  0.00000000000E+00 0. -1.
          1    1    1    2  502    0  0.12136499397E+02 -0.12675670804E+03  0.15765936295E+04  0.15817275461E+04  0.00000000000E+00 0. -1.
         22    1    1    2    0    0 -0.49326225058E+02  0.70735269849E+02  0.20057956030E+03  0.21833166259E+03  0.00000000000E+00 0. -1.
         22    1    1    2    0    0  0.52382909539E+02 -0.47916917738E+01  0.82697271219E+02  0.98009020957E+02  0.00000000000E+00 0. -1.
</event>
<event>
 6    1  0.8017648E-006  0.5559621E+02  0.7818608E-02  0.1434114E+00
          2   -1    0    0  502    0  0.00000000000E+00  0.00000000000E+00  0.52048946970E+02  0.52048946970E+02  0.00000000000E+00 0. -1.
          1   -1    0    0  501    0 -0.00000000000E+00 -0.00000000000E+00 -0.23228171803E+03  0.23228171803E+03  0.00000000000E+00 0. -1.
          2    1    1    2  501    0 -0.30047970898E+02 -0.58014220077E+01 -0.29009915467E+02  0.42167668276E+02  0.00000000000E+00 0. -1.
          1    1    1    2  502    0  0.30756270218E+02 -0.59477251687E+01  0.15668549842E+02  0.35026090941E+02  0.00000000000E+00 0. -1.
         22    1    1    2    0    0 -0.34641012301E+02  0.38189673048E+02 -0.22111695785E+02  0.56101496872E+02  0.00000000000E+00 0. -1.
         22    1    1    2    0    0  0.33932712981E+02 -0.26440525872E+02 -0.14477970965E+03  0.15103540891E+03  0.00000000000E+00 0. -1.
</event>
<event>
 6    1  0.8017648E-006  0.7389828E+02  0.7818608E-02  0.1350819E+00
          2   -1    0    0  502    0  0.00000000000E+00  0.00000000000E+00  0.58429710369E+03  0.58429710369E+03  0.00000000000E+00 0.  1.
          1   -1    0    0  501    0 -0.00000000000E+00 -0.00000000000E+00 -0.12902745747E+03  0.12902745747E+03  0.00000000000E+00 0.  1.
          2    1    1    2  501    0  0.40236759560E+01 -0.17283366937E+03  0.28781907721E+03  0.33574914511E+03  0.00000000000E+00 0.  1.
          1    1    1    2  502    0  0.87272792136E+01  0.20699743999E+03  0.13467727362E+03  0.24710741307E+03  0.00000000000E+00 0.  1.
         22    1    1    2    0    0 -0.27172830838E+02 -0.10841751169E+02  0.74782494888E+02  0.80301480969E+02  0.00000000000E+00 0. -1.
         22    1    1    2    0    0  0.14421875669E+02 -0.23322019450E+02 -0.42009199493E+02  0.50166522015E+02  0.00000000000E+00 0.  1.
</event>
<event>
 6    1  0.8017648E-006  0.6069779E+02  0.7818608E-02  0.1490847E+00
          2   -1    0    0  502    0  0.00000000000E+00  0.00000000000E+00  0.62702581340E+02  0.62702581340E+02  0.00000000000E+00 0. -1.
          1   -1    0    0  501    0 -0.00000000000E+00 -0.00000000000E+00 -0.25715050970E+03  0.25715050970E+03  0.00000000000E+00 0.  1.
          2    1    1    2  501    0  0.30744182626E+01 -0.24480840238E+02  0.36280225343E+01  0.24938446903E+02  0.00000000000E+00 0. -1.
          1    1    1    2  502    0  0.38484323878E+02  0.23706398743E+02 -0.15244092154E+03  0.15900085247E+03  0.00000000000E+00 0.  1.
         22    1    1    2    0    0 -0.12659202904E+02  0.71429191262E+01 -0.85241992093E+02  0.86472388239E+02  0.00000000000E+00 0. -1.
         22    1    1    2    0    0 -0.28899539237E+02 -0.63684776312E+01  0.39606962740E+02  0.49441403428E+02  0.00000000000E+00 0. -1.
</event>
<event>
 6    1  0.8017648E-006  0.4733416E+02  0.7818608E-02  0.1464681E+00
          2   -1    0    0  502    0  0.00000000000E+00  0.00000000000E+00  0.33153064178E+03  0.33153064178E+03  0.00000000000E+00 0. -1.
          1   -1    0    0  501    0 -0.00000000000E+00 -0.00000000000E+00 -0.75326980642E+02  0.75326980642E+02  0.00000000000E+00 0. -1.
          2    1    1    2  501    0  0.17225060580E+02  0.15609548965E+02  0.19326742229E+03  0.19466036383E+03  0.00000000000E+00 0. -1.
          1    1    1    2  502    0 -0.25422513327E+02 -0.14760251507E+02 -0.42465390747E+02  0.51647639053E+02  0.00000000000E+00 0. -1.
         22    1    1    2    0    0 -0.14931652089E+02  0.91745695422E+00 -0.24438478350E+02  0.28653711547E+02  0.00000000000E+00 0. -1.
         22    1    1    2    0    0  0.23129104836E+02 -0.17667544122E+01  0.12984010795E+03  0.13189590799E+03  0.00000000000E+00 0. -1.
</event>
<event>
 6    1  0.8017648E-006  0.3694064E+02  0.7818608E-02  0.1569158E+00
          2   -1    0    0  502    0  0.00000000000E+00  0.00000000000E+00  0.14510386954E+03  0.14510386954E+03  0.00000000000E+00 0. -1.
          1   -1    0    0  501    0 -0.00000000000E+00 -0.00000000000E+00 -0.14887157268E+03  0.14887157268E+03  0.00000000000E+00 0. -1.
          2    1    1    2  501    0 -0.17696012851E+02 -0.96601448185E+01  0.10016932983E+03  0.10217808917E+03  0.00000000000E+00 0. -1.
          1    1    1    2  502    0  0.25404774256E+02 -0.12957950016E+01 -0.55674708256E+02  0.61210740716E+02  0.00000000000E+00 0. -1.
         22    1    1    2    0    0  0.21077823539E+01  0.22833052782E+02 -0.86433132454E+02  0.89423025176E+02  0.00000000000E+00 0. -1.
         22    1    1    2    0    0 -0.98165437590E+01 -0.11877112962E+02  0.38170807742E+02  0.41163587153E+02  0.00000000000E+00 0.  1.
</event>
<event>
 6    1  0.8017648E-006  0.7957572E+02  0.7818608E-02  0.1391095E+00
          2   -1    0    0  502    0  0.00000000000E+00  0.00000000000E+00  0.19701543326E+03  0.19701543326E+03  0.00000000000E+00 0.  1.
          1   -1    0    0  501    0 -0.00000000000E+00 -0.00000000000E+00 -0.11292347535E+03  0.11292347535E+03  0.00000000000E+00 0.  1.
          2    1    1    2  501    0  0.43241239674E+02 -0.13153788787E+02  0.10093049114E+03  0.11058838551E+03  0.00000000000E+00 0.  1.
          1    1    1    2  502    0 -0.36895700581E+02  0.41059855559E+02 -0.35045371974E+02  0.65386409572E+02  0.00000000000E+00 0.  1.
         22    1    1    2    0    0  0.22167460127E+02 -0.30600593920E+02  0.67268572050E+02  0.77154736876E+02  0.00000000000E+00 0.  1.
         22    1    1    2    0    0 -0.28512999219E+02  0.26945271475E+01 -0.49061733305E+02  0.56809376655E+02  0.00000000000E+00 0.  1.
</event>
<event>
 6    1  0.8017648E-006  0.9612088E+02  0.7818608E-02  0.1382151E+00
          2   -1    0    0  502    0  0.00000000000E+00  0.00000000000E+00  0.14634722470E+03  0.14634722470E+03  0.00000000000E+00 0. -1.
          1   -1    0    0  501    0 -0.00000000000E+00 -0.00000000000E+00 -0.17711328504E+03  0.17711328504E+03  0.00000000000E+00 0. -1.
          2    1    1    2  501    0 -0.25015507993E+02 -0.13649912182E+02  0.29723095593E+02  0.41177155734E+02  0.00000000000E+00 0. -1.
          1    1    1    2  502    0  0.81808010180E+02  0.79986258926E+02  0.76751043657E+01  0.11467022008E+03  0.00000000000E+00 0. -1.
         22    1    1    2    0    0 -0.12519417495E+02  0.13992457808E+02  0.28647103898E+02  0.34251733557E+02  0.00000000000E+00 0. -1.
         22    1    1    2    0    0 -0.44273084692E+02 -0.80328804553E+02 -0.96811364196E+02  0.13336140036E+03  0.00000000000E+00 0. -1.
</event>
<event>
 6    1  0.8017648E-006  0.7226567E+02  0.7818608E-02  0.1443947E+00
          2   -1    0    0  502    0  0.00000000000E+00  0.00000000000E+00  0.49502061164E+03  0.49502061164E+03  0.00000000000E+00 0.  1.
          1   -1    0    0  501    0 -0.00000000000E+00 -0.00000000000E+00 -0.10419391426E+03  0.10419391426E+03  0.00000000000E+00 0. -1.
          2    1    1    2  501    0 -0.80875453721E+02 -0.10315727958E+02  0.31673605173E+03  0.32706112536E+03  0.00000000000E+00 0.  1.
          1    1    1    2  502    0  0.44579660750E+02  0.64324962292E+02 -0.44411043734E+02  0.89985486230E+02  0.00000000000E+00 0. -1.
         22    1    1    2    0    0  0.53201283644E+02 -0.53766080831E+02  0.13737952658E+03  0.15682570692E+03  0.00000000000E+00 0. -1.
         22    1    1    2    0    0 -0.16905490673E+02 -0.24315350241E+00 -0.18877837187E+02  0.25342207390E+02  0.00000000000E+00 0. -1.
</event>
<event>
 6    1  0.8017648E-006  0.4134074E+02  0.7818608E-02  0.1585536E+00
          2   -1    0    0  502    0  0.00000000000E+00  0.00000000000E+00  0.23058315928E+03  0.23058315928E+03  0.00000000000E+00 0. -1.
          1   -1    0    0  501    0 -0.00000000000E+00 -0.00000000000E+00 -0.10702095764E+03  0.10702095764E+03  0.00000000000E+00 0.  1.
          2    1    1    2  501    0 -0.86355332437E+00 -0.47464453014E+02  0.13470205139E+03  0.14282248658E+03  0.00000000000E+00 0. -1.
          1    1    1    2  502    0  0.50494633751E+02  0.31829871757E+02  0.58347889084E+01  0.59974107208E+02  0.00000000000E+00 0.  1.
         22    1    1    2    0    0 -0.39906636294E+02  0.67317690222E+01 -0.69624415884E+02  0.80532078216E+02  0.00000000000E+00 0.  1.
         22    1    1    2    0    0 -0.97244441329E+01  0.89028122345E+01  0.52649777222E+02  0.54275444917E+02  0.00000000000E+00 0.  1.
</event>
<event>
 6    1  0.8017648E-006  0.5921768E+02  0.7818608E-02  0.1447414E+00
          2   -1    0    0  502    0  0.00000000000E+00  0.00000000000E+00  0.20353764163E+03  0.20353764163E+03  0.00000000000E+00 0.  1.
          1   -1    0    0  501    0 -0.00000000000E+00 -0.00000000000E+00 -0.26428285143E+03  0.26428285143E+03  0.00000000000E+00 0. -1.
          2    1    1    2  501    0  0.10519672614E+03 -0.49831967121E+02  0.72961705120E+02  0.13737898876E+03  0.00000000000E+00 0.  1.
          1    1    1    2  502    0 -0.82092250508E+02  0.26599596413E+02 -0.17158062601E+03  0.19205881221E+03  0.00000000000E+00 0. -1.
         22    1    1    2    0    0  0.20302883565E+02  0.91476938639E+01 -0.41344438932E+02  0.46960089594E+02  0.00000000000E+00 0. -1.
         22    1    1    2    0    0 -0.43407359200E+02  0.14084676844E+02  0.79218150025E+02  0.91422602500E+02  0.00000000000E+00 0.  1.
</event>
<event>
 6    1  0.8017648E-006  0.3216377E+02  0.7818608E-02  0.1628954E+00
          2   -1    0    0  502    0  0.00000000000E+00  0.00000000000E+00  0.25358460407E+03  0.25358460407E+03  0.00000000000E+00 0.  1.
          1   -1    0    0  501    0 -0.00000000000E+00 -0.00000000000E+00 -0.81644027779E+02  0.81644027779E+02  0.00000000000E+00 0. -1.
          2    1    1    2  501    0 -0.33958545219E+02  0.11779444996E+02  0.11579252088E+03  0.12124292149E+03  0.00000000000E+00 0.  1.
          1    1    1    2  502    0  0.59670862469E+02  0.13621905284E+02  0.59154466285E+02  0.85120027096E+02  0.00000000000E+00 0. -1.
         22    1    1    2    0    0 -0.20282730740E+02 -0.13676008002E+02 -0.62954780981E+02  0.67540556775E+02  0.00000000000E+00 0. -1.
         22    1    1    2    0    0 -0.54295865108E+01 -0.11725342278E+02  0.59948370100E+02  0.61325126489E+02  0.00000000000E+00 0.  1.
</event>
<event>
 6    1  0.8017648E-006  0.8609545E+02  0.7818608E-02  0.1427908E+00
          2   -1    0    0  502    0  0.00000000000E+00  0.00000000000E+00  0.44338871341E+03  0.44338871341E+03  0.00000000000E+00 0.  1.
          1   -1    0    0  501    0 -0.00000000000E+00 -0.00000000000E+00 -0.35403761911E+02  0.35403761911E+02  0.00000000000E+00 0.  1.
          2    1    1    2  501    0 -0.23464471386E+02  0.15236340256E+02  0.73811547013E+02  0.78935872418E+02  0.00000000000E+00 0.  1.
          1    1    1    2  502    0  0.17974713248E+02 -0.62909771450E+02  0.38783507771E+02  0.76058465244E+02  0.00000000000E+00 0.  1.
         22    1    1    2    0    0 -0.12528779053E+02 -0.22237153707E+01 -0.85064404624E+01  0.15306036193E+02  0.00000000000E+00 0.  1.
         22    1    1    2    0    0  0.18018537191E+02  0.49897146564E+02  0.30389633717E+03  0.30849210146E+03  0.00000000000E+00 0.  1.
</event>
<event>
 6    1  0.8017648E-006  0.7487719E+02  0.7818608E-02  0.1416662E+00
          2   -1    0    0  502    0  0.00000000000E+00  0.00000000000E+00  0.13022426706E+03  0.13022426706E+03  0.00000000000E+00 0.  1.
          1   -1    0    0  501    0 -0.00000000000E+00 -0.00000000000E+00 -0.39528791683E+03  0.39528791683E+03  0.00000000000E+00 0.  1.
          2    1    1    2  501    0 -0.46619333368E+02  0.23050910642E+02  0.60260638130E+02  0.79599316787E+02  0.00000000000E+00 0.  1.
          1    1    1    2  502    0  0.60083190792E+02 -0.53272167153E+02 -0.30173147744E+03  0.31223356336E+03  0.00000000000E+00 0.  1.
         22    1    1    2    0    0  0.36233802621E+01  0.22695981556E+02 -0.75286809279E+02  0.78716835015E+02  0.00000000000E+00 0.  1.
         22    1    1    2    0    0 -0.17087237686E+02  0.75252749554E+01  0.51693998818E+02  0.54962468728E+02  0.00000000000E+00 0. -1.
</event>
<event>
 6    1  0.1204136E-005  0.1458949E+03  0.7818608E-02  0.1295661E+00
          2   -1    0    0  502    0  0.00000000000E+00  0.00000000000E+00  0.18416488497E+03  0.18416488497E+03  0.00000000000E+00 0.  1.
          1   -1    0    0  501    0 -0.00000000000E+00 -0.00000000000E+00 -0.16827403347E+04  0.16827403347E+04  0.00000000000E+00 0.  1.
          2    1    1    2  501    0  0.59056895041E+02 -0.10925027545E+03  0.11721638779E+03  0.17077183932E+03  0.00000000000E+00 0.  1.
          1    1    1    2  502    0 -0.94197633205E+02  0.11125648591E+03 -0.15429818775E+04  0.15498529846E+04  0.00000000000E+00 0.  1.
         22    1    1    2    0    0  0.14347765820E+02 -0.14242964769E+02  0.32481997413E+02  0.38259646958E+02  0.00000000000E+00 0.  1.
         22    1    1    2    0    0  0.20792972343E+02  0.12236754313E+02 -0.10529195747E+03  0.10802074876E+03  0.00000000000E+00 0. -1.
</event>
<event>
 6    1  0.8017648E-006  0.8853312E+02  0.7818608E-02  0.1306575E+00
          2   -1    0    0  502    0  0.00000000000E+00  0.00000000000E+00  0.25347104061E+03  0.25347104061E+03  0.00000000000E+00 0.  1.
          1   -1    0    0  501    0 -0.00000000000E+00 -0.00000000000E+00 -0.87275153046E+02  0.87275153046E+02  0.00000000000E+00 0. -1.
          2    1    1    2  501    0 -0.73845962472E+02  0.67620182545E+02  0.62758266866E+02  0.11817070416E+03  0.00000000000E+00 0.  1.
          1    1    1    2  502    0  0.14818659881E+02 -0.54816157228E+02  0.39991675574E+02  0.69453134480E+02  0.00000000000E+00 0. -1.
         22    1    1    2    0    0  0.81307662644E+02 -0.35298192434E+02  0.76489237905E+01  0.88968558653E+02  0.00000000000E+00 0. -1.
         22    1    1    2    0    0 -0.22280360053E+02  0.22494167117E+02  0.55797021331E+02  0.64153796363E+02  0.00000000000E+00 0. -1.
</event>
<event>
 6    1  0.8017648E-006  0.3140574E+02  0.7818608E-02  0.1627374E+00
          2   -1    0    0  502    0  0.00000000000E+00  0.00000000000E+00  0.16925131132E+03  0.16925131132E+03  0.00000000000E+00 0.  1.
          1   -1    0    0  501    0 -0.00000000000E+00 -0.00000000000E+00 -0.11986393584E+03  0.11986393584E+03  0.00000000000E+00 0.  1.
          2    1    1    2  501    0  0.33227642022E+02  0.14338842773E+02  0.10512417761E+03  0.11117900578E+03  0.00000000000E+00 0.  1.
          1    1    1    2  502    0 -0.37527595244E+02 -0.26326146856E+02 -0.29285440733E+02  0.54396906640E+02  0.00000000000E+00 0.  1.
         22    1    1    2    0    0 -0.35261325776E+01  0.22193841858E+02  0.45340776785E+02  0.50604211948E+02  0.00000000000E+00 0. -1.
         22    1    1    2    0    0  0.78260857992E+01 -0.10206537775E+02 -0.71792138188E+02  0.72935122800E+02  0.00000000000E+00 0.  1.
</event>
<event>
 6    1  0.8017648E-006  0.8481867E+02  0.7818608E-02  0.1402001E+00
          2   -1    0    0  502    0  0.00000000000E+00  0.00000000000E+00  0.12381551759E+03  0.12381551759E+03  0.00000000000E+00 0. -1.
          1   -1    0    0  501    0 -0.00000000000E+00 -0.00000000000E+00 -0.41013774418E+03  0.41013774418E+03  0.00000000000E+00 0.  1.
          2    1    1    2  501    0 -0.47130511481E+02 -0.36670621397E+02  0.58556624932E+02  0.83635506273E+02  0.00000000000E+00 0. -1.
          1    1    1    2  502    0  0.48356725823E+02  0.63830445541E+02 -0.31219381292E+03  0.32230059810E+03  0.00000000000E+00 0.  1.
         22    1    1    2    0    0 -0.17170770369E+02 -0.15283417316E+02  0.43543394867E+02  0.49238657947E+02  0.00000000000E+00 0. -1.
         22    1    1    2    0    0  0.15944556026E+02 -0.11876406827E+02 -0.76228433463E+02  0.78778499441E+02  0.00000000000E+00 0. -1.
</event>
<event>
 6    1  0.8017648E-006  0.7734709E+02  0.7818608E-02  0.1451748E+00
          2   -1    0    0  502    0  0.00000000000E+00  0.00000000000E+00  0.42200926699E+03  0.42200926699E+03  0.00000000000E+00 0. -1.
          1   -1    0    0  501    0 -0.00000000000E+00 -0.00000000000E+00 -0.25197422227E+02  0.25197422227E+02  0.00000000000E+00 0. -1.
          2    1    1    2  501    0 -0.26933494250E+02  0.49812622254E+01  0.11710794932E+03  0.12026844091E+03  0.00000000000E+00 0. -1.
          1    1    1    2  502    0 -0.31358657594E+02 -0.53854165574E+01  0.70967741061E+02  0.77773957009E+02  0.00000000000E+00 0. -1.
         22    1    1    2    0    0  0.10589434099E+02  0.62328669436E+01 -0.15532092835E+02  0.19804813877E+02  0.00000000000E+00 0. -1.
         22    1    1    2    0    0  0.47702717746E+02 -0.58287126117E+01  0.22426824721E+03  0.22935947741E+03  0.00000000000E+00 0. -1.
</event>
<event>
 6    1  0.8017648E-006  0.6205859E+02  0.7818608E-02  0.1448124E+00
          2   -1    0    0  502    0  0.00000000000E+00  0.00000000000E+00  0.13841683779E+03  0.13841683779E+03  0.00000000000E+00 0. -1.
          1   -1    0    0  501    0 -0.00000000000E+00 -0.00000000000E+00 -0.16275275186E+03  0.16275275186E+03  0.00000000000E+00 0.  1.
          2    1    1    2  501    0 -0.36521425583E+02 -0.61345910341E+01  0.64640742367E+02  0.74497471820E+02  0.00000000000E+00 0. -1.
          1    1    1    2  502    0  0.38073934195E+02  0.46601709472E+02 -0.71098258865E+02  0.93146691860E+02  0.00000000000E+00 0.  1.
         22    1    1    2    0    0 -0.15543402853E+02 -0.19634086254E+02  0.52846952842E+02  0.58479869528E+02  0.00000000000E+00 0.  1.
         22    1    1    2    0    0  0.13990894241E+02 -0.20833032184E+02 -0.70725350414E+02  0.75045556450E+02  0.00000000000E+00 0.  1.
</event>
<event>
 6    1  0.8017648E-006  0.1880303E+02  0.7818608E-02  0.1810536E+00
          2   -1    0    0  502    0  0.00000000000E+00  0.00000000000E+00  0.20665740951E+03  0.20665740951E+03  0.00000000000E+00 0.  1.
          1   -1    0    0  501    0 -0.00000000000E+00 -0.00000000000E+00 -0.68528827295E+02  0.68528827295E+02  0.00000000000E+00 0.  1.
          2    1    1    2  501    0 -0.35510804104E+02  0.88000546636E+01  0.10351249050E+03  0.10978749410E+03  0.00000000000E+00 0.  1.
          1    1    1    2  502    0  0.29040192509E+02 -0.10223009059E+02 -0.13312046932E+02  0.33541814034E+02  0.00000000000E+00 0.  1.
         22    1    1    2    0    0 -0.78607947896E+01  0.64882945948E+01 -0.40688694758E+02  0.41945916876E+02  0.00000000000E+00 0. -1.
         22    1    1    2    0    0  0.14331406384E+02 -0.50653401997E+01  0.88616833399E+02  0.89911011794E+02  0.00000000000E+00 0.  1.
</event>
<event>
 6    1  0.8017648E-006  0.1444354E+03  0.7818608E-02  0.1340658E+00
          2   -1    0    0  502    0  0.00000000000E+00  0.00000000000E+00  0.25192662979E+03  0.25192662979E+03  0.00000000000E+00 0.  1.
          1   -1    0    0  501    0 -0.00000000000E+00 -0.00000000000E+00 -0.86693904084E+02  0.86693904084E+02  0.00000000000E+00 0.  1.
          2    1    1    2  501    0 -0.28948522445E+02  0.23662592419E+02 -0.53050103123E+01  0.37763452784E+02  0.00000000000E+00 0.  1.
          1    1    1    2  502    0  0.79734698446E+02 -0.55090358183E+02  0.20824973152E+02  0.99127439227E+02  0.00000000000E+00 0.  1.
         22    1    1    2    0    0 -0.58653983527E+02  0.39257443326E+02  0.16693394784E+03  0.18124121933E+03  0.00000000000E+00 0. -1.
         22    1    1    2    0    0  0.78678075257E+01 -0.78296775626E+01 -0.17221184978E+02  0.20488422537E+02  0.00000000000E+00 0.  1.
</event>
<event>
 6    1  0.8017648E-006  0.1254578E+03  0.7818608E-02  0.1320438E+00
          2   -1    0    0  502    0  0.00000000000E+00  0.00000000000E+00  0.13365490985E+04  0.13365490985E+04  0.00000000000E+00 0.  1.
          1   -1    0    0  501    0 -0.00000000000E+00 -0.00000000000E+00 -0.54560906546E+02  0.54560906546E+02  0.00000000000E+00 0. -1.
          2    1    1    2  501    0 -0.73849908419E+02  0.12896832307E+03  0.25042021963E+03  0.29119911354E+03  0.00000000000E+00 0.  1.
          1    1    1    2  502    0  0.81455408060E+02 -0.21213967233E+03  0.59153289371E+03  0.63367924727E+03  0.00000000000E+00 0. -1.
         22    1    1    2    0    0  0.75295295771E+01  0.92179680955E+02  0.43894732963E+03  0.44858504833E+03  0.00000000000E+00 0.  1.
         22    1    1    2    0    0 -0.15135029217E+02 -0.90083316882E+01  0.10877489870E+01  0.17646595906E+02  0.00000000000E+00 0. -1.
</event>
<event>
 6    1  0.8017648E-006  0.5452933E+02  0.7818608E-02  0.1513862E+00
          2   -1    0    0  502    0  0.00000000000E+00  0.00000000000E+00  0.22653002555E+03  0.22653002555E+03  0.00000000000E+00 0. -1.
          1   -1    0    0  501    0 -0.00000000000E+00 -0.00000000000E+00 -0.20056635972E+03  0.20056635972E+03  0.00000000000E+00 0. -1.
          2    1    1    2  501    0  0.13779527319E+02  0.20983553994E+02  0.86417631230E+02  0.89989954432E+02  0.00000000000E+00 0. -1.
          1    1    1    2  502    0 -0.49291873458E+02 -0.29698854942E+02 -0.16381944600E+03  0.17363329652E+03  0.00000000000E+00 0. -1.
         22    1    1    2    0    0  0.12078974250E+02 -0.82475427052E+01 -0.26584384081E+02  0.30342265185E+02  0.00000000000E+00 0. -1.
         22    1    1    2    0    0  0.23433371889E+02  0.16962843653E+02  0.12994986468E+03  0.13313086912E+03  0.00000000000E+00 0. -1.
</event>
<event>
 6    1  0.8017648E-006  0.7704725E+02  0.7818608E-02  0.1408094E+00
          2   -1    0    0  502    0  0.00000000000E+00  0.00000000000E+00  0.19743925472E+03  0.19743925472E+03  0.00000000000E+00 0.  1.
          1   -1    0    0  501    0 -0.00000000000E+00 -0.00000000000E+00 -0.18520420323E+03  0.18520420323E+03  0.00000000000E+00 0. -1.
          2    1    1    2  501    0 -0.65852557874E+02 -0.65899943692E+01  0.14715377094E+03  0.16135123088E+03  0.00000000000E+00 0.  1.
          1    1    1    2  502    0  0.24542882949E+02  0.25803307111E+02 -0.57135226198E+02  0.67324570804E+02  0.00000000000E+00 0. -1.
         22    1    1    2    0    0  0.39418937790E+02  0.48148743426E+01 -0.10814298968E+03  0.11520391438E+03  0.00000000000E+00 0. -1.
         22    1    1    2    0    0  0.18907371355E+01 -0.24028187084E+02  0.30359496424E+02  0.38763741881E+02  0.00000000000E+00 0. -1.
</event>
<event>
 6    1  0.8017648E-006  0.1068526E+03  0.7818608E-02  0.1398891E+00
          2   -1    0    0  502    0  0.00000000000E+00  0.00000000000E+00  0.80625909467E+03  0.80625909467E+03  0.00000000000E+00 0. -1.
          1   -1    0    0  501    0 -0.00000000000E+00 -0.00000000000E+00 -0.54698740593E+02  0.54698740593E+02  0.00000000000E+00 0. -1.
          2    1    1    2  501    0  0.24018569653E+02 -0.81355251587E+02  0.55626134975E+03  0.56269197424E+03  0.00000000000E+00 0. -1.
          1    1    1    2  502    0 -0.83919878008E+01  0.93326444649E+02  0.89382734560E+02  0.12949719676E+03  0.00000000000E+00 0. -1.
         22    1    1    2    0    0 -0.10430143238E+02 -0.21033002926E+02  0.13543570435E+03  0.13745546592E+03  0.00000000000E+00 0.  1.
         22    1    1    2    0    0 -0.51964386144E+01  0.90618098644E+01 -0.29519434583E+02  0.31313198342E+02  0.00000000000E+00 0. -1.
</event>
<event>
 6    1  0.8017648E-006  0.8210870E+02  0.7818608E-02  0.1452918E+00
          2   -1    0    0  502    0  0.00000000000E+00  0.00000000000E+00  0.85490730680E+02  0.85490730680E+02  0.00000000000E+00 0.  1.
          1   -1    0    0  501    0 -0.00000000000E+00 -0.00000000000E+00 -0.14757650126E+03  0.14757650126E+03  0.00000000000E+00 0. -1.
          2    1    1    2  501    0 -0.19919160401E+02 -0.11968246925E+02 -0.11377867425E+02  0.25874074914E+02  0.00000000000E+00 0.  1.
          1    1    1    2  502    0  0.30619853449E+02 -0.13154033000E+02 -0.67792504602E+02  0.75540900773E+02  0.00000000000E+00 0. -1.
         22    1    1    2    0    0  0.84184704928E+01  0.55737804507E+01 -0.54289114706E+02  0.55219975095E+02  0.00000000000E+00 0. -1.
         22    1    1    2    0    0 -0.19119163541E+02  0.19548499474E+02  0.71373716151E+02  0.76432281160E+02  0.00000000000E+00 0.  1.
</event>
<event>
 6    1  0.8017648E-006  0.7600452E+02  0.7818608E-02  0.1423937E+00
          2   -1    0    0  502    0  0.00000000000E+00  0.00000000000E+00  0.29259539703E+03  0.29259539703E+03  0.00000000000E+00 0.  1.
          1   -1    0    0  501    0 -0.00000000000E+00 -0.00000000000E+00 -0.25256611634E+03  0.25256611634E+03  0.00000000000E+00 0.  1.
          2    1    1    2  501    0  0.62521847925E+02  0.71874712858E+02  0.19010816249E+03  0.21264070462E+03  0.00000000000E+00 0.  1.
          1    1    1    2  502    0 -0.99374886568E+02 -0.60109015298E+02 -0.16138718962E+03  0.19883230818E+03  0.00000000000E+00 0.  1.
         22    1    1    2    0    0  0.45571658192E+02 -0.21221449673E+02  0.62898485300E+02  0.80519223851E+02  0.00000000000E+00 0.  1.
         22    1    1    2    0    0 -0.87186195493E+01  0.94557521131E+01 -0.51590177477E+02  0.53169276720E+02  0.00000000000E+00 0.  1.
</event>
<event>
 6    1  0.8017648E-006  0.5436733E+02  0.7818608E-02  0.1477912E+00
          2   -1    0    0  502    0  0.00000000000E+00  0.00000000000E+00  0.70339783247E+02  0.70339783247E+02  0.00000000000E+00 0. -1.
          1   -1    0    0  501    0 -0.00000000000E+00 -0.00000000000E+00 -0.49368898161E+03  0.49368898161E+03  0.00000000000E+00 0.  1.
          2    1    1    2  501    0  0.19798797464E+02 -0.10459683099E+02  0.32769140874E+02  0.39688965030E+02  0.00000000000E+00 0. -1.
          1    1    1    2  502    0 -0.28503855067E+02  0.10628575885E+02 -0.37063182253E+03  0.37187818469E+03  0.00000000000E+00 0.  1.
         22    1    1    2    0    0  0.26488147983E+02 -0.16664357935E+02  0.24555488056E+02  0.39778069368E+02  0.00000000000E+00 0.  1.
         22    1    1    2    0    0 -0.17783090381E+02  0.16495465148E+02 -0.11004200477E+03  0.11268354577E+03  0.00000000000E+00 0.  1.
</event>
<event>
 6    1  0.8017648E-006  0.2400692E+03  0.7818608E-02  0.1263116E+00
          2   -1    0    0  502    0  0.00000000000E+00  0.00000000000E+00  0.14246016726E+03  0.14246016726E+03  0.00000000000E+00 0. -1.
          1   -1    0    0  501    0 -0.00000000000E+00 -0.00000000000E+00 -0.56252196870E+03  0.56252196870E+03  0.00000000000E+00 0. -1.
          2    1    1    2  501    0 -0.72007461724E+02 -0.25686238702E+02 -0.83188763259E+02  0.11298330733E+03  0.00000000000E+00 0. -1.
          1    1    1    2  502    0  0.13832681643E+03 -0.19915441426E+02 -0.40657392674E+03  0.42992242423E+03  0.00000000000E+00 0. -1.
         22    1    1    2    0    0  0.17819132732E+01  0.99078313159E+01 -0.32590679199E+02  0.34110008897E+02  0.00000000000E+00 0.  1.
         22    1    1    2    0    0 -0.68101267982E+02  0.35693848811E+02  0.10229156776E+03  0.12796639551E+03  0.00000000000E+00 0. -1.
</event>
<event>
 6    1  0.8017648E-006  0.7479375E+02  0.7818608E-02  0.1356776E+00
          2   -1    0    0  502    0  0.00000000000E+00  0.00000000000E+00  0.21837903107E+03  0.21837903107E+03  0.00000000000E+00 0. -1.
          1   -1    0    0  501    0 -0.00000000000E+00 -0.00000000000E+00 -0.78154633225E+02  0.78154633225E+02  0.00000000000E+00 0. -1.
          2    1    1    2  501    0 -0.63643031428E+01 -0.66994792114E+02  0.95337895473E+02  0.11669670449E+03  0.00000000000E+00 0. -1.
          1    1    1    2  502    0 -0.19125768389E+02  0.42571069901E+02  0.98217060150E+01  0.47692315083E+02  0.00000000000E+00 0. -1.
         22    1    1    2    0    0 -0.13310288951E+02 -0.22233933453E+02  0.60905456837E+02  0.66189019189E+02  0.00000000000E+00 0.  1.
         22    1    1    2    0    0  0.38800360483E+02  0.46657655666E+02 -0.25840660479E+02  0.65955625536E+02  0.00000000000E+00 0. -1.
</event>
<event>
 6    1  0.8017648E-006  0.3791521E+02  0.7818608E-02  0.1562213E+00
          2   -1    0    0  502    0  0.00000000000E+00  0.00000000000E+00  0.30420777782E+03  0.30420777782E+03  0.00000000000E+00 0.  1.
          1   -1    0    0  501    0 -0.00000000000E+00 -0.00000000000E+00 -0.89029390088E+02  0.89029390088E+02  0.00000000000E+00 0.  1.
          2    1    1    2  501    0  0.56383704862E+01 -0.59072556304E+02  0.21316909625E+03  0.22127453926E+03  0.00000000000E+00 0.  1.
          1    1    1    2  502    0 -0.60755505174E+01  0.45588241555E+02 -0.16892208663E+02  0.48995375248E+02  0.00000000000E+00 0.  1.
         22    1    1    2    0    0  0.13470249213E+02  0.19190103710E+02 -0.48612144984E+02  0.53970810020E+02  0.00000000000E+00 0.  1.
         22    1    1    2    0    0 -0.13033069181E+02 -0.57057889610E+01  0.67513645128E+02  0.68996443375E+02  0.00000000000E+00 0. -1.
</event>
<event>
 6    1  0.8017648E-006  0.7781549E+02  0.7818608E-02  0.1389711E+00
          2   -1    0    0  502    0  0.00000000000E+00  0.00000000000E+00  0.48216967562E+03  0.48216967562E+03  0.00000000000E+00 0.  1.
          1   -1    0    0  501    0 -0.00000000000E+00 -0.00000000000E+00 -0.88509695670E+02  0.88509695670E+02  0.00000000000E+00 0. -1.
          2    1    1    2  501    0  0.88494481316E+02 -0.70227713231E+02  0.26707456107E+03  0.28998625157E+03  0.00000000000E+00 0.  1.
          1    1    1    2  502    0  0.69998528356E+01  0.62513130863E+02 -0.19438791986E+02  0.65838864692E+02  0.00000000000E+00 0. -1.
         22    1    1    2    0    0 -0.31243009799E+02  0.21401278005E+01 -0.19717845581E+02  0.37006745908E+02  0.00000000000E+00 0. -1.
         22    1    1    2    0    0 -0.64251324352E+02  0.55744545667E+01  0.16574205645E+03  0.17784750912E+03  0.00000000000E+00 0. -1.
</event>
<event>
 6    1  0.8017648E-006  0.8084077E+02  0.7818608E-02  0.1442249E+00
          2   -1    0    0  502    0  0.00000000000E+00  0.00000000000E+00  0.29441660074E+03  0.29441660074E+03  0.00000000000E+00 0. -1.
          1   -1    0    0  501    0 -0.00000000000E+00 -0.00000000000E+00 -0.58117172240E+02  0.58117172240E+02  0.00000000000E+00 0.  1.
          2    1    1    2  501    0 -0.25582741667E+02 -0.17156757187E+02  0.65416677156E+02  0.72306103743E+02  0.00000000000E+00 0. -1.
          1    1    1    2  502    0  0.58314254651E+02  0.49219513835E+02  0.23318492015E+02  0.79792636925E+02  0.00000000000E+00 0.  1.
         22    1    1    2    0    0  0.96306845251E+01 -0.77896878454E+01 -0.21307933864E+02  0.24646650213E+02  0.00000000000E+00 0.  1.
         22    1    1    2    0    0 -0.42362197509E+02 -0.24273068802E+02  0.16887219319E+03  0.17578838209E+03  0.00000000000E+00 0. -1.
</event>
<event>
 6    1  0.8017648E-006  0.5179884E+02  0.7818608E-02  0.1544724E+00
          2   -1    0    0  502    0  0.00000000000E+00  0.00000000000E+00  0.18559509956E+03  0.18559509956E+03  0.00000000000E+00 0. -1.
          1   -1    0    0  501    0 -0.00000000000E+00 -0.00000000000E+00 -0.13447431621E+03  0.13447431621E+03  0.00000000000E+00 0.  1.
          2    1    1    2  501    0  0.25907653011E+02  0.92650658632E+01  0.11518594840E+03  0.11842656222E+03  0.00000000000E+00 0. -1.
          1    1    1    2  502    0 -0.35961396190E+02  0.31631352079E+00 -0.61408926419E+02  0.71164445576E+02  0.00000000000E+00 0.  1.
         22    1    1    2    0    0  0.21403311435E+02 -0.97655053996E+01  0.61228720344E+02  0.65592858080E+02  0.00000000000E+00 0.  1.
         22    1    1    2    0    0 -0.11349568256E+02  0.18412601565E+00 -0.63884958980E+02  0.64885549900E+02  0.00000000000E+00 0. -1.
</event>
<event>
 6    1  0.8017648E-006  0.4819817E+02  0.7818608E-02  0.1527060E+00
          2   -1    0    0  502    0  0.00000000000E+00  0.00000000000E+00  0.19635108577E+03  0.19635108577E+03  0.00000000000E+00 0. -1.
          1   -1    0    0  501    0 -0.00000000000E+00 -0.00000000000E+00 -0.20973042672E+03  0.20973042672E+03  0.00000000000E+00 0. -1.
          2    1    1    2  501    0  0.96076044491E+01  0.61621636589E+02  0.11358833511E+03  0.12958334010E+03  0.00000000000E+00 0. -1.
          1    1    1    2  502    0 -0.39058965853E+01 -0.35867273399E+02 -0.14030389237E+03  0.14486855954E+03  0.00000000000E+00 0. -1.
         22    1    1    2    0    0  0.39279505891E+01 -0.10837461339E+02 -0.57478484904E+02  0.58622995411E+02  0.00000000000E+00 0.  1.
         22    1    1    2    0    0 -0.96296584530E+01 -0.14916901851E+02  0.70814701208E+02  0.73006617439E+02  0.00000000000E+00 0.  1.
</event>
<event>
 6    1  0.8017648E-006  0.7177626E+02  0.7818608E-02  0.1406822E+00
          2   -1    0    0  502    0  0.00000000000E+00  0.00000000000E+00  0.73297198307E+03  0.73297198307E+03  0.00000000000E+00 0. -1.
          1   -1    0    0  501    0 -0.00000000000E+00 -0.00000000000E+00 -0.10805031996E+03  0.10805031996E+03  0.00000000000E+00 0. -1.
          2    1    1    2  501    0  0.20106491479E+02  0.23029802136E+02 -0.18894028934E+02  0.35939214173E+02  0.00000000000E+00 0. -1.
          1    1    1    2  502    0 -0.25211581459E+02  0.66444383236E+01  0.67542792673E+03  0.67593095551E+03  0.00000000000E+00 0. -1.
         22    1    1    2    0    0 -0.21483249439E+02 -0.21525369630E+02 -0.73118605522E+02  0.79190921308E+02  0.00000000000E+00 0. -1.
         22    1    1    2    0    0  0.26588339418E+02 -0.81488708300E+01  0.41506370831E+02  0.49961212039E+02  0.00000000000E+00 0. -1.
</event>
<event>
 6    1  0.8017648E-006  0.1165912E+03  0.7818608E-02  0.1249680E+00
          2   -1    0    0  502    0  0.00000000000E+00  0.00000000000E+00  0.40622659568E+03  0.40622659568E+03  0.00000000000E+00 0. -1.
          1   -1    0    0  501    0 -0.00000000000E+00 -0.00000000000E+00 -0.14008156194E+03  0.14008156194E+03  0.00000000000E+00 0.  1.
          2    1    1    2  501    0  0.47178414288E+01  0.99219423199E+02  0.29709355979E+03  0.31325921413E+03  0.00000000000E+00 0. -1.
          1    1    1    2  502    0 -0.22303349772E+02 -0.79063567811E+02 -0.64130573842E+02  0.10421716590E+03  0.00000000000E+00 0.  1.
         22    1    1    2    0    0  0.11031934679E+02 -0.31256875974E+02 -0.41461917624E+02  0.53082826710E+02  0.00000000000E+00 0.  1.
         22    1    1    2    0    0  0.65535736634E+01  0.11101020586E+02  0.74643965420E+02  0.75748950880E+02  0.00000000000E+00 0. -1.
</event>
<event>
 6    1  0.8017648E-006  0.5649575E+02  0.7818608E-02  0.1513082E+00
          2   -1    0    0  502    0  0.00000000000E+00  0.00000000000E+00  0.45693397562E+03  0.45693397562E+03  0.00000000000E+00 0. -1.
          1   -1    0    0  501    0 -0.00000000000E+00 -0.00000000000E+00 -0.47021067715E+02  0.47021067715E+02  0.00000000000E+00 0. -1.
          2    1    1    2  501    0 -0.20491221565E+01  0.35795474740E+02  0.23982266399E+03  0.24248798955E+03  0.00000000000E+00 0. -1.
          1    1    1    2  502    0  0.26294102443E+02 -0.47609105986E+02  0.99531257687E+02  0.11342168246E+03  0.00000000000E+00 0. -1.
         22    1    1    2    0    0 -0.11898755854E+02  0.16734114535E+02  0.10715819445E+03  0.10910769733E+03  0.00000000000E+00 0.  1.
         22    1    1    2    0    0 -0.12346224432E+02 -0.49204832895E+01 -0.36599208217E+02  0.38937673989E+02  0.00000000000E+00 0. -1.
</event>
<event>
 6    1  0.8017648E-006  0.3120889E+02  0.7818608E-02  0.1608678E+00
          2   -1    0    0  502    0  0.00000000000E+00  0.00000000000E+00  0.25239996581E+03  0.25239996581E+03  0.00000000000E+00 0. -1.
          1   -1    0    0  501    0 -0.00000000000E+00 -0.00000000000E+00 -0.12989560340E+03  0.12989560340E+03  0.00000000000E+00 0.  1.
          2    1    1    2  501    0  0.18464823333E+02 -0.24600971231E+02  0.19657287869E+03  0.19896495702E+03  0.00000000000E+00 0. -1.
          1    1    1    2  502    0 -0.24918927141E+02 -0.23448985298E+02 -0.97968543846E+01  0.35591940060E+02  0.00000000000E+00 0.  1.
         22    1    1    2    0    0 -0.11922902556E+02  0.33447716343E+02  0.32514724970E+02  0.48146782590E+02  0.00000000000E+00 0.  1.
         22    1    1    2    0    0  0.18377006364E+02  0.14602240186E+02 -0.96786386857E+02  0.99591889540E+02  0.00000000000E+00 0.  1.
</event>
<event>
 6    1  0.8017648E-006  0.8266800E+02  0.7818608E-02  0.1362131E+00
          2   -1    0    0  502    0  0.00000000000E+00  0.00000000000E+00  0.39585957459E+03  0.39585957459E+03  0.00000000000E+00 0.  1.
          1   -1    0    0  501    0 -0.00000000000E+00 -0.00000000000E+00 -0.53276287947E+03  0.53276287947E+03  0.00000000000E+00 0.  1.
          2    1    1    2  501    0 -0.81279022288E+02  0.13593495074E+03  0.30946778134E+03  0.34764191057E+03  0.00000000000E+00 0.  1.
          1    1    1    2  502    0  0.49215281628E+02 -0.13479341462E+03 -0.42631463959E+03  0.44981727457E+03  0.00000000000E+00 0.  1.
         22    1    1    2    0    0  0.53112290484E+02 -0.19017827165E+02  0.37213626270E+02  0.67582890814E+02  0.00000000000E+00 0. -1.
         22    1    1    2    0    0 -0.21048549825E+02  0.17876291044E+02 -0.57270072895E+02  0.63580378111E+02  0.00000000000E+00 0.  1.
</event>
<event>
 6    1  0.8017648E-006  0.1971279E+03  0.7818608E-02  0.1246811E+00
          2   -1    0    0  502    0  0.00000000000E+00  0.00000000000E+00  0.28659392960E+03  0.28659392960E+03  0.00000000000E+00 0.  1.
          1   -1    0    0  501    0 -0.00000000000E+00 -0.00000000000E+00 -0.22415090768E+03  0.22415090768E+03  0.00000000000E+00 0. -1.
          2    1    1    2  501    0  0.27232800205E+02 -0.23529399734E+01  0.23119058024E+01  0.27431854512E+02  0.00000000000E+00 0.  1.
          1    1    1    2  502    0 -0.19058656144E+03  0.19624479771E+01 -0.10639398934E+03  0.21828139997E+03  0.00000000000E+00 0. -1.
         22    1    1    2    0    0  0.50963917370E+01 -0.24595836561E+02 -0.96411466141E+01  0.26905019846E+02  0.00000000000E+00 0.  1.
         22    1    1    2    0    0  0.15825736950E+03  0.24986328557E+02  0.17616625207E+03  0.23812656296E+03  0.00000000000E+00 0.  1.
</event>
<event>
 6    1  0.8017648E-006  0.9650351E+02  0.7818608E-02  0.1316205E+00
          2   -1    0    0  502    0  0.00000000000E+00  0.00000000000E+00  0.23327556745E+03  0.23327556745E+03  0.00000000000E+00 0. -1.
          1   -1    0    0  501    0 -0.00000000000E+00 -0.00000000000E+00 -0.13471772280E+03  0.13471772280E+03  0.00000000000E+00 0. -1.
          2    1    1    2  501    0  0.42833170370E+02  0.67083206190E+01  0.42758844109E+02  0.60893355952E+02  0.00000000000E+00 0. -1.
          1    1    1    2  502    0  0.69649276430E+01 -0.82308207168E+02  0.11374710852E+03  0.14057580119E+03  0.00000000000E+00 0. -1.
         22    1    1    2    0    0 -0.51869447699E+02  0.24303505440E+02 -0.89503295763E+02  0.10626354000E+03  0.00000000000E+00 0. -1.
         22    1    1    2    0    0  0.20713496860E+01  0.51296381109E+02  0.31555187782E+02  0.60260593096E+02  0.00000000000E+00 0. -1.
</event>
<event>
 6    1  0.8017648E-006  0.2341053E+03  0.7818608E-02  0.1256651E+00
          2   -1    0    0  502    0  0.00000000000E+00  0.00000000000E+00  0.87056853912E+03  0.87056853912E+03  0.00000000000E+00 0.  1.
          1   -1    0    0  501    0 -0.00000000000E+00 -0.00000000000E+00 -0.72221541831E+02  0.72221541831E+02  0.00000000000E+00 0.  1.
          2    1    1    2  501    0 -0.83860344719E+02 -0.11644503737E+03  0.21015227107E+03  0.25447196541E+03  0.00000000000E+00 0.  1.
          1    1    1    2  502    0  0.13673566805E+03  0.16209347617E+03  0.33159707623E+03  0.39360838266E+03  0.00000000000E+00 0.  1.
         22    1    1    2    0    0 -0.65028507811E+02 -0.47712149147E+02  0.26678976823E+03  0.27871479408E+03  0.00000000000E+00 0. -1.
         22    1    1    2    0    0  0.12153184476E+02  0.20637103411E+01 -0.10192118239E+02  0.15994938808E+02  0.00000000000E+00 0. -1.
</event>
<event>
 6    1  0.8017648E-006  0.3651429E+02  0.7818608E-02  0.1541754E+00
          2   -1    0    0  502    0  0.00000000000E+00  0.00000000000E+00  0.43794240946E+03  0.43794240946E+03  0.00000000000E+00 0. -1.
          1   -1    0    0  501    0 -0.00000000000E+00 -0.00000000000E+00 -0.20648270519E+03  0.20648270519E+03  0.00000000000E+00 0.  1.
          2    1    1    2  501    0  0.23625652597E+02 -0.24290792405E+02  0.31392077844E+03  0.31574430983E+03  0.00000000000E+00 0. -1.
          1    1    1    2  502    0  0.11855200947E+02  0.47783878239E+02 -0.16520600123E+03  0.17238581047E+03  0.00000000000E+00 0.  1.
         22    1    1    2    0    0 -0.24705349458E+02  0.96301211639E+00 -0.30886418426E+02  0.39563272455E+02  0.00000000000E+00 0. -1.
         22    1    1    2    0    0 -0.10775504086E+02 -0.24456097950E+02  0.11363134549E+03  0.11673172188E+03  0.00000000000E+00 0. -1.
</event>
<event>
 6    1  0.8017648E-006  0.2272742E+03  0.7818608E-02  0.1215114E+00
          2   -1    0    0  502    0  0.00000000000E+00  0.00000000000E+00  0.10780435089E+04  0.10780435089E+04  0.00000000000E+00 0. -1.
          1   -1    0    0  501    0 -0.00000000000E+00 -0.00000000000E+00 -0.12039799052E+03  0.12039799052E+03  0.00000000000E+00 0. -1.
          2    1    1    2  501    0  0.13671727680E+02 -0.21917206063E+02  0.67808151663E+01  0.26706918835E+02  0.00000000000E+00 0. -1.
          1    1    1    2  502    0  0.23577645516E+02  0.22312334560E+03  0.90100261425E+03  0.92851798238E+03  0.00000000000E+00 0. -1.
         22    1    1    2    0    0 -0.59427139829E+01 -0.19764690540E+03  0.65153594768E+02  0.20819367419E+03  0.00000000000E+00 0. -1.
         22    1    1    2    0    0 -0.31306659213E+02 -0.35592341367E+01 -0.15291505785E+02  0.35022924034E+02  0.00000000000E+00 0. -1.
</event>
<event>
 6    1  0.8017648E-006  0.5941540E+02  0.7818608E-02  0.1513745E+00
          2   -1    0    0  502    0  0.00000000000E+00  0.00000000000E+00  0.38048110306E+03  0.38048110306E+03  0.00000000000E+00 0. -1.
          1   -1    0    0  501    0 -0.00000000000E+00 -0.00000000000E+00 -0.12712356578E+03  0.12712356578E+03  0.00000000000E+00 0.  1.
          2    1    1    2  501    0  0.40288849468E+02  0.21668285489E+02  0.29038635725E+03  0.29396758744E+03  0.00000000000E+00 0. -1.
          1    1    1    2  502    0 -0.39631014862E+02 -0.41852136567E+02 -0.64952548890E+02  0.86839232386E+02  0.00000000000E+00 0.  1.
         22    1    1    2    0    0 -0.75549905310E+01  0.84355979949E+01 -0.48175644616E+02  0.49488684864E+02  0.00000000000E+00 0. -1.
         22    1    1    2    0    0  0.68971559246E+01  0.11748253083E+02  0.76099373531E+02  0.77309164154E+02  0.00000000000E+00 0.  1.
</event>
<event>
 6    1  0.8017648E-006  0.1015390E+03  0.7818608E-02  0.1297619E+00
          2   -1    0    0  502    0  0.00000000000E+00  0.00000000000E+00  0.50398872736E+02  0.50398872736E+02  0.00000000000E+00 0. -1.
          1   -1    0    0  501    0 -0.00000000000E+00 -0.00000000000E+00 -0.68109480261E+03  0.68109480261E+03  0.00000000000E+00 0. -1.
          2    1    1    2  501    0  0.28354636835E+02 -0.13914131739E+02 -0.38732855108E+02  0.49978220826E+02  0.00000000000E+00 0. -1.
          1    1    1    2  502    0  0.25320086217E+02  0.13194155831E+03 -0.13445470562E+03  0.19007301080E+03  0.00000000000E+00 0. -1.
         22    1    1    2    0    0 -0.11935629756E+02 -0.31410430870E+02 -0.12005324108E+02  0.35681959476E+02  0.00000000000E+00 0. -1.
         22    1    1    2    0    0 -0.41739093296E+02 -0.86616995697E+02 -0.44550304504E+03  0.45576048424E+03  0.00000000000E+00 0. -1.
</event>
<event>
 6    1  0.8017648E-006  0.4583211E+03  0.7818608E-02  0.1133407E+00
          2   -1    0    0  502    0  0.00000000000E+00  0.00000000000E+00  0.17250317569E+04  0.17250317569E+04  0.00000000000E+00 0. -1.
          1   -1    0    0  501    0 -0.00000000000E+00 -0.00000000000E+00 -0.16163333641E+03  0.16163333641E+03  0.00000000000E+00 0. -1.
          2    1    1    2  501    0  0.37678003366E+03 -0.56467505506E+02  0.83532360030E+03  0.91810527183E+03  0.00000000000E+00 0. -1.
          1    1    1    2  502    0 -0.43108391479E+03  0.11991810990E+03  0.67885565390E+03  0.81305516019E+03  0.00000000000E+00 0. -1.
         22    1    1    2    0    0  0.57332363475E+02 -0.39021388114E+02  0.86475936176E+02  0.11085015187E+03  0.00000000000E+00 0. -1.
         22    1    1    2    0    0 -0.30284823386E+01 -0.24429216279E+02 -0.37256769865E+02  0.44654509448E+02  0.00000000000E+00 0. -1.
</event>
<event>
 6    1  0.8017648E-006  0.4867758E+02  0.7818608E-02  0.1456650E+00
          2   -1    0    0  502    0  0.00000000000E+00  0.00000000000E+00  0.52145477403E+02  0.52145477403E+02  0.00000000000E+00 0. -1.
          1   -1    0    0  501    0 -0.00000000000E+00 -0.00000000000E+00 -0.52497685287E+03  0.52497685287E+03  0.00000000000E+00 0.  1.
          2    1    1    2  501    0  0.41417862135E+02  0.30082086484E+02 -0.20224981419E+02  0.55040177184E+02  0.00000000000E+00 0. -1.
          1    1    1    2  502    0 -0.73997511467E+02 -0.26354818275E+02 -0.34714786045E+03  0.35592393171E+03  0.00000000000E+00 0.  1.
         22    1    1    2    0    0  0.16189628680E+02  0.26682501725E+02  0.19306616225E+02  0.36698847463E+02  0.00000000000E+00 0.  1.
         22    1    1    2    0    0  0.16390020652E+02 -0.30409769934E+02 -0.12476514982E+03  0.12945937392E+03  0.00000000000E+00 0.  1.
</event>
<event>
 6    1  0.8017648E-006  0.2947117E+03  0.7818608E-02  0.1183717E+00
          2   -1    0    0  502    0  0.00000000000E+00  0.00000000000E+00  0.36261738032E+03  0.36261738032E+03  0.00000000000E+00 0.  1.
          1   -1    0    0  501    0 -0.00000000000E+00 -0.00000000000E+00 -0.32828132352E+03  0.32828132352E+03  0.00000000000E+00 0.  1.
          2    1    1    2  501    0 -0.12193624796E+03  0.34865077975E+02  0.57835539143E+02  0.13938784673E+03  0.00000000000E+00 0.  1.
          1    1    1    2  502    0  0.24244890561E+03 -0.16081314623E+03 -0.11866047797E+03  0.31420160544E+03  0.00000000000E+00 0.  1.
         22    1    1    2    0    0 -0.92506887406E+02  0.13175350998E+03  0.11890451086E+03  0.20013693890E+03  0.00000000000E+00 0.  1.
         22    1    1    2    0    0 -0.28005770240E+02 -0.58054417300E+01 -0.23743515240E+02  0.37172312766E+02  0.00000000000E+00 0.  1.
</event>
<event>
 6    1  0.8017648E-006  0.5161217E+02  0.7818608E-02  0.1538050E+00
          2   -1    0    0  502    0  0.00000000000E+00  0.00000000000E+00  0.33712047913E+03  0.33712047913E+03  0.00000000000E+00 0.  1.
          1   -1    0    0  501    0 -0.00000000000E+00 -0.00000000000E+00 -0.21536204696E+03  0.21536204696E+03  0.00000000000E+00 0.  1.
          2    1    1    2  501    0 -0.29342249695E+02  0.49861066823E+02  0.23611825175E+03  0.24310269931E+03  0.00000000000E+00 0.  1.
          1    1    1    2  502    0 -0.75645327692E+01 -0.50443477687E+02 -0.16285598891E+03  0.17065708225E+03  0.00000000000E+00 0.  1.
         22    1    1    2    0    0 -0.11308755103E+02 -0.26626217348E+01 -0.37948801219E+02  0.39687391077E+02  0.00000000000E+00 0.  1.
         22    1    1    2    0    0  0.48215537568E+02  0.32450325992E+01  0.86444970554E+02  0.99035353453E+02  0.00000000000E+00 0.  1.
</event>
<event>
 6    1  0.8017648E-006  0.4844877E+02  0.7818608E-02  0.1547266E+00
          2   -1    0    0  502    0  0.00000000000E+00  0.00000000000E+00  0.19340930164E+03  0.19340930164E+03  0.00000000000E+00 0.  1.
          1   -1    0    0  501    0 -0.00000000000E+00 -0.00000000000E+00 -0.86773752440E+02  0.86773752440E+02  0.00000000000E+00 0. -1.
          2    1    1    2  501    0  0.34601006011E+02 -0.15231845390E+02  0.10851821868E+03  0.11491493600E+03  0.00000000000E+00 0.  1.
          1    1    1    2  502    0 -0.35506668458E+02  0.13982250489E+02  0.16442337248E+02  0.41552103291E+02  0.00000000000E+00 0. -1.
         22    1    1    2    0    0  0.74169294254E+01 -0.10489807719E+02  0.51261312494E+02  0.52846656155E+02  0.00000000000E+00 0.  1.
         22    1    1    2    0    0 -0.65112669784E+01  0.11739402620E+02 -0.69586319217E+02  0.70869358637E+02  0.00000000000E+00 0. -1.
</event>
<event>
 6    1  0.8017648E-006  0.2021535E+03  0.7818608E-02  0.1276612E+00
          2   -1    0    0  502    0  0.00000000000E+00  0.00000000000E+00  0.66637446676E+02  0.66637446676E+02  0.00000000000E+00 0. -1.
          1   -1    0    0  501    0 -0.00000000000E+00 -0.00000000000E+00 -0.78747208414E+03  0.78747208414E+03  0.00000000000E+00 0. -1.
          2    1    1    2  501    0 -0.32710545154E+02 -0.27305106473E+01 -0.52436280223E+02  0.61862742715E+02  0.00000000000E+00 0. -1.
          1    1    1    2  502    0  0.19098545189E+03  0.37139226044E+02 -0.47210847791E+03  0.51062822078E+03  0.00000000000E+00 0. -1.
         22    1    1    2    0    0  0.64156808124E+01 -0.11290540189E+02 -0.74153784415E+02  0.75282275478E+02  0.00000000000E+00 0. -1.
         22    1    1    2    0    0 -0.16469058755E+03 -0.23118175207E+02 -0.12213609492E+03  0.20633629185E+03  0.00000000000E+00 0.  1.
</event>
<event>
 6    1  0.8017648E-006  0.8891923E+02  0.7818608E-02  0.1309450E+00
          2   -1    0    0  502    0  0.00000000000E+00  0.00000000000E+00  0.15954412533E+04  0.15954412533E+04  0.00000000000E+00 0. -1.
          1   -1    0    0  501    0 -0.00000000000E+00 -0.00000000000E+00 -0.30195002530E+02  0.30195002530E+02  0.00000000000E+00 0. -1.
          2    1    1    2  501    0  0.68775952783E+01  0.62096140143E+02  0.50531905674E+02  0.80353627351E+02  0.00000000000E+00 0. -1.
          1    1    1    2  502    0 -0.40649116192E+02 -0.11279274567E+01  0.12060782991E+04  0.12067636415E+04  0.00000000000E+00 0. -1.
         22    1    1    2    0    0 -0.19067838271E+02 -0.80501761015E+02  0.18418879956E+03  0.20191490749E+03  0.00000000000E+00 0. -1.
         22    1    1    2    0    0  0.52839359185E+02  0.19533548329E+02  0.12444724642E+03  0.13660407948E+03  0.00000000000E+00 0.  1.
</event>
<event>
 6    1  0.8017648E-006  0.4134922E+02  0.7818608E-02  0.1593198E+00
          2   -1    0    0  502    0  0.00000000000E+00  0.00000000000E+00  0.23288604025E+03  0.23288604025E+03  0.00000000000E+00 0.  1.
          1   -1    0    0  501    0 -0.00000000000E+00 -0.00000000000E+00 -0.11676079790E+03  0.11676079790E+03  0.00000000000E+00 0.  1.
          2    1    1    2  501    0 -0.10547398702E+02 -0.19664818250E+02  0.14280749193E+03  0.14454041804E+03  0.00000000000E+00 0.  1.
          1    1    1    2  502    0  0.31530935601E+02  0.25119552851E+02 -0.65363907571E+02  0.76796043180E+02  0.00000000000E+00 0.  1.
         22    1    1    2    0    0 -0.88110512797E+01  0.83743408841E+01 -0.42944092901E+02  0.44631371534E+02  0.00000000000E+00 0.  1.
         22    1    1    2    0    0 -0.12172485619E+02 -0.13829075485E+02  0.81625750887E+02  0.83679005389E+02  0.00000000000E+00 0.  1.
</event>
<event>
 6    1  0.8017648E-006  0.7825122E+02  0.7818608E-02  0.1351601E+00
          2   -1    0    0  502    0  0.00000000000E+00  0.00000000000E+00  0.11536801947E+03  0.11536801947E+03  0.00000000000E+00 0.  1.
          1   -1    0    0  501    0 -0.00000000000E+00 -0.00000000000E+00 -0.49385887329E+03  0.49385887329E+03  0.00000000000E+00 0.  1.
          2    1    1    2  501    0 -0.97429953798E+02  0.85879159054E+02  0.77573347449E+01  0.13010765581E+03  0.00000000000E+00 0.  1.
          1    1    1    2  502    0  0.13031712810E+03 -0.22897377595E+02 -0.14053235024E+03  0.19301861372E+03  0.00000000000E+00 0.  1.
         22    1    1    2    0    0 -0.29290114230E+02 -0.17438867185E+02  0.20577475737E+01  0.34150537410E+02  0.00000000000E+00 0.  1.
         22    1    1    2    0    0 -0.35970600674E+01 -0.45542914274E+02 -0.24777358590E+03  0.25195008583E+03  0.00000000000E+00 0. -1.
</event>
<event>
 6    1  0.8017648E-006  0.5646651E+02  0.7818608E-02  0.1533547E+00
          2   -1    0    0  502    0  0.00000000000E+00  0.00000000000E+00  0.29529252812E+03  0.29529252812E+03  0.00000000000E+00 0.  1.
          1   -1    0    0  501    0 -0.00000000000E+00 -0.00000000000E+00 -0.38526775621E+03  0.38526775621E+03  0.00000000000E+00 0.  1.
          2    1    1    2  501    0  0.13332786774E+02 -0.22724940312E+02  0.16542929167E+03  0.16751428792E+03  0.00000000000E+00 0.  1.
          1    1    1    2  502    0 -0.42776619310E+02  0.45381922894E+02 -0.34601066406E+03  0.35158603176E+03  0.00000000000E+00 0.  1.
         22    1    1    2    0    0  0.10088256621E+02 -0.98710582192E+00 -0.32980860988E+02  0.34503398254E+02  0.00000000000E+00 0.  1.
         22    1    1    2    0    0  0.19355575915E+02 -0.21669876760E+02  0.12358700529E+03  0.12695656640E+03  0.00000000000E+00 0.  1.
</event>
<event>
 6    1  0.8017648E-006  0.9796258E+02  0.7818608E-02  0.1309715E+00
          2   -1    0    0  502    0  0.00000000000E+00  0.00000000000E+00  0.13343628940E+03  0.13343628940E+03  0.00000000000E+00 0.  1.
          1   -1    0    0  501    0 -0.00000000000E+00 -0.00000000000E+00 -0.14628227235E+03  0.14628227235E+03  0.00000000000E+00 0.  1.
          2    1    1    2  501    0  0.58128832127E+02 -0.31104068389E+02 -0.26546613257E+02  0.71071420910E+02  0.00000000000E+00 0.  1.
          1    1    1    2  502    0 -0.66622632896E+02  0.39571121968E+02  0.93020556692E+01  0.78044712489E+02  0.00000000000E+00 0.  1.
         22    1    1    2    0    0 -0.26850731023E+02  0.41948936273E+02 -0.31882515976E+02  0.59136873741E+02  0.00000000000E+00 0. -1.
         22    1    1    2    0    0  0.35344531792E+02 -0.50415989851E+02  0.36281090607E+02  0.71465554612E+02  0.00000000000E+00 0.  1.
</event>
<event>
 6    1  0.8017648E-006  0.4106233E+02  0.7818608E-02  0.1541442E+00
          2   -1    0    0  502    0  0.00000000000E+00  0.00000000000E+00  0.20847042659E+03  0.20847042659E+03  0.00000000000E+00 0. -1.
          1   -1    0    0  501    0 -0.00000000000E+00 -0.00000000000E+00 -0.15099618479E+03  0.15099618479E+03  0.00000000000E+00 0. -1.
          2    1    1    2  501    0  0.29629383680E+02 -0.66371218977E+00  0.14793374126E+03  0.15087323385E+03  0.00000000000E+00 0. -1.
          1    1    1    2  502    0 -0.19757462368E+02 -0.17426226199E+02 -0.73139755592E+02  0.77739658649E+02  0.00000000000E+00 0. -1.
         22    1    1    2    0    0 -0.11931277267E+02 -0.55968664019E+01 -0.70963571546E+02  0.72176926904E+02  0.00000000000E+00 0.  1.
         22    1    1    2    0    0  0.20593559553E+01  0.23686804791E+02  0.53643827679E+02  0.58676791973E+02  0.00000000000E+00 0. -1.
</event>
<event>
 6    1  0.8017648E-006  0.6782492E+02  0.7818608E-02  0.1476016E+00
          2   -1    0    0  502    0  0.00000000000E+00  0.00000000000E+00  0.36048034671E+03  0.36048034671E+03  0.00000000000E+00 0.  1.
          1   -1    0    0  501    0 -0.00000000000E+00 -0.00000000000E+00 -0.12114341157E+03  0.12114341157E+03  0.00000000000E+00 0.  1.
          2    1    1    2  501    0 -0.19531035572E+02  0.63460054270E+02  0.27700950121E+02  0.71944301206E+02  0.00000000000E+00 0.  1.
          1    1    1    2  502    0  0.26867642804E+02  0.13522870422E+02 -0.77789552994E+02  0.83402354939E+02  0.00000000000E+00 0.  1.
         22    1    1    2    0    0  0.21917359102E+01 -0.68386182118E+02  0.30119217095E+03  0.30886598624E+03  0.00000000000E+00 0.  1.
         22    1    1    2    0    0 -0.95283431428E+01 -0.85967425736E+01 -0.11766632937E+02  0.17411115892E+02  0.00000000000E+00 0.  1.
</event>
<event>
 6    1  0.8017648E-006  0.8423063E+02  0.7818608E-02  0.1351460E+00
          2   -1    0    0  502    0  0.00000000000E+00  0.00000000000E+00  0.24760912093E+03  0.24760912093E+03  0.00000000000E+00 0. -1.
          1   -1    0    0  501    0 -0.00000000000E+00 -0.00000000000E+00 -0.15377832931E+03  0.15377832931E+03  0.00000000000E+00 0.  1.
          2    1    1    2  501    0  0.56456974841E+01 -0.50397731306E+02  0.30876053587E+02  0.59372854959E+02  0.00000000000E+00 0. -1.
          1    1    1    2  502    0 -0.20508961239E+02  0.83594069558E+02 -0.10164585990E+03  0.13319334364E+03  0.00000000000E+00 0.  1.
         22    1    1    2    0    0 -0.46181514602E+01  0.90191654450E+01 -0.17857804638E+02  0.20532263750E+02  0.00000000000E+00 0.  1.
         22    1    1    2    0    0  0.19481415215E+02 -0.42215503697E+02  0.18245840257E+03  0.18828898789E+03  0.00000000000E+00 0. -1.
</event>
<event>
 6    1  0.8017648E-006  0.4219973E+02  0.7818608E-02  0.1569841E+00
          2   -1    0    0  502    0  0.00000000000E+00  0.00000000000E+00  0.18013620616E+03  0.18013620616E+03  0.00000000000E+00 0. -1.
          1   -1    0    0  501    0 -0.00000000000E+00 -0.00000000000E+00 -0.12077879992E+03  0.12077879992E+03  0.00000000000E+00 0. -1.
          2    1    1    2  501    0 -0.39528171975E+01  0.25227185454E+02  0.11888456144E+03  0.12159594812E+03  0.00000000000E+00 0. -1.
          1    1    1    2  502    0  0.10665739358E+02 -0.33819701726E+02 -0.30221954299E+02  0.46592882960E+02  0.00000000000E+00 0. -1.
         22    1    1    2    0    0 -0.14057176793E+02 -0.59134497033E+01 -0.78989970730E+02  0.80448670484E+02  0.00000000000E+00 0. -1.
         22    1    1    2    0    0  0.73442546323E+01  0.14505965976E+02  0.49684769831E+02  0.52277504513E+02  0.00000000000E+00 0. -1.
</event>
<event>
 6    1  0.8017648E-006  0.8088504E+02  0.7818608E-02  0.1329790E+00
          2   -1    0    0  502    0  0.00000000000E+00  0.00000000000E+00  0.66874218172E+03  0.66874218172E+03  0.00000000000E+00 0. -1.
          1   -1    0    0  501    0 -0.00000000000E+00 -0.00000000000E+00 -0.55942603467E+02  0.55942603467E+02  0.00000000000E+00 0. -1.
          2    1    1    2  501    0 -0.89732953961E+02 -0.92469389573E+02  0.23208734635E+03  0.26545645098E+03  0.00000000000E+00 0. -1.
          1    1    1    2  502    0  0.86005144308E+02 -0.19293722324E+02  0.13783204797E+03  0.16360564177E+03  0.00000000000E+00 0. -1.
         22    1    1    2    0    0  0.39697723735E+02  0.54954573342E+02  0.33318546222E+02  0.75538334131E+02  0.00000000000E+00 0. -1.
         22    1    1    2    0    0 -0.35969914082E+02  0.56808538555E+02  0.20956163771E+03  0.22008435831E+03  0.00000000000E+00 0. -1.
</event>
<event>
 6    1  0.8017648E-006  0.1342989E+03  0.7818608E-02  0.1262043E+00
          2   -1    0    0  502    0  0.00000000000E+00  0.00000000000E+00  0.25306489736E+03  0.25306489736E+03  0.00000000000E+00 0. -1.
          1   -1    0    0  501    0 -0.00000000000E+00 -0.00000000000E+00 -0.47997135801E+03  0.47997135801E+03  0.00000000000E+00 0. -1.
          2    1    1    2  501    0  0.16660766145E+02  0.11140436663E+03  0.15573869912E+03  0.19220576587E+03  0.00000000000E+00 0. -1.
          1    1    1    2  502    0 -0.63367749296E+02 -0.14269853519E+03 -0.36801719715E+03  0.39976868436E+03  0.00000000000E+00 0. -1.
         22    1    1    2    0    0 -0.95505186230E+01  0.14458750472E+02  0.50487550891E+02  0.53378466315E+02  0.00000000000E+00 0. -1.
         22    1    1    2    0    0  0.56257501774E+02  0.16835418089E+02 -0.65115513503E+02  0.87683338821E+02  0.00000000000E+00 0.  1.
</event>
<event>
 6    1  0.8017648E-006  0.1069322E+03  0.7818608E-02  0.1375588E+00
          2   -1    0    0  502    0  0.00000000000E+00  0.00000000000E+00  0.47543887056E+03  0.47543887056E+03  0.00000000000E+00 0. -1.
          1   -1    0    0  501    0 -0.00000000000E+00 -0.00000000000E+00 -0.15212222049E+03  0.15212222049E+03  0.00000000000E+00 0. -1.
          2    1    1    2  501    0  0.20940946459E+02  0.86321057490E+02  0.37916019449E+03  0.38942560431E+03  0.00000000000E+00 0. -1.
          1    1    1    2  502    0 -0.73211922147E+01 -0.89198617074E+02 -0.65944976869E+02  0.11116983906E+03  0.00000000000E+00 0. -1.
         22    1    1    2    0    0 -0.80375770177E+01  0.16994738070E+02  0.66216464817E+02  0.68833451019E+02  0.00000000000E+00 0. -1.
         22    1    1    2    0    0 -0.55821772267E+01 -0.14117178486E+02 -0.56115032365E+02  0.58132196658E+02  0.00000000000E+00 0. -1.
</event>
<event>
 6    1  0.8017648E-006  0.6637135E+02  0.7818608E-02  0.1448481E+00
          2   -1    0    0  502    0  0.00000000000E+00  0.00000000000E+00  0.47701620407E+03  0.47701620407E+03  0.00000000000E+00 0. -1.
          1   -1    0    0  501    0 -0.00000000000E+00 -0.00000000000E+00 -0.66028302281E+02  0.66028302281E+02  0.00000000000E+00 0. -1.
          2    1    1    2  501    0  0.29708965110E+02 -0.28243597126E+02  0.32486643148E+03  0.32744239446E+03  0.00000000000E+00 0. -1.
          1    1    1    2  502    0 -0.50915454666E+02  0.38071364459E+02 -0.69167373901E+00  0.63579011695E+02  0.00000000000E+00 0. -1.
         22    1    1    2    0    0  0.56509757483E+01 -0.23035157986E+02  0.11489076104E+03  0.11731342210E+03  0.00000000000E+00 0.  1.
         22    1    1    2    0    0  0.15555513807E+02  0.13207390653E+02 -0.28077616997E+02  0.34709678101E+02  0.00000000000E+00 0. -1.
</event>
<event>
 6    1  0.8017648E-006  0.9463162E+02  0.7818608E-02  0.1297443E+00
          2   -1    0    0  502    0  0.00000000000E+00  0.00000000000E+00  0.67139898941E+03  0.67139898941E+03  0.00000000000E+00 0.  1.
          1   -1    0    0  501    0 -0.00000000000E+00 -0.00000000000E+00 -0.85319315668E+02  0.85319315668E+02  0.00000000000E+00 0.  1.
          2    1    1    2  501    0 -0.12528058216E+03  0.33463398577E+02  0.19739084579E+03  0.23617402337E+03  0.00000000000E+00 0.  1.
          1    1    1    2  502    0  0.19496122260E+03  0.22597304063E+02  0.21453561008E+03  0.29076802517E+03  0.00000000000E+00 0.  1.
         22    1    1    2    0    0 -0.57040177741E+02 -0.47212191273E+01  0.11017026297E+02  0.58285904430E+02  0.00000000000E+00 0.  1.
         22    1    1    2    0    0 -0.12640462699E+02 -0.51339483513E+02  0.16313619158E+03  0.17149035211E+03  0.00000000000E+00 0.  1.
</event>
<event>
 6    1  0.8017648E-006  0.9627318E+02  0.7818608E-02  0.1369165E+00
          2   -1    0    0  502    0  0.00000000000E+00  0.00000000000E+00  0.66708687534E+02  0.66708687534E+02  0.00000000000E+00 0. -1.
          1   -1    0    0  501    0 -0.00000000000E+00 -0.00000000000E+00 -0.36844325804E+03  0.36844325804E+03  0.00000000000E+00 0. -1.
          2    1    1    2  501    0 -0.16122533137E+02 -0.17536977619E+02 -0.11336191750E+02  0.26381639489E+02  0.00000000000E+00 0. -1.
          1    1    1    2  502    0  0.70790154624E+02  0.57102676957E+02 -0.24453431754E+03  0.26090035294E+03  0.00000000000E+00 0. -1.
         22    1    1    2    0    0 -0.62994092513E+02 -0.17989706911E+02  0.27422986471E+02  0.71020457851E+02  0.00000000000E+00 0. -1.
         22    1    1    2    0    0  0.83264710263E+01 -0.21575992428E+02 -0.73287047689E+02  0.76849495300E+02  0.00000000000E+00 0. -1.
</event>
<event>
 6    1  0.8017648E-006  0.3980283E+02  0.7818608E-02  0.1512253E+00
          2   -1    0    0  502    0  0.00000000000E+00  0.00000000000E+00  0.40808980211E+03  0.40808980211E+03  0.00000000000E+00 0.  1.
          1   -1    0    0  501    0 -0.00000000000E+00 -0.00000000000E+00 -0.21676811109E+03  0.21676811109E+03  0.00000000000E+00 0. -1.
          2    1    1    2  501    0  0.41639880818E+02 -0.50445208325E+02  0.35075158980E+03  0.35679864976E+03  0.00000000000E+00 0.  1.
          1    1    1    2  502    0 -0.57137701797E+02  0.32376771211E+02 -0.10895186064E+03  0.12721430823E+03  0.00000000000E+00 0. -1.
         22    1    1    2    0    0  0.20156538073E+02 -0.74654239996E+00  0.41875050214E+02  0.46479707218E+02  0.00000000000E+00 0. -1.
         22    1    1    2    0    0 -0.46587170940E+01  0.18814979514E+02 -0.92353088362E+02  0.94365247994E+02  0.00000000000E+00 0. -1.
</event>
<event>
 6    1  0.8017648E-006  0.1162115E+03  0.7818608E-02  0.1311902E+00
          2   -1    0    0  502    0  0.00000000000E+00  0.00000000000E+00  0.77306037371E+02  0.77306037371E+02  0.00000000000E+00 0. -1.
          1   -1    0    0  501    0 -0.00000000000E+00 -0.00000000000E+00 -0.39685590180E+03  0.39685590180E+03  0.00000000000E+00 0.  1.
          2    1    1    2  501    0 -0.13992143750E+01  0.94998921455E+02 -0.64247988395E+01  0.95226209200E+02  0.00000000000E+00 0. -1.
          1    1    1    2  502    0  0.60278991605E+01 -0.86438160628E+02 -0.12458076812E+03  0.15175064733E+03  0.00000000000E+00 0.  1.
         22    1    1    2    0    0 -0.20500250688E+02  0.23136051194E+02  0.42110534835E+01  0.31197277358E+02  0.00000000000E+00 0. -1.
         22    1    1    2    0    0  0.15871565902E+02 -0.31696812021E+02 -0.19275535095E+03  0.19598780528E+03  0.00000000000E+00 0.  1.
</event>
<event>
 6    1  0.8017648E-006  0.4034837E+02  0.7818608E-02  0.1579804E+00
          2   -1    0    0  502    0  0.00000000000E+00  0.00000000000E+00  0.14282533637E+03  0.14282533637E+03  0.00000000000E+00 0. -1.
          1   -1    0    0  501    0 -0.00000000000E+00 -0.00000000000E+00 -0.36003748995E+03  0.36003748995E+03  0.00000000000E+00 0.  1.
          2    1    1    2  501    0 -0.16225048235E+02  0.22785596429E+02  0.86758281169E+02  0.91156102079E+02  0.00000000000E+00 0. -1.
          1    1    1    2  502    0  0.30241362619E+02 -0.37991663724E+02 -0.27584446411E+03  0.28008583489E+03  0.00000000000E+00 0.  1.
         22    1    1    2    0    0 -0.15050406481E+02  0.33318202960E+01 -0.78426716560E+02  0.79927252124E+02  0.00000000000E+00 0. -1.
         22    1    1    2    0    0  0.10340920976E+01  0.11874246999E+02  0.50300745932E+02  0.51693637225E+02  0.00000000000E+00 0. -1.
</event>
<event>
 6    1  0.8017648E-006  0.5507792E+02  0.7818608E-02  0.1425406E+00
          2   -1    0    0  502    0  0.00000000000E+00  0.00000000000E+00  0.75199618406E+02  0.75199618406E+02  0.00000000000E+00 0. -1.
          1   -1    0    0  501    0 -0.00000000000E+00 -0.00000000000E+00 -0.31086110055E+03  0.31086110055E+03  0.00000000000E+00 0.  1.
          2    1    1    2  501    0 -0.10305861654E+02  0.69158333613E+02 -0.10929279477E+01  0.69930539710E+02  0.00000000000E+00 0. -1.
          1    1    1    2  502    0  0.21288730920E+02 -0.25554714820E+02 -0.16739320504E+03  0.17066557534E+03  0.00000000000E+00 0.  1.
         22    1    1    2    0    0  0.17197463827E+02  0.10496990991E+01 -0.87280220739E+02  0.88964552280E+02  0.00000000000E+00 0. -1.
         22    1    1    2    0    0 -0.28180333093E+02 -0.44653317892E+02  0.20104871582E+02  0.56500051622E+02  0.00000000000E+00 0. -1.
</event>
<event>
 6    1  0.8017648E-006  0.1464559E+03  0.7818608E-02  0.1251114E+00
          2   -1    0    0  502    0  0.00000000000E+00  0.00000000000E+00  0.12115542795E+04  0.12115542795E+04  0.00000000000E+00 0.  1.
          1   -1    0    0  501    0 -0.00000000000E+00 -0.00000000000E+00 -0.58621284912E+02  0.58621284912E+02  0.00000000000E+00 0. -1.
          2    1    1    2  501    0 -0.29908695849E+02 -0.35385763631E+02  0.80431670093E+03  0.80565007153E+03  0.00000000000E+00 0.  1.
          1    1    1    2  502    0  0.44509848517E+02 -0.84901459384E+02  0.30226092634E+02  0.10051368612E+03  0.00000000000E+00 0. -1.
         22    1    1    2    0    0  0.11384083714E+02  0.55031670543E+02  0.23569068548E+02  0.60939175553E+02  0.00000000000E+00 0.  1.
         22    1    1    2    0    0 -0.25985236382E+02  0.65255552472E+02  0.29482113245E+03  0.30307263119E+03  0.00000000000E+00 0. -1.
</event>
<event>
 6    1  0.8017648E-006  0.6509000E+02  0.7818608E-02  0.1426207E+00
          2   -1    0    0  502    0  0.00000000000E+00  0.00000000000E+00  0.68369712094E+02  0.68369712094E+02  0.00000000000E+00 0.  1.
          1   -1    0    0  501    0 -0.00000000000E+00 -0.00000000000E+00 -0.26888063112E+03  0.26888063112E+03  0.00000000000E+00 0.  1.
          2    1    1    2  501    0 -0.28502215606E+02  0.37973300487E+02  0.18373231241E+02  0.50910936650E+02  0.00000000000E+00 0.  1.
          1    1    1    2  502    0 -0.16872456074E+01 -0.51870517383E+02 -0.56955436790E+02  0.77054001527E+02  0.00000000000E+00 0.  1.
         22    1    1    2    0    0  0.62529898603E+00  0.20157916500E+02  0.17881576246E+02  0.26953355366E+02  0.00000000000E+00 0.  1.
         22    1    1    2    0    0  0.29564162228E+02 -0.62606996039E+01 -0.17981028972E+03  0.18233204967E+03  0.00000000000E+00 0.  1.
</event>
<event>
 6    1  0.8017648E-006  0.6172985E+02  0.7818608E-02  0.1425370E+00
          2   -1    0    0  502    0  0.00000000000E+00  0.00000000000E+00  0.61697680777E+02  0.61697680777E+02  0.00000000000E+00 0.  1.
          1   -1    0    0  501    0 -0.00000000000E+00 -0.00000000000E+00 -0.73613260430E+03  0.73613260430E+03  0.00000000000E+00 0.  1.
          2    1    1    2  501    0  0.38230806938E+02  0.38715899533E+02 -0.26600820954E+02  0.60564999391E+02  0.00000000000E+00 0.  1.
          1    1    1    2  502    0 -0.63030274314E+02 -0.86516049662E+02 -0.56647116894E+03  0.57649581748E+03  0.00000000000E+00 0.  1.
         22    1    1    2    0    0 -0.14963812845E+01  0.45367729866E+02  0.24555508542E+02  0.51608556169E+02  0.00000000000E+00 0.  1.
         22    1    1    2    0    0  0.26295848661E+02  0.24324202635E+01 -0.10591844216E+03  0.10916091203E+03  0.00000000000E+00 0. -1.
</event>
<event>
 6    1  0.8017648E-006  0.1192868E+03  0.7818608E-02  0.1326442E+00
          2   -1    0    0  502    0  0.00000000000E+00  0.00000000000E+00  0.80616593809E+02  0.80616593809E+02  0.00000000000E+00 0. -1.
          1   -1    0    0  501    0 -0.00000000000E+00 -0.00000000000E+00 -0.26029430456E+03  0.26029430456E+03  0.00000000000E+00 0. -1.
          2    1    1    2  501    0  0.29663407942E+02  0.39059622544E+01 -0.34221449083E+02  0.45456373472E+02  0.00000000000E+00 0. -1.
          1    1    1    2  502    0 -0.16687084100E+02  0.43149905187E+02 -0.14977637692E+03  0.15675884720E+03  0.00000000000E+00 0. -1.
         22    1    1    2    0    0 -0.25002118442E+02  0.36643132695E+01 -0.54517440127E+02  0.60088970671E+02  0.00000000000E+00 0. -1.
         22    1    1    2    0    0  0.12025794600E+02 -0.50720180711E+02  0.58837555374E+02  0.78606707026E+02  0.00000000000E+00 0. -1.
</event>
<event>
 6    1  0.8017648E-006  0.9543987E+02  0.7818608E-02  0.1336380E+00
          2   -1    0    0  502    0  0.00000000000E+00  0.00000000000E+00  0.17449391028E+03  0.17449391028E+03  0.00000000000E+00 0.  1.
          1   -1    0    0  501    0 -0.00000000000E+00 -0.00000000000E+00 -0.95312473630E+02  0.95312473630E+02  0.00000000000E+00 0.  1.
          2    1    1    2  501    0 -0.42775565151E+02  0.32850666695E+01 -0.23770705960E+02  0.49046784797E+02  0.00000000000E+00 0.  1.
          1    1    1    2  502    0  0.34923260133E+02  0.13156424616E+02  0.83056814043E+02  0.91055806876E+02  0.00000000000E+00 0.  1.
         22    1    1    2    0    0 -0.26313076912E+02  0.70086821882E+01  0.63777795978E+02  0.69347724566E+02  0.00000000000E+00 0. -1.
         22    1    1    2    0    0  0.34165381931E+02 -0.23450173474E+02 -0.43882467412E+02  0.60356067670E+02  0.00000000000E+00 0. -1.
</event>
<event>
 6    1  0.8017648E-006  0.8475066E+02  0.7818608E-02  0.1350992E+00
          2   -1    0    0  502    0  0.00000000000E+00  0.00000000000E+00  0.23823779557E+03  0.23823779557E+03  0.00000000000E+00 0. -1.
          1   -1    0    0  501    0 -0.00000000000E+00 -0.00000000000E+00 -0.10175961378E+03  0.10175961378E+03  0.00000000000E+00 0.  1.
          2    1    1    2  501    0 -0.62696918465E+02 -0.22748471652E+02  0.13621725236E+03  0.15166916756E+03  0.00000000000E+00 0. -1.
          1    1    1    2  502    0  0.44491524730E+02  0.36988379022E+02 -0.25000610953E+02  0.63029092517E+02  0.00000000000E+00 0.  1.
         22    1    1    2    0    0  0.41820658068E+02 -0.19178839814E+02 -0.36669884550E+02  0.58834307770E+02  0.00000000000E+00 0.  1.
         22    1    1    2    0    0 -0.23615264333E+02  0.49389324441E+01  0.61931424925E+02  0.66464841506E+02  0.00000000000E+00 0.  1.
</event>
<event>
 6    1  0.8017648E-006  0.6956621E+03  0.7818608E-02  0.1052337E+00
          2   -1    0    0  502    0  0.00000000000E+00  0.00000000000E+00  0.14575343854E+04  0.14575343854E+04  0.00000000000E+00 0.  1.
          1   -1    0    0  501    0 -0.00000000000E+00 -0.00000000000E+00 -0.42207019807E+03  0.42207019807E+03  0.00000000000E+00 0.  1.
          2    1    1    2  501    0 -0.59424364780E+03 -0.15039349482E+03  0.90581449488E+03  0.10937292240E+04  0.00000000000E+00 0.  1.
          1    1    1    2  502    0  0.62269292459E+03  0.16399429986E+03  0.11677317302E+03  0.65442843967E+03  0.00000000000E+00 0.  1.
         22    1    1    2    0    0 -0.51558782118E+02  0.41241327110E+02  0.25204461886E+02  0.70671210363E+02  0.00000000000E+00 0.  1.
         22    1    1    2    0    0  0.23109505325E+02 -0.54842132149E+02 -0.12327942450E+02  0.60775709458E+02  0.00000000000E+00 0. -1.
</event>
<event>
 6    1  0.8017648E-006  0.6834624E+02  0.7818608E-02  0.1417975E+00
          2   -1    0    0  502    0  0.00000000000E+00  0.00000000000E+00  0.21133254825E+03  0.21133254825E+03  0.00000000000E+00 0.  1.
          1   -1    0    0  501    0 -0.00000000000E+00 -0.00000000000E+00 -0.34927464048E+03  0.34927464048E+03  0.00000000000E+00 0.  1.
          2    1    1    2  501    0 -0.54801524918E+02  0.23589121501E+01  0.16969151832E+03  0.17833671240E+03  0.00000000000E+00 0.  1.
          1    1    1    2  502    0  0.82375913186E+02  0.20580286096E+02 -0.17821562504E+03  0.19740858202E+03  0.00000000000E+00 0.  1.
         22    1    1    2    0    0 -0.15490371903E+02 -0.25241101647E+02 -0.15429402520E+03  0.15711050584E+03  0.00000000000E+00 0.  1.
         22    1    1    2    0    0 -0.12084016365E+02  0.23019034014E+01  0.24876039684E+02  0.27751388454E+02  0.00000000000E+00 0.  1.
</event>
<event>
 6    1  0.8017648E-006  0.2153450E+03  0.7818608E-02  0.1270796E+00
          2   -1    0    0  502    0  0.00000000000E+00  0.00000000000E+00  0.13803572965E+03  0.13803572965E+03  0.00000000000E+00 0. -1.
          1   -1    0    0  501    0 -0.00000000000E+00 -0.00000000000E+00 -0.43514986207E+03  0.43514986207E+03  0.00000000000E+00 0.  1.
          2    1    1    2  501    0  0.69593721482E+02  0.35658826285E+01 -0.59022932334E+02  0.91322002441E+02  0.00000000000E+00 0. -1.
          1    1    1    2  502    0 -0.11138967712E+03  0.78196313406E+02 -0.28934788256E+03  0.31975697137E+03  0.00000000000E+00 0.  1.
         22    1    1    2    0    0 -0.11425664022E+02 -0.37127389042E+01 -0.33251554454E+02  0.35355283934E+02  0.00000000000E+00 0.  1.
         22    1    1    2    0    0  0.53221619657E+02 -0.78049457131E+02  0.84508236922E+02  0.12675133398E+03  0.00000000000E+00 0. -1.
</event>
<event>
 6    1  0.8017648E-006  0.9122667E+02  0.7818608E-02  0.1373311E+00
          2   -1    0    0  502    0  0.00000000000E+00  0.00000000000E+00  0.66732231124E+03  0.66732231124E+03  0.00000000000E+00 0. -1.
          1   -1    0    0  501    0 -0.00000000000E+00 -0.00000000000E+00 -0.17222275219E+03  0.17222275219E+03  0.00000000000E+00 0. -1.
          2    1    1    2  501    0 -0.20505798484E+03 -0.49364349382E+02  0.35436351818E+01  0.21094590180E+03  0.00000000000E+00 0. -1.
          1    1    1    2  502    0  0.20138593482E+03  0.83348386070E+02  0.43800604806E+03  0.48923669766E+03  0.00000000000E+00 0. -1.
         22    1    1    2    0    0  0.92793494068E+01  0.64082057937E+01 -0.37734422889E+02  0.39383474931E+02  0.00000000000E+00 0. -1.
         22    1    1    2    0    0 -0.56072993883E+01 -0.40392242481E+02  0.91284298703E+02  0.99978989037E+02  0.00000000000E+00 0.  1.
</event>
<event>
 6    1  0.8017648E-006  0.5824745E+02  0.7818608E-02  0.1448566E+00
          2   -1    0    0  502    0  0.00000000000E+00  0.00000000000E+00  0.14232736342E+03  0.14232736342E+03  0.00000000000E+00 0. -1.
          1   -1    0    0  501    0 -0.00000000000E+00 -0.00000000000E+00 -0.16180285319E+03  0.16180285319E+03  0.00000000000E+00 0. -1.
          2    1    1    2  501    0  0.15424698670E+02 -0.22327044280E+02  0.46254254860E+02  0.53627179005E+02  0.00000000000E+00 0. -1.
          1    1    1    2  502    0 -0.30959964873E+02  0.65847185264E+02  0.37599573994E+02  0.81902986494E+02  0.00000000000E+00 0. -1.
         22    1    1    2    0    0  0.22217673878E+02 -0.20385196382E+02 -0.12954222871E+03  0.13300515134E+03  0.00000000000E+00 0. -1.
         22    1    1    2    0    0 -0.66824076757E+01 -0.23134944601E+02  0.26212910094E+02  0.35594899770E+02  0.00000000000E+00 0. -1.
</event>
<event>
 6    1  0.8017648E-006  0.2805175E+03  0.7818608E-02  0.1187720E+00
          2   -1    0    0  502    0  0.00000000000E+00  0.00000000000E+00  0.90478374839E+03  0.90478374839E+03  0.00000000000E+00 0.  1.
          1   -1    0    0  501    0 -0.00000000000E+00 -0.00000000000E+00 -0.20643282857E+03  0.20643282857E+03  0.00000000000E+00 0. -1.
          2    1    1    2  501    0 -0.14448446530E+03  0.18625790584E+03  0.57826759107E+03  0.62446871425E+03  0.00000000000E+00 0.  1.
          1    1    1    2  502    0  0.14335745174E+03 -0.24418928784E+03 -0.28352080639E+02  0.28457618969E+03  0.00000000000E+00 0. -1.
         22    1    1    2    0    0  0.19785417640E+02  0.22999856969E+02 -0.15114401984E+02  0.33895446879E+02  0.00000000000E+00 0. -1.
         22    1    1    2    0    0 -0.18658404078E+02  0.34931525030E+02  0.16354981137E+03  0.16827622613E+03  0.00000000000E+00 0.  1.
</event>
<event>
 6    1  0.8017648E-006  0.4360541E+02  0.7818608E-02  0.1518505E+00
          2   -1    0    0  502    0  0.00000000000E+00  0.00000000000E+00  0.27662743702E+02  0.27662743702E+02  0.00000000000E+00 0.  1.
          1   -1    0    0  501    0 -0.00000000000E+00 -0.00000000000E+00 -0.38403439515E+03  0.38403439515E+03  0.00000000000E+00 0.  1.
          2    1    1    2  501    0 -0.98830574550E+01  0.24191126492E+02 -0.56224224106E+02  0.62000393563E+02  0.00000000000E+00 0.  1.
          1    1    1    2  502    0  0.19899037327E+02 -0.12573590735E+02  0.13060393264E+01  0.23574829994E+02  0.00000000000E+00 0.  1.
         22    1    1    2    0    0 -0.30505592214E+02  0.40012885657E+02 -0.59728927396E+02  0.78097163475E+02  0.00000000000E+00 0.  1.
         22    1    1    2    0    0  0.20489612342E+02 -0.51630421414E+02 -0.24172453927E+03  0.24802475182E+03  0.00000000000E+00 0.  1.
</event>
<event>
 6    1  0.8017648E-006  0.4779168E+02  0.7818608E-02  0.1472738E+00
          2   -1    0    0  502    0  0.00000000000E+00  0.00000000000E+00  0.28415203093E+03  0.28415203093E+03  0.00000000000E+00 0.  1.
          1   -1    0    0  501    0 -0.00000000000E+00 -0.00000000000E+00 -0.11163515671E+03  0.11163515671E+03  0.00000000000E+00 0.  1.
          2    1    1    2  501    0  0.11504763260E+02 -0.41076169616E+02  0.20531705645E+03  0.20970146627E+03  0.00000000000E+00 0.  1.
          1    1    1    2  502    0 -0.29016090817E+02  0.71894523721E+01  0.30657108358E+02  0.42819155113E+02  0.00000000000E+00 0.  1.
         22    1    1    2    0    0  0.11999321252E+02 -0.41503825580E+01  0.35182472246E+02  0.37403418817E+02  0.00000000000E+00 0. -1.
         22    1    1    2    0    0  0.55120063050E+01  0.38037099802E+02 -0.98639762827E+02  0.10586314744E+03  0.00000000000E+00 0.  1.
</event>
<event>
 6    1  0.8431254E-006  0.7656935E+02  0.7818608E-02  0.1389201E+00
          2   -1    0    0  502    0  0.00000000000E+00  0.00000000000E+00  0.13185367140E+03  0.13185367140E+03  0.00000000000E+00 0. -1.
          1   -1    0    0  501    0 -0.00000000000E+00 -0.00000000000E+00 -0.69748982431E+03  0.69748982431E+03  0.00000000000E+00 0.  1.
          2    1    1    2  501    0  0.21060246737E+02  0.16178422799E+02  0.12368819482E+02  0.29296126916E+02  0.00000000000E+00 0. -1.
          1    1    1    2  502    0 -0.46113863177E+02  0.26596268964E+02 -0.64646216484E+03  0.64865027593E+03  0.00000000000E+00 0.  1.
         22    1    1    2    0    0 -0.74650468909E+01 -0.36381996131E+02  0.99365654570E+02  0.10607973358E+03  0.00000000000E+00 0. -1.
         22    1    1    2    0    0  0.32518663331E+02 -0.63926956316E+01 -0.30908462118E+02  0.45317359287E+02  0.00000000000E+00 0.  1.
</event>
<event>
 6    1  0.1042100E-005  0.2842682E+03  0.7818608E-02  0.1174535E+00
          2   -1    0    0  502    0  0.00000000000E+00  0.00000000000E+00  0.44461643784E+03  0.44461643784E+03  0.00000000000E+00 0. -1.
          1   -1    0    0  501    0 -0.00000000000E+00 -0.00000000000E+00 -0.58042939281E+03  0.58042939281E+03  0.00000000000E+00 0. -1.
          2    1    1    2  501    0  0.18391021629E+03 -0.14184271868E+03  0.26187907460E+03  0.35003281876E+03  0.00000000000E+00 0. -1.
          1    1    1    2  502    0 -0.20994931712E+03  0.19319513934E+03 -0.44234894901E+03  0.52637977764E+03  0.00000000000E+00 0. -1.
         22    1    1    2    0    0 -0.20662651001E+02 -0.33298998420E+02 -0.36317098639E+02  0.53429393556E+02  0.00000000000E+00 0. -1.
         22    1    1    2    0    0  0.46701751834E+02 -0.18053422236E+02  0.80974018073E+02  0.95203840688E+02  0.00000000000E+00 0.  1.
</event>
<event>
 6    1  0.8017648E-006  0.5808773E+02  0.7818608E-02  0.1488598E+00
          2   -1    0    0  502    0  0.00000000000E+00  0.00000000000E+00  0.29621416211E+03  0.29621416211E+03  0.00000000000E+00 0. -1.
          1   -1    0    0  501    0 -0.00000000000E+00 -0.00000000000E+00 -0.42675836244E+02  0.42675836244E+02  0.00000000000E+00 0.  1.
          2    1    1    2  501    0  0.18059654960E+02  0.18154118076E+02  0.12073034009E+03  0.12341611791E+03  0.00000000000E+00 0. -1.
          1    1    1    2  502    0 -0.11129912235E+02 -0.34320521499E+02  0.87081976815E+00  0.36090600845E+02  0.00000000000E+00 0.  1.
         22    1    1    2    0    0 -0.10816791311E+02  0.32831363500E+02  0.15033467467E+03  0.15425762805E+03  0.00000000000E+00 0.  1.
         22    1    1    2    0    0  0.38870485854E+01 -0.16664960077E+02 -0.18397508662E+02  0.25125651555E+02  0.00000000000E+00 0.  1.
</event>
<event>
 6    1  0.8017648E-006  0.8105660E+02  0.7818608E-02  0.1328236E+00
          2   -1    0    0  502    0  0.00000000000E+00  0.00000000000E+00  0.19100300357E+03  0.19100300357E+03  0.00000000000E+00 0.  1.
          1   -1    0    0  501    0 -0.00000000000E+00 -0.00000000000E+00 -0.13029279978E+03  0.13029279978E+03  0.00000000000E+00 0. -1.
          2    1    1    2  501    0  0.31819048768E+02  0.43722977094E+02  0.10175655556E+03  0.11523257868E+03  0.00000000000E+00 0.  1.
          1    1    1    2  502    0 -0.34315005082E+02 -0.31491191622E+02 -0.64271647336E+02  0.79372913357E+02  0.00000000000E+00 0. -1.
         22    1    1    2    0    0  0.38400972271E+01  0.22185076634E+02  0.67177514504E+02  0.70850140627E+02  0.00000000000E+00 0. -1.
         22    1    1    2    0    0 -0.13441409134E+01 -0.34416862107E+02 -0.43952218939E+02  0.55840170681E+02  0.00000000000E+00 0.  1.
</event>
<event>
 6    1  0.8017648E-006  0.6072186E+02  0.7818608E-02  0.1449109E+00
          2   -1    0    0  502    0  0.00000000000E+00  0.00000000000E+00  0.83058650417E+02  0.83058650417E+02  0.00000000000E+00 0. -1.
          1   -1    0    0  501    0 -0.00000000000E+00 -0.00000000000E+00 -0.47541676715E+03  0.47541676715E+03  0.00000000000E+00 0.  1.
          2    1    1    2  501    0  0.11395374288E+02 -0.23684054532E+02  0.27849756993E+02  0.38293575947E+02  0.00000000000E+00 0. -1.
          1    1    1    2  502    0 -0.57387720675E+02  0.14931826728E+01 -0.36752120075E+03  0.37197770509E+03  0.00000000000E+00 0.  1.
         22    1    1    2    0    0  0.11583410631E+02  0.23725509330E+02 -0.92130318226E+02  0.95838774676E+02  0.00000000000E+00 0.  1.
         22    1    1    2    0    0  0.34408935756E+02 -0.15346374710E+01  0.39443645251E+02  0.52365361860E+02  0.00000000000E+00 0. -1.
</event>
<event>
 6    1  0.8017648E-006  0.4715090E+02  0.7818608E-02  0.1514148E+00
          2   -1    0    0  502    0  0.00000000000E+00  0.00000000000E+00  0.26788659009E+03  0.26788659009E+03  0.00000000000E+00 0.  1.
          1   -1    0    0  501    0 -0.00000000000E+00 -0.00000000000E+00 -0.86237026872E+02  0.86237026872E+02  0.00000000000E+00 0.  1.
          2    1    1    2  501    0 -0.18627725834E+02 -0.89800243653E+01  0.15335322584E+03  0.15474121908E+03  0.00000000000E+00 0.  1.
          1    1    1    2  502    0  0.30260121628E+02  0.19376699151E+01 -0.46097421261E+02  0.55176097838E+02  0.00000000000E+00 0.  1.
         22    1    1    2    0    0 -0.21575745108E+02 -0.13181440467E+02  0.10398273611E+03  0.10701248787E+03  0.00000000000E+00 0. -1.
         22    1    1    2    0    0  0.99433493137E+01  0.20223794917E+02 -0.29588977473E+02  0.37193812177E+02  0.00000000000E+00 0.  1.
</event>
<event>
 6    1  0.8017648E-006  0.5432627E+02  0.7818608E-02  0.1425847E+00
          2   -1    0    0  502    0  0.00000000000E+00  0.00000000000E+00  0.42679689036E+02  0.42679689036E+02  0.00000000000E+00 0.  1.
          1   -1    0    0  501    0 -0.00000000000E+00 -0.00000000000E+00 -0.36841592603E+03  0.36841592603E+03  0.00000000000E+00 0. -1.
          2    1    1    2  501    0  0.47542645382E+02 -0.11259521226E+02 -0.65225226157E+00  0.48862105779E+02  0.00000000000E+00 0.  1.
          1    1    1    2  502    0 -0.73350375684E+01  0.26220073835E+02 -0.77979239142E+02  0.82595743142E+02  0.00000000000E+00 0. -1.
         22    1    1    2    0    0  0.11658230317E+02  0.44776942934E+01  0.10394733510E+02  0.16248525012E+02  0.00000000000E+00 0. -1.
         22    1    1    2    0    0 -0.51865838131E+02 -0.19438246903E+02 -0.25749947910E+03  0.26338924114E+03  0.00000000000E+00 0. -1.
</event>
<event>
 6    1  0.8017648E-006  0.4634416E+02  0.7818608E-02  0.1540276E+00
          2   -1    0    0  502    0  0.00000000000E+00  0.00000000000E+00  0.17751594386E+03  0.17751594386E+03  0.00000000000E+00 0.  1.
          1   -1    0    0  501    0 -0.00000000000E+00 -0.00000000000E+00 -0.18559357001E+03  0.18559357001E+03  0.00000000000E+00 0. -1.
          2    1    1    2  501    0 -0.34348498780E+02 -0.25264875592E+01  0.13183090504E+03  0.13625560551E+03  0.00000000000E+00 0.  1.
          1    1    1    2  502    0  0.30425196828E+02  0.17531078336E+02 -0.85019923034E+02  0.91985969704E+02  0.00000000000E+00 0. -1.
         22    1    1    2    0    0 -0.10417467133E+02 -0.62708238942E+01  0.38297370352E+02  0.40181282080E+02  0.00000000000E+00 0.  1.
         22    1    1    2    0    0  0.14340769084E+02 -0.87337668830E+01 -0.93185978515E+02  0.94686656577E+02  0.00000000000E+00 0.  1.
</event>
<event>
 6    1  0.8017648E-006  0.1001099E+03  0.7818608E-02  0.1333883E+00
          2   -1    0    0  502    0  0.00000000000E+00  0.00000000000E+00  0.89384347359E+03  0.89384347359E+03  0.00000000000E+00 0.  1.
          1   -1    0    0  501    0 -0.00000000000E+00 -0.00000000000E+00 -0.33830755534E+02  0.33830755534E+02  0.00000000000E+00 0. -1.
          2    1    1    2  501    0  0.10000090876E+03  0.10996265902E+02  0.27236805463E+03  0.29035401978E+03  0.00000000000E+00 0.  1.
          1    1    1    2  502    0  0.75113243100E+01 -0.19720101902E+02 -0.48612303269E+01  0.21654883334E+02  0.00000000000E+00 0. -1.
         22    1    1    2    0    0 -0.83258457136E+01 -0.13577134803E+02  0.15199277690E+01  0.15999014867E+02  0.00000000000E+00 0. -1.
         22    1    1    2    0    0 -0.99186387358E+02  0.22300970803E+02  0.59098596598E+03  0.59966631115E+03  0.00000000000E+00 0.  1.
</event>
<event>
 6    1  0.8017648E-006  0.6797094E+02  0.7818608E-02  0.1453909E+00
          2   -1    0    0  502    0  0.00000000000E+00  0.00000000000E+00  0.16506683588E+03  0.16506683588E+03  0.00000000000E+00 0.  1.
          1   -1    0    0  501    0 -0.00000000000E+00 -0.00000000000E+00 -0.16249936106E+03  0.16249936106E+03  0.00000000000E+00 0. -1.
          2    1    1    2  501    0 -0.69891969852E+02 -0.29099448446E+02  0.14424409021E+02  0.77069636857E+02  0.00000000000E+00 0.  1.
          1    1    1    2  502    0  0.10732260248E+03  0.30648831781E+02 -0.36076923478E+02  0.11729891858E+03  0.00000000000E+00 0. -1.
         22    1    1    2    0    0 -0.49348824547E+02 -0.56422923110E+01  0.69934199973E+02  0.85778402133E+02  0.00000000000E+00 0.  1.
         22    1    1    2    0    0  0.11918191923E+02  0.40929089766E+01 -0.45714210694E+02  0.47419239365E+02  0.00000000000E+00 0. -1.
</event>
<event>
 6    1  0.8017648E-006  0.5185128E+02  0.7818608E-02  0.1509994E+00
          2   -1    0    0  502    0  0.00000000000E+00  0.00000000000E+00  0.18113205384E+03  0.18113205384E+03  0.00000000000E+00 0. -1.
          1   -1    0    0  501    0 -0.00000000000E+00 -0.00000000000E+00 -0.17923764586E+03  0.17923764586E+03  0.00000000000E+00 0. -1.
          2    1    1    2  501    0 -0.25008635327E+02 -0.37563277188E+02  0.11204621943E+03  0.12079232973E+03  0.00000000000E+00 0. -1.
          1    1    1    2  502    0  0.60572333207E+02  0.25737829240E+02 -0.89624288294E+02  0.11119332919E+03  0.00000000000E+00 0. -1.
         22    1    1    2    0    0  0.80937795177E+01 -0.15460376779E+02  0.43122332368E+02  0.46519544988E+02  0.00000000000E+00 0. -1.
         22    1    1    2    0    0 -0.43657477398E+02  0.27285824727E+02 -0.63649855514E+02  0.81864495789E+02  0.00000000000E+00 0. -1.
</event>
<event>
 6    1  0.8017648E-006  0.7052019E+02  0.7818608E-02  0.1469899E+00
          2   -1    0    0  502    0  0.00000000000E+00  0.00000000000E+00  0.36150990068E+03  0.36150990068E+03  0.00000000000E+00 0.  1.
          1   -1    0    0  501    0 -0.00000000000E+00 -0.00000000000E+00 -0.48156816115E+02  0.48156816115E+02  0.00000000000E+00 0.  1.
          2    1    1    2  501    0 -0.11429518622E+02  0.30864366315E+02  0.13230215264E+03  0.13633452460E+03  0.00000000000E+00 0.  1.
          1    1    1    2  502    0 -0.21119020565E+00 -0.62234858032E+02  0.22008155038E+02  0.66011976517E+02  0.00000000000E+00 0.  1.
         22    1    1    2    0    0  0.15845273280E+01  0.38724945548E+02  0.17935326146E+03  0.18349311848E+03  0.00000000000E+00 0.  1.
         22    1    1    2    0    0  0.10056181500E+02 -0.73544538316E+01 -0.20310484569E+02  0.23827097200E+02  0.00000000000E+00 0.  1.
</event>
<event>
 6    1  0.8017648E-006  0.1201747E+03  0.7818608E-02  0.1378325E+00
          2   -1    0    0  502    0  0.00000000000E+00  0.00000000000E+00  0.77745898395E+02  0.77745898395E+02  0.00000000000E+00 0. -1.
          1   -1    0    0  501    0 -0.00000000000E+00 -0.00000000000E+00 -0.15342990748E+04  0.15342990748E+04  0.00000000000E+00 0. -1.
          2    1    1    2  501    0  0.94781714969E+01 -0.33244044087E+02 -0.31978005682E+02  0.47091347927E+02  0.00000000000E+00 0. -1.
          1    1    1    2  502    0 -0.60215146814E+02  0.13223011025E+02 -0.14301793497E+04  0.14315074866E+04  0.00000000000E+00 0. -1.
         22    1    1    2    0    0  0.67890640944E+01  0.76471769577E+01 -0.55911320909E+02  0.56838776487E+02  0.00000000000E+00 0.  1.
         22    1    1    2    0    0  0.43947911222E+02  0.12373856105E+02  0.61515499872E+02  0.76607362180E+02  0.00000000000E+00 0. -1.
</event>
<event>
 6    1  0.8017648E-006  0.9867713E+02  0.7818608E-02  0.1284316E+00
          2   -1    0    0  502    0  0.00000000000E+00  0.00000000000E+00  0.89128678202E+03  0.89128678202E+03  0.00000000000E+00 0. -1.
          1   -1    0    0  501    0 -0.00000000000E+00 -0.00000000000E+00 -0.38899712294E+02  0.38899712294E+02  0.00000000000E+00 0. -1.
          2    1    1    2  501    0  0.48928123195E+02 -0.81231165919E+02  0.16901146968E+03  0.19379716313E+03  0.00000000000E+00 0. -1.
          1    1    1    2  502    0 -0.70337877377E+02 -0.83225940518E+01  0.45379541397E+03  0.45928962574E+03  0.00000000000E+00 0. -1.
         22    1    1    2    0    0 -0.16687126111E+02  0.94982493400E+02  0.88587722723E+02  0.13095006242E+03  0.00000000000E+00 0. -1.
         22    1    1    2    0    0  0.38096880293E+02 -0.54287334291E+01  0.14099246335E+03  0.14614964302E+03  0.00000000000E+00 0. -1.
</event>
<event>
 6    1  0.8017648E-006  0.8856529E+03  0.7818608E-02  0.1042540E+00
          2   -1    0    0  502    0  0.00000000000E+00  0.00000000000E+00  0.91449603154E+03  0.91449603154E+03  0.00000000000E+00 0. -1.
          1   -1    0    0  501    0 -0.00000000000E+00 -0.00000000000E+00 -0.10149241730E+04  0.10149241730E+04  0.00000000000E+00 0. -1.
          2    1    1    2  501    0  0.55715549544E+03 -0.55289798604E+03 -0.30942384288E+03  0.84371887712E+03  0.00000000000E+00 0. -1.
          1    1    1    2  502    0 -0.55945069704E+03  0.66388250403E+03  0.26534989168E+03  0.90781915963E+03  0.00000000000E+00 0. -1.
         22    1    1    2    0    0 -0.27637643453E+02 -0.26364566149E+02  0.33552506108E+02  0.50839948367E+02  0.00000000000E+00 0.  1.
         22    1    1    2    0    0  0.29932845055E+02 -0.84619951841E+02 -0.89906696346E+02  0.12704221940E+03  0.00000000000E+00 0. -1.
</event>
<event>
 6    1  0.8017648E-006  0.2173225E+03  0.7818608E-02  0.1139800E+00
          2   -1    0    0  502    0  0.00000000000E+00  0.00000000000E+00  0.12628490718E+03  0.12628490718E+03  0.00000000000E+00 0. -1.
          1   -1    0    0  501    0 -0.00000000000E+00 -0.00000000000E+00 -0.42409509559E+03  0.42409509559E+03  0.00000000000E+00 0. -1.
          2    1    1    2  501    0 -0.13193410483E+03  0.13434906829E+02 -0.54479182006E+01  0.13272823570E+03  0.00000000000E+00 0. -1.
          1    1    1    2  502    0  0.13445364886E+03 -0.78951117073E+02 -0.19117507128E+03  0.24669610953E+03  0.00000000000E+00 0. -1.
         22    1    1    2    0    0  0.39544868521E+02 -0.56125899107E+01 -0.73772387729E+02  0.83890780083E+02  0.00000000000E+00 0.  1.
         22    1    1    2    0    0 -0.42064412553E+02  0.71128800154E+02 -0.27414811204E+02  0.87064877466E+02  0.00000000000E+00 0.  1.
</event>
<event>
 6    1  0.8017648E-006  0.6958273E+02  0.7818608E-02  0.1365663E+00
          2   -1    0    0  502    0  0.00000000000E+00  0.00000000000E+00  0.20544939234E+03  0.20544939234E+03  0.00000000000E+00 0. -1.
          1   -1    0    0  501    0 -0.00000000000E+00 -0.00000000000E+00 -0.10508948158E+03  0.10508948158E+03  0.00000000000E+00 0. -1.
          2    1    1    2  501    0 -0.34654814174E+02 -0.20889439113E+02  0.86631952160E+02  0.95616002567E+02  0.00000000000E+00 0. -1.
          1    1    1    2  502    0  0.45409077413E+02  0.10513028358E+02 -0.54623728519E+02  0.71807101279E+02  0.00000000000E+00 0. -1.
         22    1    1    2    0    0 -0.26489877875E+02  0.35138199976E+01  0.10194566331E+03  0.10538965238E+03  0.00000000000E+00 0. -1.
         22    1    1    2    0    0  0.15735614636E+02  0.68625907570E+01 -0.33593976196E+02  0.37726117698E+02  0.00000000000E+00 0. -1.
</event>
<event>
 6    1  0.8017648E-006  0.1478129E+03  0.7818608E-02  0.1339052E+00
          2   -1    0    0  502    0  0.00000000000E+00  0.00000000000E+00  0.66686405169E+03  0.66686405169E+03  0.00000000000E+00 0. -1.
          1   -1    0    0  501    0 -0.00000000000E+00 -0.00000000000E+00 -0.72020978104E+02  0.72020978104E+02  0.00000000000E+00 0. -1.
          2    1    1    2  501    0 -0.55688671512E+02 -0.20963182729E+01  0.18265917113E+03  0.19097119019E+03  0.00000000000E+00 0. -1.
          1    1    1    2  502    0  0.13595626947E+03  0.61833229638E+02  0.58799752130E+02  0.16051438049E+03  0.00000000000E+00 0. -1.
         22    1    1    2    0    0 -0.70412836964E+02 -0.55702840203E+02  0.36245628254E+03  0.37341040528E+03  0.00000000000E+00 0. -1.
         22    1    1    2    0    0 -0.98547609900E+01 -0.40340711627E+01 -0.90721322121E+01  0.13989053835E+02  0.00000000000E+00 0. -1.
</event>
<event>
 6    1  0.8017648E-006  0.5141160E+02  0.7818608E-02  0.1450243E+00
          2   -1    0    0  502    0  0.00000000000E+00  0.00000000000E+00  0.15467200023E+03  0.15467200023E+03  0.00000000000E+00 0.  1.
          1   -1    0    0  501    0 -0.00000000000E+00 -0.00000000000E+00 -0.10793340603E+03  0.10793340603E+03  0.00000000000E+00 0.  1.
          2    1    1    2  501    0  0.12504671686E+02  0.23668820805E+02  0.54420481046E+02  0.60647907214E+02  0.00000000000E+00 0.  1.
          1    1    1    2  502    0  0.62579466660E+01 -0.29393643961E+02 -0.55384071034E+02  0.63012249016E+02  0.00000000000E+00 0.  1.
         22    1    1    2    0    0 -0.42431711711E+02 -0.54439356754E+01 -0.33049139315E+02  0.54058599721E+02  0.00000000000E+00 0.  1.
         22    1    1    2    0    0  0.23669093358E+02  0.11168758832E+02  0.80751323499E+02  0.84886650312E+02  0.00000000000E+00 0.  1.
</event>
<event>
 6    1  0.8017648E-006  0.1716202E+03  0.7818608E-02  0.1200115E+00
          2   -1    0    0  502    0  0.00000000000E+00  0.00000000000E+00  0.11860559982E+04  0.11860559982E+04  0.00000000000E+00 0.  1.
          1   -1    0    0  501    0 -0.00000000000E+00 -0.00000000000E+00 -0.66630248688E+02  0.66630248688E+02  0.00000000000E+00 0.  1.
          2    1    1    2  501    0  0.48283359689E+02 -0.96659398728E+02  0.97550037934E+02  0.14556899425E+03  0.00000000000E+00 0.  1.
          1    1    1    2  502    0  0.24634876173E+02  0.17340092833E+03  0.85345615180E+03  0.87124173575E+03  0.00000000000E+00 0.  1.
         22    1    1    2    0    0  0.23729921411E+02 -0.47642736509E+02  0.21010687840E+02  0.57222272900E+02  0.00000000000E+00 0.  1.
         22    1    1    2    0    0 -0.96648157273E+02 -0.29098793097E+02  0.14740887197E+03  0.17865324402E+03  0.00000000000E+00 0. -1.
</event>
<event>
 6    1  0.8017648E-006  0.8355672E+02  0.7818608E-02  0.1392084E+00
          2   -1    0    0  502    0  0.00000000000E+00  0.00000000000E+00  0.47326977056E+03  0.47326977056E+03  0.00000000000E+00 0. -1.
          1   -1    0    0  501    0 -0.00000000000E+00 -0.00000000000E+00 -0.12460260629E+03  0.12460260629E+03  0.00000000000E+00 0. -1.
          2    1    1    2  501    0 -0.74241541489E+02  0.60790573110E+02  0.26148649759E+03  0.27853633279E+03  0.00000000000E+00 0. -1.
          1    1    1    2  502    0  0.12912280612E+03 -0.95695939987E+02  0.25449807244E+02  0.16272094112E+03  0.00000000000E+00 0. -1.
         22    1    1    2    0    0 -0.62479299429E+02  0.17626593900E+02 -0.23711284033E+02  0.69112840052E+02  0.00000000000E+00 0. -1.
         22    1    1    2    0    0  0.75980347930E+01  0.17278772977E+02  0.85442143469E+02  0.87502262879E+02  0.00000000000E+00 0. -1.
</event>
<event>
 6    1  0.8017648E-006  0.1114963E+03  0.7818608E-02  0.1274029E+00
          2   -1    0    0  502    0  0.00000000000E+00  0.00000000000E+00  0.18434027046E+03  0.18434027046E+03  0.00000000000E+00 0. -1.
          1   -1    0    0  501    0 -0.00000000000E+00 -0.00000000000E+00 -0.24820494217E+03  0.24820494217E+03  0.00000000000E+00 0.  1.
          2    1    1    2  501    0 -0.10412471609E+03 -0.35174890347E+02  0.11390679356E+03  0.15828451292E+03  0.00000000000E+00 0. -1.
          1    1    1    2  502    0  0.52496447608E+02 -0.19657561722E-01 -0.48753974616E+01  0.52722356721E+02  0.00000000000E+00 0.  1.
         22    1    1    2    0    0 -0.75103959737E+00 -0.27023273991E+02  0.35350171366E+01  0.27263854163E+02  0.00000000000E+00 0. -1.
         22    1    1    2    0    0  0.52379308076E+02  0.62217821900E+02 -0.17643108494E+03  0.19427448883E+03  0.00000000000E+00 0.  1.
</event>
<event>
 6    1  0.8017648E-006  0.1225763E+03  0.7818608E-02  0.1308953E+00
          2   -1    0    0  502    0  0.00000000000E+00  0.00000000000E+00  0.36847300640E+02  0.36847300640E+02  0.00000000000E+00 0. -1.
          1   -1    0    0  501    0 -0.00000000000E+00 -0.00000000000E+00 -0.50544742778E+03  0.50544742778E+03  0.00000000000E+00 0. -1.
          2    1    1    2  501    0 -0.27471860282E+02  0.36375061399E+01 -0.95646682429E+02  0.99580231059E+02  0.00000000000E+00 0. -1.
          1    1    1    2  502    0  0.55598918671E+02 -0.24378563161E+02 -0.26341733387E+03  0.27032248497E+03  0.00000000000E+00 0. -1.
         22    1    1    2    0    0 -0.51018543705E+02  0.42911309151E+02 -0.94214614401E+01  0.67327826272E+02  0.00000000000E+00 0. -1.
         22    1    1    2    0    0  0.22891485315E+02 -0.22170252129E+02 -0.10011464940E+03  0.10506418612E+03  0.00000000000E+00 0. -1.
</event>
<event>
 6    1  0.8017648E-006  0.3607278E+02  0.7818608E-02  0.1563908E+00
          2   -1    0    0  502    0  0.00000000000E+00  0.00000000000E+00  0.34447736241E+03  0.34447736241E+03  0.00000000000E+00 0. -1.
          1   -1    0    0  501    0 -0.00000000000E+00 -0.00000000000E+00 -0.99002341647E+02  0.99002341647E+02  0.00000000000E+00 0. -1.
          2    1    1    2  501    0 -0.75409231800E+02  0.44703308644E+02  0.22524581036E+03  0.24170356458E+03  0.00000000000E+00 0. -1.
          1    1    1    2  502    0  0.59218849116E+02 -0.41276646212E+02 -0.42229162471E+01  0.72308136713E+02  0.00000000000E+00 0. -1.
         22    1    1    2    0    0  0.62159191607E+01  0.11237911762E+02 -0.50674424019E+02  0.52276434093E+02  0.00000000000E+00 0. -1.
         22    1    1    2    0    0  0.99744635227E+01 -0.14664574194E+02  0.75126550673E+02  0.77191568677E+02  0.00000000000E+00 0.  1.
</event>
<event>
 6    1  0.8017648E-006  0.4712688E+02  0.7818608E-02  0.1462583E+00
          2   -1    0    0  502    0  0.00000000000E+00  0.00000000000E+00  0.28103817164E+03  0.28103817164E+03  0.00000000000E+00 0. -1.
          1   -1    0    0  501    0 -0.00000000000E+00 -0.00000000000E+00 -0.87882449326E+02  0.87882449326E+02  0.00000000000E+00 0.  1.
          2    1    1    2  501    0 -0.73622237854E+01  0.21844886685E+02  0.17974201186E+03  0.18121421644E+03  0.00000000000E+00 0. -1.
          1    1    1    2  502    0 -0.18877765461E+01 -0.31946373170E+02 -0.42599450875E+02  0.53280837774E+02  0.00000000000E+00 0.  1.
         22    1    1    2    0    0  0.54791837315E+01  0.21319189487E+02  0.93011442620E+02  0.95580634822E+02  0.00000000000E+00 0.  1.
         22    1    1    2    0    0  0.37708166000E+01 -0.11217703002E+02 -0.36998281288E+02  0.38844931931E+02  0.00000000000E+00 0. -1.
</event>
<event>
 6    1  0.8017648E-006  0.2122734E+03  0.7818608E-02  0.1193338E+00
          2   -1    0    0  502    0  0.00000000000E+00  0.00000000000E+00  0.36781356224E+03  0.36781356224E+03  0.00000000000E+00 0.  1.
          1   -1    0    0  501    0 -0.00000000000E+00 -0.00000000000E+00 -0.12300097434E+03  0.12300097434E+03  0.00000000000E+00 0. -1.
          2    1    1    2  501    0 -0.32624331388E+02 -0.52256249454E+02  0.25803260161E+03  0.26528453800E+03  0.00000000000E+00 0.  1.
          1    1    1    2  502    0  0.61513893100E+02 -0.12800862266E+01  0.45729903986E+02  0.76660431669E+02  0.00000000000E+00 0. -1.
         22    1    1    2    0    0  0.32924776736E+02  0.55611751269E+02 -0.17901597779E+01  0.64652242609E+02  0.00000000000E+00 0. -1.
         22    1    1    2    0    0 -0.61814338448E+02 -0.20754155887E+01 -0.57159757919E+02  0.84217324304E+02  0.00000000000E+00 0. -1.
</event>
<event>
 6    1  0.8017648E-006  0.3643948E+02  0.7818608E-02  0.1549388E+00
          2   -1    0    0  502    0  0.00000000000E+00  0.00000000000E+00  0.33657102652E+02  0.33657102652E+02  0.00000000000E+00 0. -1.
          1   -1    0    0  501    0 -0.00000000000E+00 -0.00000000000E+00 -0.52996529506E+03  0.52996529506E+03  0.00000000000E+00 0. -1.
          2    1    1    2  501    0 -0.22186199177E+02  0.22720729541E+02 -0.58879888105E+02  0.66897684623E+02  0.00000000000E+00 0. -1.
          1    1    1    2  502    0  0.52959315811E+02  0.26738681111E+01 -0.30657881784E+03  0.31113085712E+03  0.00000000000E+00 0. -1.
         22    1    1    2    0    0 -0.46597607799E+01 -0.31408510511E+02 -0.14957143943E+03  0.15290462189E+03  0.00000000000E+00 0. -1.
         22    1    1    2    0    0 -0.26113355855E+02  0.60139128596E+01  0.18721952965E+02  0.32689234080E+02  0.00000000000E+00 0. -1.
</event>
<event>
 6    1  0.8017648E-006  0.9160251E+02  0.7818608E-02  0.1385998E+00
          2   -1    0    0  502    0  0.00000000000E+00  0.00000000000E+00  0.17215049357E+03  0.17215049357E+03  0.00000000000E+00 0.  1.
          1   -1    0    0  501    0 -0.00000000000E+00 -0.00000000000E+00 -0.13805259711E+03  0.13805259711E+03  0.00000000000E+00 0.  1.
          2    1    1    2  501    0  0.36542625023E+02  0.43324926863E+01  0.19931008183E+02  0.41849480566E+02  0.00000000000E+00 0.  1.
          1    1    1    2  502    0  0.50214900885E+00 -0.20163073359E+02 -0.92992188123E+02  0.95154341639E+02  0.00000000000E+00 0.  1.
         22    1    1    2    0    0 -0.28969062234E+02 -0.28829703146E+01  0.13533138991E+03  0.13842724869E+03  0.00000000000E+00 0. -1.
         22    1    1    2    0    0 -0.80757117978E+01  0.18713550987E+02 -0.28172313510E+02  0.34772019787E+02  0.00000000000E+00 0.  1.
</event>
<event>
 6    1  0.8017648E-006  0.2465705E+02  0.7818608E-02  0.1716888E+00
          2   -1    0    0  502    0  0.00000000000E+00  0.00000000000E+00  0.28361890327E+03  0.28361890327E+03  0.00000000000E+00 0.  1.
          1   -1    0    0  501    0 -0.00000000000E+00 -0.00000000000E+00 -0.85947990656E+02  0.85947990656E+02  0.00000000000E+00 0. -1.
          2    1    1    2  501    0 -0.22638858744E+02  0.16959391432E+02  0.20307389940E+03  0.20503450319E+03  0.00000000000E+00 0.  1.
          1    1    1    2  502    0  0.37133516815E+02  0.96698560735E+01 -0.74644700935E+01  0.39091207468E+02  0.00000000000E+00 0. -1.
         22    1    1    2    0    0 -0.62865721636E+01 -0.94776713107E+01 -0.59723382412E+02  0.60796625316E+02  0.00000000000E+00 0. -1.
         22    1    1    2    0    0 -0.82080859078E+01 -0.17151576194E+02  0.61784865725E+02  0.64644557952E+02  0.00000000000E+00 0. -1.
</event>
<event>
 6    1  0.8017648E-006  0.2174947E+03  0.7818608E-02  0.1223253E+00
          2   -1    0    0  502    0  0.00000000000E+00  0.00000000000E+00  0.16480409361E+04  0.16480409361E+04  0.00000000000E+00 0. -1.
          1   -1    0    0  501    0 -0.00000000000E+00 -0.00000000000E+00 -0.82689719243E+02  0.82689719243E+02  0.00000000000E+00 0. -1.
          2    1    1    2  501    0 -0.15473627451E+03 -0.12435700473E+03  0.29303472640E+03  0.35394537736E+03  0.00000000000E+00 0. -1.
          1    1    1    2  502    0  0.17741560433E+03  0.91701028658E+02  0.12222897683E+04  0.12384981441E+04  0.00000000000E+00 0. -1.
         22    1    1    2    0    0  0.10340406573E+02  0.28478397610E+02 -0.35406284855E+02  0.46599872809E+02  0.00000000000E+00 0.  1.
         22    1    1    2    0    0 -0.33019736386E+02  0.41775784573E+01  0.85433007058E+02  0.91687261099E+02  0.00000000000E+00 0. -1.
</event>
<event>
 6    1  0.8017648E-006  0.1853098E+02  0.7818608E-02  0.1786690E+00
          2   -1    0    0  502    0  0.00000000000E+00  0.00000000000E+00  0.44998684013E+03  0.44998684013E+03  0.00000000000E+00 0.  1.
          1   -1    0    0  501    0 -0.00000000000E+00 -0.00000000000E+00 -0.10545251073E+03  0.10545251073E+03  0.00000000000E+00 0.  1.
          2    1    1    2  501    0  0.18187266949E+02 -0.19759956965E+02  0.39353153683E+03  0.39444683172E+03  0.00000000000E+00 0.  1.
          1    1    1    2  502    0 -0.11643397910E+01  0.20511278597E+02 -0.32714395487E+02  0.38630297811E+02  0.00000000000E+00 0.  1.
         22    1    1    2    0    0 -0.95789860699E+01  0.68962791277E+01 -0.68274111252E+02  0.69286866773E+02  0.00000000000E+00 0.  1.
         22    1    1    2    0    0 -0.74439410883E+01 -0.76476007602E+01  0.51991299310E+02  0.53075354547E+02  0.00000000000E+00 0. -1.
</event>
<event>
 6    1  0.8017648E-006  0.2106599E+03  0.7818608E-02  0.1250326E+00
          2   -1    0    0  502    0  0.00000000000E+00  0.00000000000E+00  0.77565114780E+03  0.77565114780E+03  0.00000000000E+00 0.  1.
          1   -1    0    0  501    0 -0.00000000000E+00 -0.00000000000E+00 -0.89930063294E+02  0.89930063294E+02  0.00000000000E+00 0.  1.
          2    1    1    2  501    0  0.13254101905E+03 -0.53845330079E+02  0.23190238064E+03  0.27247964226E+03  0.00000000000E+00 0.  1.
          1    1    1    2  502    0 -0.19673555890E+03  0.65218676423E+02  0.37595568768E+03  0.42930296410E+03  0.00000000000E+00 0.  1.
         22    1    1    2    0    0  0.65149519098E+02  0.77861247041E+01  0.10900122563E+03  0.12722559005E+03  0.00000000000E+00 0.  1.
         22    1    1    2    0    0 -0.95497925491E+00 -0.19159471047E+02 -0.31138209432E+02  0.36573014680E+02  0.00000000000E+00 0.  1.
</event>
<event>
 6    1  0.8017648E-006  0.5015019E+02  0.7818608E-02  0.1507127E+00
          2   -1    0    0  502    0  0.00000000000E+00  0.00000000000E+00  0.13641331987E+03  0.13641331987E+03  0.00000000000E+00 0.  1.
          1   -1    0    0  501    0 -0.00000000000E+00 -0.00000000000E+00 -0.14179492046E+03  0.14179492046E+03  0.00000000000E+00 0.  1.
          2    1    1    2  501    0  0.32924124448E+02  0.12540740098E+02  0.60884090997E+02  0.70343021469E+02  0.00000000000E+00 0.  1.
          1    1    1    2  502    0 -0.49029820899E+02 -0.33116726821E+02  0.13496440593E+02  0.60686034978E+02  0.00000000000E+00 0.  1.
         22    1    1    2    0    0  0.36495181281E+01  0.20272185978E+02 -0.11134141383E+03  0.11323069787E+03  0.00000000000E+00 0.  1.
         22    1    1    2    0    0  0.12456178322E+02  0.30380074463E+00  0.31579281644E+02  0.33948486011E+02  0.00000000000E+00 0.  1.
</event>
<event>
 6    1  0.8017648E-006  0.1020829E+03  0.7818608E-02  0.1371647E+00
          2   -1    0    0  502    0  0.00000000000E+00  0.00000000000E+00  0.85601411310E+02  0.85601411310E+02  0.00000000000E+00 0.  1.
          1   -1    0    0  501    0 -0.00000000000E+00 -0.00000000000E+00 -0.18766026261E+03  0.18766026261E+03  0.00000000000E+00 0.  1.
          2    1    1    2  501    0 -0.23335241055E+02 -0.20375155025E+02 -0.98178635880E+01  0.32497243926E+02  0.00000000000E+00 0.  1.
          1    1    1    2  502    0  0.18093147310E+02  0.73731302990E+02 -0.72686595389E+02  0.10510474856E+03  0.00000000000E+00 0.  1.
         22    1    1    2    0    0 -0.50930184612E+01 -0.68842500112E+02  0.35441865493E+02  0.77597387123E+02  0.00000000000E+00 0.  1.
         22    1    1    2    0    0  0.10335112206E+02  0.15486352147E+02 -0.54996257813E+02  0.58062294310E+02  0.00000000000E+00 0.  1.
</event>
<event>
 6    1  0.8017648E-006  0.1224174E+03  0.7818608E-02  0.1259423E+00
          2   -1    0    0  502    0  0.00000000000E+00  0.00000000000E+00  0.61443590282E+03  0.61443590282E+03  0.00000000000E+00 0. -1.
          1   -1    0    0  501    0 -0.00000000000E+00 -0.00000000000E+00 -0.89642721390E+02  0.89642721390E+02  0.00000000000E+00 0.  1.
          2    1    1    2  501    0  0.14227098260E+02  0.14911529254E+03  0.34002542913E+03  0.37155763113E+03  0.00000000000E+00 0. -1.
          1    1    1    2  502    0 -0.15034275893E+02 -0.85131292787E+02  0.16695581490E+03  0.18800960239E+03  0.00000000000E+00 0.  1.
         22    1    1    2    0    0 -0.12347943694E+02  0.16575165027E+02  0.52043719205E+02  0.55997826010E+02  0.00000000000E+00 0.  1.
         22    1    1    2    0    0  0.13155121327E+02 -0.80559164777E+02 -0.34231781806E+02  0.88513564680E+02  0.00000000000E+00 0.  1.
</event>
<event>
 6    1  0.8017648E-006  0.8313635E+02  0.7818608E-02  0.1328765E+00
          2   -1    0    0  502    0  0.00000000000E+00  0.00000000000E+00  0.64003739701E+03  0.64003739701E+03  0.00000000000E+00 0.  1.
          1   -1    0    0  501    0 -0.00000000000E+00 -0.00000000000E+00 -0.13727691154E+03  0.13727691154E+03  0.00000000000E+00 0. -1.
          2    1    1    2  501    0 -0.12354629252E+03 -0.17010588391E+03  0.36956355837E+03  0.42517869397E+03  0.00000000000E+00 0.  1.
          1    1    1    2  502    0  0.13925346260E+03  0.13138959320E+03  0.10221660581E+03  0.21703222468E+03  0.00000000000E+00 0. -1.
         22    1    1    2    0    0  0.12066658737E+02  0.31171823881E+02 -0.43729716265E+02  0.55041574666E+02  0.00000000000E+00 0. -1.
         22    1    1    2    0    0 -0.27773828813E+02  0.75444668291E+01  0.74710037560E+02  0.80061815236E+02  0.00000000000E+00 0. -1.
</event>
<event>
 6    1  0.8017648E-006  0.4446363E+02  0.7818608E-02  0.1494257E+00
          2   -1    0    0  502    0  0.00000000000E+00  0.00000000000E+00  0.13776409957E+03  0.13776409957E+03  0.00000000000E+00 0. -1.
          1   -1    0    0  501    0 -0.00000000000E+00 -0.00000000000E+00 -0.14250840010E+03  0.14250840010E+03  0.00000000000E+00 0.  1.
          2    1    1    2  501    0  0.37201547195E+02  0.26512766621E+02  0.56727048756E+01  0.46033265018E+02  0.00000000000E+00 0. -1.
          1    1    1    2  502    0 -0.38362889072E+02 -0.45105874630E+02 -0.74543174100E+02  0.95199453723E+02  0.00000000000E+00 0.  1.
         22    1    1    2    0    0 -0.28337148784E+02  0.29027653425E+02  0.89817963487E+02  0.98553869683E+02  0.00000000000E+00 0.  1.
         22    1    1    2    0    0  0.29498490662E+02 -0.10434545416E+02 -0.25691794790E+02  0.40485911240E+02  0.00000000000E+00 0. -1.
</event>
<event>
 6    1  0.8017648E-006  0.4687419E+02  0.7818608E-02  0.1464577E+00
          2   -1    0    0  502    0  0.00000000000E+00  0.00000000000E+00  0.10323670475E+03  0.10323670475E+03  0.00000000000E+00 0.  1.
          1   -1    0    0  501    0 -0.00000000000E+00 -0.00000000000E+00 -0.12916814006E+03  0.12916814006E+03  0.00000000000E+00 0.  1.
          2    1    1    2  501    0  0.24108498961E+02  0.69631122542E+01  0.19650507957E+02  0.31872356634E+02  0.00000000000E+00 0.  1.
          1    1    1    2  502    0  0.11319137253E+02 -0.28554148161E+02  0.37613675462E+02  0.48561824792E+02  0.00000000000E+00 0.  1.
         22    1    1    2    0    0 -0.50232041948E+02  0.80082303751E+01 -0.10839830672E+03  0.11973964545E+03  0.00000000000E+00 0.  1.
         22    1    1    2    0    0  0.14804405734E+02  0.13582805532E+02  0.25202687992E+02  0.32231017938E+02  0.00000000000E+00 0.  1.
</event>
<event>
 6    1  0.8017648E-006  0.2637588E+02  0.7818608E-02  0.1667936E+00
          2   -1    0    0  502    0  0.00000000000E+00  0.00000000000E+00  0.19970683396E+03  0.19970683396E+03  0.00000000000E+00 0. -1.
          1   -1    0    0  501    0 -0.00000000000E+00 -0.00000000000E+00 -0.70599472190E+02  0.70599472190E+02  0.00000000000E+00 0.  1.
          2    1    1    2  501    0 -0.80141105499E+01 -0.21731677965E+02  0.77853723042E+02  0.81226190275E+02  0.00000000000E+00 0. -1.
          1    1    1    2  502    0 -0.13847176582E+02  0.50292571162E+02  0.29028664660E+02  0.59697155588E+02  0.00000000000E+00 0.  1.
         22    1    1    2    0    0  0.63440585367E+01 -0.21621015285E+02 -0.50181379700E+02  0.55008056221E+02  0.00000000000E+00 0.  1.
         22    1    1    2    0    0  0.15517228595E+02 -0.69398779116E+01  0.72406353767E+02  0.74374904064E+02  0.00000000000E+00 0. -1.
</event>
<event>
 6    1  0.8017648E-006  0.1651624E+03  0.7818608E-02  0.1183037E+00
          2   -1    0    0  502    0  0.00000000000E+00  0.00000000000E+00  0.14292592287E+03  0.14292592287E+03  0.00000000000E+00 0. -1.
          1   -1    0    0  501    0 -0.00000000000E+00 -0.00000000000E+00 -0.62656145558E+03  0.62656145558E+03  0.00000000000E+00 0.  1.
          2    1    1    2  501    0  0.35566706898E+02 -0.88889516833E+02  0.45669923249E+02  0.10607581596E+03  0.00000000000E+00 0. -1.
          1    1    1    2  502    0 -0.35885641663E+02  0.13570806315E+03 -0.50616084826E+03  0.52526494457E+03  0.00000000000E+00 0.  1.
         22    1    1    2    0    0 -0.60157701028E+01 -0.69160021189E+02  0.33386130682E+02  0.77032017647E+02  0.00000000000E+00 0. -1.
         22    1    1    2    0    0  0.63347048675E+01  0.22341474869E+02 -0.56530738385E+02  0.61114600281E+02  0.00000000000E+00 0. -1.
</event>
<event>
 6    1  0.8017648E-006  0.3852582E+02  0.7818608E-02  0.1557616E+00
          2   -1    0    0  502    0  0.00000000000E+00  0.00000000000E+00  0.56439932098E+03  0.56439932098E+03  0.00000000000E+00 0.  1.
          1   -1    0    0  501    0 -0.00000000000E+00 -0.00000000000E+00 -0.65671358705E+03  0.65671358705E+03  0.00000000000E+00 0. -1.
          2    1    1    2  501    0  0.16351775090E+01 -0.27669405362E+02  0.51565043607E+03  0.51639485088E+03  0.00000000000E+00 0.  1.
          1    1    1    2  502    0 -0.68810521002E+01  0.42619053223E+02 -0.57031662165E+03  0.57194823324E+03  0.00000000000E+00 0. -1.
         22    1    1    2    0    0 -0.65219768920E+01 -0.26639349686E+02  0.42688073791E+02  0.50739164147E+02  0.00000000000E+00 0.  1.
         22    1    1    2    0    0  0.11767851483E+02  0.11689701825E+02 -0.80336154273E+02  0.82030659760E+02  0.00000000000E+00 0. -1.
</event>
<event>
 6    1  0.8017648E-006  0.1219970E+03  0.7818608E-02  0.1310085E+00
          2   -1    0    0  502    0  0.00000000000E+00  0.00000000000E+00  0.87606708443E+02  0.87606708443E+02  0.00000000000E+00 0. -1.
          1   -1    0    0  501    0 -0.00000000000E+00 -0.00000000000E+00 -0.73262853449E+03  0.73262853449E+03  0.00000000000E+00 0. -1.
          2    1    1    2  501    0 -0.59879114947E+02 -0.59401121075E+02  0.15885814965E+02  0.85827505550E+02  0.00000000000E+00 0. -1.
          1    1    1    2  502    0  0.94526193323E+02  0.82676731688E+02 -0.53409445389E+03  0.54865975692E+03  0.00000000000E+00 0. -1.
         22    1    1    2    0    0 -0.28972578686E+02  0.12779806264E+02 -0.14253250341E+03  0.14600769943E+03  0.00000000000E+00 0. -1.
         22    1    1    2    0    0 -0.56744996904E+01 -0.36055416876E+02  0.15719316282E+02  0.39740281042E+02  0.00000000000E+00 0.  1.
</event>
<event>
 6    1  0.8017648E-006  0.5733035E+02  0.7818608E-02  0.1466103E+00
          2   -1    0    0  502    0  0.00000000000E+00  0.00000000000E+00  0.16299340136E+03  0.16299340136E+03  0.00000000000E+00 0. -1.
          1   -1    0    0  501    0 -0.00000000000E+00 -0.00000000000E+00 -0.45231059430E+02  0.45231059430E+02  0.00000000000E+00 0. -1.
          2    1    1    2  501    0 -0.21184675405E+02 -0.82471586641E+01  0.15296985807E+02  0.27400800587E+02  0.00000000000E+00 0. -1.
          1    1    1    2  502    0  0.17295858911E+02 -0.13350842321E+02  0.28927109821E+02  0.36251474573E+02  0.00000000000E+00 0. -1.
         22    1    1    2    0    0  0.23046364533E+02 -0.82752835717E+01 -0.27890259722E+02  0.37114442253E+02  0.00000000000E+00 0. -1.
         22    1    1    2    0    0 -0.19157548040E+02  0.29873284557E+02  0.10142850602E+03  0.10745774337E+03  0.00000000000E+00 0. -1.
</event>
<event>
 6    1  0.8017648E-006  0.2869068E+02  0.7818608E-02  0.1634843E+00
          2   -1    0    0  502    0  0.00000000000E+00  0.00000000000E+00  0.37239625237E+03  0.37239625237E+03  0.00000000000E+00 0.  1.
          1   -1    0    0  501    0 -0.00000000000E+00 -0.00000000000E+00 -0.65001384609E+02  0.65001384609E+02  0.00000000000E+00 0.  1.
          2    1    1    2  501    0  0.20182104683E+02 -0.27027134777E+01  0.24172396075E+03  0.24258007999E+03  0.00000000000E+00 0.  1.
          1    1    1    2  502    0 -0.55209199585E+02  0.13421630085E+01  0.11525191871E+02  0.56415309695E+02  0.00000000000E+00 0.  1.
         22    1    1    2    0    0  0.21048283207E+02 -0.10404476327E+02 -0.37887515217E+02  0.44572942049E+02  0.00000000000E+00 0.  1.
         22    1    1    2    0    0  0.13978811694E+02  0.11765026796E+02  0.92033230356E+02  0.93829305239E+02  0.00000000000E+00 0.  1.
</event>
<event>
 6    1  0.8017648E-006  0.8430510E+02  0.7818608E-02  0.1398893E+00
          2   -1    0    0  502    0  0.00000000000E+00  0.00000000000E+00  0.18188415604E+03  0.18188415604E+03  0.00000000000E+00 0. -1.
          1   -1    0    0  501    0 -0.00000000000E+00 -0.00000000000E+00 -0.19620562796E+03  0.19620562796E+03  0.00000000000E+00 0. -1.
          2    1    1    2  501    0 -0.46788872800E+01 -0.66443461106E+02  0.28576413201E+02  0.72479217030E+02  0.00000000000E+00 0. -1.
          1    1    1    2  502    0  0.18342240240E+02  0.72021107482E+02 -0.13127186869E+03  0.15085019460E+03  0.00000000000E+00 0. -1.
         22    1    1    2    0    0 -0.10695313565E+02 -0.18383062872E+02  0.11928728435E+03  0.12116840735E+03  0.00000000000E+00 0. -1.
         22    1    1    2    0    0 -0.29680393950E+01  0.12805416496E+02 -0.30913300768E+02  0.33591965019E+02  0.00000000000E+00 0.  1.
</event>
<event>
 6    1  0.8017648E-006  0.6182625E+02  0.7818608E-02  0.1448522E+00
          2   -1    0    0  502    0  0.00000000000E+00  0.00000000000E+00  0.15814893378E+03  0.15814893378E+03  0.00000000000E+00 0.  1.
          1   -1    0    0  501    0 -0.00000000000E+00 -0.00000000000E+00 -0.13658647760E+03  0.13658647760E+03  0.00000000000E+00 0.  1.
          2    1    1    2  501    0 -0.89626789633E+01 -0.32385715085E+02  0.76504176508E+02  0.83558681050E+02  0.00000000000E+00 0.  1.
          1    1    1    2  502    0  0.21671777310E+02  0.29536317083E+02  0.37934547302E+02  0.52736039267E+02  0.00000000000E+00 0.  1.
         22    1    1    2    0    0  0.16407721874E+02  0.19166428206E+02 -0.11543174139E+03  0.11815689666E+03  0.00000000000E+00 0.  1.
         22    1    1    2    0    0 -0.29116820221E+02 -0.16317030205E+02  0.22555473764E+02  0.40283794399E+02  0.00000000000E+00 0.  1.
</event>
<event>
 6    1  0.8017648E-006  0.4992642E+02  0.7818608E-02  0.1521142E+00
          2   -1    0    0  502    0  0.00000000000E+00  0.00000000000E+00  0.15910725675E+03  0.15910725675E+03  0.00000000000E+00 0. -1.
          1   -1    0    0  501    0 -0.00000000000E+00 -0.00000000000E+00 -0.12475428597E+03  0.12475428597E+03  0.00000000000E+00 0.  1.
          2    1    1    2  501    0 -0.33464417960E+02  0.47256144452E+01  0.94278469797E+02  0.10015302576E+03  0.00000000000E+00 0. -1.
          1    1    1    2  502    0  0.31153545978E+02 -0.64692550463E+01 -0.49369442492E+02  0.58734457857E+02  0.00000000000E+00 0.  1.
         22    1    1    2    0    0  0.12263133838E+02 -0.12177695846E+02 -0.65336137705E+02  0.67583219943E+02  0.00000000000E+00 0.  1.
         22    1    1    2    0    0 -0.99522618553E+01  0.13921336447E+02  0.54780081183E+02  0.57390839156E+02  0.00000000000E+00 0. -1.
</event>
<event>
 6    1  0.8017648E-006  0.6981253E+02  0.7818608E-02  0.1380598E+00
          2   -1    0    0  502    0  0.00000000000E+00  0.00000000000E+00  0.59263975231E+02  0.59263975231E+02  0.00000000000E+00 0.  1.
          1   -1    0    0  501    0 -0.00000000000E+00 -0.00000000000E+00 -0.31155951284E+03  0.31155951284E+03  0.00000000000E+00 0.  1.
          2    1    1    2  501    0  0.13212392578E+02  0.32830219543E+02 -0.66052163103E+02  0.74935164532E+02  0.00000000000E+00 0.  1.
          1    1    1    2  502    0 -0.44279534318E+01  0.25903525865E+02  0.29228519406E+02  0.39305289345E+02  0.00000000000E+00 0.  1.
         22    1    1    2    0    0  0.54654151368E+02 -0.63383367994E+01 -0.10824993989E+03  0.12143022796E+03  0.00000000000E+00 0. -1.
         22    1    1    2    0    0 -0.63438590515E+02 -0.52395408608E+02 -0.10722195402E+03  0.13515280623E+03  0.00000000000E+00 0.  1.
</event>
<event>
 6    1  0.8017648E-006  0.4762023E+02  0.7818608E-02  0.1529293E+00
          2   -1    0    0  502    0  0.00000000000E+00  0.00000000000E+00  0.19381552247E+03  0.19381552247E+03  0.00000000000E+00 0.  1.
          1   -1    0    0  501    0 -0.00000000000E+00 -0.00000000000E+00 -0.80304071607E+02  0.80304071607E+02  0.00000000000E+00 0. -1.
          2    1    1    2  501    0 -0.20234582444E+02 -0.42715268074E+02  0.72248705146E+02  0.86336017100E+02  0.00000000000E+00 0.  1.
          1    1    1    2  502    0 -0.88398147413E+01  0.53723393835E+02  0.18552262402E+00  0.54446118213E+02  0.00000000000E+00 0. -1.
         22    1    1    2    0    0 -0.16361609052E+02 -0.34075772045E+01  0.74545543292E+02  0.76396019909E+02  0.00000000000E+00 0.  1.
         22    1    1    2    0    0  0.45436006237E+02 -0.76005485570E+01 -0.33468320203E+02  0.56941438851E+02  0.00000000000E+00 0.  1.
</event>
<event>
 6    1  0.1030020E-005  0.3990053E+02  0.7818608E-02  0.1616683E+00
          2   -1    0    0  502    0  0.00000000000E+00  0.00000000000E+00  0.14303777361E+03  0.14303777361E+03  0.00000000000E+00 0.  1.
          1   -1    0    0  501    0 -0.00000000000E+00 -0.00000000000E+00 -0.77246580656E+03  0.77246580656E+03  0.00000000000E+00 0. -1.
          2    1    1    2  501    0 -0.30122608218E+02  0.39172760449E+02 -0.10191292979E+02  0.50455318250E+02  0.00000000000E+00 0.  1.
          1    1    1    2  502    0  0.16348432001E+02 -0.12451286116E+02 -0.70675842736E+03  0.70705712668E+03  0.00000000000E+00 0. -1.
         22    1    1    2    0    0  0.75127390542E+00  0.10188683424E+02 -0.31280982001E+02  0.32907043583E+02  0.00000000000E+00 0.  1.
         22    1    1    2    0    0  0.13022902312E+02 -0.36910157758E+02  0.11880266939E+03  0.12508409166E+03  0.00000000000E+00 0.  1.
</event>
<event>
 6    1  0.8017648E-006  0.6036762E+02  0.7818608E-02  0.1512077E+00
          2   -1    0    0  502    0  0.00000000000E+00  0.00000000000E+00  0.45505944951E+03  0.45505944951E+03  0.00000000000E+00 0. -1.
          1   -1    0    0  501    0 -0.00000000000E+00 -0.00000000000E+00 -0.75260236616E+02  0.75260236616E+02  0.00000000000E+00 0.  1.
          2    1    1    2  501    0  0.30306551734E+02  0.23322817241E+02  0.33504185563E+03  0.33721726811E+03  0.00000000000E+00 0. -1.
          1    1    1    2  502    0 -0.29965285450E+02 -0.38043580943E+02 -0.17356003365E+02  0.51443787146E+02  0.00000000000E+00 0.  1.
         22    1    1    2    0    0  0.10307907992E+02  0.17642615093E+02  0.10006663341E+03  0.10213151305E+03  0.00000000000E+00 0. -1.
         22    1    1    2    0    0 -0.10649174276E+02 -0.29218513910E+01 -0.37953272789E+02  0.39527117827E+02  0.00000000000E+00 0.  1.
</event>
<event>
 6    1  0.8017648E-006  0.2475626E+03  0.7818608E-02  0.1196808E+00
          2   -1    0    0  502    0  0.00000000000E+00  0.00000000000E+00  0.45452468237E+03  0.45452468237E+03  0.00000000000E+00 0. -1.
          1   -1    0    0  501    0 -0.00000000000E+00 -0.00000000000E+00 -0.11953907997E+03  0.11953907997E+03  0.00000000000E+00 0.  1.
          2    1    1    2  501    0 -0.23131940359E+02 -0.22862820496E+02 -0.83740105250E+01  0.33584509496E+02  0.00000000000E+00 0. -1.
          1    1    1    2  502    0  0.79168978278E+01 -0.17774497885E+03  0.14763286189E+03  0.23119562428E+03  0.00000000000E+00 0.  1.
         22    1    1    2    0    0  0.36120759671E+02 -0.11193388604E+01  0.22535452071E+02  0.42588834203E+02  0.00000000000E+00 0.  1.
         22    1    1    2    0    0 -0.20905717140E+02  0.20172713821E+03  0.17319129896E+03  0.26669479435E+03  0.00000000000E+00 0. -1.
</event>
<event>
 6    1  0.8017648E-006  0.1023481E+03  0.7818608E-02  0.1301321E+00
          2   -1    0    0  502    0  0.00000000000E+00  0.00000000000E+00  0.97990525026E+03  0.97990525026E+03  0.00000000000E+00 0.  1.
          1   -1    0    0  501    0 -0.00000000000E+00 -0.00000000000E+00 -0.17721208991E+03  0.17721208991E+03  0.00000000000E+00 0. -1.
          2    1    1    2  501    0  0.11259195636E+03 -0.63905881376E+01  0.85405710514E+03  0.86147044470E+03  0.00000000000E+00 0.  1.
          1    1    1    2  502    0 -0.43321545771E+02 -0.25130396651E+02 -0.12405137663E+03  0.13377980867E+03  0.00000000000E+00 0. -1.
         22    1    1    2    0    0 -0.61846369609E+01 -0.11269894454E+02 -0.30776709940E+02  0.33353652425E+02  0.00000000000E+00 0. -1.
         22    1    1    2    0    0 -0.63085773626E+02  0.42790879243E+02  0.10346414179E+03  0.12851343438E+03  0.00000000000E+00 0. -1.
</event>
<event>
 6    1  0.8017648E-006  0.6526411E+02  0.7818608E-02  0.1437605E+00
          2   -1    0    0  502    0  0.00000000000E+00  0.00000000000E+00  0.28331303343E+03  0.28331303343E+03  0.00000000000E+00 0.  1.
          1   -1    0    0  501    0 -0.00000000000E+00 -0.00000000000E+00 -0.13069430843E+03  0.13069430843E+03  0.00000000000E+00 0.  1.
          2    1    1    2  501    0 -0.41196336108E+02  0.70819093099E+02  0.21371466878E+03  0.22888084609E+03  0.00000000000E+00 0.  1.
          1    1    1    2  502    0  0.10781515215E+02 -0.32536615714E+02 -0.39657023826E+02  0.52417096173E+02  0.00000000000E+00 0.  1.
         22    1    1    2    0    0  0.21273190472E+02 -0.14763783023E+02 -0.71829386817E+02  0.76354297406E+02  0.00000000000E+00 0.  1.
         22    1    1    2    0    0  0.91416304218E+01 -0.23518694362E+02  0.50390466862E+02  0.56355102181E+02  0.00000000000E+00 0.  1.
</event>
<event>
 6    1  0.8017648E-006  0.5188131E+02  0.7818608E-02  0.1501732E+00
          2   -1    0    0  502    0  0.00000000000E+00  0.00000000000E+00  0.34155090037E+03  0.34155090037E+03  0.00000000000E+00 0.  1.
          1   -1    0    0  501    0 -0.00000000000E+00 -0.00000000000E+00 -0.30448660755E+02  0.30448660755E+02  0.00000000000E+00 0. -1.
          2    1    1    2  501    0 -0.14554961587E+02 -0.20270286952E+02  0.11293879862E+03  0.11566288805E+03  0.00000000000E+00 0.  1.
          1    1    1    2  502    0  0.29633663582E+02  0.21285075864E+02  0.44655562780E+02  0.57665654934E+02  0.00000000000E+00 0. -1.
         22    1    1    2    0    0 -0.28866890633E+02 -0.15539599211E+02  0.16974923131E+03  0.17288602618E+03  0.00000000000E+00 0.  1.
         22    1    1    2    0    0  0.13788188639E+02  0.14524810299E+02 -0.16241353089E+02  0.25784991959E+02  0.00000000000E+00 0.  1.
</event>
<event>
 6    1  0.8017648E-006  0.3838521E+02  0.7818608E-02  0.1576674E+00
          2   -1    0    0  502    0  0.00000000000E+00  0.00000000000E+00  0.13219971511E+03  0.13219971511E+03  0.00000000000E+00 0.  1.
          1   -1    0    0  501    0 -0.00000000000E+00 -0.00000000000E+00 -0.23266903724E+03  0.23266903724E+03  0.00000000000E+00 0.  1.
          2    1    1    2  501    0 -0.18064278231E+02 -0.30546295127E+02  0.65898165291E+02  0.74846258976E+02  0.00000000000E+00 0.  1.
          1    1    1    2  502    0  0.85520964078E+01 -0.26856180762E+02 -0.14986672617E+03  0.15249402746E+03  0.00000000000E+00 0.  1.
         22    1    1    2    0    0  0.18403059538E+02  0.27671366012E+01 -0.62715479854E+02  0.65418354142E+02  0.00000000000E+00 0.  1.
         22    1    1    2    0    0 -0.88908777155E+01  0.54635339288E+02  0.46214718602E+02  0.72110111782E+02  0.00000000000E+00 0.  1.
</event>
<event>
 6    1  0.8017648E-006  0.8164493E+02  0.7818608E-02  0.1392809E+00
          2   -1    0    0  502    0  0.00000000000E+00  0.00000000000E+00  0.50995347205E+03  0.50995347205E+03  0.00000000000E+00 0. -1.
          1   -1    0    0  501    0 -0.00000000000E+00 -0.00000000000E+00 -0.31329394264E+03  0.31329394264E+03  0.00000000000E+00 0.  1.
          2    1    1    2  501    0 -0.66578993261E+02 -0.13452748166E+03  0.35014140646E+03  0.38095854129E+03  0.00000000000E+00 0. -1.
          1    1    1    2  502    0  0.50252272603E+02  0.16453218217E+03 -0.23567476959E+03  0.29178541240E+03  0.00000000000E+00 0.  1.
         22    1    1    2    0    0  0.28886268696E+02 -0.28098022406E+02  0.11150154616E+03  0.11856015426E+03  0.00000000000E+00 0. -1.
         22    1    1    2    0    0 -0.12559548038E+02 -0.19066781015E+01 -0.29308653616E+02  0.31943306734E+02  0.00000000000E+00 0. -1.
</event>
<event>
 6    1  0.8017648E-006  0.1364258E+03  0.7818608E-02  0.1291258E+00
          2   -1    0    0  502    0  0.00000000000E+00  0.00000000000E+00  0.46156091280E+03  0.46156091280E+03  0.00000000000E+00 0.  1.
          1   -1    0    0  501    0 -0.00000000000E+00 -0.00000000000E+00 -0.15843892808E+03  0.15843892808E+03  0.00000000000E+00 0.  1.
          2    1    1    2  501    0 -0.94754701181E+02  0.35682380354E+02  0.34332697559E+03  0.35794566324E+03  0.00000000000E+00 0.  1.
          1    1    1    2  502    0  0.96911373860E+02 -0.77835709604E+02 -0.27356088139E+02  0.12727359361E+03  0.00000000000E+00 0.  1.
         22    1    1    2    0    0 -0.24732316798E+02  0.19433595740E+02  0.52957166141E+02  0.61593941124E+02  0.00000000000E+00 0. -1.
         22    1    1    2    0    0  0.22575644119E+02  0.22719733510E+02 -0.65806068874E+02  0.73186642899E+02  0.00000000000E+00 0.  1.
</event>
<event>
 6    1  0.8017648E-006  0.4491468E+02  0.7818608E-02  0.1516260E+00
          2   -1    0    0  502    0  0.00000000000E+00  0.00000000000E+00  0.41389870812E+03  0.41389870812E+03  0.00000000000E+00 0. -1.
          1   -1    0    0  501    0 -0.00000000000E+00 -0.00000000000E+00 -0.75166124237E+02  0.75166124237E+02  0.00000000000E+00 0. -1.
          2    1    1    2  501    0 -0.80426669675E+02  0.10424793799E+02  0.23162090414E+03  0.24540857515E+03  0.00000000000E+00 0. -1.
          1    1    1    2  502    0  0.78711279799E+02 -0.41514936018E+02  0.29313807827E+02  0.93692341253E+02  0.00000000000E+00 0. -1.
         22    1    1    2    0    0  0.13249248669E+02  0.22142066230E+02  0.11085955156E+03  0.11382290569E+03  0.00000000000E+00 0. -1.
         22    1    1    2    0    0 -0.11533858793E+02  0.89480759887E+01 -0.33061679643E+02  0.36141010270E+02  0.00000000000E+00 0. -1.
</event>
<event>
 6    1  0.8017648E-006  0.7463986E+02  0.7818608E-02  0.1405633E+00
          2   -1    0    0  502    0  0.00000000000E+00  0.00000000000E+00  0.64391519759E+03  0.64391519759E+03  0.00000000000E+00 0. -1.
          1   -1    0    0  501    0 -0.00000000000E+00 -0.00000000000E+00 -0.22369483208E+02  0.22369483208E+02  0.00000000000E+00 0.  1.
          2    1    1    2  501    0  0.33159335100E+02 -0.63093501365E+01  0.31706507891E+03  0.31885672906E+03  0.00000000000E+00 0. -1.
          1    1    1    2  502    0 -0.15544529964E+01 -0.30003334099E+02  0.57786418901E+02  0.65129767316E+02  0.00000000000E+00 0.  1.
         22    1    1    2    0    0 -0.48980617011E+01  0.43090165067E+02  0.25072814047E+03  0.25445108323E+03  0.00000000000E+00 0.  1.
         22    1    1    2    0    0 -0.26706820403E+02 -0.67774808312E+01 -0.40339239020E+01  0.27847101187E+02  0.00000000000E+00 0.  1.
</event>
<event>
 6    1  0.8017648E-006  0.8288376E+02  0.7818608E-02  0.1450115E+00
          2   -1    0    0  502    0  0.00000000000E+00  0.00000000000E+00  0.22482422558E+03  0.22482422558E+03  0.00000000000E+00 0. -1.
          1   -1    0    0  501    0 -0.00000000000E+00 -0.00000000000E+00 -0.11535398310E+03  0.11535398310E+03  0.00000000000E+00 0.  1.
          2    1    1    2  501    0 -0.55667350706E+00 -0.33986476552E+02  0.73620713548E+02  0.81088839781E+02  0.00000000000E+00 0. -1.
          1    1    1    2  502    0 -0.19361248015E+02  0.75063344107E+02 -0.59544574942E+02  0.97749270884E+02  0.00000000000E+00 0.  1.
         22    1    1    2    0    0  0.29853252896E+02 -0.38643800795E+02  0.12276493607E+03  0.13212036019E+03  0.00000000000E+00 0. -1.
         22    1    1    2    0    0 -0.99353313733E+01 -0.24330667599E+01 -0.27370832193E+02  0.29219737821E+02  0.00000000000E+00 0.  1.
</event>
<event>
 6    1  0.8017648E-006  0.2259347E+03  0.7818608E-02  0.1184173E+00
          2   -1    0    0  502    0  0.00000000000E+00  0.00000000000E+00  0.89043227693E+03  0.89043227693E+03  0.00000000000E+00 0.  1.
          1   -1    0    0  501    0 -0.00000000000E+00 -0.00000000000E+00 -0.12334635968E+03  0.12334635968E+03  0.00000000000E+00 0.  1.
          2    1    1    2  501    0  0.44316948068E+01 -0.41316746244E+02  0.18967811298E+03  0.19417646609E+03  0.00000000000E+00 0.  1.
          1    1    1    2  502    0 -0.21620224791E+03  0.74662114877E+02  0.46526136336E+02  0.23341491975E+03  0.00000000000E+00 0.  1.
         22    1    1    2    0    0  0.22213859970E+03 -0.14835133771E+02  0.44320517880E+03  0.49598031129E+03  0.00000000000E+00 0.  1.
         22    1    1    2    0    0 -0.10368046593E+02 -0.18510234862E+02  0.87676489132E+02  0.90206939485E+02  0.00000000000E+00 0.  1.
</event>
<event>
 6    1  0.8017648E-006  0.1909818E+03  0.7818608E-02  0.1294100E+00
          2   -1    0    0  502    0  0.00000000000E+00  0.00000000000E+00  0.15775666194E+04  0.15775666194E+04  0.00000000000E+00 0.  1.
          1   -1    0    0  501    0 -0.00000000000E+00 -0.00000000000E+00 -0.58650427234E+02  0.58650427234E+02  0.00000000000E+00 0.  1.
          2    1    1    2  501    0  0.15668304246E+03 -0.16146343804E+02  0.34548250052E+03  0.37969519140E+03  0.00000000000E+00 0.  1.
          1    1    1    2  502    0 -0.18310716500E+03  0.14726257148E+02  0.10823491674E+04  0.10978273164E+04  0.00000000000E+00 0.  1.
         22    1    1    2    0    0  0.31154299402E+02  0.11430992364E+02  0.12169741138E+03  0.12614086528E+03  0.00000000000E+00 0.  1.
         22    1    1    2    0    0 -0.47301768637E+01 -0.10010905708E+02 -0.30612887091E+02  0.32553673560E+02  0.00000000000E+00 0.  1.
</event>
<event>
 6    1  0.8017648E-006  0.2046521E+03  0.7818608E-02  0.1191751E+00
          2   -1    0    0  502    0  0.00000000000E+00  0.00000000000E+00  0.18560936680E+04  0.18560936680E+04  0.00000000000E+00 0. -1.
          1   -1    0    0  501    0 -0.00000000000E+00 -0.00000000000E+00 -0.48065341350E+02  0.48065341350E+02  0.00000000000E+00 0. -1.
          2    1    1    2  501    0 -0.13483857426E+03 -0.38423320673E+02  0.58414779300E+03  0.60073824312E+03  0.00000000000E+00 0. -1.
          1    1    1    2  502    0  0.22100026230E+03  0.78502979476E+02  0.10089831173E+04  0.10358816364E+04  0.00000000000E+00 0. -1.
         22    1    1    2    0    0 -0.37682059013E+02  0.12435728497E+02  0.18643148566E+03  0.19060766973E+03  0.00000000000E+00 0.  1.
         22    1    1    2    0    0 -0.48479629025E+02 -0.52515387301E+02  0.28465930665E+02  0.76931460030E+02  0.00000000000E+00 0. -1.
</event>
<event>
 6    1  0.8017648E-006  0.4568164E+02  0.7818608E-02  0.1472028E+00
          2   -1    0    0  502    0  0.00000000000E+00  0.00000000000E+00  0.17834588551E+03  0.17834588551E+03  0.00000000000E+00 0. -1.
          1   -1    0    0  501    0 -0.00000000000E+00 -0.00000000000E+00 -0.14714820919E+03  0.14714820919E+03  0.00000000000E+00 0. -1.
          2    1    1    2  501    0  0.99350841403E+01  0.30795072308E+02  0.12549474174E+03  0.12959927692E+03  0.00000000000E+00 0. -1.
          1    1    1    2  502    0 -0.13901023095E+02 -0.22421909642E+02 -0.59698663949E+02  0.65267993323E+02  0.00000000000E+00 0. -1.
         22    1    1    2    0    0 -0.58855003100E+01 -0.15399240669E+02 -0.81006601248E+02  0.82667074297E+02  0.00000000000E+00 0. -1.
         22    1    1    2    0    0  0.98514392650E+01  0.70260780033E+01  0.46408199785E+02  0.47959750156E+02  0.00000000000E+00 0. -1.
</event>
<event>
 6    1  0.8017648E-006  0.6514107E+02  0.7818608E-02  0.1378520E+00
          2   -1    0    0  502    0  0.00000000000E+00  0.00000000000E+00  0.75352334162E+02  0.75352334162E+02  0.00000000000E+00 0.  1.
          1   -1    0    0  501    0 -0.00000000000E+00 -0.00000000000E+00 -0.25951134814E+03  0.25951134814E+03  0.00000000000E+00 0. -1.
          2    1    1    2  501    0 -0.32256750174E+02  0.64015975694E+01  0.32681365842E+02  0.46363240358E+02  0.00000000000E+00 0.  1.
          1    1    1    2  502    0  0.39730858827E+02 -0.13674495665E+02 -0.12545469156E+03  0.13230424260E+03  0.00000000000E+00 0. -1.
         22    1    1    2    0    0  0.13496762223E+02 -0.15422507584E+02 -0.11530956206E+03  0.11711665737E+03  0.00000000000E+00 0. -1.
         22    1    1    2    0    0 -0.20970870876E+02  0.22695405680E+02  0.23923873794E+02  0.39079541983E+02  0.00000000000E+00 0. -1.
</event>
<event>
 6    1  0.8017648E-006  0.9655743E+02  0.7818608E-02  0.1327796E+00
          2   -1    0    0  502    0  0.00000000000E+00  0.00000000000E+00  0.80480538575E+03  0.80480538575E+03  0.00000000000E+00 0.  1.
          1   -1    0    0  501    0 -0.00000000000E+00 -0.00000000000E+00 -0.56106577171E+02  0.56106577171E+02  0.00000000000E+00 0.  1.
          2    1    1    2  501    0 -0.15474050610E+03 -0.45993881808E+02  0.22026508528E+03  0.27308747534E+03  0.00000000000E+00 0.  1.
          1    1    1    2  502    0  0.44640098646E+02  0.22585414333E+02  0.29858662873E+03  0.30274876417E+03  0.00000000000E+00 0.  1.
         22    1    1    2    0    0 -0.27016138221E+02 -0.79228469501E-01  0.57960844129E+02  0.63947927673E+02  0.00000000000E+00 0.  1.
         22    1    1    2    0    0  0.13711654568E+03  0.23487695944E+02  0.17188625043E+03  0.22112779574E+03  0.00000000000E+00 0.  1.
</event>
<event>
 6    1  0.8017648E-006  0.9875338E+02  0.7818608E-02  0.1293253E+00
          2   -1    0    0  502    0  0.00000000000E+00  0.00000000000E+00  0.23946813460E+03  0.23946813460E+03  0.00000000000E+00 0. -1.
          1   -1    0    0  501    0 -0.00000000000E+00 -0.00000000000E+00 -0.81339845837E+03  0.81339845837E+03  0.00000000000E+00 0.  1.
          2    1    1    2  501    0 -0.67321830197E+02  0.45067220652E+01  0.19159297275E+03  0.20312657771E+03  0.00000000000E+00 0. -1.
          1    1    1    2  502    0  0.43321345150E+02 -0.98277147704E+02 -0.63218519988E+03  0.64124352913E+03  0.00000000000E+00 0.  1.
         22    1    1    2    0    0 -0.11827271214E+02  0.49239752153E+01  0.22311789570E+02  0.25728307952E+02  0.00000000000E+00 0.  1.
         22    1    1    2    0    0  0.35827756261E+02  0.88846450423E+02 -0.15564988622E+03  0.18276817817E+03  0.00000000000E+00 0.  1.
</event>
<event>
 6    1  0.8017648E-006  0.2835029E+02  0.7818608E-02  0.1660344E+00
          2   -1    0    0  502    0  0.00000000000E+00  0.00000000000E+00  0.60990114160E+02  0.60990114160E+02  0.00000000000E+00 0. -1.
          1   -1    0    0  501    0 -0.00000000000E+00 -0.00000000000E+00 -0.94167068696E+03  0.94167068696E+03  0.00000000000E+00 0.  1.
          2    1    1    2  501    0 -0.31259415023E+02 -0.71945621848E+01  0.20094332399E+02  0.37850957018E+02  0.00000000000E+00 0. -1.
          1    1    1    2  502    0 -0.45603002132E+01 -0.27812563046E+02 -0.79059897556E+03  0.79110117883E+03  0.00000000000E+00 0.  1.
         22    1    1    2    0    0  0.21031076955E+02  0.26089853497E+02 -0.13742304308E+03  0.14144991843E+03  0.00000000000E+00 0. -1.
         22    1    1    2    0    0  0.14788638282E+02  0.89172717334E+01  0.27247113436E+02  0.32258746844E+02  0.00000000000E+00 0. -1.
</event>
<event>
 6    1  0.8017648E-006  0.1658130E+03  0.7818608E-02  0.1251415E+00
          2   -1    0    0  502    0  0.00000000000E+00  0.00000000000E+00  0.55723365150E+02  0.55723365150E+02  0.00000000000E+00 0. -1.
          1   -1    0    0  501    0 -0.00000000000E+00 -0.00000000000E+00 -0.37739247231E+03  0.37739247231E+03  0.00000000000E+00 0. -1.
          2    1    1    2  501    0  0.61253819048E+02 -0.44341317324E+02 -0.44741299466E+01  0.75750911604E+02  0.00000000000E+00 0. -1.
          1    1    1    2  502    0 -0.31533046662E+02  0.34630430197E+01 -0.51178568463E+02  0.60212719326E+02  0.00000000000E+00 0. -1.
         22    1    1    2    0    0 -0.66613293444E+02  0.29896552731E+02 -0.84844083520E+02  0.11193593363E+03  0.00000000000E+00 0. -1.
         22    1    1    2    0    0  0.36892521059E+02  0.10981721574E+02 -0.18117232523E+03  0.18521627290E+03  0.00000000000E+00 0. -1.
</event>
<event>
 6    1  0.8017648E-006  0.1269357E+03  0.7818608E-02  0.1344717E+00
          2   -1    0    0  502    0  0.00000000000E+00  0.00000000000E+00  0.27182978955E+03  0.27182978955E+03  0.00000000000E+00 0. -1.
          1   -1    0    0  501    0 -0.00000000000E+00 -0.00000000000E+00 -0.78091216977E+02  0.78091216977E+02  0.00000000000E+00 0. -1.
          2    1    1    2  501    0 -0.13979140880E+02 -0.20387323471E+02  0.20475055946E+02  0.32098088012E+02  0.00000000000E+00 0. -1.
          1    1    1    2  502    0 -0.23339989981E+02  0.10385418831E+03  0.32432237672E+02  0.11127577276E+03  0.00000000000E+00 0. -1.
         22    1    1    2    0    0 -0.13650050939E+02  0.67918312214E+01 -0.13682259937E+02  0.20485533895E+02  0.00000000000E+00 0. -1.
         22    1    1    2    0    0  0.50969181800E+02 -0.90258696062E+02  0.15451353889E+03  0.18606161186E+03  0.00000000000E+00 0. -1.
</event>
<event>
 6    1  0.8017648E-006  0.1704046E+03  0.7818608E-02  0.1213861E+00
          2   -1    0    0  502    0  0.00000000000E+00  0.00000000000E+00  0.15309679397E+04  0.15309679397E+04  0.00000000000E+00 0. -1.
          1   -1    0    0  501    0 -0.00000000000E+00 -0.00000000000E+00 -0.41130334044E+02  0.41130334044E+02  0.00000000000E+00 0.  1.
          2    1    1    2  501    0 -0.41150037561E+02 -0.25301577446E+02  0.27422719280E+03  0.27844936466E+03  0.00000000000E+00 0. -1.
          1    1    1    2  502    0  0.11839102738E+03 -0.11663621119E+03  0.20908161250E+03  0.26708718016E+03  0.00000000000E+00 0.  1.
         22    1    1    2    0    0 -0.10018321378E+03  0.68681442096E+02  0.70666070712E+03  0.71702382931E+03  0.00000000000E+00 0. -1.
         22    1    1    2    0    0  0.22942223957E+02  0.73256346536E+02  0.29986809327E+03  0.30953789963E+03  0.00000000000E+00 0.  1.
</event>
<event>
 6    1  0.8017648E-006  0.2167787E+03  0.7818608E-02  0.1271014E+00
          2   -1    0    0  502    0  0.00000000000E+00  0.00000000000E+00  0.78657909017E+03  0.78657909017E+03  0.00000000000E+00 0.  1.
          1   -1    0    0  501    0 -0.00000000000E+00 -0.00000000000E+00 -0.47596327488E+03  0.47596327488E+03  0.00000000000E+00 0. -1.
          2    1    1    2  501    0 -0.19224540160E+03 -0.57168844960E+02  0.67876558033E+03  0.70777770826E+03  0.00000000000E+00 0.  1.
          1    1    1    2  502    0  0.19447388925E+03  0.62117733579E+02 -0.37485617104E+03  0.42684406449E+03  0.00000000000E+00 0. -1.
         22    1    1    2    0    0  0.10153941524E+02  0.58677710469E+01 -0.59017481892E+02  0.60171392160E+02  0.00000000000E+00 0. -1.
         22    1    1    2    0    0 -0.12382429171E+02 -0.10816659665E+02  0.65723887897E+02  0.67749200134E+02  0.00000000000E+00 0.  1.
</event>
<event>
 6    1  0.8017648E-006  0.3013876E+02  0.7818608E-02  0.1607144E+00
          2   -1    0    0  502    0  0.00000000000E+00  0.00000000000E+00  0.25301827984E+03  0.25301827984E+03  0.00000000000E+00 0. -1.
          1   -1    0    0  501    0 -0.00000000000E+00 -0.00000000000E+00 -0.65758212310E+02  0.65758212310E+02  0.00000000000E+00 0.  1.
          2    1    1    2  501    0 -0.29007550350E+02  0.47648401028E+02  0.10279697078E+03  0.11695736530E+03  0.00000000000E+00 0. -1.
          1    1    1    2  502    0  0.32064373167E+02 -0.36795640724E+02  0.43091544759E+02  0.65107022913E+02  0.00000000000E+00 0.  1.
         22    1    1    2    0    0 -0.14727923157E+02  0.13660042939E+01  0.86899704214E+02  0.88149510950E+02  0.00000000000E+00 0. -1.
         22    1    1    2    0    0  0.11671100340E+02 -0.12218764598E+02 -0.45528152226E+02  0.48562592977E+02  0.00000000000E+00 0.  1.
</event>
<event>
 6    1  0.8017648E-006  0.6248773E+02  0.7818608E-02  0.1465322E+00
          2   -1    0    0  502    0  0.00000000000E+00  0.00000000000E+00  0.23660440158E+03  0.23660440158E+03  0.00000000000E+00 0.  1.
          1   -1    0    0  501    0 -0.00000000000E+00 -0.00000000000E+00 -0.52941182904E+03  0.52941182904E+03  0.00000000000E+00 0. -1.
          2    1    1    2  501    0 -0.44964957305E+02 -0.68801089620E+01  0.15138336708E+03  0.15806994374E+03  0.00000000000E+00 0.  1.
          1    1    1    2  502    0  0.42504243964E+02  0.37001880244E+02 -0.47131928662E+03  0.47467633166E+03  0.00000000000E+00 0. -1.
         22    1    1    2    0    0  0.10540347551E+02 -0.15957973473E+02 -0.50472458400E+02  0.53974298521E+02  0.00000000000E+00 0. -1.
         22    1    1    2    0    0 -0.80796342096E+01 -0.14163797809E+02  0.77600950478E+02  0.79295656706E+02  0.00000000000E+00 0.  1.
</event>
<event>
 6    1  0.8017648E-006  0.5325010E+02  0.7818608E-02  0.1476701E+00
          2   -1    0    0  502    0  0.00000000000E+00  0.00000000000E+00  0.86541277945E+02  0.86541277945E+02  0.00000000000E+00 0. -1.
          1   -1    0    0  501    0 -0.00000000000E+00 -0.00000000000E+00 -0.20683460329E+03  0.20683460329E+03  0.00000000000E+00 0.  1.
          2    1    1    2  501    0 -0.26560936129E+02  0.35025401918E+02  0.19685593799E+02  0.48164143414E+02  0.00000000000E+00 0. -1.
          1    1    1    2  502    0  0.35127368473E+02 -0.17107807978E+02 -0.11248842535E+03  0.11908087566E+03  0.00000000000E+00 0.  1.
         22    1    1    2    0    0  0.13406584593E+02 -0.35350720971E+01 -0.72611747167E+02  0.73923602941E+02  0.00000000000E+00 0.  1.
         22    1    1    2    0    0 -0.21973016937E+02 -0.14382521842E+02  0.45121253381E+02  0.52207259213E+02  0.00000000000E+00 0. -1.
</event>
<event>
 6    1  0.8017648E-006  0.4124436E+02  0.7818608E-02  0.1546274E+00
          2   -1    0    0  502    0  0.00000000000E+00  0.00000000000E+00  0.18155599329E+03  0.18155599329E+03  0.00000000000E+00 0.  1.
          1   -1    0    0  501    0 -0.00000000000E+00 -0.00000000000E+00 -0.20096477981E+03  0.20096477981E+03  0.00000000000E+00 0. -1.
          2    1    1    2  501    0 -0.85607747235E+01 -0.20537949253E+02  0.10950211360E+03  0.11173990829E+03  0.00000000000E+00 0.  1.
          1    1    1    2  502    0  0.35148105353E+01  0.29849205257E+02 -0.13761877478E+03  0.14086254335E+03  0.00000000000E+00 0. -1.
         22    1    1    2    0    0  0.11892727931E+02 -0.18555366592E+02  0.66984534491E+02  0.70517135988E+02  0.00000000000E+00 0. -1.
         22    1    1    2    0    0 -0.68467637430E+01  0.92441105875E+01 -0.58276659829E+02  0.59401185469E+02  0.00000000000E+00 0. -1.
</event>
<event>
 6    1  0.8017648E-006  0.9186608E+02  0.7818608E-02  0.1418482E+00
          2   -1    0    0  502    0  0.00000000000E+00  0.00000000000E+00  0.17693302697E+03  0.17693302697E+03  0.00000000000E+00 0.  1.
          1   -1    0    0  501    0 -0.00000000000E+00 -0.00000000000E+00 -0.42082858997E+03  0.42082858997E+03  0.00000000000E+00 0. -1.
          2    1    1    2  501    0  0.23403515972E+02 -0.31963440397E+02  0.98648894539E+02  0.10630611683E+03  0.00000000000E+00 0.  1.
          1    1    1    2  502    0 -0.51955048151E+02  0.72189955756E+02 -0.34871536006E+03  0.35987931183E+03  0.00000000000E+00 0. -1.
         22    1    1    2    0    0  0.17417844705E+02 -0.44965495587E+02  0.59673921809E+02  0.76721926799E+02  0.00000000000E+00 0.  1.
         22    1    1    2    0    0  0.11133687473E+02  0.47389802286E+01 -0.53503019285E+02  0.54854261484E+02  0.00000000000E+00 0. -1.
</event>
<event>
 6    1  0.8017648E-006  0.1421599E+03  0.7818608E-02  0.1255915E+00
          2   -1    0    0  502    0  0.00000000000E+00  0.00000000000E+00  0.29184450535E+03  0.29184450535E+03  0.00000000000E+00 0. -1.
          1   -1    0    0  501    0 -0.00000000000E+00 -0.00000000000E+00 -0.12556831291E+04  0.12556831291E+04  0.00000000000E+00 0. -1.
          2    1    1    2  501    0  0.33807698113E+02  0.73066911004E+01  0.10446320858E+03  0.11004049316E+03  0.00000000000E+00 0. -1.
          1    1    1    2  502    0 -0.97710455532E+02 -0.10606654907E+03 -0.12073992269E+04  0.12159812248E+04  0.00000000000E+00 0. -1.
         22    1    1    2    0    0  0.19188103497E+02 -0.30730070036E+01  0.10264307298E+03  0.10446639229E+03  0.00000000000E+00 0. -1.
         22    1    1    2    0    0  0.44714653923E+02  0.10183286497E+03  0.36454321580E+02  0.11703952420E+03  0.00000000000E+00 0.  1.
</event>
<event>
 6    1  0.8017648E-006  0.6282417E+02  0.7818608E-02  0.1427854E+00
          2   -1    0    0  502    0  0.00000000000E+00  0.00000000000E+00  0.91938076757E+02  0.91938076757E+02  0.00000000000E+00 0.  1.
          1   -1    0    0  501    0 -0.00000000000E+00 -0.00000000000E+00 -0.17724264921E+03  0.17724264921E+03  0.00000000000E+00 0.  1.
          2    1    1    2  501    0 -0.28566345619E+02 -0.30394080985E+02  0.41171757196E+02  0.58608445224E+02  0.00000000000E+00 0.  1.
          1    1    1    2  502    0  0.16981163084E+02 -0.19177401575E+02 -0.49198426371E+02  0.55467267719E+02  0.00000000000E+00 0.  1.
         22    1    1    2    0    0  0.17497148217E+02  0.27715863166E+02 -0.11029976188E+03  0.11506674905E+03  0.00000000000E+00 0.  1.
         22    1    1    2    0    0 -0.59119656823E+01  0.21855619394E+02  0.33021858595E+02  0.40038263978E+02  0.00000000000E+00 0.  1.
</event>
<event>
 6    1  0.8017648E-006  0.9208065E+02  0.7818608E-02  0.1399351E+00
          2   -1    0    0  502    0  0.00000000000E+00  0.00000000000E+00  0.20118616405E+03  0.20118616405E+03  0.00000000000E+00 0.  1.
          1   -1    0    0  501    0 -0.00000000000E+00 -0.00000000000E+00 -0.95868179127E+02  0.95868179127E+02  0.00000000000E+00 0. -1.
          2    1    1    2  501    0  0.73690498602E+00  0.42465708176E+02  0.65853328929E+02  0.78361599849E+02  0.00000000000E+00 0.  1.
          1    1    1    2  502    0  0.11402687905E+02 -0.78812494049E+02  0.23109254947E+02  0.82918442906E+02  0.00000000000E+00 0. -1.
         22    1    1    2    0    0 -0.18511281424E+02  0.51245705492E+02  0.64816591517E+02  0.84675736827E+02  0.00000000000E+00 0.  1.
         22    1    1    2    0    0  0.63716885325E+01 -0.14898919619E+02 -0.48461190466E+02  0.51098563599E+02  0.00000000000E+00 0. -1.
</event>
<event>
 6    1  0.8017648E-006  0.1323448E+03  0.7818608E-02  0.1282841E+00
          2   -1    0    0  502    0  0.00000000000E+00  0.00000000000E+00  0.24617375852E+03  0.24617375852E+03  0.00000000000E+00 0.  1.
          1   -1    0    0  501    0 -0.00000000000E+00 -0.00000000000E+00 -0.15403566668E+03  0.15403566668E+03  0.00000000000E+00 0. -1.
          2    1    1    2  501    0  0.27920693508E+02 -0.34793825604E+02 -0.35638709430E+02  0.57098975788E+02  0.00000000000E+00 0.  1.
          1    1    1    2  502    0 -0.90538965446E+02  0.75720508954E+02  0.15480627226E+03  0.19466864584E+03  0.00000000000E+00 0. -1.
         22    1    1    2    0    0  0.52979960118E+02 -0.80886322838E+02  0.42536309258E+01  0.96786191021E+02  0.00000000000E+00 0.  1.
         22    1    1    2    0    0  0.96383118187E+01  0.39959639489E+02 -0.31283101917E+02  0.51655612554E+02  0.00000000000E+00 0.  1.
</event>
<event>
 6    1  0.8017648E-006  0.5131275E+02  0.7818608E-02  0.1478316E+00
          2   -1    0    0  502    0  0.00000000000E+00  0.00000000000E+00  0.45713422452E+03  0.45713422452E+03  0.00000000000E+00 0.  1.
          1   -1    0    0  501    0 -0.00000000000E+00 -0.00000000000E+00 -0.51604085952E+02  0.51604085952E+02  0.00000000000E+00 0. -1.
          2    1    1    2  501    0  0.15734407414E+02  0.29521585496E+02  0.33710753125E+03  0.33876331444E+03  0.00000000000E+00 0.  1.
          1    1    1    2  502    0 -0.50935902277E+01 -0.24759139401E+02 -0.15633301306E+01  0.25325948085E+02  0.00000000000E+00 0. -1.
         22    1    1    2    0    0  0.88216707630E+01  0.16310806894E+02  0.10083378211E+03  0.10252470879E+03  0.00000000000E+00 0.  1.
         22    1    1    2    0    0 -0.19462487949E+02 -0.21073252989E+02 -0.30847844667E+02  0.42124339156E+02  0.00000000000E+00 0. -1.
</event>
<event>
 6    1  0.8017648E-006  0.8197818E+02  0.7818608E-02  0.1397852E+00
          2   -1    0    0  502    0  0.00000000000E+00  0.00000000000E+00  0.87740639023E+03  0.87740639023E+03  0.00000000000E+00 0. -1.
          1   -1    0    0  501    0 -0.00000000000E+00 -0.00000000000E+00 -0.37516963286E+02  0.37516963286E+02  0.00000000000E+00 0. -1.
          2    1    1    2  501    0 -0.88605228353E+02  0.30735204461E+02  0.14083454716E+03  0.16920374984E+03  0.00000000000E+00 0. -1.
          1    1    1    2  502    0  0.46975288053E+02 -0.10047461472E+03  0.24242574971E+03  0.26659345456E+03  0.00000000000E+00 0. -1.
         22    1    1    2    0    0  0.20053087923E+02  0.73169247923E+02  0.44991964318E+03  0.45627135621E+03  0.00000000000E+00 0. -1.
         22    1    1    2    0    0  0.21576852377E+02 -0.34298376606E+01  0.67094869000E+01  0.22854792918E+02  0.00000000000E+00 0. -1.
</event>
<event>
 6    1  0.8017648E-006  0.2221407E+03  0.7818608E-02  0.1214043E+00
          2   -1    0    0  502    0  0.00000000000E+00  0.00000000000E+00  0.78615658467E+03  0.78615658467E+03  0.00000000000E+00 0. -1.
          1   -1    0    0  501    0 -0.00000000000E+00 -0.00000000000E+00 -0.15008726576E+03  0.15008726576E+03  0.00000000000E+00 0. -1.
          2    1    1    2  501    0  0.20771180847E+03 -0.26833230568E+01  0.14627266825E+03  0.25406119160E+03  0.00000000000E+00 0. -1.
          1    1    1    2  502    0 -0.21179404388E+03 -0.11428935086E+02  0.51542762680E+03  0.55736251762E+03  0.00000000000E+00 0. -1.
         22    1    1    2    0    0  0.30202790359E+02 -0.84534561076E+01  0.39901662148E+02  0.50752459131E+02  0.00000000000E+00 0. -1.
         22    1    1    2    0    0 -0.26120554942E+02  0.22565714250E+02 -0.65532638283E+02  0.74067682091E+02  0.00000000000E+00 0. -1.
</event>
<event>
 6    1  0.8017648E-006  0.3440080E+02  0.7818608E-02  0.1623353E+00
          2   -1    0    0  502    0  0.00000000000E+00  0.00000000000E+00  0.61961657049E+02  0.61961657049E+02  0.00000000000E+00 0.  1.
          1   -1    0    0  501    0 -0.00000000000E+00 -0.00000000000E+00 -0.25123833704E+03  0.25123833704E+03  0.00000000000E+00 0. -1.
          2    1    1    2  501    0  0.16286390190E+02  0.13655504882E+02 -0.16071749204E+01  0.21314369103E+02  0.00000000000E+00 0.  1.
          1    1    1    2  502    0 -0.30958946773E+02  0.20658563103E+02 -0.15134535397E+03  0.15585457576E+03  0.00000000000E+00 0. -1.
         22    1    1    2    0    0  0.13505898648E+02  0.59087836924E+01  0.43884493610E+02  0.46294403575E+02  0.00000000000E+00 0.  1.
         22    1    1    2    0    0  0.11666579342E+01 -0.40222851678E+02 -0.80208644702E+02  0.89736645652E+02  0.00000000000E+00 0. -1.
</event>
<event>
 6    1  0.8017648E-006  0.2154640E+03  0.7818608E-02  0.1138105E+00
          2   -1    0    0  502    0  0.00000000000E+00  0.00000000000E+00  0.47620325468E+03  0.47620325468E+03  0.00000000000E+00 0. -1.
          1   -1    0    0  501    0 -0.00000000000E+00 -0.00000000000E+00 -0.47491091088E+03  0.47491091088E+03  0.00000000000E+00 0. -1.
          2    1    1    2  501    0  0.17442170224E+03  0.17831264846E+02  0.30508168721E+03  0.35187458005E+03  0.00000000000E+00 0. -1.
          1    1    1    2  502    0 -0.18858005427E+03 -0.44149592195E+02 -0.39383686207E+03  0.43888392234E+03  0.00000000000E+00 0. -1.
         22    1    1    2    0    0  0.29085283649E+02  0.17130564934E+02  0.12054398464E+03  0.12518091793E+03  0.00000000000E+00 0. -1.
         22    1    1    2    0    0 -0.14926931617E+02  0.91877624161E+01 -0.30496465979E+02  0.35174745243E+02  0.00000000000E+00 0. -1.
</event>
<event>
 6    1  0.8017648E-006  0.3219666E+02  0.7818608E-02  0.1651265E+00
          2   -1    0    0  502    0  0.00000000000E+00  0.00000000000E+00  0.42461928528E+02  0.42461928528E+02  0.00000000000E+00 0. -1.
          1   -1    0    0  501    0 -0.00000000000E+00 -0.00000000000E+00 -0.27100758405E+03  0.27100758405E+03  0.00000000000E+00 0.  1.
          2    1    1    2  501    0  0.16610534447E+02 -0.15434465612E+02  0.60311833235E+01  0.23462901688E+02  0.00000000000E+00 0. -1.
          1    1    1    2  502    0 -0.33926326040E+02 -0.14342241336E+02 -0.92113613417E+02  0.99204905432E+02  0.00000000000E+00 0.  1.
         22    1    1    2    0    0  0.56881250962E+01  0.35708389157E+02 -0.16272793855E+03  0.16669680803E+03  0.00000000000E+00 0.  1.
         22    1    1    2    0    0  0.11627666497E+02 -0.59316822079E+01  0.20264713122E+02  0.24104897425E+02  0.00000000000E+00 0. -1.
</event>
<event>
 6    1  0.8017648E-006  0.1157360E+03  0.7818608E-02  0.1328653E+00
          2   -1    0    0  502    0  0.00000000000E+00  0.00000000000E+00  0.63384492783E+03  0.63384492783E+03  0.00000000000E+00 0. -1.
          1   -1    0    0  501    0 -0.00000000000E+00 -0.00000000000E+00 -0.31057090335E+02  0.31057090335E+02  0.00000000000E+00 0.  1.
          2    1    1    2  501    0 -0.50543118843E+02 -0.66523188996E+00  0.24743830286E+03  0.25254853616E+03  0.00000000000E+00 0. -1.
          1    1    1    2  502    0  0.57054212066E+02 -0.47962138728E+02  0.15698627550E+03  0.17378216411E+03  0.00000000000E+00 0.  1.
         22    1    1    2    0    0 -0.26319115164E+02  0.66392584161E+02  0.19954177238E+03  0.21193770306E+03  0.00000000000E+00 0.  1.
         22    1    1    2    0    0  0.19808021941E+02 -0.17765213544E+02 -0.11785132498E+01  0.26633614830E+02  0.00000000000E+00 0.  1.
</event>
<event>
 6    1  0.8017648E-006  0.5702810E+02  0.7818608E-02  0.1413615E+00
          2   -1    0    0  502    0  0.00000000000E+00  0.00000000000E+00  0.26854844908E+03  0.26854844908E+03  0.00000000000E+00 0.  1.
          1   -1    0    0  501    0 -0.00000000000E+00 -0.00000000000E+00 -0.10519455774E+03  0.10519455774E+03  0.00000000000E+00 0.  1.
          2    1    1    2  501    0 -0.22822658411E+02 -0.15594396087E+02  0.97915170839E+02  0.10174202478E+03  0.00000000000E+00 0.  1.
          1    1    1    2  502    0  0.37999882614E+02  0.17798082341E+02 -0.73071974535E+02  0.84263137113E+02  0.00000000000E+00 0.  1.
         22    1    1    2    0    0 -0.27750718910E+02 -0.19644796341E+01  0.16023715681E+03  0.16263427684E+03  0.00000000000E+00 0.  1.
         22    1    1    2    0    0  0.12573494707E+02 -0.23920662019E+00 -0.21726461777E+02  0.25103568079E+02  0.00000000000E+00 0. -1.
</event>
<event>
 6    1  0.8017648E-006  0.5238867E+02  0.7818608E-02  0.1514499E+00
          2   -1    0    0  502    0  0.00000000000E+00  0.00000000000E+00  0.97054079175E+02  0.97054079175E+02  0.00000000000E+00 0.  1.
          1   -1    0    0  501    0 -0.00000000000E+00 -0.00000000000E+00 -0.24811318982E+03  0.24811318982E+03  0.00000000000E+00 0.  1.
          2    1    1    2  501    0 -0.21250760382E+02 -0.20663662718E+02  0.35723814908E+02  0.46419529568E+02  0.00000000000E+00 0.  1.
          1    1    1    2  502    0  0.51849677055E+02  0.67695273823E+01 -0.15446791511E+03  0.16307836248E+03  0.00000000000E+00 0.  1.
         22    1    1    2    0    0 -0.20512346444E+02  0.10232962671E+01  0.48787830775E+02  0.52934449308E+02  0.00000000000E+00 0. -1.
         22    1    1    2    0    0 -0.10086570229E+02  0.12870839068E+02 -0.81102841215E+02  0.82734927634E+02  0.00000000000E+00 0.  1.
</event>
<event>
 6    1  0.8017648E-006  0.2038700E+02  0.7818608E-02  0.1776312E+00
          2   -1    0    0  502    0  0.00000000000E+00  0.00000000000E+00  0.33716913161E+03  0.33716913161E+03  0.00000000000E+00 0. -1.
          1   -1    0    0  501    0 -0.00000000000E+00 -0.00000000000E+00 -0.10236942770E+03  0.10236942770E+03  0.00000000000E+00 0. -1.
          2    1    1    2  501    0  0.46437923281E+01 -0.23675817671E+02  0.24142158920E+03  0.24262418033E+03  0.00000000000E+00 0. -1.
          1    1    1    2  502    0  0.14276518290E+02  0.15515496561E+02 -0.57598215783E+02  0.61335993261E+02  0.00000000000E+00 0. -1.
         22    1    1    2    0    0 -0.37106566538E+01  0.97698018879E+01 -0.41014372657E+02  0.42324895347E+02  0.00000000000E+00 0. -1.
         22    1    1    2    0    0 -0.15209653964E+02 -0.16094807781E+01  0.91990703145E+02  0.93253490375E+02  0.00000000000E+00 0.  1.
</event>
<event>
 6    1  0.8017648E-006  0.4870657E+02  0.7818608E-02  0.1465032E+00
          2   -1    0    0  502    0  0.00000000000E+00  0.00000000000E+00  0.99336393784E+02  0.99336393784E+02  0.00000000000E+00 0. -1.
          1   -1    0    0  501    0 -0.00000000000E+00 -0.00000000000E+00 -0.24224166235E+03  0.24224166235E+03  0.00000000000E+00 0.  1.
          2    1    1    2  501    0  0.59878083008E+01 -0.26575982582E+02  0.41691191863E+02  0.49802531837E+02  0.00000000000E+00 0. -1.
          1    1    1    2  502    0  0.45339993196E+02  0.16563247202E+02 -0.13799975293E+03  0.14619845399E+03  0.00000000000E+00 0.  1.
         22    1    1    2    0    0 -0.55263295374E+02  0.20021575202E+02 -0.86315346629E+02  0.10442813008E+03  0.00000000000E+00 0. -1.
         22    1    1    2    0    0  0.39354938770E+01 -0.10008839822E+02  0.39718639132E+02  0.41148940219E+02  0.00000000000E+00 0.  1.
</event>
<event>
 6    1  0.8017648E-006  0.1364146E+03  0.7818608E-02  0.1316996E+00
          2   -1    0    0  502    0  0.00000000000E+00  0.00000000000E+00  0.72662034727E+03  0.72662034727E+03  0.00000000000E+00 0. -1.
          1   -1    0    0  501    0 -0.00000000000E+00 -0.00000000000E+00 -0.97165364027E+02  0.97165364027E+02  0.00000000000E+00 0. -1.
          2    1    1    2  501    0  0.26432529472E+02  0.72095222726E+00 -0.23086440407E+02  0.35102451724E+02  0.00000000000E+00 0. -1.
          1    1    1    2  502    0 -0.11289596858E+03  0.18112055728E+02  0.62634979927E+03  0.63670057117E+03  0.00000000000E+00 0. -1.
         22    1    1    2    0    0  0.10510869214E+03 -0.11614891196E+02  0.53202143481E+02  0.11837740888E+03  0.00000000000E+00 0. -1.
         22    1    1    2    0    0 -0.18645253039E+02 -0.72181167597E+01 -0.27010519096E+02  0.33605279530E+02  0.00000000000E+00 0.  1.
</event>
<event>
 6    1  0.8017648E-006  0.4090263E+02  0.7818608E-02  0.1509441E+00
          2   -1    0    0  502    0  0.00000000000E+00  0.00000000000E+00  0.14292469165E+03  0.14292469165E+03  0.00000000000E+00 0.  1.
          1   -1    0    0  501    0 -0.00000000000E+00 -0.00000000000E+00 -0.16068252373E+03  0.16068252373E+03  0.00000000000E+00 0. -1.
          2    1    1    2  501    0 -0.14579432704E+02 -0.48201796241E+02 -0.45761527503E+00  0.50360524527E+02  0.00000000000E+00 0.  1.
          1    1    1    2  502    0 -0.23860907003E+01  0.84179401159E+02 -0.71967332910E+02  0.11077527709E+03  0.00000000000E+00 0. -1.
         22    1    1    2    0    0  0.20617546090E+02 -0.13462224948E+02 -0.38969286983E+02  0.46096854939E+02  0.00000000000E+00 0.  1.
         22    1    1    2    0    0 -0.36520226855E+01 -0.22515379969E+02  0.93636403087E+02  0.96374558821E+02  0.00000000000E+00 0.  1.
</event>
<event>
 6    1  0.8017648E-006  0.7169332E+02  0.7818608E-02  0.1463544E+00
          2   -1    0    0  502    0  0.00000000000E+00  0.00000000000E+00  0.11829564328E+03  0.11829564328E+03  0.00000000000E+00 0. -1.
          1   -1    0    0  501    0 -0.00000000000E+00 -0.00000000000E+00 -0.87625914483E+02  0.87625914483E+02  0.00000000000E+00 0.  1.
          2    1    1    2  501    0  0.13139352543E+02  0.26183011535E+02  0.17754359086E+02  0.34255071812E+02  0.00000000000E+00 0. -1.
          1    1    1    2  502    0  0.11600278100E+02 -0.25522557949E+02 -0.23685402669E+02  0.36701031537E+02  0.00000000000E+00 0.  1.
         22    1    1    2    0    0  0.11227229059E+02 -0.65386461185E+01 -0.44336870710E+02  0.46201327576E+02  0.00000000000E+00 0.  1.
         22    1    1    2    0    0 -0.35966859702E+02  0.58781925324E+01  0.80937643091E+02  0.88764126839E+02  0.00000000000E+00 0. -1.
</event>
<event>
 6    1  0.8017648E-006  0.6182072E+02  0.7818608E-02  0.1495629E+00
          2   -1    0    0  502    0  0.00000000000E+00  0.00000000000E+00  0.14421596547E+03  0.14421596547E+03  0.00000000000E+00 0. -1.
          1   -1    0    0  501    0 -0.00000000000E+00 -0.00000000000E+00 -0.10283467395E+03  0.10283467395E+03  0.00000000000E+00 0.  1.
          2    1    1    2  501    0 -0.31649349318E+02  0.10001600667E+02  0.45813098095E+02  0.56573432680E+02  0.00000000000E+00 0. -1.
          1    1    1    2  502    0  0.52791013630E+02 -0.14436604373E+02 -0.32890482092E+02  0.63852098463E+02  0.00000000000E+00 0.  1.
         22    1    1    2    0    0  0.34233097871E+01  0.12411193017E+02 -0.46024378276E+02  0.47791214231E+02  0.00000000000E+00 0.  1.
         22    1    1    2    0    0 -0.24564974099E+02 -0.79761893116E+01  0.74483053796E+02  0.78833894051E+02  0.00000000000E+00 0. -1.
</event>
<event>
 6    1  0.8017648E-006  0.4103536E+02  0.7818608E-02  0.1517072E+00
          2   -1    0    0  502    0  0.00000000000E+00  0.00000000000E+00  0.13748407054E+03  0.13748407054E+03  0.00000000000E+00 0. -1.
          1   -1    0    0  501    0 -0.00000000000E+00 -0.00000000000E+00 -0.16514471273E+03  0.16514471273E+03  0.00000000000E+00 0.  1.
          2    1    1    2  501    0 -0.22113677197E+02  0.64672365498E+01  0.82958489876E+02  0.86098495401E+02  0.00000000000E+00 0. -1.
          1    1    1    2  502    0  0.20325353750E+02 -0.48769992319E+02 -0.33558043321E+02  0.62592127519E+02  0.00000000000E+00 0.  1.
         22    1    1    2    0    0  0.12938926103E+02  0.30215478745E+02 -0.11124767843E+03  0.11600188326E+03  0.00000000000E+00 0.  1.
         22    1    1    2    0    0 -0.11150602655E+02  0.12087277025E+02  0.34186589676E+02  0.37936277086E+02  0.00000000000E+00 0. -1.
</event>
<event>
 6    1  0.8017648E-006  0.1795189E+03  0.7818608E-02  0.1258244E+00
          2   -1    0    0  502    0  0.00000000000E+00  0.00000000000E+00  0.37212263677E+03  0.37212263677E+03  0.00000000000E+00 0.  1.
          1   -1    0    0  501    0 -0.00000000000E+00 -0.00000000000E+00 -0.52626929984E+02  0.52626929984E+02  0.00000000000E+00 0.  1.
          2    1    1    2  501    0 -0.23048551039E+02  0.31723583004E+02 -0.39593447136E+01  0.39411899652E+02  0.00000000000E+00 0.  1.
          1    1    1    2  502    0 -0.31338823224E+02  0.46222734147E+02  0.92851409508E+02  0.10835149856E+03  0.00000000000E+00 0.  1.
         22    1    1    2    0    0  0.76284658639E+02 -0.63035628501E+02  0.23011362152E+03  0.25048975710E+03  0.00000000000E+00 0.  1.
         22    1    1    2    0    0 -0.21897284376E+02 -0.14910688651E+02  0.49002047334E+00  0.26496411439E+02  0.00000000000E+00 0.  1.
</event>
<event>
 6    1  0.8017648E-006  0.4825336E+02  0.7818608E-02  0.1537368E+00
          2   -1    0    0  502    0  0.00000000000E+00  0.00000000000E+00  0.27658902224E+03  0.27658902224E+03  0.00000000000E+00 0.  1.
          1   -1    0    0  501    0 -0.00000000000E+00 -0.00000000000E+00 -0.57335125300E+02  0.57335125300E+02  0.00000000000E+00 0. -1.
          2    1    1    2  501    0  0.18868408558E+02  0.27616963008E+02  0.81496130346E+02  0.88092750829E+02  0.00000000000E+00 0.  1.
          1    1    1    2  502    0 -0.26736393308E+02 -0.31379384542E+02  0.10806097227E+03  0.11565757316E+03  0.00000000000E+00 0. -1.
         22    1    1    2    0    0 -0.13298075576E+01 -0.15393250783E+02 -0.47581529293E+02  0.50027217469E+02  0.00000000000E+00 0. -1.
         22    1    1    2    0    0  0.91977923079E+01  0.19155672317E+02  0.77278323619E+02  0.80146606083E+02  0.00000000000E+00 0.  1.
</event>
<event>
 6    1  0.8017648E-006  0.2341015E+03  0.7818608E-02  0.1173770E+00
          2   -1    0    0  502    0  0.00000000000E+00  0.00000000000E+00  0.40626425962E+03  0.40626425962E+03  0.00000000000E+00 0. -1.
          1   -1    0    0  501    0 -0.00000000000E+00 -0.00000000000E+00 -0.48417529535E+03  0.48417529535E+03  0.00000000000E+00 0. -1.
          2    1    1    2  501    0  0.21007435287E+03 -0.14703022238E+03 -0.16788383325E+03  0.30648670688E+03  0.00000000000E+00 0. -1.
          1    1    1    2  502    0 -0.16646176017E+03  0.14152326297E+03  0.27966009409E+03  0.35489170149E+03  0.00000000000E+00 0. -1.
         22    1    1    2    0    0 -0.59244074797E+02  0.39845977869E+02 -0.17422398099E+03  0.18828584095E+03  0.00000000000E+00 0. -1.
         22    1    1    2    0    0  0.15631482103E+02 -0.34339018468E+02 -0.15463315571E+02  0.40775305646E+02  0.00000000000E+00 0.  1.
</event>
<event>
 6    1  0.8017648E-006  0.1873229E+03  0.7818608E-02  0.1241699E+00
          2   -1    0    0  502    0  0.00000000000E+00  0.00000000000E+00  0.98703964158E+02  0.98703964158E+02  0.00000000000E+00 0.  1.
          1   -1    0    0  501    0 -0.00000000000E+00 -0.00000000000E+00 -0.74038149658E+03  0.74038149658E+03  0.00000000000E+00 0.  1.
          2    1    1    2  501    0  0.13794047756E+03 -0.83865116512E+02 -0.61540500701E+02  0.17276621876E+03  0.00000000000E+00 0.  1.
          1    1    1    2  502    0 -0.13407483860E+03  0.98691462265E+02 -0.48162889264E+03  0.50959047999E+03  0.00000000000E+00 0.  1.
         22    1    1    2    0    0 -0.21536594830E+02  0.12391841251E+02 -0.11684318314E+03  0.11945590020E+03  0.00000000000E+00 0.  1.
         22    1    1    2    0    0  0.17670955870E+02 -0.27218187003E+02  0.18335044061E+02  0.37272861788E+02  0.00000000000E+00 0.  1.
</event>
<event>
 6    1  0.8017648E-006  0.7917455E+03  0.7818608E-02  0.1102664E+00
          2   -1    0    0  502    0  0.00000000000E+00  0.00000000000E+00  0.42403436508E+04  0.42403436508E+04  0.00000000000E+00 0. -1.
          1   -1    0    0  501    0 -0.00000000000E+00 -0.00000000000E+00 -0.21314374980E+03  0.21314374980E+03  0.00000000000E+00 0. -1.
          2    1    1    2  501    0 -0.61277114989E+03 -0.45632817988E+03  0.11027141814E+04  0.13415298937E+04  0.00000000000E+00 0. -1.
          1    1    1    2  502    0  0.62383063833E+03  0.46901653630E+03  0.28729314463E+04  0.29770583252E+04  0.00000000000E+00 0. -1.
         22    1    1    2    0    0  0.94725150902E+01  0.41240799016E+01 -0.39099343973E+02  0.40441257106E+02  0.00000000000E+00 0.  1.
         22    1    1    2    0    0 -0.20532003530E+02 -0.16812436320E+02  0.90653617311E+02  0.94457924577E+02  0.00000000000E+00 0.  1.
</event>
<event>
 6    1  0.8017648E-006  0.1027904E+03  0.7818608E-02  0.1299738E+00
          2   -1    0    0  502    0  0.00000000000E+00  0.00000000000E+00  0.58677619287E+03  0.58677619287E+03  0.00000000000E+00 0. -1.
          1   -1    0    0  501    0 -0.00000000000E+00 -0.00000000000E+00 -0.46338417752E+02  0.46338417752E+02  0.00000000000E+00 0.  1.
          2    1    1    2  501    0 -0.23900336235E+02 -0.21975316639E+02  0.13027065032E+03  0.13425566263E+03  0.00000000000E+00 0. -1.
          1    1    1    2  502    0  0.98081623320E+02 -0.88265780508E+01  0.53631546990E+02  0.11213499073E+03  0.00000000000E+00 0.  1.
         22    1    1    2    0    0 -0.53993554679E+02 -0.34309443744E+02  0.82834414231E+02  0.10466127296E+03  0.00000000000E+00 0.  1.
         22    1    1    2    0    0 -0.20187732405E+02  0.65111338433E+02  0.27370116357E+03  0.28206268430E+03  0.00000000000E+00 0. -1.
</event>
<event>
 6    1  0.8017648E-006  0.6881529E+02  0.7818608E-02  0.1455907E+00
          2   -1    0    0  502    0  0.00000000000E+00  0.00000000000E+00  0.70167494324E+03  0.70167494324E+03  0.00000000000E+00 0. -1.
          1   -1    0    0  501    0 -0.00000000000E+00 -0.00000000000E+00 -0.80235163827E+02  0.80235163827E+02  0.00000000000E+00 0. -1.
          2    1    1    2  501    0 -0.27379190954E+02  0.53348303448E+02  0.39743722113E+03  0.40193532604E+03  0.00000000000E+00 0. -1.
          1    1    1    2  502    0 -0.22795353421E+02 -0.97656556792E+02 -0.17000080382E+02  0.10171250638E+03  0.00000000000E+00 0. -1.
         22    1    1    2    0    0  0.40988022163E+02  0.35097464747E+02  0.25412116337E+03  0.25978725077E+03  0.00000000000E+00 0. -1.
         22    1    1    2    0    0  0.91865222113E+01  0.92107885960E+01 -0.13118524699E+02  0.18475023875E+02  0.00000000000E+00 0. -1.
</event>
<event>
 6    1  0.8017648E-006  0.1617195E+03  0.7818608E-02  0.1220045E+00
          2   -1    0    0  502    0  0.00000000000E+00  0.00000000000E+00  0.24403871519E+03  0.24403871519E+03  0.00000000000E+00 0.  1.
          1   -1    0    0  501    0 -0.00000000000E+00 -0.00000000000E+00 -0.22512889827E+03  0.22512889827E+03  0.00000000000E+00 0.  1.
          2    1    1    2  501    0  0.12597642620E+03  0.65769433249E+02  0.64353165569E+02  0.15600323146E+03  0.00000000000E+00 0.  1.
          1    1    1    2  502    0 -0.15152116734E+03  0.90443958018E+01  0.14668732316E+02  0.15249799001E+03  0.00000000000E+00 0.  1.
         22    1    1    2    0    0  0.28719693131E+02  0.39423051513E+01  0.29474777424E+02  0.41341565617E+02  0.00000000000E+00 0. -1.
         22    1    1    2    0    0 -0.31749519853E+01 -0.78756134203E+02 -0.89586858385E+02  0.11932482638E+03  0.00000000000E+00 0.  1.
</event>
<event>
 6    1  0.8017648E-006  0.1001891E+03  0.7818608E-02  0.1321316E+00
          2   -1    0    0  502    0  0.00000000000E+00  0.00000000000E+00  0.37715463904E+03  0.37715463904E+03  0.00000000000E+00 0. -1.
          1   -1    0    0  501    0 -0.00000000000E+00 -0.00000000000E+00 -0.98279018195E+02  0.98279018195E+02  0.00000000000E+00 0. -1.
          2    1    1    2  501    0 -0.78917428834E+02  0.16045999581E+02  0.21307321345E+03  0.22778417190E+03  0.00000000000E+00 0. -1.
          1    1    1    2  502    0  0.86124881093E+02 -0.56498517245E+02  0.22449276426E+02  0.10542081202E+03  0.00000000000E+00 0. -1.
         22    1    1    2    0    0  0.10601362672E+02  0.45495152202E+02 -0.37112430871E+02  0.59661799249E+02  0.00000000000E+00 0. -1.
         22    1    1    2    0    0 -0.17808814932E+02 -0.50426345377E+01  0.80465561838E+02  0.82566874074E+02  0.00000000000E+00 0. -1.
</event>
<event>
 6    1  0.8017648E-006  0.8423533E+02  0.7818608E-02  0.1320414E+00
          2   -1    0    0  502    0  0.00000000000E+00  0.00000000000E+00  0.64283913233E+02  0.64283913233E+02  0.00000000000E+00 0. -1.
          1   -1    0    0  501    0 -0.00000000000E+00 -0.00000000000E+00 -0.34390671270E+03  0.34390671270E+03  0.00000000000E+00 0. -1.
          2    1    1    2  501    0 -0.21083604939E+02  0.44856595446E+02 -0.84683615498E+01  0.50282658040E+02  0.00000000000E+00 0. -1.
          1    1    1    2  502    0 -0.25698016679E+02 -0.91983806897E+02 -0.11006504251E+03  0.14572481730E+03  0.00000000000E+00 0. -1.
         22    1    1    2    0    0 -0.33807328348E+02  0.15689702692E+02 -0.10846271334E+02  0.38816798200E+02  0.00000000000E+00 0.  1.
         22    1    1    2    0    0  0.80588949966E+02  0.31437508759E+02 -0.15024312407E+03  0.17336635240E+03  0.00000000000E+00 0. -1.
</event>
<event>
 6    1  0.8017648E-006  0.7500209E+02  0.7818608E-02  0.1441946E+00
          2   -1    0    0  502    0  0.00000000000E+00  0.00000000000E+00  0.30535421511E+03  0.30535421511E+03  0.00000000000E+00 0.  1.
          1   -1    0    0  501    0 -0.00000000000E+00 -0.00000000000E+00 -0.13661056266E+03  0.13661056266E+03  0.00000000000E+00 0. -1.
          2    1    1    2  501    0 -0.25819078102E+02 -0.53630487410E+02  0.23037870085E+03  0.23794369036E+03  0.00000000000E+00 0.  1.
          1    1    1    2  502    0  0.31321413449E+02  0.45095623297E+02 -0.57378547774E+02  0.79416269905E+02  0.00000000000E+00 0. -1.
         22    1    1    2    0    0  0.10643008354E+02  0.11379066909E+02 -0.62337164121E+02  0.64254796095E+02  0.00000000000E+00 0. -1.
         22    1    1    2    0    0 -0.16145343702E+02 -0.28442027960E+01  0.58080663487E+02  0.60350021407E+02  0.00000000000E+00 0.  1.
</event>
<event>
 6    1  0.8017648E-006  0.2464506E+02  0.7818608E-02  0.1673140E+00
          2   -1    0    0  502    0  0.00000000000E+00  0.00000000000E+00  0.87447793147E+02  0.87447793147E+02  0.00000000000E+00 0. -1.
          1   -1    0    0  501    0 -0.00000000000E+00 -0.00000000000E+00 -0.12793615728E+03  0.12793615728E+03  0.00000000000E+00 0.  1.
          2    1    1    2  501    0 -0.27042338547E+02 -0.59840320466E+01  0.33059161633E+02  0.43127773899E+02  0.00000000000E+00 0. -1.
          1    1    1    2  502    0  0.31503166282E+02  0.60144296915E+01 -0.93515970052E+01  0.33407711937E+02  0.00000000000E+00 0.  1.
         22    1    1    2    0    0 -0.42494239275E+01  0.19924467106E+02  0.33460132268E+02  0.39174257422E+02  0.00000000000E+00 0. -1.
         22    1    1    2    0    0 -0.21140380745E+00 -0.19954864751E+02 -0.97656061025E+02  0.99674207163E+02  0.00000000000E+00 0.  1.
</event>
<event>
 6    1  0.8017648E-006  0.5273014E+02  0.7818608E-02  0.1469599E+00
          2   -1    0    0  502    0  0.00000000000E+00  0.00000000000E+00  0.65995994290E+02  0.65995994290E+02  0.00000000000E+00 0.  1.
          1   -1    0    0  501    0 -0.00000000000E+00 -0.00000000000E+00 -0.38411573442E+03  0.38411573442E+03  0.00000000000E+00 0.  1.
          2    1    1    2  501    0  0.26086775974E+02 -0.68428725388E+02 -0.86121729228E+01  0.73737235244E+02  0.00000000000E+00 0.  1.
          1    1    1    2  502    0  0.65297135447E+01  0.66589687028E+02 -0.18568907061E+03  0.19737592184E+03  0.00000000000E+00 0.  1.
         22    1    1    2    0    0 -0.28120597825E+02  0.21024526236E+02 -0.14551396278E+03  0.14969005341E+03  0.00000000000E+00 0. -1.
         22    1    1    2    0    0 -0.44958916936E+01 -0.19185487876E+02  0.21695466185E+02  0.29308518218E+02  0.00000000000E+00 0.  1.
</event>
<event>
 6    1  0.8017648E-006  0.5752279E+02  0.7818608E-02  0.1412564E+00
          2   -1    0    0  502    0  0.00000000000E+00  0.00000000000E+00  0.44128173834E+03  0.44128173834E+03  0.00000000000E+00 0.  1.
          1   -1    0    0  501    0 -0.00000000000E+00 -0.00000000000E+00 -0.53010371193E+02  0.53010371193E+02  0.00000000000E+00 0. -1.
          2    1    1    2  501    0  0.51149641821E+02 -0.98152162926E+01  0.87523699285E+02  0.10184803516E+03  0.00000000000E+00 0.  1.
          1    1    1    2  502    0 -0.75628115420E+02  0.21781203030E+02  0.16472970018E+02  0.80407657525E+02  0.00000000000E+00 0. -1.
         22    1    1    2    0    0  0.39680886237E+02  0.30089943668E+02  0.25203388842E+03  0.25690671139E+03  0.00000000000E+00 0.  1.
         22    1    1    2    0    0 -0.15202412637E+02 -0.42055930405E+02  0.32240809425E+02  0.55129705465E+02  0.00000000000E+00 0.  1.
</event>
<event>
 6    1  0.8017648E-006  0.1268251E+03  0.7818608E-02  0.1256028E+00
          2   -1    0    0  502    0  0.00000000000E+00  0.00000000000E+00  0.31362419409E+03  0.31362419409E+03  0.00000000000E+00 0. -1.
          1   -1    0    0  501    0 -0.00000000000E+00 -0.00000000000E+00 -0.20390310649E+03  0.20390310649E+03  0.00000000000E+00 0.  1.
          2    1    1    2  501    0 -0.56300885252E+02  0.98606835070E+02  0.20515839055E+03  0.23448467502E+03  0.00000000000E+00 0. -1.
          1    1    1    2  502    0  0.10843618890E+03 -0.57380609271E+02 -0.67475929123E+02  0.14001407927E+03  0.00000000000E+00 0.  1.
         22    1    1    2    0    0  0.11660880859E+01  0.16393752368E+02  0.37421599434E+02  0.40871640318E+02  0.00000000000E+00 0. -1.
         22    1    1    2    0    0 -0.53301391731E+02 -0.57619978167E+02 -0.65382973273E+02  0.10215690598E+03  0.00000000000E+00 0. -1.
</event>
<event>
 6    1  0.8017648E-006  0.5906681E+02  0.7818608E-02  0.1419952E+00
          2   -1    0    0  502    0  0.00000000000E+00  0.00000000000E+00  0.14051749533E+04  0.14051749533E+04  0.00000000000E+00 0.  1.
          1   -1    0    0  501    0 -0.00000000000E+00 -0.00000000000E+00 -0.11509464419E+03  0.11509464419E+03  0.00000000000E+00 0. -1.
          2    1    1    2  501    0  0.18034808533E+02 -0.89805247249E+02  0.13074452868E+04  0.13106499970E+04  0.00000000000E+00 0.  1.
          1    1    1    2  502    0 -0.40124442613E+02  0.66147813308E+02  0.10401211906E+01  0.77373031170E+02  0.00000000000E+00 0. -1.
         22    1    1    2    0    0  0.23299730383E+02 -0.10008110061E+02  0.49962861613E+02  0.56029699656E+02  0.00000000000E+00 0.  1.
         22    1    1    2    0    0 -0.12100963042E+01  0.33665544001E+02 -0.68367960523E+02  0.76216869603E+02  0.00000000000E+00 0.  1.
</event>
<event>
 6    1  0.8017648E-006  0.7171603E+02  0.7818608E-02  0.1419480E+00
          2   -1    0    0  502    0  0.00000000000E+00  0.00000000000E+00  0.44166952254E+03  0.44166952254E+03  0.00000000000E+00 0.  1.
          1   -1    0    0  501    0 -0.00000000000E+00 -0.00000000000E+00 -0.53676716695E+02  0.53676716695E+02  0.00000000000E+00 0.  1.
          2    1    1    2  501    0 -0.34385545313E+02 -0.48271843969E+01  0.88002660729E+02  0.94605157001E+02  0.00000000000E+00 0.  1.
          1    1    1    2  502    0 -0.12701553903E+02  0.73347995429E+02  0.21492424946E+03  0.22745041418E+03  0.00000000000E+00 0.  1.
         22    1    1    2    0    0  0.57746497475E+02 -0.45856329627E+02 -0.10512883751E+02  0.74484774701E+02  0.00000000000E+00 0.  1.
         22    1    1    2    0    0 -0.10659398260E+02 -0.22664481404E+02  0.95578779407E+02  0.98805893354E+02  0.00000000000E+00 0.  1.
</event>
<event>
 6    1  0.8017648E-006  0.4608138E+02  0.7818608E-02  0.1518875E+00
          2   -1    0    0  502    0  0.00000000000E+00  0.00000000000E+00  0.39681190730E+03  0.39681190730E+03  0.00000000000E+00 0.  1.
          1   -1    0    0  501    0 -0.00000000000E+00 -0.00000000000E+00 -0.44232236452E+02  0.44232236452E+02  0.00000000000E+00 0.  1.
          2    1    1    2  501    0 -0.21832295960E+02 -0.68015939610E+02  0.92602816975E+02  0.11695340482E+03  0.00000000000E+00 0.  1.
          1    1    1    2  502    0 -0.60735049184E+01  0.41086919054E+02  0.14428204655E+03  0.15014103815E+03  0.00000000000E+00 0.  1.
         22    1    1    2    0    0  0.37849927671E+02  0.10733528199E+02  0.13866421440E+03  0.14413739976E+03  0.00000000000E+00 0.  1.
         22    1    1    2    0    0 -0.99441267932E+01  0.16195492357E+02 -0.22969407085E+02  0.29812301022E+02  0.00000000000E+00 0. -1.
</event>
<event>
 6    1  0.8017648E-006  0.6554028E+02  0.7818608E-02  0.1463734E+00
          2   -1    0    0  502    0  0.00000000000E+00  0.00000000000E+00  0.25162071708E+03  0.25162071708E+03  0.00000000000E+00 0.  1.
          1   -1    0    0  501    0 -0.00000000000E+00 -0.00000000000E+00 -0.65186221144E+03  0.65186221144E+03  0.00000000000E+00 0.  1.
          2    1    1    2  501    0 -0.72168710590E+01 -0.28948073424E+02  0.87200953890E+02  0.92163336214E+02  0.00000000000E+00 0.  1.
          1    1    1    2  502    0  0.62718009258E+01  0.76744546695E+02 -0.61751820402E+03  0.62230040433E+03  0.00000000000E+00 0.  1.
         22    1    1    2    0    0 -0.78288267432E+01 -0.33283065842E+02  0.15508088742E+03  0.15880533568E+03  0.00000000000E+00 0.  1.
         22    1    1    2    0    0  0.87738968765E+01 -0.14513407429E+02 -0.25005131649E+02  0.30213852293E+02  0.00000000000E+00 0. -1.
</event>
<event>
 6    1  0.8017648E-006  0.6891595E+02  0.7818608E-02  0.1365967E+00
          2   -1    0    0  502    0  0.00000000000E+00  0.00000000000E+00  0.27520175845E+03  0.27520175845E+03  0.00000000000E+00 0.  1.
          1   -1    0    0  501    0 -0.00000000000E+00 -0.00000000000E+00 -0.11790057338E+03  0.11790057338E+03  0.00000000000E+00 0. -1.
          2    1    1    2  501    0  0.31847547552E+02 -0.24245466602E+02  0.17714025133E+03  0.18160610556E+03  0.00000000000E+00 0.  1.
          1    1    1    2  502    0 -0.39535437248E+02  0.31508243667E+02 -0.61674668964E+02  0.79747006271E+02  0.00000000000E+00 0. -1.
         22    1    1    2    0    0 -0.70538833455E+01  0.13851544831E+02 -0.41610995222E+02  0.44419561995E+02  0.00000000000E+00 0. -1.
         22    1    1    2    0    0  0.14741773041E+02 -0.21114321896E+02  0.83446597922E+02  0.87329658000E+02  0.00000000000E+00 0.  1.
</event>
<event>
 6    1  0.8017648E-006  0.5120275E+02  0.7818608E-02  0.1440612E+00
          2   -1    0    0  502    0  0.00000000000E+00  0.00000000000E+00  0.23351142320E+03  0.23351142320E+03  0.00000000000E+00 0. -1.
          1   -1    0    0  501    0 -0.00000000000E+00 -0.00000000000E+00 -0.19451361366E+03  0.19451361366E+03  0.00000000000E+00 0.  1.
          2    1    1    2  501    0  0.26677665164E+02  0.28837557872E+02  0.15359788622E+03  0.15854214964E+03  0.00000000000E+00 0. -1.
          1    1    1    2  502    0  0.28575581041E+02 -0.47147408462E+02 -0.12321124148E+03  0.13498315445E+03  0.00000000000E+00 0.  1.
         22    1    1    2    0    0 -0.56628453693E+02  0.83080301427E+01 -0.49406883428E+02  0.75609822527E+02  0.00000000000E+00 0. -1.
         22    1    1    2    0    0  0.13752074886E+01  0.10001820447E+02  0.58018048231E+02  0.58889910243E+02  0.00000000000E+00 0. -1.
</event>
<event>
 6    1  0.8017648E-006  0.9949793E+02  0.7818608E-02  0.1281995E+00
          2   -1    0    0  502    0  0.00000000000E+00  0.00000000000E+00  0.35592095527E+03  0.35592095527E+03  0.00000000000E+00 0. -1.
          1   -1    0    0  501    0 -0.00000000000E+00 -0.00000000000E+00 -0.20441392031E+03  0.20441392031E+03  0.00000000000E+00 0.  1.
          2    1    1    2  501    0 -0.27614156457E+02  0.79794837407E+02  0.27623286194E+03  0.28885005060E+03  0.00000000000E+00 0. -1.
          1    1    1    2  502    0  0.14310956693E+02 -0.73094538831E+02 -0.13020601102E+03  0.15000406792E+03  0.00000000000E+00 0.  1.
         22    1    1    2    0    0 -0.10787915345E+01  0.13249448029E+02  0.60114259712E+02  0.61566515939E+02  0.00000000000E+00 0.  1.
         22    1    1    2    0    0  0.14381991298E+02 -0.19949746605E+02 -0.54634075684E+02  0.59914241122E+02  0.00000000000E+00 0.  1.
</event>
<event>
 6    1  0.8017648E-006  0.1847477E+03  0.7818608E-02  0.1301449E+00
          2   -1    0    0  502    0  0.00000000000E+00  0.00000000000E+00  0.64415166991E+03  0.64415166991E+03  0.00000000000E+00 0.  1.
          1   -1    0    0  501    0 -0.00000000000E+00 -0.00000000000E+00 -0.86213446005E+02  0.86213446005E+02  0.00000000000E+00 0.  1.
          2    1    1    2  501    0 -0.11035226696E+03 -0.40804396818E+02  0.25756486751E+03  0.28316476228E+03  0.00000000000E+00 0.  1.
          1    1    1    2  502    0  0.15164327195E+03  0.75103278026E+02  0.74016038805E+02  0.18470126772E+03  0.00000000000E+00 0.  1.
         22    1    1    2    0    0  0.83745057031E+01  0.66221093564E+01 -0.11734146129E+02  0.15864263723E+02  0.00000000000E+00 0.  1.
         22    1    1    2    0    0 -0.49665510695E+02 -0.40920990564E+02  0.23809146372E+03  0.24663482219E+03  0.00000000000E+00 0. -1.
</event>
<event>
 6    1  0.8017648E-006  0.4065514E+02  0.7818608E-02  0.1516953E+00
          2   -1    0    0  502    0  0.00000000000E+00  0.00000000000E+00  0.87031360421E+03  0.87031360421E+03  0.00000000000E+00 0.  1.
          1   -1    0    0  501    0 -0.00000000000E+00 -0.00000000000E+00 -0.35624249145E+02  0.35624249145E+02  0.00000000000E+00 0.  1.
          2    1    1    2  501    0 -0.54715714363E+02  0.13772450011E+02  0.34542595790E+03  0.35000368879E+03  0.00000000000E+00 0.  1.
          1    1    1    2  502    0  0.56861151954E+02 -0.21327176532E+02  0.38669220505E+03  0.39143185935E+03  0.00000000000E+00 0.  1.
         22    1    1    2    0    0  0.13664496275E+02  0.25245501279E+02 -0.22953630454E+02  0.36754903677E+02  0.00000000000E+00 0.  1.
         22    1    1    2    0    0 -0.15809933866E+02 -0.17690774759E+02  0.12552482257E+03  0.12774740155E+03  0.00000000000E+00 0. -1.
</event>
<event>
 6    1  0.8017648E-006  0.1551316E+03  0.7818608E-02  0.1269142E+00
          2   -1    0    0  502    0  0.00000000000E+00  0.00000000000E+00  0.78158873687E+03  0.78158873687E+03  0.00000000000E+00 0.  1.
          1   -1    0    0  501    0 -0.00000000000E+00 -0.00000000000E+00 -0.63697580083E+02  0.63697580083E+02  0.00000000000E+00 0. -1.
          2    1    1    2  501    0 -0.13252839409E+03  0.27829685322E+02  0.49173143534E+03  0.51003732327E+03  0.00000000000E+00 0.  1.
          1    1    1    2  502    0  0.11384657896E+03 -0.43624185990E+02  0.92337587500E+02  0.15293901794E+03  0.00000000000E+00 0. -1.
         22    1    1    2    0    0  0.32732877876E+02 -0.54281032391E+01 -0.11239841430E+02  0.35031980164E+02  0.00000000000E+00 0. -1.
         22    1    1    2    0    0 -0.14051062746E+02  0.21222603906E+02  0.14506197538E+03  0.14727799558E+03  0.00000000000E+00 0.  1.
</event>
<event>
 6    1  0.8017648E-006  0.2230648E+02  0.7818608E-02  0.1727993E+00
          2   -1    0    0  502    0  0.00000000000E+00  0.00000000000E+00  0.15615616023E+03  0.15615616023E+03  0.00000000000E+00 0. -1.
          1   -1    0    0  501    0 -0.00000000000E+00 -0.00000000000E+00 -0.68979341687E+02  0.68979341687E+02  0.00000000000E+00 0.  1.
          2    1    1    2  501    0  0.19791918025E+02 -0.14188587564E+02  0.43641730936E+02  0.49976361565E+02  0.00000000000E+00 0. -1.
          1    1    1    2  502    0 -0.36359481833E+02  0.22784555962E+02  0.20549146910E+02  0.47575364930E+02  0.00000000000E+00 0.  1.
         22    1    1    2    0    0  0.18853345328E+01 -0.11356962063E+02 -0.50908647658E+02  0.52194113460E+02  0.00000000000E+00 0.  1.
         22    1    1    2    0    0  0.14682229275E+02  0.27609936654E+01  0.73894588357E+02  0.75389661963E+02  0.00000000000E+00 0. -1.
</event>
<event>
 6    1  0.8017648E-006  0.7296340E+02  0.7818608E-02  0.1389664E+00
          2   -1    0    0  502    0  0.00000000000E+00  0.00000000000E+00  0.51619075727E+02  0.51619075727E+02  0.00000000000E+00 0. -1.
          1   -1    0    0  501    0 -0.00000000000E+00 -0.00000000000E+00 -0.39726253455E+03  0.39726253455E+03  0.00000000000E+00 0.  1.
          2    1    1    2  501    0 -0.12695157623E+02 -0.29216565408E+02 -0.46848073734E+01  0.32198169846E+02  0.00000000000E+00 0. -1.
          1    1    1    2  502    0  0.14929131694E+02  0.78417590767E+02 -0.22100754359E+03  0.23498198194E+03  0.00000000000E+00 0.  1.
         22    1    1    2    0    0  0.27909910545E+02 -0.25814087827E+02 -0.13532815206E+03  0.14056684878E+03  0.00000000000E+00 0. -1.
         22    1    1    2    0    0 -0.30143884615E+02 -0.23386937532E+02  0.15377044203E+02  0.41134609701E+02  0.00000000000E+00 0. -1.
</event>
<event>
 6    1  0.8017648E-006  0.8282188E+02  0.7818608E-02  0.1336157E+00
          2   -1    0    0  502    0  0.00000000000E+00  0.00000000000E+00  0.53229688988E+03  0.53229688988E+03  0.00000000000E+00 0.  1.
          1   -1    0    0  501    0 -0.00000000000E+00 -0.00000000000E+00 -0.16999220273E+03  0.16999220273E+03  0.00000000000E+00 0.  1.
          2    1    1    2  501    0 -0.24196210111E+02  0.62195344698E+02  0.40010421162E+03  0.40563172662E+03  0.00000000000E+00 0.  1.
          1    1    1    2  502    0  0.27188490836E+02 -0.13646523490E+03  0.18369802702E+02  0.14035463662E+03  0.00000000000E+00 0.  1.
         22    1    1    2    0    0  0.12796322172E+01  0.63644940322E+02 -0.95816260718E+02  0.11503508902E+03  0.00000000000E+00 0.  1.
         22    1    1    2    0    0 -0.42719129423E+01  0.10624949880E+02  0.39646933551E+02  0.41267640351E+02  0.00000000000E+00 0. -1.
</event>
<event>
 6    1  0.8017648E-006  0.1725046E+03  0.7818608E-02  0.1282626E+00
          2   -1    0    0  502    0  0.00000000000E+00  0.00000000000E+00  0.10969305519E+04  0.10969305519E+04  0.00000000000E+00 0. -1.
          1   -1    0    0  501    0 -0.00000000000E+00 -0.00000000000E+00 -0.37175088272E+02  0.37175088272E+02  0.00000000000E+00 0. -1.
          2    1    1    2  501    0  0.79904551837E+02 -0.28832212834E+01  0.17175466843E+03  0.18945373181E+03  0.00000000000E+00 0. -1.
          1    1    1    2  502    0 -0.16116671918E+03  0.30038356348E+02  0.56350633755E+03  0.58687000833E+03  0.00000000000E+00 0. -1.
         22    1    1    2    0    0  0.92413064733E+02 -0.12221610683E+02  0.32601736265E+03  0.33908238387E+03  0.00000000000E+00 0. -1.
         22    1    1    2    0    0 -0.11150897393E+02 -0.14933524382E+02 -0.15229050481E+01  0.18699516115E+02  0.00000000000E+00 0. -1.
</event>
<event>
 6    1  0.8017648E-006  0.1578755E+03  0.7818608E-02  0.1248674E+00
          2   -1    0    0  502    0  0.00000000000E+00  0.00000000000E+00  0.41382889061E+03  0.41382889061E+03  0.00000000000E+00 0. -1.
          1   -1    0    0  501    0 -0.00000000000E+00 -0.00000000000E+00 -0.70477113706E+02  0.70477113706E+02  0.00000000000E+00 0. -1.
          2    1    1    2  501    0  0.55634975111E+02  0.73259151775E+02  0.11491550507E+03  0.14719961644E+03  0.00000000000E+00 0. -1.
          1    1    1    2  502    0 -0.47284511286E+02 -0.26539865189E+02 -0.19384520047E+02  0.57584277969E+02  0.00000000000E+00 0. -1.
         22    1    1    2    0    0  0.32087686094E+02 -0.34485228867E+02  0.26180768109E+02  0.53891402168E+02  0.00000000000E+00 0.  1.
         22    1    1    2    0    0 -0.40438149918E+02 -0.12234057719E+02  0.22164002377E+03  0.22563070774E+03  0.00000000000E+00 0. -1.
</event>
<event>
 6    1  0.8017648E-006  0.1780089E+03  0.7818608E-02  0.1249155E+00
          2   -1    0    0  502    0  0.00000000000E+00  0.00000000000E+00  0.53573229710E+03  0.53573229710E+03  0.00000000000E+00 0. -1.
          1   -1    0    0  501    0 -0.00000000000E+00 -0.00000000000E+00 -0.10883467039E+03  0.10883467039E+03  0.00000000000E+00 0. -1.
          2    1    1    2  501    0 -0.12035940116E+03 -0.10644784811E+03  0.19745250617E+03  0.25456830519E+03  0.00000000000E+00 0. -1.
          1    1    1    2  502    0  0.12010386678E+03  0.10366577184E+03  0.21238105202E+03  0.26509855209E+03  0.00000000000E+00 0. -1.
         22    1    1    2    0    0  0.31077570192E+02  0.96662385486E+01 -0.44839417968E+02  0.55406000942E+02  0.00000000000E+00 0.  1.
         22    1    1    2    0    0 -0.30822035809E+02 -0.68841622756E+01  0.61903486495E+02  0.69494109261E+02  0.00000000000E+00 0.  1.
</event>
<event>
 6    1  0.8017648E-006  0.9236373E+02  0.7818608E-02  0.1372211E+00
          2   -1    0    0  502    0  0.00000000000E+00  0.00000000000E+00  0.13693383600E+04  0.13693383600E+04  0.00000000000E+00 0.  1.
          1   -1    0    0  501    0 -0.00000000000E+00 -0.00000000000E+00 -0.91374838488E+02  0.91374838488E+02  0.00000000000E+00 0.  1.
          2    1    1    2  501    0  0.25418216996E+02 -0.58939886355E+02  0.12077944133E+04  0.12094987973E+04  0.00000000000E+00 0.  1.
          1    1    1    2  502    0 -0.32457112158E+02  0.65555097386E+02 -0.43606754135E+02  0.85161516714E+02  0.00000000000E+00 0.  1.
         22    1    1    2    0    0  0.40007919583E+01 -0.24579557147E+02  0.13546032406E+03  0.13773039011E+03  0.00000000000E+00 0.  1.
         22    1    1    2    0    0  0.30381032036E+01  0.17964346116E+02 -0.21684461740E+02  0.28322494301E+02  0.00000000000E+00 0.  1.
</event>
<event>
 6    1  0.8017648E-006  0.2452685E+02  0.7818608E-02  0.1681552E+00
          2   -1    0    0  502    0  0.00000000000E+00  0.00000000000E+00  0.15064040363E+03  0.15064040363E+03  0.00000000000E+00 0.  1.
          1   -1    0    0  501    0 -0.00000000000E+00 -0.00000000000E+00 -0.91983091268E+02  0.91983091268E+02  0.00000000000E+00 0.  1.
          2    1    1    2  501    0 -0.31133528907E+02 -0.16592375381E+01  0.56796850019E+02  0.64791449000E+02  0.00000000000E+00 0.  1.
          1    1    1    2  502    0  0.33253023313E+02  0.43519259133E+01 -0.28857193541E+02  0.44242970489E+02  0.00000000000E+00 0.  1.
         22    1    1    2    0    0 -0.14591615244E+02 -0.18853917676E+01  0.80719231657E+02  0.82049157807E+02  0.00000000000E+00 0.  1.
         22    1    1    2    0    0  0.12472120837E+02 -0.80729660764E+00 -0.50001575776E+02  0.51539917599E+02  0.00000000000E+00 0.  1.
</event>
<event>
 6    1  0.8017648E-006  0.2824849E+02  0.7818608E-02  0.1650309E+00
          2   -1    0    0  502    0  0.00000000000E+00  0.00000000000E+00  0.50841825139E+03  0.50841825139E+03  0.00000000000E+00 0.  1.
          1   -1    0    0  501    0 -0.00000000000E+00 -0.00000000000E+00 -0.47846750675E+02  0.47846750675E+02  0.00000000000E+00 0.  1.
          2    1    1    2  501    0  0.37866154335E+01 -0.34108910440E+02  0.37138363465E+03  0.37296589698E+03  0.00000000000E+00 0.  1.
          1    1    1    2  502    0 -0.22012019212E+02  0.13733944534E+02 -0.41148033866E+01  0.26269408619E+02  0.00000000000E+00 0.  1.
         22    1    1    2    0    0  0.33523049341E+02  0.82233254895E+01 -0.21441376089E+02  0.40634351574E+02  0.00000000000E+00 0.  1.
         22    1    1    2    0    0 -0.15297645562E+02  0.12151640416E+02  0.11474404554E+03  0.11639534489E+03  0.00000000000E+00 0.  1.
</event>
<event>
 6    1  0.8017648E-006  0.4284439E+02  0.7818608E-02  0.1498909E+00
          2   -1    0    0  502    0  0.00000000000E+00  0.00000000000E+00  0.10331456427E+03  0.10331456427E+03  0.00000000000E+00 0.  1.
          1   -1    0    0  501    0 -0.00000000000E+00 -0.00000000000E+00 -0.44310310171E+03  0.44310310171E+03  0.00000000000E+00 0.  1.
          2    1    1    2  501    0  0.10928698210E+01 -0.76048467593E+02 -0.28529051549E+02  0.81230970510E+02  0.00000000000E+00 0.  1.
          1    1    1    2  502    0  0.12122129706E+02  0.79309186788E+02 -0.33273176829E+03  0.34226791081E+03  0.00000000000E+00 0.  1.
         22    1    1    2    0    0  0.33237286038E+01 -0.17818191783E+02  0.68568414282E+02  0.70923638988E+02  0.00000000000E+00 0.  1.
         22    1    1    2    0    0 -0.16538728131E+02  0.14557472588E+02 -0.47096131871E+02  0.51995145673E+02  0.00000000000E+00 0.  1.
</event>
<event>
 6    1  0.8017648E-006  0.1094925E+03  0.7818608E-02  0.1335415E+00
          2   -1    0    0  502    0  0.00000000000E+00  0.00000000000E+00  0.69453119776E+03  0.69453119776E+03  0.00000000000E+00 0.  1.
          1   -1    0    0  501    0 -0.00000000000E+00 -0.00000000000E+00 -0.74688565070E+02  0.74688565070E+02  0.00000000000E+00 0.  1.
          2    1    1    2  501    0 -0.12401838602E+03  0.51424990203E+02  0.26446847694E+03  0.29659511962E+03  0.00000000000E+00 0.  1.
          1    1    1    2  502    0  0.10523982025E+03 -0.12049956984E+03  0.23382629137E+03  0.28332013806E+03  0.00000000000E+00 0.  1.
         22    1    1    2    0    0  0.39027404404E+02  0.76092071831E+02  0.23142958531E+02  0.88593104808E+02  0.00000000000E+00 0.  1.
         22    1    1    2    0    0 -0.20248838630E+02 -0.70174921929E+01  0.98404905857E+02  0.10071140034E+03  0.00000000000E+00 0.  1.
</event>
<event>
 6    1  0.8017648E-006  0.1087491E+03  0.7818608E-02  0.1341604E+00
          2   -1    0    0  502    0  0.00000000000E+00  0.00000000000E+00  0.47375453779E+03  0.47375453779E+03  0.00000000000E+00 0. -1.
          1   -1    0    0  501    0 -0.00000000000E+00 -0.00000000000E+00 -0.15275695135E+03  0.15275695135E+03  0.00000000000E+00 0. -1.
          2    1    1    2  501    0  0.13138164704E+03  0.48045719577E+02  0.24273622908E+03  0.28016139144E+03  0.00000000000E+00 0. -1.
          1    1    1    2  502    0 -0.13439329266E+03 -0.11502043497E+03 -0.16924257976E+02  0.17770112009E+03  0.00000000000E+00 0. -1.
         22    1    1    2    0    0  0.29638431388E+00 -0.19794957614E+02  0.77584507348E+02  0.80070493760E+02  0.00000000000E+00 0.  1.
         22    1    1    2    0    0  0.27152613100E+01  0.86769673011E+02  0.17601107993E+02  0.88578483849E+02  0.00000000000E+00 0.  1.
</event>
<event>
 6    1  0.8017648E-006  0.1015532E+03  0.7818608E-02  0.1396428E+00
          2   -1    0    0  502    0  0.00000000000E+00  0.00000000000E+00  0.26175609705E+03  0.26175609705E+03  0.00000000000E+00 0. -1.
          1   -1    0    0  501    0 -0.00000000000E+00 -0.00000000000E+00 -0.66246815301E+02  0.66246815301E+02  0.00000000000E+00 0. -1.
          2    1    1    2  501    0 -0.28626425986E+02 -0.13999067307E+01  0.97647094413E+02  0.10176633555E+03  0.00000000000E+00 0. -1.
          1    1    1    2  502    0  0.12547541379E+01 -0.50426310640E+02 -0.83037754725E+01  0.51120836258E+02  0.00000000000E+00 0. -1.
         22    1    1    2    0    0 -0.69320875278E+01 -0.10585931646E+02 -0.23777985572E+02  0.26935262839E+02  0.00000000000E+00 0.  1.
         22    1    1    2    0    0  0.34303759376E+02  0.62412149016E+02  0.12994394838E+03  0.14818047770E+03  0.00000000000E+00 0. -1.
</event>
<event>
 6    1  0.8017648E-006  0.2907637E+03  0.7818608E-02  0.1203084E+00
          2   -1    0    0  502    0  0.00000000000E+00  0.00000000000E+00  0.15377933824E+04  0.15377933824E+04  0.00000000000E+00 0. -1.
          1   -1    0    0  501    0 -0.00000000000E+00 -0.00000000000E+00 -0.70673290312E+02  0.70673290312E+02  0.00000000000E+00 0. -1.
          2    1    1    2  501    0  0.42630996790E+02 -0.15160116228E+03  0.57637682243E+03  0.59750360310E+03  0.00000000000E+00 0. -1.
          1    1    1    2  502    0 -0.15490643766E+03  0.22362729812E+03  0.68124699865E+03  0.73355480099E+03  0.00000000000E+00 0. -1.
         22    1    1    2    0    0  0.19204124800E+02 -0.31589644172E+01 -0.15161703955E+02  0.24670928891E+02  0.00000000000E+00 0.  1.
         22    1    1    2    0    0  0.93071316066E+02 -0.68867171416E+02  0.22465797494E+03  0.25273733970E+03  0.00000000000E+00 0. -1.
</event>
<event>
 6    1  0.8017648E-006  0.5445297E+02  0.7818608E-02  0.1516381E+00
          2   -1    0    0  502    0  0.00000000000E+00  0.00000000000E+00  0.11328245013E+04  0.11328245013E+04  0.00000000000E+00 0.  1.
          1   -1    0    0  501    0 -0.00000000000E+00 -0.00000000000E+00 -0.35887104831E+02  0.35887104831E+02  0.00000000000E+00 0. -1.
          2    1    1    2  501    0  0.55333054947E+02  0.23267372315E+01  0.83714256123E+03  0.83897248375E+03  0.00000000000E+00 0.  1.
          1    1    1    2  502    0 -0.17465661843E+02  0.55742492400E+02  0.52613004014E+02  0.78615539138E+02  0.00000000000E+00 0. -1.
         22    1    1    2    0    0 -0.44979302451E+02 -0.45780812177E+02  0.22170843900E+03  0.23081085835E+03  0.00000000000E+00 0. -1.
         22    1    1    2    0    0  0.71119093474E+01 -0.12288417455E+02 -0.14526607781E+02  0.20312724872E+02  0.00000000000E+00 0.  1.
</event>
<event>
 6    1  0.8017648E-006  0.7824268E+02  0.7818608E-02  0.1429365E+00
          2   -1    0    0  502    0  0.00000000000E+00  0.00000000000E+00  0.99380030027E+02  0.99380030027E+02  0.00000000000E+00 0. -1.
          1   -1    0    0  501    0 -0.00000000000E+00 -0.00000000000E+00 -0.17633750231E+03  0.17633750231E+03  0.00000000000E+00 0.  1.
          2    1    1    2  501    0 -0.61399209885E+02 -0.28344509835E+01  0.33429264774E+02  0.69967226830E+02  0.00000000000E+00 0. -1.
          1    1    1    2  502    0  0.35408968228E+02  0.10326628838E+02 -0.59317291861E+02  0.69849662904E+02  0.00000000000E+00 0.  1.
         22    1    1    2    0    0  0.42074134238E+02 -0.11527350715E+02 -0.86446359472E+02  0.96830189777E+02  0.00000000000E+00 0. -1.
         22    1    1    2    0    0 -0.16083892580E+02  0.40351728603E+01  0.35376914274E+02  0.39070452827E+02  0.00000000000E+00 0. -1.
</event>
<event>
 6    1  0.8017648E-006  0.4449404E+02  0.7818608E-02  0.1550580E+00
          2   -1    0    0  502    0  0.00000000000E+00  0.00000000000E+00  0.13335216675E+03  0.13335216675E+03  0.00000000000E+00 0.  1.
          1   -1    0    0  501    0 -0.00000000000E+00 -0.00000000000E+00 -0.21004208787E+03  0.21004208787E+03  0.00000000000E+00 0. -1.
          2    1    1    2  501    0 -0.28926720391E+02  0.86235271199E+01  0.72144887240E+02  0.78204891966E+02  0.00000000000E+00 0.  1.
          1    1    1    2  502    0  0.25685179991E+02 -0.23878190065E+02 -0.13031979200E+03  0.13495608404E+03  0.00000000000E+00 0. -1.
         22    1    1    2    0    0  0.14561492848E+02  0.79869283286E+01 -0.72612874094E+02  0.74487969380E+02  0.00000000000E+00 0.  1.
         22    1    1    2    0    0 -0.11319952447E+02  0.72677346164E+01  0.54097857734E+02  0.55745309231E+02  0.00000000000E+00 0.  1.
</event>
<event>
 6    1  0.8017648E-006  0.1122247E+03  0.7818608E-02  0.1334327E+00
          2   -1    0    0  502    0  0.00000000000E+00  0.00000000000E+00  0.50318735749E+03  0.50318735749E+03  0.00000000000E+00 0. -1.
          1   -1    0    0  501    0 -0.00000000000E+00 -0.00000000000E+00 -0.59505343753E+02  0.59505343753E+02  0.00000000000E+00 0. -1.
          2    1    1    2  501    0 -0.33327634317E+02 -0.32758486995E+02  0.66365360459E+02  0.81167793787E+02  0.00000000000E+00 0. -1.
          1    1    1    2  502    0 -0.20360353696E+02  0.12772004740E+03  0.19236388943E+03  0.23179909505E+03  0.00000000000E+00 0. -1.
         22    1    1    2    0    0  0.25611898598E+02  0.64733787698E+01  0.12671385531E+03  0.12943830619E+03  0.00000000000E+00 0. -1.
         22    1    1    2    0    0  0.28076089415E+02 -0.10143493918E+03  0.58238908541E+02  0.12028750621E+03  0.00000000000E+00 0. -1.
</event>
<event>
 6    1  0.8017648E-006  0.7892076E+02  0.7818608E-02  0.1334467E+00
          2   -1    0    0  502    0  0.00000000000E+00  0.00000000000E+00  0.32332054134E+03  0.32332054134E+03  0.00000000000E+00 0. -1.
          1   -1    0    0  501    0 -0.00000000000E+00 -0.00000000000E+00 -0.24396836006E+03  0.24396836006E+03  0.00000000000E+00 0.  1.
          2    1    1    2  501    0 -0.40636501780E+02 -0.37551407996E+02  0.24755143030E+03  0.25365950439E+03  0.00000000000E+00 0. -1.
          1    1    1    2  502    0  0.25701493792E+02  0.46190644835E+02 -0.17633623330E+03  0.18408859179E+03  0.00000000000E+00 0.  1.
         22    1    1    2    0    0  0.23123669802E+02  0.93621524656E+01 -0.56598128632E+02  0.61852260820E+02  0.00000000000E+00 0.  1.
         22    1    1    2    0    0 -0.81886618146E+01 -0.18001389304E+02  0.64735112909E+02  0.67688544396E+02  0.00000000000E+00 0.  1.
</event>
<event>
 6    1  0.8017648E-006  0.1621342E+03  0.7818608E-02  0.1256786E+00
          2   -1    0    0  502    0  0.00000000000E+00  0.00000000000E+00  0.10213153832E+03  0.10213153832E+03  0.00000000000E+00 0.  1.
          1   -1    0    0  501    0 -0.00000000000E+00 -0.00000000000E+00 -0.41009739407E+03  0.41009739407E+03  0.00000000000E+00 0. -1.
          2    1    1    2  501    0 -0.67601417609E+01 -0.10730008176E+03 -0.28692527704E+02  0.11127564067E+03  0.00000000000E+00 0.  1.
          1    1    1    2  502    0 -0.41652109390E+01  0.15479659643E+03 -0.17259886318E+03  0.23188295069E+03  0.00000000000E+00 0. -1.
         22    1    1    2    0    0  0.36959641743E+02  0.19209681260E+01 -0.10699354109E+03  0.11321361699E+03  0.00000000000E+00 0. -1.
         22    1    1    2    0    0 -0.26034289044E+02 -0.49417482796E+02  0.31907622476E+00  0.55856724050E+02  0.00000000000E+00 0. -1.
</event>
<event>
 6    1  0.8017648E-006  0.2361821E+03  0.7818608E-02  0.1217883E+00
          2   -1    0    0  502    0  0.00000000000E+00  0.00000000000E+00  0.14150855231E+04  0.14150855231E+04  0.00000000000E+00 0. -1.
          1   -1    0    0  501    0 -0.00000000000E+00 -0.00000000000E+00 -0.67464523323E+02  0.67464523323E+02  0.00000000000E+00 0. -1.
          2    1    1    2  501    0  0.34632429317E+02 -0.16338742555E+02 -0.23060040165E+02  0.44700392851E+02  0.00000000000E+00 0. -1.
          1    1    1    2  502    0 -0.12565732334E+03 -0.78315283114E+02  0.11148572618E+04  0.11246465047E+04  0.00000000000E+00 0. -1.
         22    1    1    2    0    0  0.11445807030E+02  0.23879437834E+02 -0.88388531057E+01  0.27917008688E+02  0.00000000000E+00 0.  1.
         22    1    1    2    0    0  0.79579086992E+02  0.70774587835E+02  0.26466263128E+03  0.28528614015E+03  0.00000000000E+00 0. -1.
</event>
<event>
 6    1  0.8017648E-006  0.1639430E+03  0.7818608E-02  0.1214513E+00
          2   -1    0    0  502    0  0.00000000000E+00  0.00000000000E+00  0.46433279030E+03  0.46433279030E+03  0.00000000000E+00 0. -1.
          1   -1    0    0  501    0 -0.00000000000E+00 -0.00000000000E+00 -0.41993341406E+03  0.41993341406E+03  0.00000000000E+00 0. -1.
          2    1    1    2  501    0 -0.20636117519E+03 -0.13654922965E+03 -0.13758674932E+03  0.28312672133E+03  0.00000000000E+00 0. -1.
          1    1    1    2  502    0  0.34117775031E+03  0.11479269159E+03  0.20824391185E+03  0.41586674088E+03  0.00000000000E+00 0. -1.
         22    1    1    2    0    0 -0.43421004076E+02  0.23373325800E+02 -0.68638698103E+02  0.84516074395E+02  0.00000000000E+00 0. -1.
         22    1    1    2    0    0 -0.91395571044E+02 -0.16167877436E+01  0.42380911824E+02  0.10075666775E+03  0.00000000000E+00 0. -1.
</event>
<event>
 6    1  0.8017648E-006  0.1160521E+03  0.7818608E-02  0.1310081E+00
          2   -1    0    0  502    0  0.00000000000E+00  0.00000000000E+00  0.11314496143E+03  0.11314496143E+03  0.00000000000E+00 0.  1.
          1   -1    0    0  501    0 -0.00000000000E+00 -0.00000000000E+00 -0.49024346826E+03  0.49024346826E+03  0.00000000000E+00 0.  1.
          2    1    1    2  501    0 -0.81984074162E+02  0.36672820456E+02 -0.13963030850E+03  0.16602080360E+03  0.00000000000E+00 0.  1.
          1    1    1    2  502    0 -0.32371767254E+02  0.31597820590E+02 -0.25106123562E+03  0.25510409172E+03  0.00000000000E+00 0.  1.
         22    1    1    2    0    0  0.11945033324E+03 -0.31836594409E+02  0.47307594758E+02  0.13236298340E+03  0.00000000000E+00 0.  1.
         22    1    1    2    0    0 -0.50944918203E+01 -0.36434046637E+02 -0.33714557468E+02  0.49900550964E+02  0.00000000000E+00 0.  1.
</event>
<event>
 6    1  0.8017648E-006  0.3578425E+02  0.7818608E-02  0.1594833E+00
          2   -1    0    0  502    0  0.00000000000E+00  0.00000000000E+00  0.21156690924E+03  0.21156690924E+03  0.00000000000E+00 0. -1.
          1   -1    0    0  501    0 -0.00000000000E+00 -0.00000000000E+00 -0.10417668171E+03  0.10417668171E+03  0.00000000000E+00 0. -1.
          2    1    1    2  501    0 -0.35690197365E+02 -0.29933469416E+02  0.12003880041E+03  0.12875991761E+03  0.00000000000E+00 0. -1.
          1    1    1    2  502    0  0.34432843071E+02  0.47741051538E+02  0.16464064515E+02  0.61121960900E+02  0.00000000000E+00 0. -1.
         22    1    1    2    0    0  0.13070292082E+02 -0.21101503092E+02  0.44650573705E+02  0.51086002975E+02  0.00000000000E+00 0. -1.
         22    1    1    2    0    0 -0.11812937788E+02  0.32939209703E+01 -0.73763211103E+02  0.74775709470E+02  0.00000000000E+00 0. -1.
</event>
<event>
 6    1  0.8017648E-006  0.6294537E+02  0.7818608E-02  0.1421201E+00
          2   -1    0    0  502    0  0.00000000000E+00  0.00000000000E+00  0.69413792067E+02  0.69413792067E+02  0.00000000000E+00 0.  1.
          1   -1    0    0  501    0 -0.00000000000E+00 -0.00000000000E+00 -0.30143747282E+03  0.30143747282E+03  0.00000000000E+00 0. -1.
          2    1    1    2  501    0 -0.26614180434E+02 -0.73452147226E+01  0.11947947863E+02  0.30083554272E+02  0.00000000000E+00 0.  1.
          1    1    1    2  502    0  0.51826444958E+02  0.70118706662E+02 -0.13157860838E+03  0.15784658250E+03  0.00000000000E+00 0. -1.
         22    1    1    2    0    0 -0.13221215559E+02 -0.33564536675E+02 -0.13776868292E+03  0.14241344268E+03  0.00000000000E+00 0. -1.
         22    1    1    2    0    0 -0.11991048966E+02 -0.29208955264E+02  0.25375662686E+02  0.40507685440E+02  0.00000000000E+00 0.  1.
</event>
<event>
 6    1  0.8017648E-006  0.9829304E+02  0.7818608E-02  0.1316682E+00
          2   -1    0    0  502    0  0.00000000000E+00  0.00000000000E+00  0.99723514000E+02  0.99723514000E+02  0.00000000000E+00 0. -1.
          1   -1    0    0  501    0 -0.00000000000E+00 -0.00000000000E+00 -0.89104839297E+03  0.89104839297E+03  0.00000000000E+00 0. -1.
          2    1    1    2  501    0 -0.38949533804E+02  0.18084317244E+03 -0.33307994754E+03  0.38100337354E+03  0.00000000000E+00 0. -1.
          1    1    1    2  502    0  0.59825487410E+02 -0.11411726654E+03  0.18494657609E+01  0.12886139837E+03  0.00000000000E+00 0. -1.
         22    1    1    2    0    0  0.19309893922E+02 -0.72192211145E+02 -0.40850993281E+03  0.41528899884E+03  0.00000000000E+00 0. -1.
         22    1    1    2    0    0 -0.40185847528E+02  0.54663052483E+01 -0.51584464379E+02  0.65618136211E+02  0.00000000000E+00 0.  1.
</event>
<event>
 6    1  0.8017648E-006  0.3346482E+02  0.7818608E-02  0.1597575E+00
          2   -1    0    0  502    0  0.00000000000E+00  0.00000000000E+00  0.27248342868E+03  0.27248342868E+03  0.00000000000E+00 0.  1.
          1   -1    0    0  501    0 -0.00000000000E+00 -0.00000000000E+00 -0.70307329958E+02  0.70307329958E+02  0.00000000000E+00 0.  1.
          2    1    1    2  501    0  0.48592374796E+02 -0.26845212698E+02  0.12710519466E+03  0.13869972906E+03  0.00000000000E+00 0.  1.
          1    1    1    2  502    0 -0.38245327688E+02  0.29451523987E+02  0.57503751474E+02  0.75078484193E+02  0.00000000000E+00 0.  1.
         22    1    1    2    0    0  0.91801537249E+01  0.11159723755E+02 -0.52778189515E+02  0.54720672010E+02  0.00000000000E+00 0.  1.
         22    1    1    2    0    0 -0.19527200833E+02 -0.13766035045E+02  0.70345342107E+02  0.74291873374E+02  0.00000000000E+00 0.  1.
</event>
<event>
 6    1  0.8017648E-006  0.9708489E+02  0.7818608E-02  0.1349242E+00
          2   -1    0    0  502    0  0.00000000000E+00  0.00000000000E+00  0.64803825158E+03  0.64803825158E+03  0.00000000000E+00 0.  1.
          1   -1    0    0  501    0 -0.00000000000E+00 -0.00000000000E+00 -0.21163722494E+03  0.21163722494E+03  0.00000000000E+00 0. -1.
          2    1    1    2  501    0 -0.75194492586E+02  0.10057806401E+03  0.44044743495E+03  0.45800011095E+03  0.00000000000E+00 0.  1.
          1    1    1    2  502    0  0.22904171383E+02 -0.15654217807E+03 -0.13089285795E+03  0.20533629695E+03  0.00000000000E+00 0. -1.
         22    1    1    2    0    0  0.33042194430E+02  0.50976177885E+02  0.15234146740E+03  0.16400695111E+03  0.00000000000E+00 0.  1.
         22    1    1    2    0    0  0.19248126772E+02  0.49879361732E+01 -0.25495017765E+02  0.32332117505E+02  0.00000000000E+00 0.  1.
</event>
<event>
 6    1  0.8017648E-006  0.3029944E+03  0.7818608E-02  0.1205975E+00
          2   -1    0    0  502    0  0.00000000000E+00  0.00000000000E+00  0.15784336087E+03  0.15784336087E+03  0.00000000000E+00 0.  1.
          1   -1    0    0  501    0 -0.00000000000E+00 -0.00000000000E+00 -0.56118578083E+03  0.56118578083E+03  0.00000000000E+00 0.  1.
          2    1    1    2  501    0  0.14453347744E+03 -0.40727809695E+02 -0.92777138342E+02  0.17651141034E+03  0.00000000000E+00 0.  1.
          1    1    1    2  502    0 -0.16533358467E+03  0.18601203250E+03 -0.17640379584E+03  0.30504748752E+03  0.00000000000E+00 0.  1.
         22    1    1    2    0    0 -0.12289750123E+02  0.10493373327E+02 -0.59367847240E+02  0.61527962161E+02  0.00000000000E+00 0.  1.
         22    1    1    2    0    0  0.33089857354E+02 -0.15577759613E+03 -0.74793638531E+02  0.17594228167E+03  0.00000000000E+00 0. -1.
</event>
<event>
 6    1  0.8017648E-006  0.1051266E+03  0.7818608E-02  0.1384568E+00
          2   -1    0    0  502    0  0.00000000000E+00  0.00000000000E+00  0.10424236418E+04  0.10424236418E+04  0.00000000000E+00 0. -1.
          1   -1    0    0  501    0 -0.00000000000E+00 -0.00000000000E+00 -0.18611630012E+03  0.18611630012E+03  0.00000000000E+00 0.  1.
          2    1    1    2  501    0 -0.15727130240E+02 -0.12320319354E+03  0.67076513787E+03  0.68216731065E+03  0.00000000000E+00 0. -1.
          1    1    1    2  502    0  0.31947782299E+02  0.35070330042E+02 -0.16152400315E+03  0.16834664367E+03  0.00000000000E+00 0.  1.
         22    1    1    2    0    0 -0.24274455417E+01  0.87698883551E+02  0.35245583789E+03  0.36321082628E+03  0.00000000000E+00 0. -1.
         22    1    1    2    0    0 -0.13793206517E+02  0.43397995169E+00 -0.53896308992E+01  0.14815161350E+02  0.00000000000E+00 0.  1.
</event>
<event>
 6    1  0.8017648E-006  0.5086288E+02  0.7818608E-02  0.1503973E+00
          2   -1    0    0  502    0  0.00000000000E+00  0.00000000000E+00  0.38008059506E+03  0.38008059506E+03  0.00000000000E+00 0. -1.
          1   -1    0    0  501    0 -0.00000000000E+00 -0.00000000000E+00 -0.91212819989E+02  0.91212819989E+02  0.00000000000E+00 0.  1.
          2    1    1    2  501    0  0.26780194595E+02 -0.29831224337E+02  0.25982757657E+03  0.26290197853E+03  0.00000000000E+00 0. -1.
          1    1    1    2  502    0 -0.10623571468E+01  0.32377115350E+02 -0.51004066496E+02  0.60422024132E+02  0.00000000000E+00 0.  1.
         22    1    1    2    0    0 -0.12918729726E+02  0.13610931859E+02 -0.30341485547E+02  0.35675717077E+02  0.00000000000E+00 0.  1.
         22    1    1    2    0    0 -0.12799107722E+02 -0.16156822872E+02  0.11038575054E+03  0.11229369531E+03  0.00000000000E+00 0. -1.
</event>
<event>
 6    1  0.8017648E-006  0.4177486E+02  0.7818608E-02  0.1605194E+00
          2   -1    0    0  502    0  0.00000000000E+00  0.00000000000E+00  0.17779026674E+03  0.17779026674E+03  0.00000000000E+00 0.  1.
          1   -1    0    0  501    0 -0.00000000000E+00 -0.00000000000E+00 -0.23012541913E+03  0.23012541913E+03  0.00000000000E+00 0. -1.
          2    1    1    2  501    0  0.14328456855E+02  0.31098519012E+02  0.14075206307E+03  0.14485705305E+03  0.00000000000E+00 0.  1.
          1    1    1    2  502    0 -0.76041650965E+01 -0.20667960799E+02 -0.11005821835E+03  0.11223991873E+03  0.00000000000E+00 0. -1.
         22    1    1    2    0    0  0.10196550469E+02 -0.33583287560E+00  0.32272074192E+02  0.33846258254E+02  0.00000000000E+00 0.  1.
         22    1    1    2    0    0 -0.16920842227E+02 -0.10094725338E+02 -0.11530107130E+03  0.11697245583E+03  0.00000000000E+00 0. -1.
</event>
<event>
 6    1  0.8017648E-006  0.4278710E+02  0.7818608E-02  0.1593991E+00
          2   -1    0    0  502    0  0.00000000000E+00  0.00000000000E+00  0.30303227134E+03  0.30303227134E+03  0.00000000000E+00 0. -1.
          1   -1    0    0  501    0 -0.00000000000E+00 -0.00000000000E+00 -0.67793599094E+02  0.67793599094E+02  0.00000000000E+00 0.  1.
          2    1    1    2  501    0 -0.21508785042E+02 -0.95230386172E+01  0.19848719882E+03  0.19987617215E+03  0.00000000000E+00 0. -1.
          1    1    1    2  502    0  0.28796051530E+02  0.44778111020E+01 -0.21206225351E+02  0.36041189903E+02  0.00000000000E+00 0.  1.
         22    1    1    2    0    0 -0.18096215202E+02  0.39338949743E+01  0.94751250537E+02  0.96544021113E+02  0.00000000000E+00 0. -1.
         22    1    1    2    0    0  0.10808948714E+02  0.11113325410E+01 -0.36793551758E+02  0.38364487268E+02  0.00000000000E+00 0.  1.
</event>
<event>
 6    1  0.8017648E-006  0.2784923E+02  0.7818608E-02  0.1710239E+00
          2   -1    0    0  502    0  0.00000000000E+00  0.00000000000E+00  0.17340087666E+03  0.17340087666E+03  0.00000000000E+00 0. -1.
          1   -1    0    0  501    0 -0.00000000000E+00 -0.00000000000E+00 -0.63532058051E+02  0.63532058051E+02  0.00000000000E+00 0. -1.
          2    1    1    2  501    0  0.50139457503E+01 -0.26063257976E+02  0.27631106960E+02  0.38313328492E+02  0.00000000000E+00 0. -1.
          1    1    1    2  502    0 -0.21457898096E+02  0.10881682293E+02 -0.22940949142E+02  0.33243639208E+02  0.00000000000E+00 0. -1.
         22    1    1    2    0    0  0.11705782814E+01 -0.10556920997E+02 -0.27438995647E+02  0.29423074560E+02  0.00000000000E+00 0. -1.
         22    1    1    2    0    0  0.15273374064E+02  0.25738496680E+02  0.13261765644E+03  0.13595289245E+03  0.00000000000E+00 0.  1.
</event>
<event>
 6    1  0.8017648E-006  0.1093389E+03  0.7818608E-02  0.1263154E+00
          2   -1    0    0  502    0  0.00000000000E+00  0.00000000000E+00  0.24848580048E+03  0.24848580048E+03  0.00000000000E+00 0.  1.
          1   -1    0    0  501    0 -0.00000000000E+00 -0.00000000000E+00 -0.34046965265E+03  0.34046965265E+03  0.00000000000E+00 0.  1.
          2    1    1    2  501    0 -0.44657038962E+02 -0.67558770017E+02  0.16801294216E+03  0.18651216386E+03  0.00000000000E+00 0.  1.
          1    1    1    2  502    0  0.40077209961E+02  0.86791983242E+02 -0.25600316806E+03  0.27327029324E+03  0.00000000000E+00 0.  1.
         22    1    1    2    0    0 -0.46648279344E+01 -0.24937907271E+02  0.59538643415E+02  0.64718698214E+02  0.00000000000E+00 0.  1.
         22    1    1    2    0    0  0.92446569350E+01  0.57046940465E+01 -0.63532269678E+02  0.64454297812E+02  0.00000000000E+00 0.  1.
</event>
<event>
 6    1  0.8017648E-006  0.3901956E+02  0.7818608E-02  0.1575049E+00
          2   -1    0    0  502    0  0.00000000000E+00  0.00000000000E+00  0.33723236183E+03  0.33723236183E+03  0.00000000000E+00 0.  1.
          1   -1    0    0  501    0 -0.00000000000E+00 -0.00000000000E+00 -0.94671438167E+02  0.94671438167E+02  0.00000000000E+00 0.  1.
          2    1    1    2  501    0 -0.25546441031E+02 -0.20785976480E+02  0.24677631430E+03  0.24896430822E+03  0.00000000000E+00 0.  1.
          1    1    1    2  502    0  0.42712304091E+02  0.12618614234E+01 -0.32536893761E+02  0.53708311001E+02  0.00000000000E+00 0.  1.
         22    1    1    2    0    0 -0.27849655824E+02  0.10978892576E+02  0.74912927586E+02  0.80672709953E+02  0.00000000000E+00 0.  1.
         22    1    1    2    0    0  0.10683792764E+02  0.85452224806E+01 -0.46591424463E+02  0.48558470822E+02  0.00000000000E+00 0. -1.
</event>
<event>
 6    1  0.8017648E-006  0.8626502E+02  0.7818608E-02  0.1432875E+00
          2   -1    0    0  502    0  0.00000000000E+00  0.00000000000E+00  0.34223947635E+03  0.34223947635E+03  0.00000000000E+00 0. -1.
          1   -1    0    0  501    0 -0.00000000000E+00 -0.00000000000E+00 -0.10902736567E+03  0.10902736567E+03  0.00000000000E+00 0. -1.
          2    1    1    2  501    0  0.23003190167E+02 -0.48234968937E+02  0.18304703403E+03  0.19068816338E+03  0.00000000000E+00 0. -1.
          1    1    1    2  502    0 -0.14459730173E+02  0.67881789781E+02 -0.60715824056E+02  0.92214057884E+02  0.00000000000E+00 0. -1.
         22    1    1    2    0    0 -0.14563692100E+02 -0.29717133112E+02  0.13635763478E+03  0.14031612057E+03  0.00000000000E+00 0.  1.
         22    1    1    2    0    0  0.60202321062E+01  0.10070312267E+02 -0.25476734075E+02  0.28048500189E+02  0.00000000000E+00 0. -1.
</event>
<event>
 6    1  0.8017648E-006  0.5300392E+03  0.7818608E-02  0.1138224E+00
          2   -1    0    0  502    0  0.00000000000E+00  0.00000000000E+00  0.27462072645E+03  0.27462072645E+03  0.00000000000E+00 0. -1.
          1   -1    0    0  501    0 -0.00000000000E+00 -0.00000000000E+00 -0.43597030208E+03  0.43597030208E+03  0.00000000000E+00 0. -1.
          2    1    1    2  501    0  0.11119807675E+03  0.54274200189E+02 -0.27170208351E+03  0.29855103963E+03  0.00000000000E+00 0. -1.
          1    1    1    2  502    0  0.31449812277E+02  0.12889992625E+03  0.21063967234E+02  0.13434274225E+03  0.00000000000E+00 0. -1.
         22    1    1    2    0    0 -0.15396365939E+03 -0.17466695764E+03  0.10596998559E+03  0.25581827993E+03  0.00000000000E+00 0. -1.
         22    1    1    2    0    0  0.11315770354E+02 -0.85071687926E+01 -0.16681444934E+02  0.21878966719E+02  0.00000000000E+00 0. -1.
</event>
<event>
 6    1  0.8017648E-006  0.4494093E+02  0.7818608E-02  0.1513864E+00
          2   -1    0    0  502    0  0.00000000000E+00  0.00000000000E+00  0.10445639592E+03  0.10445639592E+03  0.00000000000E+00 0. -1.
          1   -1    0    0  501    0 -0.00000000000E+00 -0.00000000000E+00 -0.20897324323E+03  0.20897324323E+03  0.00000000000E+00 0. -1.
          2    1    1    2  501    0 -0.86228341321E+01  0.30831167915E+02  0.55302817724E+02  0.63900828099E+02  0.00000000000E+00 0. -1.
          1    1    1    2  502    0  0.33211407627E+02 -0.53353980787E+02 -0.73193169678E+02  0.96472197808E+02  0.00000000000E+00 0. -1.
         22    1    1    2    0    0 -0.23541011808E+02  0.11331889823E+02 -0.11741185935E+03  0.12028356363E+03  0.00000000000E+00 0. -1.
         22    1    1    2    0    0 -0.10475616862E+01  0.11190923049E+02  0.30785364000E+02  0.32773049611E+02  0.00000000000E+00 0. -1.
</event>
<event>
 6    1  0.8017648E-006  0.6812784E+02  0.7818608E-02  0.1371192E+00
          2   -1    0    0  502    0  0.00000000000E+00  0.00000000000E+00  0.24408979324E+03  0.24408979324E+03  0.00000000000E+00 0. -1.
          1   -1    0    0  501    0 -0.00000000000E+00 -0.00000000000E+00 -0.17055372419E+03  0.17055372419E+03  0.00000000000E+00 0.  1.
          2    1    1    2  501    0 -0.28620884852E+02 -0.24830312280E+02  0.11385463763E+03  0.11999407472E+03  0.00000000000E+00 0. -1.
          1    1    1    2  502    0  0.45402277026E+02  0.22056350301E+02 -0.12900405307E+03  0.13852759673E+03  0.00000000000E+00 0.  1.
         22    1    1    2    0    0 -0.28857819372E+02  0.64433605701E+01  0.11935168556E+03  0.12295981246E+03  0.00000000000E+00 0. -1.
         22    1    1    2    0    0  0.12076427197E+02 -0.36693985914E+01 -0.30666201064E+02  0.33162033526E+02  0.00000000000E+00 0. -1.
</event>
<event>
 6    1  0.8017648E-006  0.1584452E+03  0.7818608E-02  0.1278269E+00
          2   -1    0    0  502    0  0.00000000000E+00  0.00000000000E+00  0.44398656817E+03  0.44398656817E+03  0.00000000000E+00 0. -1.
          1   -1    0    0  501    0 -0.00000000000E+00 -0.00000000000E+00 -0.23524000669E+03  0.23524000669E+03  0.00000000000E+00 0. -1.
          2    1    1    2  501    0 -0.39226199033E+02 -0.11422059675E+03  0.26134583038E+03  0.28790047320E+03  0.00000000000E+00 0. -1.
          1    1    1    2  502    0  0.31458715382E+02  0.16450433312E+03 -0.14833483166E+03  0.22372873903E+03  0.00000000000E+00 0. -1.
         22    1    1    2    0    0 -0.10495279157E+02 -0.31596303336E+02  0.12441908124E+03  0.12879668103E+03  0.00000000000E+00 0.  1.
         22    1    1    2    0    0  0.18262762809E+02 -0.18687433034E+02 -0.28683518483E+02  0.38800681584E+02  0.00000000000E+00 0. -1.
</event>
<event>
 6    1  0.8017648E-006  0.2913033E+03  0.7818608E-02  0.1179157E+00
          2   -1    0    0  502    0  0.00000000000E+00  0.00000000000E+00  0.12671807424E+04  0.12671807424E+04  0.00000000000E+00 0. -1.
          1   -1    0    0  501    0 -0.00000000000E+00 -0.00000000000E+00 -0.68699347640E+02  0.68699347640E+02  0.00000000000E+00 0. -1.
          2    1    1    2  501    0  0.13488476937E+03 -0.98181470986E+02  0.26546798816E+03  0.31353908049E+03  0.00000000000E+00 0. -1.
          1    1    1    2  502    0 -0.18431465486E+03  0.21489450250E+02  0.78385793119E+03  0.80552277731E+03  0.00000000000E+00 0. -1.
         22    1    1    2    0    0 -0.12834732641E+02 -0.30190088459E+02  0.40983153388E+02  0.52495625196E+02  0.00000000000E+00 0.  1.
         22    1    1    2    0    0  0.62264618134E+02  0.10688210920E+03  0.10817232202E+03  0.16432260705E+03  0.00000000000E+00 0. -1.
</event>
<event>
 6    1  0.8017648E-006  0.1301316E+03  0.7818608E-02  0.1316607E+00
          2   -1    0    0  502    0  0.00000000000E+00  0.00000000000E+00  0.78939711375E+03  0.78939711375E+03  0.00000000000E+00 0. -1.
          1   -1    0    0  501    0 -0.00000000000E+00 -0.00000000000E+00 -0.31487668892E+02  0.31487668892E+02  0.00000000000E+00 0. -1.
          2    1    1    2  501    0  0.24783106985E+02 -0.35563902325E+01  0.13037948849E+03  0.13276167113E+03  0.00000000000E+00 0. -1.
          1    1    1    2  502    0  0.37630067432E+02  0.10241247082E+03  0.22317846468E+03  0.24842093964E+03  0.00000000000E+00 0. -1.
         22    1    1    2    0    0 -0.64103591542E+02 -0.75724581650E+02  0.40451915897E+03  0.41650838249E+03  0.00000000000E+00 0. -1.
         22    1    1    2    0    0  0.16904171260E+01 -0.23131498940E+02 -0.16766727854E+00  0.23193789375E+02  0.00000000000E+00 0.  1.
</event>
<event>
 6    1  0.8017648E-006  0.1467401E+03  0.7818608E-02  0.1274943E+00
          2   -1    0    0  502    0  0.00000000000E+00  0.00000000000E+00  0.43860103357E+03  0.43860103357E+03  0.00000000000E+00 0.  1.
          1   -1    0    0  501    0 -0.00000000000E+00 -0.00000000000E+00 -0.62007717419E+02  0.62007717419E+02  0.00000000000E+00 0.  1.
          2    1    1    2  501    0 -0.14590602569E+02  0.17376446472E+02  0.25318217021E+02  0.33997627689E+02  0.00000000000E+00 0.  1.
          1    1    1    2  502    0  0.15384204154E+02 -0.13118769698E+03  0.19408318387E+03  0.23476619824E+03  0.00000000000E+00 0.  1.
         22    1    1    2    0    0  0.29078800271E+02  0.13215690905E+03  0.12698147874E+03  0.18556756500E+03  0.00000000000E+00 0.  1.
         22    1    1    2    0    0 -0.29872401856E+02 -0.18345658539E+02  0.30210436520E+02  0.46277360065E+02  0.00000000000E+00 0.  1.
</event>
<event>
 6    1  0.8017648E-006  0.5965846E+02  0.7818608E-02  0.1425668E+00
          2   -1    0    0  502    0  0.00000000000E+00  0.00000000000E+00  0.72603369405E+02  0.72603369405E+02  0.00000000000E+00 0.  1.
          1   -1    0    0  501    0 -0.00000000000E+00 -0.00000000000E+00 -0.22505273769E+03  0.22505273769E+03  0.00000000000E+00 0. -1.
          2    1    1    2  501    0 -0.41820128064E+02  0.29228201242E+01  0.11730897718E+02  0.43532516009E+02  0.00000000000E+00 0.  1.
          1    1    1    2  502    0  0.44039618238E+02  0.46876868986E+01  0.41311322778E+01  0.44480654636E+02  0.00000000000E+00 0. -1.
         22    1    1    2    0    0 -0.28156389993E+02  0.22276171240E+02  0.85181468272E+00  0.35912890316E+02  0.00000000000E+00 0.  1.
         22    1    1    2    0    0  0.25936899820E+02 -0.29886678263E+02 -0.16916321296E+03  0.17373004614E+03  0.00000000000E+00 0. -1.
</event>
<event>
 6    1  0.8017648E-006  0.4871664E+02  0.7818608E-02  0.1541985E+00
          2   -1    0    0  502    0  0.00000000000E+00  0.00000000000E+00  0.21182358393E+03  0.21182358393E+03  0.00000000000E+00 0. -1.
          1   -1    0    0  501    0 -0.00000000000E+00 -0.00000000000E+00 -0.61772367877E+02  0.61772367877E+02  0.00000000000E+00 0. -1.
          2    1    1    2  501    0 -0.18133386626E+02  0.13833148901E+02  0.68602351857E+02  0.72294248730E+02  0.00000000000E+00 0. -1.
          1    1    1    2  502    0  0.50440453774E+02 -0.25687148412E+02  0.29037214974E+02  0.63617834166E+02  0.00000000000E+00 0. -1.
         22    1    1    2    0    0 -0.23721334059E+02  0.62178911533E+00  0.92332779881E+02  0.95333260469E+02  0.00000000000E+00 0. -1.
         22    1    1    2    0    0 -0.85857330892E+01  0.11232210396E+02 -0.39921130655E+02  0.42350608447E+02  0.00000000000E+00 0. -1.
</event>
<event>
 6    1  0.8017648E-006  0.4385656E+02  0.7818608E-02  0.1541431E+00
          2   -1    0    0  502    0  0.00000000000E+00  0.00000000000E+00  0.31297296388E+02  0.31297296388E+02  0.00000000000E+00 0.  1.
          1   -1    0    0  501    0 -0.00000000000E+00 -0.00000000000E+00 -0.83450777842E+03  0.83450777842E+03  0.00000000000E+00 0.  1.
          2    1    1    2  501    0 -0.31181896726E+01  0.29991211433E+02 -0.51436588082E+01  0.30588447100E+02  0.00000000000E+00 0.  1.
          1    1    1    2  502    0 -0.34123618112E+02  0.21034875704E+02 -0.54671666530E+03  0.54818427506E+03  0.00000000000E+00 0.  1.
         22    1    1    2    0    0 -0.14515908853E+02 -0.13047416858E+02  0.70690507068E+01  0.20758568698E+02  0.00000000000E+00 0.  1.
         22    1    1    2    0    0  0.51757716638E+02 -0.37978670279E+02 -0.25841920863E+03  0.26627378395E+03  0.00000000000E+00 0.  1.
</event>
<event>
 6    1  0.8017648E-006  0.7218802E+02  0.7818608E-02  0.1429862E+00
          2   -1    0    0  502    0  0.00000000000E+00  0.00000000000E+00  0.19851383723E+03  0.19851383723E+03  0.00000000000E+00 0. -1.
          1   -1    0    0  501    0 -0.00000000000E+00 -0.00000000000E+00 -0.84169529539E+02  0.84169529539E+02  0.00000000000E+00 0. -1.
          2    1    1    2  501    0  0.14834414820E+02 -0.40748304591E+02  0.81837529509E+02  0.92616766443E+02  0.00000000000E+00 0. -1.
          1    1    1    2  502    0 -0.39157738027E+02  0.31176815200E+02 -0.11509788414E+02  0.51359492625E+02  0.00000000000E+00 0. -1.
         22    1    1    2    0    0  0.29132336746E+02 -0.10825160994E+02  0.86185707621E+02  0.91617975053E+02  0.00000000000E+00 0. -1.
         22    1    1    2    0    0 -0.48090135387E+01  0.20396650386E+02 -0.42169141029E+02  0.47089132645E+02  0.00000000000E+00 0. -1.
</event>
<event>
 6    1  0.8017648E-006  0.7712063E+02  0.7818608E-02  0.1378078E+00
          2   -1    0    0  502    0  0.00000000000E+00  0.00000000000E+00  0.21861842103E+03  0.21861842103E+03  0.00000000000E+00 0. -1.
          1   -1    0    0  501    0 -0.00000000000E+00 -0.00000000000E+00 -0.21315014602E+03  0.21315014602E+03  0.00000000000E+00 0. -1.
          2    1    1    2  501    0  0.26559157636E+02  0.79444074563E+02  0.10008201224E+03  0.13051114517E+03  0.00000000000E+00 0. -1.
          1    1    1    2  502    0 -0.98562643369E+01 -0.61360953422E+02  0.68949597706E+02  0.92824347966E+02  0.00000000000E+00 0. -1.
         22    1    1    2    0    0 -0.26505473922E+02 -0.28403137571E+02 -0.18145676384E+03  0.18556895084E+03  0.00000000000E+00 0. -1.
         22    1    1    2    0    0  0.98025806229E+01  0.10320016429E+02  0.17893428907E+02  0.22864123076E+02  0.00000000000E+00 0. -1.
</event>
<event>
 6    1  0.8017648E-006  0.7042170E+02  0.7818608E-02  0.1478847E+00
          2   -1    0    0  502    0  0.00000000000E+00  0.00000000000E+00  0.23907823713E+03  0.23907823713E+03  0.00000000000E+00 0.  1.
          1   -1    0    0  501    0 -0.00000000000E+00 -0.00000000000E+00 -0.88110030522E+02  0.88110030522E+02  0.00000000000E+00 0.  1.
          2    1    1    2  501    0 -0.58600577999E+02  0.28280449601E+02  0.13600492665E+03  0.15076853665E+03  0.00000000000E+00 0.  1.
          1    1    1    2  502    0 -0.23651292537E+02  0.80495239879E+01  0.46727355218E+01  0.25416784461E+02  0.00000000000E+00 0.  1.
         22    1    1    2    0    0 -0.32027648675E+01 -0.10538405964E+02 -0.44783450826E+02  0.46118035202E+02  0.00000000000E+00 0.  1.
         22    1    1    2    0    0  0.85454635403E+02 -0.25791567625E+02  0.55073995269E+02  0.10488491134E+03  0.00000000000E+00 0.  1.
</event>
<event>
 6    1  0.8017648E-006  0.1411746E+03  0.7818608E-02  0.1230376E+00
          2   -1    0    0  502    0  0.00000000000E+00  0.00000000000E+00  0.41541708847E+03  0.41541708847E+03  0.00000000000E+00 0. -1.
          1   -1    0    0  501    0 -0.00000000000E+00 -0.00000000000E+00 -0.14775150966E+03  0.14775150966E+03  0.00000000000E+00 0. -1.
          2    1    1    2  501    0  0.95576429627E+02 -0.12960744218E+03  0.25853391313E+03  0.30458615728E+03  0.00000000000E+00 0. -1.
          1    1    1    2  502    0 -0.21282834578E+02  0.91741598296E+02  0.43354616002E+02  0.10367787919E+03  0.00000000000E+00 0. -1.
         22    1    1    2    0    0  0.13920499906E+02  0.11299387209E+01  0.34487700799E+02  0.37208313393E+02  0.00000000000E+00 0.  1.
         22    1    1    2    0    0 -0.88214094955E+02  0.36735905163E+02 -0.68710651124E+02  0.11769624826E+03  0.00000000000E+00 0. -1.
</event>
<event>
 6    1  0.8017648E-006  0.2429844E+02  0.7818608E-02  0.1719708E+00
          2   -1    0    0  502    0  0.00000000000E+00  0.00000000000E+00  0.10108787607E+04  0.10108787607E+04  0.00000000000E+00 0. -1.
          1   -1    0    0  501    0 -0.00000000000E+00 -0.00000000000E+00 -0.15838840729E+03  0.15838840729E+03  0.00000000000E+00 0. -1.
          2    1    1    2  501    0  0.10955866179E+02 -0.20951046059E+02  0.85659623180E+03  0.85692244787E+03  0.00000000000E+00 0. -1.
          1    1    1    2  502    0  0.20040077214E+02  0.11760931614E+02 -0.12938090565E+03  0.13145091461E+03  0.00000000000E+00 0. -1.
         22    1    1    2    0    0 -0.25357816077E+02  0.22536038627E+02  0.14915398995E+03  0.15296340932E+03  0.00000000000E+00 0.  1.
         22    1    1    2    0    0 -0.56381273157E+01 -0.13345924183E+02 -0.23878962690E+02  0.27930396186E+02  0.00000000000E+00 0. -1.
</event>
<event>
 6    1  0.8017648E-006  0.1086295E+03  0.7818608E-02  0.1264695E+00
          2   -1    0    0  502    0  0.00000000000E+00  0.00000000000E+00  0.93297048032E+02  0.93297048032E+02  0.00000000000E+00 0. -1.
          1   -1    0    0  501    0 -0.00000000000E+00 -0.00000000000E+00 -0.28491249741E+03  0.28491249741E+03  0.00000000000E+00 0.  1.
          2    1    1    2  501    0 -0.65907571472E+01  0.76898246198E+02  0.17649527522E+02  0.79172496297E+02  0.00000000000E+00 0. -1.
          1    1    1    2  502    0 -0.52817472707E+00 -0.74563707730E+02 -0.13744904254E+03  0.15637219949E+03  0.00000000000E+00 0.  1.
         22    1    1    2    0    0 -0.50242862686E+01 -0.25731559771E+02 -0.10040863147E+03  0.10377499648E+03  0.00000000000E+00 0.  1.
         22    1    1    2    0    0  0.12143218143E+02  0.23397021303E+02  0.28592697103E+02  0.38889853180E+02  0.00000000000E+00 0.  1.
</event>
<event>
 6    1  0.8017648E-006  0.2260178E+03  0.7818608E-02  0.1243998E+00
          2   -1    0    0  502    0  0.00000000000E+00  0.00000000000E+00  0.33647205378E+03  0.33647205378E+03  0.00000000000E+00 0.  1.
          1   -1    0    0  501    0 -0.00000000000E+00 -0.00000000000E+00 -0.35899801441E+03  0.35899801441E+03  0.00000000000E+00 0.  1.
          2    1    1    2  501    0  0.18993385560E+03 -0.40521227973E+02  0.20030092380E+03  0.27899336819E+03  0.00000000000E+00 0.  1.
          1    1    1    2  502    0 -0.18854708191E+03  0.68739803064E+02 -0.20502265331E+03  0.28689623733E+03  0.00000000000E+00 0.  1.
         22    1    1    2    0    0 -0.17627804958E+02  0.53486791220E+00 -0.67581737161E+02  0.69844948199E+02  0.00000000000E+00 0.  1.
         22    1    1    2    0    0  0.16241031267E+02 -0.28753443003E+02  0.49777506042E+02  0.59735514469E+02  0.00000000000E+00 0. -1.
</event>
<event>
 6    1  0.8017648E-006  0.5419066E+02  0.7818608E-02  0.1514954E+00
          2   -1    0    0  502    0  0.00000000000E+00  0.00000000000E+00  0.24157451317E+03  0.24157451317E+03  0.00000000000E+00 0.  1.
          1   -1    0    0  501    0 -0.00000000000E+00 -0.00000000000E+00 -0.35209783529E+03  0.35209783529E+03  0.00000000000E+00 0.  1.
          2    1    1    2  501    0  0.28034486815E+02  0.39744611586E+02  0.12313221434E+03  0.13238998757E+03  0.00000000000E+00 0.  1.
          1    1    1    2  502    0 -0.20037984083E+02  0.25223809018E+02 -0.30076959390E+03  0.30248985100E+03  0.00000000000E+00 0.  1.
         22    1    1    2    0    0 -0.40675927946E+01 -0.79117449566E+02  0.97151618854E+02  0.12535770093E+03  0.00000000000E+00 0.  1.
         22    1    1    2    0    0 -0.39289099380E+01  0.14149028962E+02 -0.30037561412E+02  0.33434808949E+02  0.00000000000E+00 0.  1.
</event>
<event>
 6    1  0.8017648E-006  0.2431418E+02  0.7818608E-02  0.1707627E+00
          2   -1    0    0  502    0  0.00000000000E+00  0.00000000000E+00  0.96952552270E+02  0.96952552270E+02  0.00000000000E+00 0. -1.
          1   -1    0    0  501    0 -0.00000000000E+00 -0.00000000000E+00 -0.16672688527E+03  0.16672688527E+03  0.00000000000E+00 0.  1.
          2    1    1    2  501    0  0.11197536455E+02 -0.19376668327E+02  0.24350116391E+02  0.33072167549E+02  0.00000000000E+00 0. -1.
          1    1    1    2  502    0 -0.26251768329E+01  0.30590306589E+02 -0.10431435812E+03  0.10873887860E+03  0.00000000000E+00 0.  1.
         22    1    1    2    0    0  0.12397743621E+01 -0.16605233036E+02  0.64398125259E+02  0.66516083330E+02  0.00000000000E+00 0. -1.
         22    1    1    2    0    0 -0.98121339840E+01  0.53915947750E+01 -0.54208216533E+02  0.55352308057E+02  0.00000000000E+00 0. -1.
</event>
<event>
 6    1  0.8017648E-006  0.1417200E+03  0.7818608E-02  0.1313314E+00
          2   -1    0    0  502    0  0.00000000000E+00  0.00000000000E+00  0.52128727617E+03  0.52128727617E+03  0.00000000000E+00 0. -1.
          1   -1    0    0  501    0 -0.00000000000E+00 -0.00000000000E+00 -0.61817855035E+02  0.61817855035E+02  0.00000000000E+00 0. -1.
          2    1    1    2  501    0  0.43676831330E+02 -0.18234065220E+02  0.12914774176E+03  0.13754739522E+03  0.00000000000E+00 0. -1.
          1    1    1    2  502    0 -0.96177956028E+01  0.87565955078E+02  0.63831486383E+01  0.88323513672E+02  0.00000000000E+00 0. -1.
         22    1    1    2    0    0  0.98720247393E+01  0.16296072999E+02 -0.25776356193E+00  0.19054797551E+02  0.00000000000E+00 0. -1.
         22    1    1    2    0    0 -0.43931060466E+02 -0.85627962857E+02  0.32419629429E+03  0.33817942476E+03  0.00000000000E+00 0. -1.
</event>
<event>
 6    1  0.8017648E-006  0.1096201E+03  0.7818608E-02  0.1336690E+00
          2   -1    0    0  502    0  0.00000000000E+00  0.00000000000E+00  0.72414097505E+03  0.72414097505E+03  0.00000000000E+00 0.  1.
          1   -1    0    0  501    0 -0.00000000000E+00 -0.00000000000E+00 -0.25108410710E+02  0.25108410710E+02  0.00000000000E+00 0.  1.
          2    1    1    2  501    0  0.38104962705E+02  0.22539682908E+02  0.12035972302E+03  0.12824386306E+03  0.00000000000E+00 0.  1.
          1    1    1    2  502    0 -0.79964548364E+02 -0.41965659136E+02  0.19782235605E+03  0.21746064033E+03  0.00000000000E+00 0.  1.
         22    1    1    2    0    0 -0.23880901477E+02  0.13022858399E+02  0.13617782022E+02  0.30419340615E+02  0.00000000000E+00 0.  1.
         22    1    1    2    0    0  0.65740487137E+02  0.64031178292E+01  0.36723270325E+03  0.37312554174E+03  0.00000000000E+00 0.  1.
</event>
<event>
 6    1  0.8017648E-006  0.8131647E+02  0.7818608E-02  0.1330499E+00
          2   -1    0    0  502    0  0.00000000000E+00  0.00000000000E+00  0.44757194192E+03  0.44757194192E+03  0.00000000000E+00 0.  1.
          1   -1    0    0  501    0 -0.00000000000E+00 -0.00000000000E+00 -0.65655675166E+02  0.65655675166E+02  0.00000000000E+00 0. -1.
          2    1    1    2  501    0  0.61767408756E+02 -0.29049742065E+01  0.33325271995E+03  0.33894103767E+03  0.00000000000E+00 0.  1.
          1    1    1    2  502    0 -0.11640075857E+02  0.26819843631E+02  0.17578760525E+02  0.34114633223E+02  0.00000000000E+00 0. -1.
         22    1    1    2    0    0 -0.53563543595E+02 -0.51435784300E+02 -0.24379049116E+02  0.78160291355E+02  0.00000000000E+00 0. -1.
         22    1    1    2    0    0  0.34362106956E+01  0.27520914875E+02  0.55463835390E+02  0.62011654837E+02  0.00000000000E+00 0. -1.
</event>
<event>
 6    1  0.8017648E-006  0.6407950E+02  0.7818608E-02  0.1405403E+00
          2   -1    0    0  502    0  0.00000000000E+00  0.00000000000E+00  0.53234927049E+03  0.53234927049E+03  0.00000000000E+00 0.  1.
          1   -1    0    0  501    0 -0.00000000000E+00 -0.00000000000E+00 -0.16584861042E+03  0.16584861042E+03  0.00000000000E+00 0. -1.
          2    1    1    2  501    0 -0.94836196108E+02  0.32647696077E+02  0.35084243898E+03  0.36489751046E+03  0.00000000000E+00 0.  1.
          1    1    1    2  502    0  0.84435149510E+02 -0.22002986823E+02 -0.11794712124E+03  0.14671383476E+03  0.00000000000E+00 0. -1.
         22    1    1    2    0    0 -0.25195955699E+01  0.25299566360E+02  0.14461700568E+03  0.14683492347E+03  0.00000000000E+00 0. -1.
         22    1    1    2    0    0  0.12920642168E+02 -0.35944275614E+02 -0.11011663349E+02  0.39751612208E+02  0.00000000000E+00 0. -1.
</event>
<event>
 6    1  0.8017648E-006  0.6703486E+02  0.7818608E-02  0.1460133E+00
          2   -1    0    0  502    0  0.00000000000E+00  0.00000000000E+00  0.31130805281E+03  0.31130805281E+03  0.00000000000E+00 0. -1.
          1   -1    0    0  501    0 -0.00000000000E+00 -0.00000000000E+00 -0.81335213363E+02  0.81335213363E+02  0.00000000000E+00 0. -1.
          2    1    1    2  501    0 -0.88251514960E+02  0.23992617267E+02  0.28254086532E+02  0.95719741860E+02  0.00000000000E+00 0. -1.
          1    1    1    2  502    0  0.74052132195E+02  0.16056254185E+02  0.11637207011E+03  0.13886677170E+03  0.00000000000E+00 0. -1.
         22    1    1    2    0    0  0.14328330421E+01  0.13180804523E+02 -0.28666379678E+02  0.31583982368E+02  0.00000000000E+00 0. -1.
         22    1    1    2    0    0  0.12766549723E+02 -0.53229675976E+02  0.11401306248E+03  0.12647277024E+03  0.00000000000E+00 0. -1.
</event>
<event>
 6    1  0.8017648E-006  0.2099242E+02  0.7818608E-02  0.1746151E+00
          2   -1    0    0  502    0  0.00000000000E+00  0.00000000000E+00  0.11139746957E+03  0.11139746957E+03  0.00000000000E+00 0. -1.
          1   -1    0    0  501    0 -0.00000000000E+00 -0.00000000000E+00 -0.21438358021E+03  0.21438358021E+03  0.00000000000E+00 0.  1.
          2    1    1    2  501    0  0.26676110005E+00 -0.27130855432E+02  0.49036258595E+02  0.56042030075E+02  0.00000000000E+00 0. -1.
          1    1    1    2  502    0 -0.26459094944E+02  0.29782742588E+02 -0.13389506424E+03  0.13969604035E+03  0.00000000000E+00 0.  1.
         22    1    1    2    0    0  0.11288114182E+02 -0.51572284393E+01 -0.72527908279E+02  0.73582035894E+02  0.00000000000E+00 0. -1.
         22    1    1    2    0    0  0.14904219661E+02  0.25053412829E+01  0.54400603286E+02  0.56460943462E+02  0.00000000000E+00 0. -1.
</event>
<event>
 6    1  0.8017648E-006  0.3764424E+02  0.7818608E-02  0.1576113E+00
          2   -1    0    0  502    0  0.00000000000E+00  0.00000000000E+00  0.12326006800E+03  0.12326006800E+03  0.00000000000E+00 0.  1.
          1   -1    0    0  501    0 -0.00000000000E+00 -0.00000000000E+00 -0.74536989231E+02  0.74536989231E+02  0.00000000000E+00 0.  1.
          2    1    1    2  501    0  0.88092558587E+01 -0.20937748778E+02  0.12003057004E+02  0.25691743617E+02  0.00000000000E+00 0.  1.
          1    1    1    2  502    0 -0.15959383185E+02  0.18193123820E+02 -0.24322941189E+02  0.34311763785E+02  0.00000000000E+00 0.  1.
         22    1    1    2    0    0 -0.10614221796E+02  0.11643221137E+02 -0.35704974468E+02  0.39026548714E+02  0.00000000000E+00 0.  1.
         22    1    1    2    0    0  0.17764349122E+02 -0.88985961795E+01  0.96747937423E+02  0.98767001115E+02  0.00000000000E+00 0.  1.
</event>
<event>
 6    1  0.8017648E-006  0.7747212E+02  0.7818608E-02  0.1361240E+00
          2   -1    0    0  502    0  0.00000000000E+00  0.00000000000E+00  0.37341813788E+03  0.37341813788E+03  0.00000000000E+00 0.  1.
          1   -1    0    0  501    0 -0.00000000000E+00 -0.00000000000E+00 -0.24082136190E+03  0.24082136190E+03  0.00000000000E+00 0.  1.
          2    1    1    2  501    0 -0.45518335690E+02  0.39634766376E+02  0.32448409772E+03  0.33004963758E+03  0.00000000000E+00 0.  1.
          1    1    1    2  502    0 -0.16824412155E+02 -0.22203316009E+02 -0.11892997344E+03  0.12214903466E+03  0.00000000000E+00 0.  1.
         22    1    1    2    0    0  0.14837352996E+02  0.14216583103E+00  0.37605923451E+02  0.40427376042E+02  0.00000000000E+00 0. -1.
         22    1    1    2    0    0  0.47505394850E+02 -0.17573616199E+02 -0.11056327176E+03  0.12161345151E+03  0.00000000000E+00 0.  1.
</event>
<event>
 6    1  0.8017648E-006  0.2147369E+03  0.7818608E-02  0.1192132E+00
          2   -1    0    0  502    0  0.00000000000E+00  0.00000000000E+00  0.52046451077E+03  0.52046451077E+03  0.00000000000E+00 0. -1.
          1   -1    0    0  501    0 -0.00000000000E+00 -0.00000000000E+00 -0.43905927996E+03  0.43905927996E+03  0.00000000000E+00 0. -1.
          2    1    1    2  501    0  0.89037956591E+02  0.17183908050E+03 -0.22483211486E+03  0.29665789586E+03  0.00000000000E+00 0. -1.
          1    1    1    2  502    0 -0.11393428785E+03 -0.13742598380E+03  0.43906286458E+03  0.47396531732E+03  0.00000000000E+00 0. -1.
         22    1    1    2    0    0 -0.43466849425E+02 -0.43295311838E+02 -0.85694284149E+02  0.10539146722E+03  0.00000000000E+00 0. -1.
         22    1    1    2    0    0  0.68363180684E+02  0.88822151338E+01 -0.47131234761E+02  0.83509110336E+02  0.00000000000E+00 0. -1.
</event>
<event>
 6    1  0.8017648E-006  0.3771156E+02  0.7818608E-02  0.1616618E+00
          2   -1    0    0  502    0  0.00000000000E+00  0.00000000000E+00  0.19294487353E+03  0.19294487353E+03  0.00000000000E+00 0.  1.
          1   -1    0    0  501    0 -0.00000000000E+00 -0.00000000000E+00 -0.68879190596E+02  0.68879190596E+02  0.00000000000E+00 0.  1.
          2    1    1    2  501    0 -0.31925162789E+02 -0.44195215934E+01  0.33601005199E+02  0.46559378654E+02  0.00000000000E+00 0.  1.
          1    1    1    2  502    0  0.41593745905E+02  0.45153296809E+02  0.55841641316E+02  0.82988847540E+02  0.00000000000E+00 0.  1.
         22    1    1    2    0    0 -0.75077887426E+01 -0.79483451835E+01 -0.44910756484E+02  0.46222495940E+02  0.00000000000E+00 0.  1.
         22    1    1    2    0    0 -0.21607943731E+01 -0.32785430033E+02  0.79533792902E+02  0.86053341993E+02  0.00000000000E+00 0.  1.
</event>
<event>
 6    1  0.8017648E-006  0.1263410E+03  0.7818608E-02  0.1357649E+00
          2   -1    0    0  502    0  0.00000000000E+00  0.00000000000E+00  0.85838464106E+03  0.85838464106E+03  0.00000000000E+00 0. -1.
          1   -1    0    0  501    0 -0.00000000000E+00 -0.00000000000E+00 -0.41115168771E+02  0.41115168771E+02  0.00000000000E+00 0.  1.
          2    1    1    2  501    0  0.14176345672E+02 -0.48154778297E+02  0.36174888023E+03  0.36521514727E+03  0.00000000000E+00 0. -1.
          1    1    1    2  502    0 -0.87864662801E+02  0.84299274157E+02  0.15241135148E+03  0.19507892416E+03  0.00000000000E+00 0.  1.
         22    1    1    2    0    0  0.85758392891E+01 -0.89644920532E+01 -0.11418613231E+02  0.16860956835E+02  0.00000000000E+00 0.  1.
         22    1    1    2    0    0  0.65112477839E+02 -0.27180003807E+02  0.31452785382E+03  0.32234478157E+03  0.00000000000E+00 0. -1.
</event>
<event>
 6    1  0.8017648E-006  0.6027371E+02  0.7818608E-02  0.1398806E+00
          2   -1    0    0  502    0  0.00000000000E+00  0.00000000000E+00  0.12442114454E+03  0.12442114454E+03  0.00000000000E+00 0. -1.
          1   -1    0    0  501    0 -0.00000000000E+00 -0.00000000000E+00 -0.24425391287E+03  0.24425391287E+03  0.00000000000E+00 0. -1.
          2    1    1    2  501    0  0.28007260233E+02  0.29458775737E+02  0.62089206418E+02  0.74211155814E+02  0.00000000000E+00 0. -1.
          1    1    1    2  502    0 -0.34652418389E+02 -0.27969229939E+02 -0.15996036446E+03  0.16604332604E+03  0.00000000000E+00 0. -1.
         22    1    1    2    0    0  0.16043156955E+02  0.70221480826E+01  0.51229056291E+02  0.54139723468E+02  0.00000000000E+00 0. -1.
         22    1    1    2    0    0 -0.93979987993E+01 -0.85116938811E+01 -0.73190666570E+02  0.74280852089E+02  0.00000000000E+00 0.  1.
</event>
<event>
 6    1  0.8017648E-006  0.1889581E+03  0.7818608E-02  0.1273640E+00
          2   -1    0    0  502    0  0.00000000000E+00  0.00000000000E+00  0.60818508311E+03  0.60818508311E+03  0.00000000000E+00 0.  1.
          1   -1    0    0  501    0 -0.00000000000E+00 -0.00000000000E+00 -0.67912642274E+02  0.67912642274E+02  0.00000000000E+00 0.  1.
          2    1    1    2  501    0  0.71836445161E+02  0.44553189587E+02  0.31962277451E+03  0.33061182607E+03  0.00000000000E+00 0.  1.
          1    1    1    2  502    0 -0.76332755781E+02  0.51041743097E+02  0.29889242675E+02  0.96567675602E+02  0.00000000000E+00 0.  1.
         22    1    1    2    0    0  0.21234861623E+02 -0.97382598309E+02  0.20429909847E+03  0.22731566474E+03  0.00000000000E+00 0.  1.
         22    1    1    2    0    0 -0.16738551003E+02  0.17876656248E+01 -0.13538674817E+02  0.21602558966E+02  0.00000000000E+00 0.  1.
</event>
<event>
 6    1  0.8017648E-006  0.1111713E+03  0.7818608E-02  0.1347227E+00
          2   -1    0    0  502    0  0.00000000000E+00  0.00000000000E+00  0.32639470169E+03  0.32639470169E+03  0.00000000000E+00 0. -1.
          1   -1    0    0  501    0 -0.00000000000E+00 -0.00000000000E+00 -0.19702969304E+03  0.19702969304E+03  0.00000000000E+00 0.  1.
          2    1    1    2  501    0 -0.76645725963E+02  0.17583033661E+03  0.97168926227E+02  0.21501784764E+03  0.00000000000E+00 0. -1.
          1    1    1    2  502    0  0.98535252218E+02 -0.83228075491E+02 -0.43427813960E+02  0.13609586145E+03  0.00000000000E+00 0.  1.
         22    1    1    2    0    0 -0.28891458144E+02 -0.77755076661E+02  0.10790051324E+03  0.13609955568E+03  0.00000000000E+00 0. -1.
         22    1    1    2    0    0  0.70019318893E+01 -0.14847184457E+02 -0.32276616856E+02  0.36211129948E+02  0.00000000000E+00 0.  1.
</event>
<event>
 6    1  0.8017648E-006  0.1053241E+03  0.7818608E-02  0.1365521E+00
          2   -1    0    0  502    0  0.00000000000E+00  0.00000000000E+00  0.58668756762E+03  0.58668756762E+03  0.00000000000E+00 0.  1.
          1   -1    0    0  501    0 -0.00000000000E+00 -0.00000000000E+00 -0.88444351658E+02  0.88444351658E+02  0.00000000000E+00 0.  1.
          2    1    1    2  501    0 -0.14092675801E+02  0.10696103517E+03  0.55986196451E+02  0.12154719556E+03  0.00000000000E+00 0.  1.
          1    1    1    2  502    0  0.54365101028E+02 -0.17692650737E+03  0.24345487731E+03  0.30582483631E+03  0.00000000000E+00 0.  1.
         22    1    1    2    0    0 -0.37862118904E+02  0.86228646841E+02  0.20842244490E+03  0.22871124835E+03  0.00000000000E+00 0.  1.
         22    1    1    2    0    0 -0.24103063222E+01 -0.16263174646E+02 -0.96203026905E+01  0.19048639058E+02  0.00000000000E+00 0.  1.
</event>
<event>
 6    1  0.8017648E-006  0.1051866E+03  0.7818608E-02  0.1279254E+00
          2   -1    0    0  502    0  0.00000000000E+00  0.00000000000E+00  0.12338878244E+03  0.12338878244E+03  0.00000000000E+00 0. -1.
          1   -1    0    0  501    0 -0.00000000000E+00 -0.00000000000E+00 -0.30820504820E+03  0.30820504820E+03  0.00000000000E+00 0. -1.
          2    1    1    2  501    0  0.15222994051E+02  0.11461797829E+03 -0.29767136576E+02  0.11939473571E+03  0.00000000000E+00 0. -1.
          1    1    1    2  502    0  0.42518053690E+02 -0.42994051573E+02 -0.14502584666E+03  0.15712660360E+03  0.00000000000E+00 0. -1.
         22    1    1    2    0    0  0.25055165930E+02  0.56780127826E+00 -0.34390197887E+02  0.42553136768E+02  0.00000000000E+00 0. -1.
         22    1    1    2    0    0 -0.82796213671E+02 -0.72191727991E+02  0.24366915364E+02  0.11251935457E+03  0.00000000000E+00 0. -1.
</event>
<event>
 6    1  0.8017648E-006  0.1008987E+03  0.7818608E-02  0.1327667E+00
          2   -1    0    0  502    0  0.00000000000E+00  0.00000000000E+00  0.55879959496E+02  0.55879959496E+02  0.00000000000E+00 0. -1.
          1   -1    0    0  501    0 -0.00000000000E+00 -0.00000000000E+00 -0.43602062941E+03  0.43602062941E+03  0.00000000000E+00 0. -1.
          2    1    1    2  501    0  0.37561965868E+02 -0.62559778898E+02 -0.40946845334E+02  0.83673600128E+02  0.00000000000E+00 0. -1.
          1    1    1    2  502    0  0.14232992432E+02  0.65911209255E+02 -0.21105610265E+03  0.22156611664E+03  0.00000000000E+00 0. -1.
         22    1    1    2    0    0 -0.24464326959E+02 -0.32727380730E+02  0.10620271670E+02  0.42218182260E+02  0.00000000000E+00 0. -1.
         22    1    1    2    0    0 -0.27330631341E+02  0.29375950374E+02 -0.13875799360E+03  0.14444268987E+03  0.00000000000E+00 0. -1.
</event>
<event>
 6    1  0.8017648E-006  0.2843660E+03  0.7818608E-02  0.1093463E+00
          2   -1    0    0  502    0  0.00000000000E+00  0.00000000000E+00  0.41742016840E+03  0.41742016840E+03  0.00000000000E+00 0.  1.
          1   -1    0    0  501    0 -0.00000000000E+00 -0.00000000000E+00 -0.15578626939E+04  0.15578626939E+04  0.00000000000E+00 0.  1.
          2    1    1    2  501    0 -0.11001474599E+03  0.21006254746E+03  0.31288036116E+03  0.39258583593E+03  0.00000000000E+00 0.  1.
          1    1    1    2  502    0  0.15087854902E+03 -0.22352237354E+03 -0.14222894972E+04  0.14476304784E+04  0.00000000000E+00 0.  1.
         22    1    1    2    0    0 -0.51236427600E+01 -0.13734961357E+02 -0.72483875891E+02  0.73951424211E+02  0.00000000000E+00 0. -1.
         22    1    1    2    0    0 -0.35740160273E+02  0.27194787434E+02  0.41450486485E+02  0.61115123740E+02  0.00000000000E+00 0. -1.
</event>
<event>
 6    1  0.8017648E-006  0.1287063E+03  0.7818608E-02  0.1352437E+00
          2   -1    0    0  502    0  0.00000000000E+00  0.00000000000E+00  0.30730166253E+03  0.30730166253E+03  0.00000000000E+00 0. -1.
          1   -1    0    0  501    0 -0.00000000000E+00 -0.00000000000E+00 -0.40408382295E+02  0.40408382295E+02  0.00000000000E+00 0. -1.
          2    1    1    2  501    0  0.27298628886E+02  0.80121850731E+01  0.13911225304E+01  0.28484126643E+02  0.00000000000E+00 0. -1.
          1    1    1    2  502    0  0.31108418997E+02 -0.25013041703E+02  0.70936334731E+02  0.81396250361E+02  0.00000000000E+00 0. -1.
         22    1    1    2    0    0 -0.60506416394E+02  0.43567492899E+01  0.20952523387E+03  0.21813030812E+03  0.00000000000E+00 0. -1.
         22    1    1    2    0    0  0.20993685114E+01  0.12644107340E+02 -0.14959410896E+02  0.19699359709E+02  0.00000000000E+00 0. -1.
</event>
<event>
 6    1  0.8017648E-006  0.1608678E+03  0.7818608E-02  0.1295909E+00
          2   -1    0    0  502    0  0.00000000000E+00  0.00000000000E+00  0.20972246947E+03  0.20972246947E+03  0.00000000000E+00 0. -1.
          1   -1    0    0  501    0 -0.00000000000E+00 -0.00000000000E+00 -0.20989557470E+03  0.20989557470E+03  0.00000000000E+00 0. -1.
          2    1    1    2  501    0  0.75911390997E+02 -0.66693092234E+02  0.20208954080E+02  0.10304809392E+03  0.00000000000E+00 0. -1.
          1    1    1    2  502    0 -0.13879203275E+03  0.72892407895E+02  0.39809590824E+02  0.16174465990E+03  0.00000000000E+00 0. -1.
         22    1    1    2    0    0  0.55750616058E+02 -0.22633628832E+02  0.26900778430E+02  0.65909515437E+02  0.00000000000E+00 0. -1.
         22    1    1    2    0    0  0.71300256984E+01  0.16434313171E+02 -0.87092428560E+02  0.88915774913E+02  0.00000000000E+00 0.  1.
</event>
<event>
 6    1  0.8017648E-006  0.7703102E+02  0.7818608E-02  0.1451193E+00
          2   -1    0    0  502    0  0.00000000000E+00  0.00000000000E+00  0.33724784720E+03  0.33724784720E+03  0.00000000000E+00 0. -1.
          1   -1    0    0  501    0 -0.00000000000E+00 -0.00000000000E+00 -0.11463528551E+03  0.11463528551E+03  0.00000000000E+00 0.  1.
          2    1    1    2  501    0  0.54619293632E+02  0.20442649569E+01  0.21974957591E+03  0.22644496543E+03  0.00000000000E+00 0. -1.
          1    1    1    2  502    0 -0.78893568961E+02 -0.23565344089E+02 -0.36442317026E+02  0.90042007617E+02  0.00000000000E+00 0.  1.
         22    1    1    2    0    0  0.19551009846E+02  0.99031615120E+01  0.85119899020E+02  0.87896028369E+02  0.00000000000E+00 0.  1.
         22    1    1    2    0    0  0.47232654834E+01  0.11617917620E+02 -0.45814596215E+02  0.47500131294E+02  0.00000000000E+00 0.  1.
</event>
<event>
 6    1  0.8017648E-006  0.8845760E+02  0.7818608E-02  0.1326953E+00
          2   -1    0    0  502    0  0.00000000000E+00  0.00000000000E+00  0.46430244403E+03  0.46430244403E+03  0.00000000000E+00 0. -1.
          1   -1    0    0  501    0 -0.00000000000E+00 -0.00000000000E+00 -0.61547930885E+02  0.61547930885E+02  0.00000000000E+00 0. -1.
          2    1    1    2  501    0 -0.65771458615E+02 -0.44607076341E+02  0.17072938125E+02  0.81284446509E+02  0.00000000000E+00 0. -1.
          1    1    1    2  502    0  0.10617730638E+01 -0.28008245239E+02  0.20231377759E+03  0.20424606181E+03  0.00000000000E+00 0. -1.
         22    1    1    2    0    0  0.72772001294E+02  0.97826937820E+02  0.17353000992E+03  0.21208144256E+03  0.00000000000E+00 0. -1.
         22    1    1    2    0    0 -0.80623157426E+01 -0.25211616240E+02  0.98377875034E+01  0.28238424027E+02  0.00000000000E+00 0.  1.
</event>
<event>
 6    1  0.8017648E-006  0.9380889E+02  0.7818608E-02  0.1395628E+00
          2   -1    0    0  502    0  0.00000000000E+00  0.00000000000E+00  0.25773257145E+03  0.25773257145E+03  0.00000000000E+00 0. -1.
          1   -1    0    0  501    0 -0.00000000000E+00 -0.00000000000E+00 -0.29966795448E+03  0.29966795448E+03  0.00000000000E+00 0. -1.
          2    1    1    2  501    0  0.15072406284E+02  0.36428155887E+02  0.44401664669E+02  0.59377569821E+02  0.00000000000E+00 0. -1.
          1    1    1    2  502    0 -0.57673659561E+02 -0.10812775671E+03  0.16547184795E+03  0.20590967739E+03  0.00000000000E+00 0. -1.
         22    1    1    2    0    0  0.79691021815E+01 -0.14172547635E+02  0.66519203509E+01  0.17567462548E+02  0.00000000000E+00 0. -1.
         22    1    1    2    0    0  0.34632151095E+02  0.85872148461E+02 -0.25846081599E+03  0.27454581617E+03  0.00000000000E+00 0. -1.
</event>
<event>
 6    1  0.8017648E-006  0.5097925E+02  0.7818608E-02  0.1544267E+00
          2   -1    0    0  502    0  0.00000000000E+00  0.00000000000E+00  0.11987862318E+04  0.11987862318E+04  0.00000000000E+00 0.  1.
          1   -1    0    0  501    0 -0.00000000000E+00 -0.00000000000E+00 -0.84842149530E+02  0.84842149530E+02  0.00000000000E+00 0.  1.
          2    1    1    2  501    0  0.10046554498E+01 -0.46545647308E+02  0.10829889795E+04  0.10839892233E+04  0.00000000000E+00 0.  1.
          1    1    1    2  502    0  0.53830447188E+02  0.15969287608E+02  0.24280907328E+02  0.61174321834E+02  0.00000000000E+00 0.  1.
         22    1    1    2    0    0 -0.43224411728E+02  0.33519756296E+02 -0.53855390338E+02  0.76761493601E+02  0.00000000000E+00 0.  1.
         22    1    1    2    0    0 -0.11610690909E+02 -0.29433965961E+01  0.60529585826E+02  0.61703342593E+02  0.00000000000E+00 0. -1.
</event>
<event>
 6    1  0.8017648E-006  0.8841184E+02  0.7818608E-02  0.1432756E+00
          2   -1    0    0  502    0  0.00000000000E+00  0.00000000000E+00  0.37383791595E+03  0.37383791595E+03  0.00000000000E+00 0. -1.
          1   -1    0    0  501    0 -0.00000000000E+00 -0.00000000000E+00 -0.62643840852E+02  0.62643840852E+02  0.00000000000E+00 0. -1.
          2    1    1    2  501    0  0.95989520242E+02  0.22486913169E+02  0.10123485761E+03  0.14130868924E+03  0.00000000000E+00 0. -1.
          1    1    1    2  502    0 -0.21841700957E+02 -0.33954738960E+02  0.11432458740E+03  0.12124395030E+03  0.00000000000E+00 0. -1.
         22    1    1    2    0    0 -0.83272152953E+02  0.17464023079E+02  0.12007317226E+03  0.14716253007E+03  0.00000000000E+00 0. -1.
         22    1    1    2    0    0  0.91243336690E+01 -0.59961972889E+01 -0.24438542171E+02  0.26766587199E+02  0.00000000000E+00 0.  1.
</event>
<event>
 6    1  0.9515684E-006  0.5420561E+02  0.7818608E-02  0.1428961E+00
          2   -1    0    0  502    0  0.00000000000E+00  0.00000000000E+00  0.14955910266E+04  0.14955910266E+04  0.00000000000E+00 0.  1.
          1   -1    0    0  501    0 -0.00000000000E+00 -0.00000000000E+00 -0.22240016018E+03  0.22240016018E+03  0.00000000000E+00 0.  1.
          2    1    1    2  501    0 -0.15479501346E+02  0.14713994980E+03  0.13573533678E+04  0.13653929635E+04  0.00000000000E+00 0.  1.
          1    1    1    2  502    0 -0.15931551417E+02 -0.12961778915E+03 -0.15610886772E+03  0.20353025371E+03  0.00000000000E+00 0.  1.
         22    1    1    2    0    0  0.86130472699E+01 -0.19358847582E+02  0.10597206215E+03  0.10806954946E+03  0.00000000000E+00 0. -1.
         22    1    1    2    0    0  0.22798005493E+02  0.18366869333E+01 -0.34025695810E+02  0.40998420076E+02  0.00000000000E+00 0.  1.
</event>
<event>
 6    1  0.8017648E-006  0.5183447E+02  0.7818608E-02  0.1463987E+00
          2   -1    0    0  502    0  0.00000000000E+00  0.00000000000E+00  0.61218098303E+03  0.61218098303E+03  0.00000000000E+00 0.  1.
          1   -1    0    0  501    0 -0.00000000000E+00 -0.00000000000E+00 -0.47880654309E+02  0.47880654309E+02  0.00000000000E+00 0. -1.
          2    1    1    2  501    0 -0.81109553462E+02 -0.31938832863E+02  0.31591871764E+03  0.32772470896E+03  0.00000000000E+00 0.  1.
          1    1    1    2  502    0  0.36393063981E+02  0.47384365655E+02  0.16492022995E+03  0.17540927986E+03  0.00000000000E+00 0. -1.
         22    1    1    2    0    0  0.72886892928E+01 -0.24298053517E+02  0.10824222092E+03  0.11117508168E+03  0.00000000000E+00 0.  1.
         22    1    1    2    0    0  0.37427800188E+02  0.88525207248E+01 -0.24780839803E+02  0.45752566829E+02  0.00000000000E+00 0. -1.
</event>
<event>
 6    1  0.8017648E-006  0.1064061E+03  0.7818608E-02  0.1380325E+00
          2   -1    0    0  502    0  0.00000000000E+00  0.00000000000E+00  0.29087300934E+03  0.29087300934E+03  0.00000000000E+00 0. -1.
          1   -1    0    0  501    0 -0.00000000000E+00 -0.00000000000E+00 -0.12580676547E+03  0.12580676547E+03  0.00000000000E+00 0. -1.
          2    1    1    2  501    0  0.53390512130E+02 -0.67487023385E+02  0.17322233081E+03  0.19341928808E+03  0.00000000000E+00 0. -1.
          1    1    1    2  502    0 -0.56082311246E+02  0.72498595861E+02 -0.30659940474E+02  0.96650421553E+02  0.00000000000E+00 0. -1.
         22    1    1    2    0    0 -0.51628397712E+01  0.13290590442E+02 -0.49702566260E+02  0.51707250958E+02  0.00000000000E+00 0. -1.
         22    1    1    2    0    0  0.78546388878E+01 -0.18302162918E+02  0.72206419787E+02  0.74902814220E+02  0.00000000000E+00 0. -1.
</event>
<event>
 6    1  0.8017648E-006  0.6086653E+02  0.7818608E-02  0.1474801E+00
          2   -1    0    0  502    0  0.00000000000E+00  0.00000000000E+00  0.24726179753E+03  0.24726179753E+03  0.00000000000E+00 0. -1.
          1   -1    0    0  501    0 -0.00000000000E+00 -0.00000000000E+00 -0.39122848758E+03  0.39122848758E+03  0.00000000000E+00 0. -1.
          2    1    1    2  501    0  0.18314266957E+01  0.11878212274E+03  0.19820144280E+03  0.23107652138E+03  0.00000000000E+00 0. -1.
          1    1    1    2  502    0 -0.20249382173E+02 -0.78206994183E+02 -0.18214561757E+03  0.19925711385E+03  0.00000000000E+00 0. -1.
         22    1    1    2    0    0  0.36833448486E+01 -0.95340118630E+01  0.21290376166E+02  0.23616615523E+02  0.00000000000E+00 0. -1.
         22    1    1    2    0    0  0.14734610628E+02 -0.31041116695E+02 -0.18131289145E+03  0.18454003436E+03  0.00000000000E+00 0. -1.
</event>
<event>
 6    1  0.8017648E-006  0.6679468E+02  0.7818608E-02  0.1415177E+00
          2   -1    0    0  502    0  0.00000000000E+00  0.00000000000E+00  0.10793908242E+03  0.10793908242E+03  0.00000000000E+00 0. -1.
          1   -1    0    0  501    0 -0.00000000000E+00 -0.00000000000E+00 -0.13189551371E+03  0.13189551371E+03  0.00000000000E+00 0. -1.
          2    1    1    2  501    0  0.21665642947E+02 -0.11162104938E+02  0.12112907469E+02  0.27216083449E+02  0.00000000000E+00 0. -1.
          1    1    1    2  502    0 -0.26741678994E+02  0.66083213690E-01 -0.79288667874E+02  0.83676846353E+02  0.00000000000E+00 0. -1.
         22    1    1    2    0    0 -0.25365253029E+02  0.24169246766E+02  0.75158204631E+02  0.82923484453E+02  0.00000000000E+00 0. -1.
         22    1    1    2    0    0  0.30441289076E+02 -0.13073225042E+02 -0.31938875517E+02  0.46018181873E+02  0.00000000000E+00 0.  1.
</event>
<event>
 6    1  0.8017648E-006  0.9350516E+02  0.7818608E-02  0.1294780E+00
          2   -1    0    0  502    0  0.00000000000E+00  0.00000000000E+00  0.88651812558E+03  0.88651812558E+03  0.00000000000E+00 0. -1.
          1   -1    0    0  501    0 -0.00000000000E+00 -0.00000000000E+00 -0.50410022373E+03  0.50410022373E+03  0.00000000000E+00 0.  1.
          2    1    1    2  501    0  0.24167627519E+02 -0.71599558976E+02  0.80902676719E+03  0.81254838693E+03  0.00000000000E+00 0. -1.
          1    1    1    2  502    0 -0.31229122328E+02  0.76585377309E+02 -0.44421428921E+03  0.45184832946E+03  0.00000000000E+00 0.  1.
         22    1    1    2    0    0  0.57840165257E+01  0.90776424466E+01 -0.53069330820E+02  0.54149905939E+02  0.00000000000E+00 0.  1.
         22    1    1    2    0    0  0.12774782833E+01 -0.14063460780E+02  0.70674754681E+02  0.72071726975E+02  0.00000000000E+00 0. -1.
</event>
<event>
 6    1  0.8017648E-006  0.8536911E+02  0.7818608E-02  0.1387260E+00
          2   -1    0    0  502    0  0.00000000000E+00  0.00000000000E+00  0.22936951802E+03  0.22936951802E+03  0.00000000000E+00 0. -1.
          1   -1    0    0  501    0 -0.00000000000E+00 -0.00000000000E+00 -0.11671693194E+03  0.11671693194E+03  0.00000000000E+00 0. -1.
          2    1    1    2  501    0  0.88082597570E+02 -0.29682417063E+02  0.13813104108E+03  0.16649256556E+03  0.00000000000E+00 0. -1.
          1    1    1    2  502    0 -0.17043189559E+02  0.24818216911E+02  0.11673363424E+02  0.32290580896E+02  0.00000000000E+00 0. -1.
         22    1    1    2    0    0  0.52692258641E+01  0.24103249258E+02 -0.60399808893E+02  0.65244680092E+02  0.00000000000E+00 0.  1.
         22    1    1    2    0    0 -0.76308633876E+02 -0.19239049105E+02  0.23247990467E+02  0.82058623405E+02  0.00000000000E+00 0. -1.
</event>
<event>
 6    1  0.8017648E-006  0.4876127E+02  0.7818608E-02  0.1455811E+00
          2   -1    0    0  502    0  0.00000000000E+00  0.00000000000E+00  0.15666217805E+03  0.15666217805E+03  0.00000000000E+00 0. -1.
          1   -1    0    0  501    0 -0.00000000000E+00 -0.00000000000E+00 -0.92439867039E+02  0.92439867039E+02  0.00000000000E+00 0. -1.
          2    1    1    2  501    0  0.20898425210E+02 -0.14849671318E+01  0.43295402885E+02  0.48098245442E+02  0.00000000000E+00 0. -1.
          1    1    1    2  502    0  0.21467874597E+02  0.39571210230E+02  0.37815143128E+02  0.58794007931E+02  0.00000000000E+00 0. -1.
         22    1    1    2    0    0  0.71464933384E+01 -0.30499973323E+02  0.49782680220E+02  0.58818670417E+02  0.00000000000E+00 0. -1.
         22    1    1    2    0    0 -0.49512793145E+02 -0.75862697752E+01 -0.66670915225E+02  0.83391121296E+02  0.00000000000E+00 0. -1.
</event>
<event>
 6    1  0.8017648E-006  0.4146442E+02  0.7818608E-02  0.1582873E+00
          2   -1    0    0  502    0  0.00000000000E+00  0.00000000000E+00  0.13049322623E+03  0.13049322623E+03  0.00000000000E+00 0. -1.
          1   -1    0    0  501    0 -0.00000000000E+00 -0.00000000000E+00 -0.90634920785E+02  0.90634920785E+02  0.00000000000E+00 0.  1.
          2    1    1    2  501    0  0.24468781437E+02 -0.10687238406E+02  0.52934057520E+02  0.59287037160E+02  0.00000000000E+00 0. -1.
          1    1    1    2  502    0 -0.31325200265E+02  0.43844887533E+01 -0.12171860809E+01  0.31653964290E+02  0.00000000000E+00 0.  1.
         22    1    1    2    0    0  0.14037934671E+02 -0.53359041372E+01  0.57533000866E+02  0.59460757407E+02  0.00000000000E+00 0. -1.
         22    1    1    2    0    0 -0.71815158424E+01  0.11638653790E+02 -0.69391566855E+02  0.70726388162E+02  0.00000000000E+00 0. -1.
</event>
<event>
 6    1  0.8017648E-006  0.9882840E+02  0.7818608E-02  0.1408029E+00
          2   -1    0    0  502    0  0.00000000000E+00  0.00000000000E+00  0.94285332649E+03  0.94285332649E+03  0.00000000000E+00 0. -1.
          1   -1    0    0  501    0 -0.00000000000E+00 -0.00000000000E+00 -0.16487264121E+03  0.16487264121E+03  0.00000000000E+00 0. -1.
          2    1    1    2  501    0 -0.31330775858E+02  0.76786179595E+02  0.84767489925E+03  0.85172206130E+03  0.00000000000E+00 0. -1.
          1    1    1    2  502    0  0.33351743131E+02 -0.79457818890E+02 -0.94159022113E+02  0.12763935599E+03  0.00000000000E+00 0. -1.
         22    1    1    2    0    0 -0.27938674590E+01 -0.11085575594E+02 -0.50686881124E+02  0.51960134716E+02  0.00000000000E+00 0.  1.
         22    1    1    2    0    0  0.77290018611E+00  0.13757214889E+02  0.75151689271E+02  0.76404415687E+02  0.00000000000E+00 0. -1.
</event>
<event>
 6    1  0.8017648E-006  0.5550339E+02  0.7818608E-02  0.1424776E+00
          2   -1    0    0  502    0  0.00000000000E+00  0.00000000000E+00  0.21434349653E+03  0.21434349653E+03  0.00000000000E+00 0. -1.
          1   -1    0    0  501    0 -0.00000000000E+00 -0.00000000000E+00 -0.10231076974E+03  0.10231076974E+03  0.00000000000E+00 0.  1.
          2    1    1    2  501    0 -0.18190286387E+02  0.62610354409E+02  0.79995472536E+02  0.10319989644E+03  0.00000000000E+00 0. -1.
          1    1    1    2  502    0  0.17340816886E+02 -0.77898800155E+02 -0.73918208582E+01  0.80147152235E+02  0.00000000000E+00 0.  1.
         22    1    1    2    0    0 -0.37250828667E+02 -0.14025612771E+02  0.66969076600E+02  0.77905065757E+02  0.00000000000E+00 0.  1.
         22    1    1    2    0    0  0.38100298168E+02  0.29314058516E+02 -0.27540001491E+02  0.55402151848E+02  0.00000000000E+00 0.  1.
</event>
<event>
 6    1  0.8017648E-006  0.1853362E+03  0.7818608E-02  0.1260062E+00
          2   -1    0    0  502    0  0.00000000000E+00  0.00000000000E+00  0.32232601046E+03  0.32232601046E+03  0.00000000000E+00 0.  1.
          1   -1    0    0  501    0 -0.00000000000E+00 -0.00000000000E+00 -0.17169685332E+03  0.17169685332E+03  0.00000000000E+00 0.  1.
          2    1    1    2  501    0 -0.18764011035E+02  0.14960591890E+03  0.13283575346E+03  0.20094615317E+03  0.00000000000E+00 0.  1.
          1    1    1    2  502    0  0.14385388389E+02 -0.16336433189E+03 -0.10498657658E+01  0.16399983705E+03  0.00000000000E+00 0.  1.
         22    1    1    2    0    0  0.42051766682E+01  0.36986270898E+02  0.66415811268E+02  0.76136244537E+02  0.00000000000E+00 0. -1.
         22    1    1    2    0    0  0.17344597817E+00 -0.23227857901E+02 -0.47572541819E+02  0.52940629023E+02  0.00000000000E+00 0.  1.
</event>
<event>
 6    1  0.8017648E-006  0.1729304E+03  0.7818608E-02  0.1197053E+00
          2   -1    0    0  502    0  0.00000000000E+00  0.00000000000E+00  0.25502241629E+03  0.25502241629E+03  0.00000000000E+00 0.  1.
          1   -1    0    0  501    0 -0.00000000000E+00 -0.00000000000E+00 -0.23884057024E+03  0.23884057024E+03  0.00000000000E+00 0.  1.
          2    1    1    2  501    0  0.71254561152E+02 -0.15363797399E+02 -0.49938924462E+02  0.88358106203E+02  0.00000000000E+00 0.  1.
          1    1    1    2  502    0 -0.18867535648E+03  0.70373566454E+01  0.12017549737E+03  0.22380809793E+03  0.00000000000E+00 0.  1.
         22    1    1    2    0    0  0.25544585739E+02 -0.43441964518E+02 -0.57147554985E+02  0.76194312009E+02  0.00000000000E+00 0. -1.
         22    1    1    2    0    0  0.91876209586E+02  0.51768405272E+02  0.30928281298E+01  0.10550247039E+03  0.00000000000E+00 0.  1.
</event>
<event>
 6    1  0.8017648E-006  0.1177497E+03  0.7818608E-02  0.1303916E+00
          2   -1    0    0  502    0  0.00000000000E+00  0.00000000000E+00  0.15238068279E+03  0.15238068279E+03  0.00000000000E+00 0. -1.
          1   -1    0    0  501    0 -0.00000000000E+00 -0.00000000000E+00 -0.52323020724E+03  0.52323020724E+03  0.00000000000E+00 0. -1.
          2    1    1    2  501    0 -0.87715545827E+02 -0.12317480552E+03 -0.43857899571E+02  0.15744702299E+03  0.00000000000E+00 0. -1.
          1    1    1    2  502    0  0.48413841349E+02  0.19174773661E+03 -0.30745545940E+03  0.36556798827E+03  0.00000000000E+00 0. -1.
         22    1    1    2    0    0  0.14611558931E+02 -0.74441070517E+02  0.41516478544E+02  0.86478833392E+02  0.00000000000E+00 0. -1.
         22    1    1    2    0    0  0.24690145547E+02  0.58681394247E+01 -0.61052644023E+02  0.66117045379E+02  0.00000000000E+00 0. -1.
</event>
<event>
 6    1  0.8017648E-006  0.1030034E+03  0.7818608E-02  0.1347849E+00
          2   -1    0    0  502    0  0.00000000000E+00  0.00000000000E+00  0.37905141653E+03  0.37905141653E+03  0.00000000000E+00 0.  1.
          1   -1    0    0  501    0 -0.00000000000E+00 -0.00000000000E+00 -0.33428570736E+03  0.33428570736E+03  0.00000000000E+00 0.  1.
          2    1    1    2  501    0 -0.90815877108E+02 -0.32218861444E+01  0.30230357476E+03  0.31566652562E+03  0.00000000000E+00 0.  1.
          1    1    1    2  502    0  0.84875762058E+02 -0.26403587165E+02 -0.25666239769E+03  0.27161853911E+03  0.00000000000E+00 0.  1.
         22    1    1    2    0    0 -0.70024926960E+01  0.26118682024E+02  0.58889540871E+02  0.64801222817E+02  0.00000000000E+00 0. -1.
         22    1    1    2    0    0  0.12942607747E+02  0.35067912855E+01 -0.59765008766E+02  0.61250836347E+02  0.00000000000E+00 0. -1.
</event>
<event>
 6    1  0.8017648E-006  0.1343396E+03  0.7818608E-02  0.1355579E+00
          2   -1    0    0  502    0  0.00000000000E+00  0.00000000000E+00  0.21236690553E+03  0.21236690553E+03  0.00000000000E+00 0.  1.
          1   -1    0    0  501    0 -0.00000000000E+00 -0.00000000000E+00 -0.14949307704E+03  0.14949307704E+03  0.00000000000E+00 0.  1.
          2    1    1    2  501    0  0.73646651780E+02 -0.19957490760E+02  0.55754256620E+02  0.94502211017E+02  0.00000000000E+00 0.  1.
          1    1    1    2  502    0 -0.11246042650E+03  0.44566258601E+02 -0.37647276162E+02  0.12669181638E+03  0.00000000000E+00 0.  1.
         22    1    1    2    0    0  0.44999399471E+02 -0.33323120721E+02  0.83471541911E+02  0.10051305704E+03  0.00000000000E+00 0.  1.
         22    1    1    2    0    0 -0.61856247499E+01  0.87143528795E+01 -0.38704693882E+02  0.40152898129E+02  0.00000000000E+00 0. -1.
</event>
<event>
 6    1  0.8017648E-006  0.1208256E+03  0.7818608E-02  0.1286671E+00
          2   -1    0    0  502    0  0.00000000000E+00  0.00000000000E+00  0.83131523162E+03  0.83131523162E+03  0.00000000000E+00 0.  1.
          1   -1    0    0  501    0 -0.00000000000E+00 -0.00000000000E+00 -0.53060504517E+02  0.53060504517E+02  0.00000000000E+00 0.  1.
          2    1    1    2  501    0  0.18444509153E+02  0.81935599488E+02  0.46260315685E+03  0.47016520831E+03  0.00000000000E+00 0.  1.
          1    1    1    2  502    0  0.11477719290E+02 -0.13023808221E+03  0.17593874009E+03  0.21919885119E+03  0.00000000000E+00 0.  1.
         22    1    1    2    0    0 -0.46864330359E+02  0.18128694624E+02 -0.84610171174E+00  0.50255655571E+02  0.00000000000E+00 0.  1.
         22    1    1    2    0    0  0.16942101916E+02  0.30173788094E+02  0.14055893187E+03  0.14475602107E+03  0.00000000000E+00 0.  1.
</event>
<event>
 6    1  0.8017648E-006  0.1146093E+03  0.7818608E-02  0.1340041E+00
          2   -1    0    0  502    0  0.00000000000E+00  0.00000000000E+00  0.65135470094E+03  0.65135470094E+03  0.00000000000E+00 0. -1.
          1   -1    0    0  501    0 -0.00000000000E+00 -0.00000000000E+00 -0.48466044033E+02  0.48466044033E+02  0.00000000000E+00 0.  1.
          2    1    1    2  501    0  0.28473771345E+02  0.86553132182E+01  0.44447162515E+03  0.44546682892E+03  0.00000000000E+00 0. -1.
          1    1    1    2  502    0  0.38122026980E+02 -0.42764023376E+01 -0.16858530023E+01  0.38398159570E+02  0.00000000000E+00 0.  1.
         22    1    1    2    0    0 -0.12581356130E+02  0.18599475569E+02 -0.17777599124E+02  0.28640426745E+02  0.00000000000E+00 0.  1.
         22    1    1    2    0    0 -0.54014442195E+02 -0.22978386450E+02  0.17788048388E+03  0.18731532974E+03  0.00000000000E+00 0.  1.
</event>
<event>
 6    1  0.8017648E-006  0.9172283E+02  0.7818608E-02  0.1329357E+00
          2   -1    0    0  502    0  0.00000000000E+00  0.00000000000E+00  0.22124813913E+03  0.22124813913E+03  0.00000000000E+00 0. -1.
          1   -1    0    0  501    0 -0.00000000000E+00 -0.00000000000E+00 -0.62157364290E+02  0.62157364290E+02  0.00000000000E+00 0. -1.
          2    1    1    2  501    0 -0.19946529714E+02  0.28282018233E+02 -0.12430592760E+02  0.36773036853E+02  0.00000000000E+00 0. -1.
          1    1    1    2  502    0  0.59776040285E+01 -0.35585078048E+02  0.82496950571E+02  0.90043191765E+02  0.00000000000E+00 0. -1.
         22    1    1    2    0    0  0.10091953140E+02  0.59955095729E+02  0.83806610824E+02  0.10353747650E+03  0.00000000000E+00 0. -1.
         22    1    1    2    0    0  0.38769725462E+01 -0.52652035915E+02  0.52178062092E+01  0.53051798308E+02  0.00000000000E+00 0. -1.
</event>
<event>
 6    1  0.8017648E-006  0.5621996E+02  0.7818608E-02  0.1479968E+00
          2   -1    0    0  502    0  0.00000000000E+00  0.00000000000E+00  0.13779659053E+03  0.13779659053E+03  0.00000000000E+00 0.  1.
          1   -1    0    0  501    0 -0.00000000000E+00 -0.00000000000E+00 -0.10736626323E+03  0.10736626323E+03  0.00000000000E+00 0. -1.
          2    1    1    2  501    0 -0.31334483920E+02  0.24029909242E+01  0.52370351791E+02  0.61076001790E+02  0.00000000000E+00 0.  1.
          1    1    1    2  502    0  0.46953112604E+02 -0.97936780281E+01  0.22771978817E+02  0.53094952037E+02  0.00000000000E+00 0. -1.
         22    1    1    2    0    0 -0.27327100153E+02 -0.10411000492E+02  0.36649613381E+02  0.46886602511E+02  0.00000000000E+00 0.  1.
         22    1    1    2    0    0  0.11708471469E+02  0.17801687596E+02 -0.81361616688E+02  0.84105297429E+02  0.00000000000E+00 0. -1.
</event>
<event>
 6    1  0.8017648E-006  0.7993572E+02  0.7818608E-02  0.1359895E+00
          2   -1    0    0  502    0  0.00000000000E+00  0.00000000000E+00  0.51655986129E+03  0.51655986129E+03  0.00000000000E+00 0. -1.
          1   -1    0    0  501    0 -0.00000000000E+00 -0.00000000000E+00 -0.41847004571E+02  0.41847004571E+02  0.00000000000E+00 0. -1.
          2    1    1    2  501    0  0.28432531173E+02 -0.24316860575E+02  0.18801106005E+03  0.19169735845E+03  0.00000000000E+00 0. -1.
          1    1    1    2  502    0 -0.40274682687E+02  0.79329395784E+02  0.12449719207E+03  0.15301880255E+03  0.00000000000E+00 0. -1.
         22    1    1    2    0    0  0.38476513198E+02 -0.16088332425E+02  0.16120863573E+03  0.16651576725E+03  0.00000000000E+00 0. -1.
         22    1    1    2    0    0 -0.26634361684E+02 -0.38924202784E+02  0.99596887309E+00  0.47174937612E+02  0.00000000000E+00 0. -1.
</event>
<event>
 6    1  0.8017648E-006  0.2692410E+02  0.7818608E-02  0.1721786E+00
          2   -1    0    0  502    0  0.00000000000E+00  0.00000000000E+00  0.42339557115E+03  0.42339557115E+03  0.00000000000E+00 0. -1.
          1   -1    0    0  501    0 -0.00000000000E+00 -0.00000000000E+00 -0.49428349755E+02  0.49428349755E+02  0.00000000000E+00 0. -1.
          2    1    1    2  501    0 -0.23971425457E+02  0.20790489739E+01  0.19682486209E+03  0.19829013596E+03  0.00000000000E+00 0. -1.
          1    1    1    2  502    0 -0.15486954026E+02 -0.13541237490E+02 -0.24092976606E+02  0.31680946632E+02  0.00000000000E+00 0. -1.
         22    1    1    2    0    0  0.31962091449E+02  0.18703455560E+02  0.21907973050E+03  0.22218758484E+03  0.00000000000E+00 0.  1.
         22    1    1    2    0    0  0.74962880331E+01 -0.72412670443E+01 -0.17844394592E+02  0.20665253472E+02  0.00000000000E+00 0.  1.
</event>
<event>
 6    1  0.8017648E-006  0.7107452E+02  0.7818608E-02  0.1428677E+00
          2   -1    0    0  502    0  0.00000000000E+00  0.00000000000E+00  0.31313534689E+03  0.31313534689E+03  0.00000000000E+00 0. -1.
          1   -1    0    0  501    0 -0.00000000000E+00 -0.00000000000E+00 -0.49980396493E+02  0.49980396493E+02  0.00000000000E+00 0. -1.
          2    1    1    2  501    0 -0.54715470088E+01 -0.38677768435E+02  0.98009450957E+02  0.10550715651E+03  0.00000000000E+00 0. -1.
          1    1    1    2  502    0  0.17333874792E+02  0.52743024984E+02  0.92130770157E+02  0.10756564837E+03  0.00000000000E+00 0. -1.
         22    1    1    2    0    0 -0.33188151882E+02 -0.20769586774E+02  0.10440596597E+03  0.11150531328E+03  0.00000000000E+00 0. -1.
         22    1    1    2    0    0  0.21325824099E+02  0.67043302255E+01 -0.31391236684E+02  0.38537625223E+02  0.00000000000E+00 0. -1.
</event>
<event>
 6    1  0.8017648E-006  0.9101060E+02  0.7818608E-02  0.1370504E+00
          2   -1    0    0  502    0  0.00000000000E+00  0.00000000000E+00  0.32509582812E+03  0.32509582812E+03  0.00000000000E+00 0.  1.
          1   -1    0    0  501    0 -0.00000000000E+00 -0.00000000000E+00 -0.22002375052E+03  0.22002375052E+03  0.00000000000E+00 0. -1.
          2    1    1    2  501    0 -0.49685015234E+02  0.33341753203E+02  0.24081953017E+03  0.24814173239E+03  0.00000000000E+00 0.  1.
          1    1    1    2  502    0  0.70552328454E+02 -0.10757594153E+02 -0.14766232130E+03  0.16400462802E+03  0.00000000000E+00 0. -1.
         22    1    1    2    0    0  0.80104761746E+01 -0.25548461788E+02 -0.54372799004E+02  0.60607696704E+02  0.00000000000E+00 0. -1.
         22    1    1    2    0    0 -0.28877789395E+02  0.29643027377E+01  0.66287667732E+02  0.72365521516E+02  0.00000000000E+00 0.  1.
</event>
<event>
 6    1  0.8017648E-006  0.1571138E+03  0.7818608E-02  0.1293984E+00
          2   -1    0    0  502    0  0.00000000000E+00  0.00000000000E+00  0.58674436402E+03  0.58674436402E+03  0.00000000000E+00 0. -1.
          1   -1    0    0  501    0 -0.00000000000E+00 -0.00000000000E+00 -0.49301118112E+02  0.49301118112E+02  0.00000000000E+00 0. -1.
          2    1    1    2  501    0 -0.10064185825E+02 -0.20866159643E+02  0.12630762149E+02  0.26385992630E+02  0.00000000000E+00 0. -1.
          1    1    1    2  502    0  0.10757145224E+03  0.86179028103E+02  0.21837576222E+03  0.25823713085E+03  0.00000000000E+00 0. -1.
         22    1    1    2    0    0 -0.41394295864E+01  0.19495210518E+02 -0.12011429414E+00  0.19930191617E+02  0.00000000000E+00 0.  1.
         22    1    1    2    0    0 -0.93367836828E+02 -0.84808078977E+02  0.30655683583E+03  0.33149216704E+03  0.00000000000E+00 0. -1.
</event>
<event>
 6    1  0.8017648E-006  0.6460036E+02  0.7818608E-02  0.1412841E+00
          2   -1    0    0  502    0  0.00000000000E+00  0.00000000000E+00  0.42807572428E+03  0.42807572428E+03  0.00000000000E+00 0.  1.
          1   -1    0    0  501    0 -0.00000000000E+00 -0.00000000000E+00 -0.69222132322E+02  0.69222132322E+02  0.00000000000E+00 0. -1.
          2    1    1    2  501    0  0.47622180828E+02  0.16874602752E+02  0.30127184525E+03  0.30547888481E+03  0.00000000000E+00 0.  1.
          1    1    1    2  502    0 -0.21560435510E+02 -0.38354089842E+02 -0.51911911999E+01  0.44303916904E+02  0.00000000000E+00 0. -1.
         22    1    1    2    0    0 -0.36996605155E+02  0.85558016602E+01 -0.32968827947E+02  0.50288111430E+02  0.00000000000E+00 0. -1.
         22    1    1    2    0    0  0.10934859837E+02  0.12923685429E+02  0.95741765857E+02  0.97226943458E+02  0.00000000000E+00 0.  1.
</event>
<event>
 6    1  0.8017648E-006  0.6852504E+02  0.7818608E-02  0.1432097E+00
          2   -1    0    0  502    0  0.00000000000E+00  0.00000000000E+00  0.32502794756E+03  0.32502794756E+03  0.00000000000E+00 0.  1.
          1   -1    0    0  501    0 -0.00000000000E+00 -0.00000000000E+00 -0.45665973776E+02  0.45665973776E+02  0.00000000000E+00 0.  1.
          2    1    1    2  501    0  0.27014629444E+02  0.26552252104E+02  0.13046857890E+03  0.13585603548E+03  0.00000000000E+00 0.  1.
          1    1    1    2  502    0  0.14083011745E+01 -0.37314497559E+02  0.87451388563E+02  0.95089959522E+02  0.00000000000E+00 0.  1.
         22    1    1    2    0    0 -0.67435804660E+01 -0.22703944787E+02 -0.31035357946E+02  0.39040215538E+02  0.00000000000E+00 0.  1.
         22    1    1    2    0    0 -0.21679350152E+02  0.33466190241E+02  0.92477364267E+02  0.10070771080E+03  0.00000000000E+00 0.  1.
</event>
<event>
 6    1  0.8017648E-006  0.1364279E+03  0.7818608E-02  0.1299878E+00
          2   -1    0    0  502    0  0.00000000000E+00  0.00000000000E+00  0.79674909371E+03  0.79674909371E+03  0.00000000000E+00 0. -1.
          1   -1    0    0  501    0 -0.00000000000E+00 -0.00000000000E+00 -0.46150178575E+02  0.46150178575E+02  0.00000000000E+00 0.  1.
          2    1    1    2  501    0  0.44820787405E+02 -0.34607877600E+02  0.29498757402E+03  0.30037356243E+03  0.00000000000E+00 0. -1.
          1    1    1    2  502    0 -0.46505751633E+02  0.11286539868E+03  0.97846625736E+02  0.15644598212E+03  0.00000000000E+00 0.  1.
         22    1    1    2    0    0  0.28911655726E+02 -0.76388644359E+02  0.34742376008E+03  0.35689547194E+03  0.00000000000E+00 0. -1.
         22    1    1    2    0    0 -0.27226691498E+02 -0.18688767232E+01  0.10340955302E+02  0.29184255802E+02  0.00000000000E+00 0.  1.
</event>
<event>
 6    1  0.8017648E-006  0.1503413E+03  0.7818608E-02  0.1334665E+00
          2   -1    0    0  502    0  0.00000000000E+00  0.00000000000E+00  0.37796719441E+03  0.37796719441E+03  0.00000000000E+00 0. -1.
          1   -1    0    0  501    0 -0.00000000000E+00 -0.00000000000E+00 -0.17238453660E+03  0.17238453660E+03  0.00000000000E+00 0. -1.
          2    1    1    2  501    0  0.11117223466E+03 -0.93505086263E+01  0.10767292875E+03  0.15504888699E+03  0.00000000000E+00 0. -1.
          1    1    1    2  502    0 -0.42169564116E+02 -0.13126281735E+03  0.13050820492E+03  0.18984359591E+03  0.00000000000E+00 0. -1.
         22    1    1    2    0    0  0.81060624279E+01 -0.73218848850E+01  0.26350985582E+02  0.28525299078E+02  0.00000000000E+00 0.  1.
         22    1    1    2    0    0 -0.77108732973E+02  0.14793521087E+03 -0.58949461449E+02  0.17693394903E+03  0.00000000000E+00 0. -1.
</event>
<event>
 6    1  0.8017648E-006  0.9608703E+02  0.7818608E-02  0.1391459E+00
          2   -1    0    0  502    0  0.00000000000E+00  0.00000000000E+00  0.43092701201E+03  0.43092701201E+03  0.00000000000E+00 0. -1.
          1   -1    0    0  501    0 -0.00000000000E+00 -0.00000000000E+00 -0.50292142603E+02  0.50292142603E+02  0.00000000000E+00 0. -1.
          2    1    1    2  501    0 -0.81199939691E+02  0.28851341000E+02  0.98254492071E+02  0.13068961434E+03  0.00000000000E+00 0. -1.
          1    1    1    2  502    0 -0.92759744145E+01  0.33310244071E+02  0.72706581379E+02  0.80510018241E+02  0.00000000000E+00 0. -1.
         22    1    1    2    0    0  0.78205284183E+02 -0.72696685760E+02  0.22417037861E+03  0.24830069118E+03  0.00000000000E+00 0. -1.
         22    1    1    2    0    0  0.12270629923E+02  0.10535100689E+02 -0.14496582650E+02  0.21718830856E+02  0.00000000000E+00 0.  1.
</event>
<event>
 6    1  0.8017648E-006  0.1935256E+03  0.7818608E-02  0.1223492E+00
          2   -1    0    0  502    0  0.00000000000E+00  0.00000000000E+00  0.11093725586E+03  0.11093725586E+03  0.00000000000E+00 0. -1.
          1   -1    0    0  501    0 -0.00000000000E+00 -0.00000000000E+00 -0.60942994602E+03  0.60942994602E+03  0.00000000000E+00 0. -1.
          2    1    1    2  501    0 -0.12833912782E+03 -0.87536997886E+02 -0.71979399388E+02  0.17121533712E+03  0.00000000000E+00 0. -1.
          1    1    1    2  502    0  0.14556451333E+03  0.13412537949E+03 -0.18163078285E+03  0.26864174330E+03  0.00000000000E+00 0. -1.
         22    1    1    2    0    0  0.13642282911E+02 -0.40560264858E+02 -0.24535192487E+03  0.24905584516E+03  0.00000000000E+00 0. -1.
         22    1    1    2    0    0 -0.30867668422E+02 -0.60281167499E+01  0.46941695181E+00  0.31454276301E+02  0.00000000000E+00 0.  1.
</event>
<event>
 6    1  0.8017648E-006  0.1279221E+03  0.7818608E-02  0.1358751E+00
          2   -1    0    0  502    0  0.00000000000E+00  0.00000000000E+00  0.79057155022E+03  0.79057155022E+03  0.00000000000E+00 0.  1.
          1   -1    0    0  501    0 -0.00000000000E+00 -0.00000000000E+00 -0.33297479224E+02  0.33297479224E+02  0.00000000000E+00 0.  1.
          2    1    1    2  501    0  0.21402857923E+02 -0.14350598635E+02  0.98293447420E+02  0.10161507671E+03  0.00000000000E+00 0.  1.
          1    1    1    2  502    0 -0.14736908909E+01  0.10848725313E+03  0.12055994076E+03  0.16219234006E+03  0.00000000000E+00 0.  1.
         22    1    1    2    0    0 -0.31328417152E+02 -0.96909844939E+02  0.53878247568E+03  0.54832430538E+03  0.00000000000E+00 0.  1.
         22    1    1    2    0    0  0.11399250119E+02  0.27731904460E+01 -0.36179287250E+00  0.11737307298E+02  0.00000000000E+00 0.  1.
</event>
<event>
 6    1  0.8017648E-006  0.4124678E+03  0.7818608E-02  0.1170218E+00
          2   -1    0    0  502    0  0.00000000000E+00  0.00000000000E+00  0.28450909448E+03  0.28450909448E+03  0.00000000000E+00 0.  1.
          1   -1    0    0  501    0 -0.00000000000E+00 -0.00000000000E+00 -0.31869785058E+03  0.31869785058E+03  0.00000000000E+00 0.  1.
          2    1    1    2  501    0 -0.12523029617E+02 -0.15903414649E+02 -0.15053967343E+03  0.15189449675E+03  0.00000000000E+00 0.  1.
          1    1    1    2  502    0 -0.47717618248E+02  0.31462832063E+02 -0.14509478475E+03  0.15594671351E+03  0.00000000000E+00 0.  1.
         22    1    1    2    0    0  0.55605291036E+02 -0.28933081601E+02  0.27108720921E+03  0.27823972865E+03  0.00000000000E+00 0.  1.
         22    1    1    2    0    0  0.46353568296E+01  0.13373664187E+02 -0.96415071345E+01  0.17126006147E+02  0.00000000000E+00 0. -1.
</event>
<event>
 6    1  0.8017648E-006  0.6035024E+02  0.7818608E-02  0.1494722E+00
          2   -1    0    0  502    0  0.00000000000E+00  0.00000000000E+00  0.34183117365E+03  0.34183117365E+03  0.00000000000E+00 0. -1.
          1   -1    0    0  501    0 -0.00000000000E+00 -0.00000000000E+00 -0.10203263501E+03  0.10203263501E+03  0.00000000000E+00 0. -1.
          2    1    1    2  501    0 -0.61351852416E+01  0.40227608074E+02  0.25682261819E+03  0.26002645666E+03  0.00000000000E+00 0. -1.
          1    1    1    2  502    0  0.10479500631E+02 -0.43523838635E+02 -0.34024396414E+02  0.56229920988E+02  0.00000000000E+00 0. -1.
         22    1    1    2    0    0 -0.87042283345E+01  0.16614423926E+02  0.70164025328E+02  0.72627771021E+02  0.00000000000E+00 0.  1.
         22    1    1    2    0    0  0.43599129454E+01 -0.13318193365E+02 -0.53163708461E+02  0.54979659991E+02  0.00000000000E+00 0. -1.
</event>
<event>
 6    1  0.8017648E-006  0.2555916E+03  0.7818608E-02  0.1208251E+00
          2   -1    0    0  502    0  0.00000000000E+00  0.00000000000E+00  0.10782459949E+03  0.10782459949E+03  0.00000000000E+00 0. -1.
          1   -1    0    0  501    0 -0.00000000000E+00 -0.00000000000E+00 -0.57570065283E+03  0.57570065283E+03  0.00000000000E+00 0. -1.
          2    1    1    2  501    0  0.88944116012E+02 -0.12602403391E+03 -0.72331669565E+01  0.15441966067E+03  0.00000000000E+00 0. -1.
          1    1    1    2  502    0 -0.21216433999E+02  0.10809118563E+03 -0.25609736306E+03  0.27878253325E+03  0.00000000000E+00 0. -1.
         22    1    1    2    0    0  0.22192866732E+02  0.12838870831E+02 -0.13258405651E+03  0.13504033464E+03  0.00000000000E+00 0. -1.
         22    1    1    2    0    0 -0.89920548744E+02  0.50939774519E+01 -0.71961466817E+02  0.11528272377E+03  0.00000000000E+00 0.  1.
</event>
<event>
 6    1  0.8017648E-006  0.8004558E+02  0.7818608E-02  0.1416017E+00
          2   -1    0    0  502    0  0.00000000000E+00  0.00000000000E+00  0.83187308723E+03  0.83187308723E+03  0.00000000000E+00 0.  1.
          1   -1    0    0  501    0 -0.00000000000E+00 -0.00000000000E+00 -0.22958841014E+03  0.22958841014E+03  0.00000000000E+00 0. -1.
          2    1    1    2  501    0  0.46616805186E+02 -0.11474948417E+03  0.77421059991E+03  0.78405524274E+03  0.00000000000E+00 0.  1.
          1    1    1    2  502    0 -0.21060111146E+02  0.84594423912E+02 -0.59382323221E+02  0.10547988031E+03  0.00000000000E+00 0. -1.
         22    1    1    2    0    0 -0.25785493551E+02  0.41798484169E+02 -0.13662112923E+03  0.14518036337E+03  0.00000000000E+00 0. -1.
         22    1    1    2    0    0  0.22879951146E+00 -0.11643423907E+02  0.24077529620E+02  0.26746010957E+02  0.00000000000E+00 0.  1.
</event>
<event>
 6    1  0.8017648E-006  0.2977508E+03  0.7818608E-02  0.1130938E+00
          2   -1    0    0  502    0  0.00000000000E+00  0.00000000000E+00  0.11603059837E+04  0.11603059837E+04  0.00000000000E+00 0.  1.
          1   -1    0    0  501    0 -0.00000000000E+00 -0.00000000000E+00 -0.25752079418E+03  0.25752079418E+03  0.00000000000E+00 0. -1.
          2    1    1    2  501    0  0.22865911102E+03 -0.11729081203E+03  0.76886408595E+03  0.81067509294E+03  0.00000000000E+00 0.  1.
          1    1    1    2  502    0 -0.31012242885E+03  0.19494055210E+03 -0.35713989384E+02  0.36803971086E+03  0.00000000000E+00 0. -1.
         22    1    1    2    0    0  0.50355191209E+02 -0.80992680441E+02  0.36121488074E+02  0.10198147610E+03  0.00000000000E+00 0.  1.
         22    1    1    2    0    0  0.31108126622E+02  0.33429403674E+01  0.13351360483E+03  0.13713049795E+03  0.00000000000E+00 0. -1.
</event>
<event>
 6    1  0.8017648E-006  0.1927521E+03  0.7818608E-02  0.1247762E+00
          2   -1    0    0  502    0  0.00000000000E+00  0.00000000000E+00  0.71724731084E+03  0.71724731084E+03  0.00000000000E+00 0.  1.
          1   -1    0    0  501    0 -0.00000000000E+00 -0.00000000000E+00 -0.81533781416E+02  0.81533781416E+02  0.00000000000E+00 0.  1.
          2    1    1    2  501    0 -0.23620367945E+02  0.33252921978E+02  0.12864743703E+02  0.42768916663E+02  0.00000000000E+00 0.  1.
          1    1    1    2  502    0 -0.99273946117E+01 -0.20444489851E+03  0.22788857770E+03  0.30631597010E+03  0.00000000000E+00 0.  1.
         22    1    1    2    0    0 -0.26332564110E+02 -0.12052305369E+01  0.94914722803E+02  0.98507162775E+02  0.00000000000E+00 0. -1.
         22    1    1    2    0    0  0.59880326667E+02  0.17239720707E+03  0.30004548522E+03  0.35118904272E+03  0.00000000000E+00 0.  1.
</event>
<event>
 6    1  0.1019118E-005  0.1097811E+03  0.7818608E-02  0.1394713E+00
          2   -1    0    0  502    0  0.00000000000E+00  0.00000000000E+00  0.45923033024E+03  0.45923033024E+03  0.00000000000E+00 0. -1.
          1   -1    0    0  501    0 -0.00000000000E+00 -0.00000000000E+00 -0.33004622918E+03  0.33004622918E+03  0.00000000000E+00 0. -1.
          2    1    1    2  501    0  0.26632432578E+01  0.90848372664E+02  0.34984083638E+03  0.36145418863E+03  0.00000000000E+00 0. -1.
          1    1    1    2  502    0  0.21387587566E+02 -0.97709735188E+02 -0.27226220406E+03  0.29005401051E+03  0.00000000000E+00 0. -1.
         22    1    1    2    0    0 -0.14679518720E+02  0.11121368376E+02  0.93157345034E+02  0.94960328759E+02  0.00000000000E+00 0. -1.
         22    1    1    2    0    0 -0.93713121041E+01 -0.42600058517E+01 -0.41551876282E+02  0.42808031524E+02  0.00000000000E+00 0. -1.
</event>
<event>
 6    1  0.8017648E-006  0.4973379E+02  0.7818608E-02  0.1526003E+00
          2   -1    0    0  502    0  0.00000000000E+00  0.00000000000E+00  0.20121905395E+03  0.20121905395E+03  0.00000000000E+00 0. -1.
          1   -1    0    0  501    0 -0.00000000000E+00 -0.00000000000E+00 -0.84441843905E+02  0.84441843905E+02  0.00000000000E+00 0.  1.
          2    1    1    2  501    0  0.18670199320E+02  0.12667113703E+02  0.91705225030E+02  0.94439824280E+02  0.00000000000E+00 0. -1.
          1    1    1    2  502    0 -0.45884632452E+02 -0.30691022436E+02 -0.82244608533E+00  0.55208828741E+02  0.00000000000E+00 0.  1.
         22    1    1    2    0    0  0.11665113193E+02  0.23201550476E+02  0.77569257531E+02  0.81800834496E+02  0.00000000000E+00 0. -1.
         22    1    1    2    0    0  0.15549319939E+02 -0.51776417430E+01 -0.51674826429E+02  0.54211410340E+02  0.00000000000E+00 0.  1.
</event>
<event>
 6    1  0.8017648E-006  0.4981512E+02  0.7818608E-02  0.1473587E+00
          2   -1    0    0  502    0  0.00000000000E+00  0.00000000000E+00  0.28003077052E+03  0.28003077052E+03  0.00000000000E+00 0.  1.
          1   -1    0    0  501    0 -0.00000000000E+00 -0.00000000000E+00 -0.48681455218E+02  0.48681455218E+02  0.00000000000E+00 0.  1.
          2    1    1    2  501    0  0.26308641135E+02 -0.15001168948E+02  0.14743216321E+03  0.15051053922E+03  0.00000000000E+00 0.  1.
          1    1    1    2  502    0 -0.24777066273E+02  0.57259938813E+01 -0.22996893089E+01  0.25533871425E+02  0.00000000000E+00 0.  1.
         22    1    1    2    0    0 -0.94417633989E+01  0.32173222805E+02 -0.23088207221E+02  0.40710299366E+02  0.00000000000E+00 0.  1.
         22    1    1    2    0    0  0.79101885366E+01 -0.22898047739E+02  0.10930504862E+03  0.11195751573E+03  0.00000000000E+00 0.  1.
</event>
<event>
 6    1  0.8017648E-006  0.4157940E+02  0.7818608E-02  0.1529920E+00
          2   -1    0    0  502    0  0.00000000000E+00  0.00000000000E+00  0.20443382107E+03  0.20443382107E+03  0.00000000000E+00 0.  1.
          1   -1    0    0  501    0 -0.00000000000E+00 -0.00000000000E+00 -0.17213450743E+03  0.17213450743E+03  0.00000000000E+00 0.  1.
          2    1    1    2  501    0  0.13921753687E+02  0.27554879793E+02  0.13200246552E+03  0.13556451427E+03  0.00000000000E+00 0.  1.
          1    1    1    2  502    0 -0.81880662162E+01 -0.56471550863E+02 -0.91666399122E+02  0.10797596591E+03  0.00000000000E+00 0.  1.
         22    1    1    2    0    0  0.80131084542E+01  0.61098336263E+01  0.59543574176E+02  0.60390207813E+02  0.00000000000E+00 0.  1.
         22    1    1    2    0    0 -0.13746795925E+02  0.22806837444E+02 -0.67580326930E+02  0.72637640520E+02  0.00000000000E+00 0.  1.
</event>
<event>
 6    1  0.8017648E-006  0.1599799E+03  0.7818608E-02  0.1297334E+00
          2   -1    0    0  502    0  0.00000000000E+00  0.00000000000E+00  0.30046254360E+03  0.30046254360E+03  0.00000000000E+00 0. -1.
          1   -1    0    0  501    0 -0.00000000000E+00 -0.00000000000E+00 -0.11253630909E+03  0.11253630909E+03  0.00000000000E+00 0. -1.
          2    1    1    2  501    0  0.25652696303E+02  0.86747137796E+02  0.89712342475E+02  0.12740263394E+03  0.00000000000E+00 0. -1.
          1    1    1    2  502    0 -0.82333848245E+02 -0.10466336631E+03  0.56779132045E+02  0.14476585457E+03  0.00000000000E+00 0. -1.
         22    1    1    2    0    0  0.70819248501E+02  0.28631213078E+02  0.72333714428E+02  0.10520113385E+03  0.00000000000E+00 0. -1.
         22    1    1    2    0    0 -0.14138096559E+02 -0.10714984566E+02 -0.30898954440E+02  0.35629230332E+02  0.00000000000E+00 0.  1.
</event>
<event>
 6    1  0.8017648E-006  0.3822794E+03  0.7818608E-02  0.1131909E+00
          2   -1    0    0  502    0  0.00000000000E+00  0.00000000000E+00  0.81339019320E+03  0.81339019320E+03  0.00000000000E+00 0. -1.
          1   -1    0    0  501    0 -0.00000000000E+00 -0.00000000000E+00 -0.43401747975E+03  0.43401747975E+03  0.00000000000E+00 0. -1.
          2    1    1    2  501    0  0.10884210583E+03 -0.37667126306E+03  0.60971288117E+03  0.72489836659E+03  0.00000000000E+00 0. -1.
          1    1    1    2  502    0 -0.12593915284E+03  0.27231070748E+03 -0.17752001960E+03  0.34860744253E+03  0.00000000000E+00 0. -1.
         22    1    1    2    0    0  0.29833647490E+02  0.32347022768E+02  0.37409857384E+02  0.57757024110E+02  0.00000000000E+00 0. -1.
         22    1    1    2    0    0 -0.12736600474E+02  0.72013532819E+02 -0.90230005503E+02  0.11614483972E+03  0.00000000000E+00 0. -1.
</event>
<event>
 6    1  0.8017648E-006  0.3654236E+02  0.7818608E-02  0.1612098E+00
          2   -1    0    0  502    0  0.00000000000E+00  0.00000000000E+00  0.13655375521E+03  0.13655375521E+03  0.00000000000E+00 0. -1.
          1   -1    0    0  501    0 -0.00000000000E+00 -0.00000000000E+00 -0.11474490530E+03  0.11474490530E+03  0.00000000000E+00 0.  1.
          2    1    1    2  501    0  0.18556283000E+02  0.26456606159E+02  0.41612507417E+02  0.52686700616E+02  0.00000000000E+00 0. -1.
          1    1    1    2  502    0 -0.47070623964E+02 -0.30846858879E+02 -0.42339157673E+02  0.70425681506E+02  0.00000000000E+00 0.  1.
         22    1    1    2    0    0 -0.56674631265E+01  0.11897954310E+02  0.68870444577E+02  0.70120037017E+02  0.00000000000E+00 0. -1.
         22    1    1    2    0    0  0.34181804090E+02 -0.75077015898E+01 -0.46334944409E+02  0.58066241375E+02  0.00000000000E+00 0.  1.
</event>
<event>
 6    1  0.8017648E-006  0.1483198E+03  0.7818608E-02  0.1205463E+00
          2   -1    0    0  502    0  0.00000000000E+00  0.00000000000E+00  0.41576751790E+03  0.41576751790E+03  0.00000000000E+00 0. -1.
          1   -1    0    0  501    0 -0.00000000000E+00 -0.00000000000E+00 -0.24354275930E+03  0.24354275930E+03  0.00000000000E+00 0. -1.
          2    1    1    2  501    0 -0.69380760859E+02 -0.66250544383E+02  0.14491972993E+03  0.17379457049E+03  0.00000000000E+00 0. -1.
          1    1    1    2  502    0 -0.43706001720E+02  0.10622281687E+03  0.20772061663E+03  0.23736334170E+03  0.00000000000E+00 0. -1.
         22    1    1    2    0    0 -0.10627049212E+02  0.24043007585E+02 -0.10176909770E+02  0.28188115956E+02  0.00000000000E+00 0. -1.
         22    1    1    2    0    0  0.12371381179E+03 -0.64015280070E+02 -0.17023867819E+03  0.21996424905E+03  0.00000000000E+00 0. -1.
</event>
<event>
 6    1  0.8017648E-006  0.8594695E+02  0.7818608E-02  0.1438603E+00
          2   -1    0    0  502    0  0.00000000000E+00  0.00000000000E+00  0.11862957628E+03  0.11862957628E+03  0.00000000000E+00 0. -1.
          1   -1    0    0  501    0 -0.00000000000E+00 -0.00000000000E+00 -0.27455314410E+03  0.27455314410E+03  0.00000000000E+00 0. -1.
          2    1    1    2  501    0 -0.28310746742E+02  0.88224727089E+01  0.50465431257E+02  0.58532846828E+02  0.00000000000E+00 0. -1.
          1    1    1    2  502    0  0.73736726510E+02  0.90900971917E+00 -0.19114338018E+03  0.20487489578E+03  0.00000000000E+00 0. -1.
         22    1    1    2    0    0  0.46396959770E+01  0.98460492567E+01 -0.59288579921E+02  0.60279409202E+02  0.00000000000E+00 0.  1.
         22    1    1    2    0    0 -0.50065675745E+02 -0.19577531685E+02  0.44042961020E+02  0.69495568564E+02  0.00000000000E+00 0. -1.
</event>
<event>
 6    1  0.8017648E-006  0.4722986E+02  0.7818608E-02  0.1515423E+00
          2   -1    0    0  502    0  0.00000000000E+00  0.00000000000E+00  0.62823580377E+02  0.62823580377E+02  0.00000000000E+00 0. -1.
          1   -1    0    0  501    0 -0.00000000000E+00 -0.00000000000E+00 -0.36740050496E+03  0.36740050496E+03  0.00000000000E+00 0.  1.
          2    1    1    2  501    0  0.16153750806E+02 -0.19355588613E+02  0.22966711750E+02  0.34103552957E+02  0.00000000000E+00 0. -1.
          1    1    1    2  502    0 -0.53215201708E+02  0.16080352291E+02 -0.22477192434E+03  0.23154449550E+03  0.00000000000E+00 0.  1.
         22    1    1    2    0    0  0.17817256899E+02  0.12975427207E+02 -0.12886356245E+03  0.13073497651E+03  0.00000000000E+00 0.  1.
         22    1    1    2    0    0  0.19244194004E+02 -0.97001908837E+01  0.26091850468E+02  0.33841060369E+02  0.00000000000E+00 0. -1.
</event>
<event>
 6    1  0.8017648E-006  0.9237941E+02  0.7818608E-02  0.1333730E+00
          2   -1    0    0  502    0  0.00000000000E+00  0.00000000000E+00  0.22486960853E+03  0.22486960853E+03  0.00000000000E+00 0.  1.
          1   -1    0    0  501    0 -0.00000000000E+00 -0.00000000000E+00 -0.66512755664E+03  0.66512755664E+03  0.00000000000E+00 0. -1.
          2    1    1    2  501    0  0.24148662032E+02 -0.76184377673E+02  0.18763181201E+03  0.20394340921E+03  0.00000000000E+00 0.  1.
          1    1    1    2  502    0 -0.20687262969E+02  0.13359953302E+03 -0.35402232706E+03  0.37895726161E+03  0.00000000000E+00 0. -1.
         22    1    1    2    0    0  0.20233782328E+01 -0.98716973097E+01  0.12896383819E+02  0.16366465191E+02  0.00000000000E+00 0. -1.
         22    1    1    2    0    0 -0.54847772960E+01 -0.47543458033E+02 -0.28676381688E+03  0.29073002916E+03  0.00000000000E+00 0. -1.
</event>
<event>
 6    1  0.8017648E-006  0.4654734E+02  0.7818608E-02  0.1532302E+00
          2   -1    0    0  502    0  0.00000000000E+00  0.00000000000E+00  0.29747651406E+03  0.29747651406E+03  0.00000000000E+00 0.  1.
          1   -1    0    0  501    0 -0.00000000000E+00 -0.00000000000E+00 -0.75712339205E+02  0.75712339205E+02  0.00000000000E+00 0. -1.
          2    1    1    2  501    0  0.20040343347E+02  0.13570897832E+02  0.18910187643E+03  0.19064444471E+03  0.00000000000E+00 0.  1.
          1    1    1    2  502    0 -0.46008935379E+02 -0.20037959310E+01  0.21220566561E+02  0.50706506269E+02  0.00000000000E+00 0. -1.
         22    1    1    2    0    0  0.74938286625E+01 -0.16798564915E+02 -0.57448687432E+02  0.60321645691E+02  0.00000000000E+00 0. -1.
         22    1    1    2    0    0  0.18474763369E+02  0.52314630136E+01  0.68890419299E+02  0.71516256599E+02  0.00000000000E+00 0.  1.
</event>
<event>
 6    1  0.8017648E-006  0.1210372E+03  0.7818608E-02  0.1344731E+00
          2   -1    0    0  502    0  0.00000000000E+00  0.00000000000E+00  0.53318282551E+03  0.53318282551E+03  0.00000000000E+00 0. -1.
          1   -1    0    0  501    0 -0.00000000000E+00 -0.00000000000E+00 -0.32657379808E+02  0.32657379808E+02  0.00000000000E+00 0. -1.
          2    1    1    2  501    0  0.10444502876E+00  0.22784596527E+02  0.18927166095E+02  0.29620708365E+02  0.00000000000E+00 0. -1.
          1    1    1    2  502    0  0.65894919247E+02 -0.43903257997E+02  0.95314741692E+02  0.12391342312E+03  0.00000000000E+00 0. -1.
         22    1    1    2    0    0 -0.70272131669E+02  0.38173390704E+02  0.38653644313E+03  0.39472243680E+03  0.00000000000E+00 0. -1.
         22    1    1    2    0    0  0.42727673929E+01 -0.17054729234E+02 -0.25290521021E+00  0.17583637038E+02  0.00000000000E+00 0. -1.
</event>
<event>
 6    1  0.8017648E-006  0.3806304E+03  0.7818608E-02  0.1141784E+00
          2   -1    0    0  502    0  0.00000000000E+00  0.00000000000E+00  0.27547324426E+03  0.27547324426E+03  0.00000000000E+00 0.  1.
          1   -1    0    0  501    0 -0.00000000000E+00 -0.00000000000E+00 -0.18250081958E+04  0.18250081958E+04  0.00000000000E+00 0. -1.
          2    1    1    2  501    0  0.71618677405E+02 -0.39757653214E+03 -0.16457859839E+03  0.43621376515E+03  0.00000000000E+00 0.  1.
          1    1    1    2  502    0  0.32520793463E+03  0.14847111323E+03 -0.94365231314E+03  0.10091003718E+04  0.00000000000E+00 0. -1.
         22    1    1    2    0    0 -0.54047831251E+01  0.34663407883E+02 -0.53112997448E+02  0.63653389734E+02  0.00000000000E+00 0.  1.
         22    1    1    2    0    0 -0.39142182891E+03  0.21444201102E+03 -0.38819104257E+03  0.59151391342E+03  0.00000000000E+00 0.  1.
</event>
<event>
 6    1  0.8017648E-006  0.1174875E+03  0.7818608E-02  0.1293354E+00
          2   -1    0    0  502    0  0.00000000000E+00  0.00000000000E+00  0.83609767291E+02  0.83609767291E+02  0.00000000000E+00 0.  1.
          1   -1    0    0  501    0 -0.00000000000E+00 -0.00000000000E+00 -0.43110611990E+03  0.43110611990E+03  0.00000000000E+00 0. -1.
          2    1    1    2  501    0 -0.59673337626E+02  0.18162564565E+02 -0.16560051779E+02  0.64536976145E+02  0.00000000000E+00 0.  1.
          1    1    1    2  502    0  0.12068859747E+03 -0.83588951087E+02 -0.11114912663E+03  0.18413847684E+03  0.00000000000E+00 0. -1.
         22    1    1    2    0    0 -0.31807344375E+02  0.27052968155E+02 -0.75570931033E+00  0.41762918226E+02  0.00000000000E+00 0. -1.
         22    1    1    2    0    0 -0.29207915464E+02  0.38373418366E+02 -0.21903146488E+03  0.22427751597E+03  0.00000000000E+00 0.  1.
</event>
<event>
 6    1  0.8964911E-006  0.1961629E+03  0.7818608E-02  0.1275154E+00
          2   -1    0    0  502    0  0.00000000000E+00  0.00000000000E+00  0.90583098813E+03  0.90583098813E+03  0.00000000000E+00 0.  1.
          1   -1    0    0  501    0 -0.00000000000E+00 -0.00000000000E+00 -0.42381087061E+03  0.42381087061E+03  0.00000000000E+00 0. -1.
          2    1    1    2  501    0  0.66994415419E+02  0.16211834005E+03  0.82369746687E+03  0.84216870330E+03  0.00000000000E+00 0.  1.
          1    1    1    2  502    0 -0.72457498892E+02 -0.16638510909E+03 -0.31441820824E+03  0.36303292322E+03  0.00000000000E+00 0. -1.
         22    1    1    2    0    0  0.45587984636E+01 -0.13885897829E+02 -0.73404101522E+02  0.74844925828E+02  0.00000000000E+00 0. -1.
         22    1    1    2    0    0  0.90428500940E+00  0.18152666867E+02  0.46144960402E+02  0.49595306394E+02  0.00000000000E+00 0.  1.
</event>
<event>
 6    1  0.8017648E-006  0.2138278E+03  0.7818608E-02  0.1220202E+00
          2   -1    0    0  502    0  0.00000000000E+00  0.00000000000E+00  0.86070394915E+03  0.86070394915E+03  0.00000000000E+00 0. -1.
          1   -1    0    0  501    0 -0.00000000000E+00 -0.00000000000E+00 -0.34736648424E+03  0.34736648424E+03  0.00000000000E+00 0.  1.
          2    1    1    2  501    0 -0.50090289000E+02  0.17751241411E+03  0.68671891303E+03  0.71105735333E+03  0.00000000000E+00 0. -1.
          1    1    1    2  502    0  0.49984875242E+02 -0.17283370939E+03 -0.27952917247E+03  0.33242523538E+03  0.00000000000E+00 0.  1.
         22    1    1    2    0    0  0.19376036690E+02  0.23315925850E+02  0.12298021870E+03  0.12666174397E+03  0.00000000000E+00 0.  1.
         22    1    1    2    0    0 -0.19270622932E+02 -0.27994630574E+02 -0.16832494341E+02  0.37926100708E+02  0.00000000000E+00 0.  1.
</event>
<event>
 6    1  0.8017648E-006  0.4582579E+03  0.7818608E-02  0.1026490E+00
          2   -1    0    0  502    0  0.00000000000E+00  0.00000000000E+00  0.47656488013E+03  0.47656488013E+03  0.00000000000E+00 0. -1.
          1   -1    0    0  501    0 -0.00000000000E+00 -0.00000000000E+00 -0.54573204597E+03  0.54573204597E+03  0.00000000000E+00 0.  1.
          2    1    1    2  501    0 -0.84383804851E+02  0.38481196980E+03  0.21301250201E+03  0.44785623210E+03  0.00000000000E+00 0. -1.
          1    1    1    2  502    0  0.71735494906E+02 -0.34821558053E+03 -0.14733118390E+03  0.38484613744E+03  0.00000000000E+00 0.  1.
         22    1    1    2    0    0  0.30346972773E+02 -0.71655141100E+02 -0.12789898291E+03  0.14971154876E+03  0.00000000000E+00 0. -1.
         22    1    1    2    0    0 -0.17698662828E+02  0.35058751836E+02 -0.69495010453E+01  0.39883007798E+02  0.00000000000E+00 0.  1.
</event>
<event>
 6    1  0.8017648E-006  0.4368752E+02  0.7818608E-02  0.1518227E+00
          2   -1    0    0  502    0  0.00000000000E+00  0.00000000000E+00  0.10331790286E+03  0.10331790286E+03  0.00000000000E+00 0. -1.
          1   -1    0    0  501    0 -0.00000000000E+00 -0.00000000000E+00 -0.18155344296E+03  0.18155344296E+03  0.00000000000E+00 0.  1.
          2    1    1    2  501    0 -0.37350825135E+02 -0.24825713754E+02  0.25187430710E+02  0.51437407278E+02  0.00000000000E+00 0. -1.
          1    1    1    2  502    0 -0.31989265939E+01  0.68106096029E+02 -0.26387618907E+02  0.73109369299E+02  0.00000000000E+00 0.  1.
         22    1    1    2    0    0  0.24884444041E+02 -0.25674505014E+02  0.32478427593E+02  0.48303871707E+02  0.00000000000E+00 0. -1.
         22    1    1    2    0    0  0.15665307688E+02 -0.17605877262E+02 -0.10951377949E+03  0.11202069754E+03  0.00000000000E+00 0.  1.
</event>
<event>
 6    1  0.8017648E-006  0.7066544E+02  0.7818608E-02  0.1415525E+00
          2   -1    0    0  502    0  0.00000000000E+00  0.00000000000E+00  0.21943322649E+03  0.21943322649E+03  0.00000000000E+00 0.  1.
          1   -1    0    0  501    0 -0.00000000000E+00 -0.00000000000E+00 -0.57085354747E+02  0.57085354747E+02  0.00000000000E+00 0. -1.
          2    1    1    2  501    0 -0.16326665599E+02 -0.26999575737E+02  0.55584407829E+02  0.63915283722E+02  0.00000000000E+00 0.  1.
          1    1    1    2  502    0  0.22580787428E+02  0.51622756328E+02  0.17815222411E+02  0.59094695882E+02  0.00000000000E+00 0. -1.
         22    1    1    2    0    0 -0.33888458063E+02 -0.27899309290E+02  0.11011751251E+03  0.11854393957E+03  0.00000000000E+00 0.  1.
         22    1    1    2    0    0  0.27634336234E+02  0.32761286986E+01 -0.21169271003E+02  0.34964662062E+02  0.00000000000E+00 0. -1.
</event>
<event>
 6    1  0.8017648E-006  0.8933822E+02  0.7818608E-02  0.1411620E+00
          2   -1    0    0  502    0  0.00000000000E+00  0.00000000000E+00  0.34055445612E+03  0.34055445612E+03  0.00000000000E+00 0. -1.
          1   -1    0    0  501    0 -0.00000000000E+00 -0.00000000000E+00 -0.18041071304E+03  0.18041071304E+03  0.00000000000E+00 0. -1.
          2    1    1    2  501    0 -0.87721243386E+02 -0.40043037765E+02  0.19585828511E+03  0.21830925144E+03  0.00000000000E+00 0. -1.
          1    1    1    2  502    0  0.99331046478E+02 -0.30803659099E+02 -0.10380583949E+03  0.14693935661E+03  0.00000000000E+00 0. -1.
         22    1    1    2    0    0 -0.10291643635E+02 -0.73670087378E+01  0.76042576298E+02  0.77088677227E+02  0.00000000000E+00 0. -1.
         22    1    1    2    0    0 -0.13181594568E+01  0.78213705602E+02 -0.79512788432E+01  0.78627883881E+02  0.00000000000E+00 0.  1.
</event>
<event>
 6    1  0.8017648E-006  0.6697027E+02  0.7818608E-02  0.1457746E+00
          2   -1    0    0  502    0  0.00000000000E+00  0.00000000000E+00  0.19583564160E+03  0.19583564160E+03  0.00000000000E+00 0.  1.
          1   -1    0    0  501    0 -0.00000000000E+00 -0.00000000000E+00 -0.15303408534E+03  0.15303408534E+03  0.00000000000E+00 0.  1.
          2    1    1    2  501    0 -0.24451530032E+02 -0.76801649244E+02  0.33051240614E+02  0.87113461380E+02  0.00000000000E+00 0.  1.
          1    1    1    2  502    0  0.55665263522E+02  0.97897885016E+02 -0.46453040828E+02  0.12182160094E+03  0.00000000000E+00 0.  1.
         22    1    1    2    0    0 -0.76028389931E+00  0.11420942454E+02 -0.35868579805E+02  0.37650643758E+02  0.00000000000E+00 0.  1.
         22    1    1    2    0    0 -0.30453449590E+02 -0.32517178226E+02  0.92071936282E+02  0.10228402086E+03  0.00000000000E+00 0.  1.
</event>
<event>
 6    1  0.8017648E-006  0.1064684E+03  0.7818608E-02  0.1328618E+00
          2   -1    0    0  502    0  0.00000000000E+00  0.00000000000E+00  0.56545147330E+03  0.56545147330E+03  0.00000000000E+00 0. -1.
          1   -1    0    0  501    0 -0.00000000000E+00 -0.00000000000E+00 -0.29499355583E+02  0.29499355583E+02  0.00000000000E+00 0.  1.
          2    1    1    2  501    0  0.23133677312E+02 -0.32211165089E+02  0.15848391754E+03  0.16337037155E+03  0.00000000000E+00 0. -1.
          1    1    1    2  502    0 -0.60720186956E+02  0.56182962070E+01  0.53026094103E+02  0.80810104641E+02  0.00000000000E+00 0.  1.
         22    1    1    2    0    0  0.62534746900E+01 -0.33622633219E+02  0.21679860417E+02  0.40492020917E+02  0.00000000000E+00 0.  1.
         22    1    1    2    0    0  0.31333034954E+02  0.60215502101E+02  0.30276224566E+03  0.31027833177E+03  0.00000000000E+00 0. -1.
</event>
<event>
 6    1  0.8017648E-006  0.1928735E+03  0.7818608E-02  0.1280105E+00
          2   -1    0    0  502    0  0.00000000000E+00  0.00000000000E+00  0.11948383482E+04  0.11948383482E+04  0.00000000000E+00 0.  1.
          1   -1    0    0  501    0 -0.00000000000E+00 -0.00000000000E+00 -0.60809589773E+02  0.60809589773E+02  0.00000000000E+00 0.  1.
          2    1    1    2  501    0  0.68277350497E+02  0.94585499916E+02  0.66219928253E+03  0.67239579354E+03  0.00000000000E+00 0.  1.
          1    1    1    2  502    0 -0.85989181710E+02 -0.16221300289E+03  0.17422663359E+03  0.25310495358E+03  0.00000000000E+00 0.  1.
         22    1    1    2    0    0  0.12491170610E+02 -0.62960901793E+01 -0.77077906120E+01  0.15971228221E+02  0.00000000000E+00 0. -1.
         22    1    1    2    0    0  0.52206606024E+01  0.73923593149E+02  0.30531063293E+03  0.31417596264E+03  0.00000000000E+00 0.  1.
</event>
<event>
 6    1  0.8017648E-006  0.5428202E+02  0.7818608E-02  0.1461498E+00
          2   -1    0    0  502    0  0.00000000000E+00  0.00000000000E+00  0.17774108815E+03  0.17774108815E+03  0.00000000000E+00 0. -1.
          1   -1    0    0  501    0 -0.00000000000E+00 -0.00000000000E+00 -0.12668587775E+03  0.12668587775E+03  0.00000000000E+00 0.  1.
          2    1    1    2  501    0 -0.10967732606E+02 -0.28104812116E+02  0.11809386513E+03  0.12188655629E+03  0.00000000000E+00 0. -1.
          1    1    1    2  502    0  0.33976562270E+02  0.15478732163E+02 -0.40862721865E+02  0.55351241823E+02  0.00000000000E+00 0.  1.
         22    1    1    2    0    0 -0.77317278141E+01  0.29848239355E+02 -0.70663705541E+02  0.77097706116E+02  0.00000000000E+00 0.  1.
         22    1    1    2    0    0 -0.15277101850E+02 -0.17222159402E+02  0.44487772672E+02  0.50091461674E+02  0.00000000000E+00 0. -1.
</event>
<event>
 6    1  0.8017648E-006  0.1391413E+03  0.7818608E-02  0.1314331E+00
          2   -1    0    0  502    0  0.00000000000E+00  0.00000000000E+00  0.35517599465E+04  0.35517599465E+04  0.00000000000E+00 0.  1.
          1   -1    0    0  501    0 -0.00000000000E+00 -0.00000000000E+00 -0.58048969765E+02  0.58048969765E+02  0.00000000000E+00 0.  1.
          2    1    1    2  501    0 -0.22947111598E+02  0.11191105161E+03  0.33646552390E+04  0.33665940549E+04  0.00000000000E+00 0.  1.
          1    1    1    2  502    0  0.45150500955E+01 -0.41930826422E+02 -0.85708979269E+01  0.43035336331E+02  0.00000000000E+00 0.  1.
         22    1    1    2    0    0 -0.13745499365E+01  0.19718378456E+02  0.98280084201E+02  0.10024808620E+03  0.00000000000E+00 0.  1.
         22    1    1    2    0    0  0.19806611439E+02 -0.89698603641E+02  0.39346551492E+02  0.99931438828E+02  0.00000000000E+00 0.  1.
</event>
<event>
 6    1  0.8017648E-006  0.2074455E+03  0.7818608E-02  0.1196232E+00
          2   -1    0    0  502    0  0.00000000000E+00  0.00000000000E+00  0.14888259348E+04  0.14888259348E+04  0.00000000000E+00 0.  1.
          1   -1    0    0  501    0 -0.00000000000E+00 -0.00000000000E+00 -0.36591589419E+03  0.36591589419E+03  0.00000000000E+00 0. -1.
          2    1    1    2  501    0  0.18705600451E+03 -0.53931538094E+03  0.65161755489E+03  0.86628890491E+03  0.00000000000E+00 0.  1.
          1    1    1    2  502    0 -0.23042579924E+03  0.57027101724E+03  0.13980057073E+03  0.63075294818E+03  0.00000000000E+00 0. -1.
         22    1    1    2    0    0  0.64792617533E+02 -0.30630133093E+02  0.32830808297E+03  0.33603941091E+03  0.00000000000E+00 0. -1.
         22    1    1    2    0    0 -0.21422822810E+02 -0.32550321076E+00  0.31838320305E+01  0.21660564995E+02  0.00000000000E+00 0. -1.
</event>
<event>
 6    1  0.8017648E-006  0.3809036E+02  0.7818608E-02  0.1544105E+00
          2   -1    0    0  502    0  0.00000000000E+00  0.00000000000E+00  0.17078860263E+03  0.17078860263E+03  0.00000000000E+00 0. -1.
          1   -1    0    0  501    0 -0.00000000000E+00 -0.00000000000E+00 -0.52024801231E+03  0.52024801231E+03  0.00000000000E+00 0.  1.
          2    1    1    2  501    0  0.58513419315E+01  0.22004169708E+02  0.11445215727E+03  0.11669497843E+03  0.00000000000E+00 0. -1.
          1    1    1    2  502    0  0.15363719660E+02 -0.17590751001E+02 -0.44844234110E+03  0.44905012158E+03  0.00000000000E+00 0.  1.
         22    1    1    2    0    0 -0.21413378715E+02 -0.19222864969E+02 -0.66338082426E+02  0.72310390025E+02  0.00000000000E+00 0.  1.
         22    1    1    2    0    0  0.19831712373E+00  0.14809446262E+02  0.50868856567E+02  0.52981124910E+02  0.00000000000E+00 0.  1.
</event>
<event>
 6    1  0.8017648E-006  0.6773991E+02  0.7818608E-02  0.1470644E+00
          2   -1    0    0  502    0  0.00000000000E+00  0.00000000000E+00  0.19026194614E+03  0.19026194614E+03  0.00000000000E+00 0.  1.
          1   -1    0    0  501    0 -0.00000000000E+00 -0.00000000000E+00 -0.92803519131E+02  0.92803519131E+02  0.00000000000E+00 0. -1.
          2    1    1    2  501    0  0.27237342232E+02 -0.16863482206E+02  0.97706299889E+02  0.10282398009E+03  0.00000000000E+00 0.  1.
          1    1    1    2  502    0  0.69087211343E+01  0.27272890282E+02 -0.38091784108E+02  0.47355305812E+02  0.00000000000E+00 0. -1.
         22    1    1    2    0    0 -0.27764353268E+02 -0.22766009627E+02  0.80433484981E+02  0.88083460496E+02  0.00000000000E+00 0.  1.
         22    1    1    2    0    0 -0.63817100986E+01  0.12356601551E+02 -0.42589573754E+02  0.44802718870E+02  0.00000000000E+00 0. -1.
</event>
<event>
 6    1  0.8017648E-006  0.9249146E+02  0.7818608E-02  0.1359966E+00
          2   -1    0    0  502    0  0.00000000000E+00  0.00000000000E+00  0.59793321389E+02  0.59793321389E+02  0.00000000000E+00 0.  1.
          1   -1    0    0  501    0 -0.00000000000E+00 -0.00000000000E+00 -0.23712138108E+03  0.23712138108E+03  0.00000000000E+00 0.  1.
          2    1    1    2  501    0  0.13598424692E+02 -0.20965839232E+02 -0.49389225485E+02  0.55351415184E+02  0.00000000000E+00 0.  1.
          1    1    1    2  502    0  0.29199628906E+02  0.32603099683E+02  0.12781659476E+02  0.45595517939E+02  0.00000000000E+00 0.  1.
         22    1    1    2    0    0  0.20304286028E+02  0.22638053043E+02 -0.11615861445E+03  0.12007318263E+03  0.00000000000E+00 0.  1.
         22    1    1    2    0    0 -0.63102339627E+02 -0.34275313494E+02 -0.24561879236E+02  0.75894586718E+02  0.00000000000E+00 0.  1.
</event>
<event>
 6    1  0.8017648E-006  0.6071655E+02  0.7818608E-02  0.1449652E+00
          2   -1    0    0  502    0  0.00000000000E+00  0.00000000000E+00  0.20808097121E+03  0.20808097121E+03  0.00000000000E+00 0. -1.
          1   -1    0    0  501    0 -0.00000000000E+00 -0.00000000000E+00 -0.23610723624E+03  0.23610723624E+03  0.00000000000E+00 0. -1.
          2    1    1    2  501    0  0.49809219193E+02  0.29655326157E+02  0.43308434871E+02  0.72360329028E+02  0.00000000000E+00 0. -1.
          1    1    1    2  502    0 -0.78514213178E+02  0.87424917209E+01 -0.18295677852E+03  0.19928395730E+03  0.00000000000E+00 0. -1.
         22    1    1    2    0    0  0.39525717153E+02 -0.22132420725E+02  0.13481338209E+03  0.14222086469E+03  0.00000000000E+00 0. -1.
         22    1    1    2    0    0 -0.10820723168E+02 -0.16265397153E+02 -0.23191303470E+02  0.30323056427E+02  0.00000000000E+00 0. -1.
</event>
<event>
 6    1  0.8017648E-006  0.6149032E+02  0.7818608E-02  0.1400114E+00
          2   -1    0    0  502    0  0.00000000000E+00  0.00000000000E+00  0.30923856056E+03  0.30923856056E+03  0.00000000000E+00 0. -1.
          1   -1    0    0  501    0 -0.00000000000E+00 -0.00000000000E+00 -0.10090878444E+03  0.10090878444E+03  0.00000000000E+00 0. -1.
          2    1    1    2  501    0 -0.45276824243E+02 -0.36278763227E+02  0.24194519613E+03  0.24880437577E+03  0.00000000000E+00 0. -1.
          1    1    1    2  502    0  0.19538622632E+01  0.25759229624E+02 -0.14621417133E+02  0.29684024787E+02  0.00000000000E+00 0. -1.
         22    1    1    2    0    0  0.53262516199E+02  0.73000492030E+01 -0.65074418490E+02  0.84408923060E+02  0.00000000000E+00 0. -1.
         22    1    1    2    0    0 -0.99395542188E+01  0.32194844005E+01  0.46080415616E+02  0.47250021389E+02  0.00000000000E+00 0. -1.
</event>
<event>
 6    1  0.8017648E-006  0.6216784E+02  0.7818608E-02  0.1442821E+00
          2   -1    0    0  502    0  0.00000000000E+00  0.00000000000E+00  0.10821361723E+03  0.10821361723E+03  0.00000000000E+00 0.  1.
          1   -1    0    0  501    0 -0.00000000000E+00 -0.00000000000E+00 -0.54329483447E+03  0.54329483447E+03  0.00000000000E+00 0.  1.
          2    1    1    2  501    0 -0.23653390864E+02  0.16857008234E+02  0.43017290170E+02  0.51904998599E+02  0.00000000000E+00 0.  1.
          1    1    1    2  502    0  0.39937879491E+02 -0.32247889416E+02 -0.47278988553E+03  0.47556832994E+03  0.00000000000E+00 0.  1.
         22    1    1    2    0    0 -0.32787240351E+02 -0.59854603604E+01  0.51379694409E+02  0.61242973990E+02  0.00000000000E+00 0.  1.
         22    1    1    2    0    0  0.16502751725E+02  0.21376341543E+02 -0.56688316297E+02  0.62792149165E+02  0.00000000000E+00 0.  1.
</event>
<event>
 6    1  0.8017648E-006  0.9435882E+02  0.7818608E-02  0.1302838E+00
          2   -1    0    0  502    0  0.00000000000E+00  0.00000000000E+00  0.29029465380E+03  0.29029465380E+03  0.00000000000E+00 0.  1.
          1   -1    0    0  501    0 -0.00000000000E+00 -0.00000000000E+00 -0.22123464757E+03  0.22123464757E+03  0.00000000000E+00 0. -1.
          2    1    1    2  501    0 -0.89654358790E+02  0.52395974842E+02  0.20983713952E+03  0.23412575115E+03  0.00000000000E+00 0.  1.
          1    1    1    2  502    0  0.26487223466E+02 -0.66876812309E+02 -0.11382615092E+03  0.13464944732E+03  0.00000000000E+00 0. -1.
         22    1    1    2    0    0  0.69713814473E+02  0.35238530584E+02  0.28526527825E+02  0.83159682274E+02  0.00000000000E+00 0.  1.
         22    1    1    2    0    0 -0.65466791485E+01 -0.20757693117E+02 -0.55477510203E+02  0.59594420626E+02  0.00000000000E+00 0. -1.
</event>
<event>
 6    1  0.8017648E-006  0.4006081E+02  0.7818608E-02  0.1522185E+00
          2   -1    0    0  502    0  0.00000000000E+00  0.00000000000E+00  0.22263775229E+03  0.22263775229E+03  0.00000000000E+00 0.  1.
          1   -1    0    0  501    0 -0.00000000000E+00 -0.00000000000E+00 -0.56508895047E+02  0.56508895047E+02  0.00000000000E+00 0. -1.
          2    1    1    2  501    0  0.24193162227E+02  0.24850998241E+01  0.91089192383E+02  0.94280039185E+02  0.00000000000E+00 0.  1.
          1    1    1    2  502    0  0.20927408618E+02 -0.23457008926E+02 -0.37477753098E+01  0.31658071941E+02  0.00000000000E+00 0. -1.
         22    1    1    2    0    0  0.36463179603E+01  0.18988558698E+02  0.98640754837E+02  0.10051795616E+03  0.00000000000E+00 0.  1.
         22    1    1    2    0    0 -0.48766888806E+02  0.19833504042E+01 -0.19853314668E+02  0.52690580049E+02  0.00000000000E+00 0. -1.
</event>
<event>
 6    1  0.8017648E-006  0.7163404E+02  0.7818608E-02  0.1426856E+00
          2   -1    0    0  502    0  0.00000000000E+00  0.00000000000E+00  0.67399168179E+03  0.67399168179E+03  0.00000000000E+00 0. -1.
          1   -1    0    0  501    0 -0.00000000000E+00 -0.00000000000E+00 -0.19039863373E+02  0.19039863373E+02  0.00000000000E+00 0. -1.
          2    1    1    2  501    0  0.16652207012E+02  0.21708661057E+02  0.16987306841E+03  0.17206226006E+03  0.00000000000E+00 0. -1.
          1    1    1    2  502    0 -0.21266303316E+02 -0.52446624460E+02  0.17287340464E+03  0.18190139666E+03  0.00000000000E+00 0. -1.
         22    1    1    2    0    0  0.96419932906E+01  0.52616019326E+02  0.31206768819E+03  0.31661910166E+03  0.00000000000E+00 0. -1.
         22    1    1    2    0    0 -0.50278969865E+01 -0.21878055923E+02  0.13765718049E+00  0.22448786796E+02  0.00000000000E+00 0. -1.
</event>
<event>
 6    1  0.8017648E-006  0.6396043E+02  0.7818608E-02  0.1445723E+00
          2   -1    0    0  502    0  0.00000000000E+00  0.00000000000E+00  0.14842754144E+03  0.14842754144E+03  0.00000000000E+00 0. -1.
          1   -1    0    0  501    0 -0.00000000000E+00 -0.00000000000E+00 -0.58317251956E+03  0.58317251956E+03  0.00000000000E+00 0. -1.
          2    1    1    2  501    0  0.20929760540E+02 -0.11447720567E+02  0.50085199121E+02  0.55476412586E+02  0.00000000000E+00 0. -1.
          1    1    1    2  502    0 -0.39156129694E+02 -0.49444838239E+02 -0.52655144494E+03  0.53031539548E+03  0.00000000000E+00 0. -1.
         22    1    1    2    0    0  0.49285850208E+01  0.23234389784E+02 -0.44692704336E+02  0.50611912034E+02  0.00000000000E+00 0. -1.
         22    1    1    2    0    0  0.13297784133E+02  0.37658169022E+02  0.86413972029E+02  0.95196340890E+02  0.00000000000E+00 0. -1.
</event>
<event>
 6    1  0.8017648E-006  0.1999881E+03  0.7818608E-02  0.1188107E+00
          2   -1    0    0  502    0  0.00000000000E+00  0.00000000000E+00  0.11350716383E+04  0.11350716383E+04  0.00000000000E+00 0. -1.
          1   -1    0    0  501    0 -0.00000000000E+00 -0.00000000000E+00 -0.63425576186E+02  0.63425576186E+02  0.00000000000E+00 0. -1.
          2    1    1    2  501    0  0.87185753475E+02  0.99672350757E+02  0.45887607780E+03  0.47760149486E+03  0.00000000000E+00 0. -1.
          1    1    1    2  502    0  0.12912638919E+01 -0.17626868824E+03  0.46546626738E+03  0.49772599278E+03  0.00000000000E+00 0. -1.
         22    1    1    2    0    0 -0.60604067353E+01  0.66667944463E+02  0.11700301046E+03  0.13480002895E+03  0.00000000000E+00 0. -1.
         22    1    1    2    0    0 -0.82416610631E+02  0.99283930175E+01  0.30300706489E+02  0.88369697915E+02  0.00000000000E+00 0. -1.
</event>
<event>
 6    1  0.8017648E-006  0.5232293E+02  0.7818608E-02  0.1483790E+00
          2   -1    0    0  502    0  0.00000000000E+00  0.00000000000E+00  0.27078758409E+03  0.27078758409E+03  0.00000000000E+00 0. -1.
          1   -1    0    0  501    0 -0.00000000000E+00 -0.00000000000E+00 -0.10655618523E+03  0.10655618523E+03  0.00000000000E+00 0. -1.
          2    1    1    2  501    0  0.96449204542E+01 -0.74073754278E+02  0.13926651363E+03  0.15803514603E+03  0.00000000000E+00 0. -1.
          1    1    1    2  502    0 -0.42710750567E+02  0.75315068079E+02  0.16716089880E+02  0.88181604400E+02  0.00000000000E+00 0. -1.
         22    1    1    2    0    0  0.33505462556E+02  0.16197000068E+02  0.63271913443E+02  0.73404998897E+02  0.00000000000E+00 0. -1.
         22    1    1    2    0    0 -0.43963244323E+00 -0.17438313868E+02 -0.55023118086E+02  0.57722019985E+02  0.00000000000E+00 0. -1.
</event>
<event>
 6    1  0.8017648E-006  0.1280583E+03  0.7818608E-02  0.1360043E+00
          2   -1    0    0  502    0  0.00000000000E+00  0.00000000000E+00  0.40437409732E+03  0.40437409732E+03  0.00000000000E+00 0.  1.
          1   -1    0    0  501    0 -0.00000000000E+00 -0.00000000000E+00 -0.26025790890E+03  0.26025790890E+03  0.00000000000E+00 0. -1.
          2    1    1    2  501    0 -0.38111497111E+02  0.20848470569E+02  0.29346759494E+03  0.29666542471E+03  0.00000000000E+00 0.  1.
          1    1    1    2  502    0  0.33171390259E+02 -0.71698611365E+02 -0.20972074699E+03  0.22410672395E+03  0.00000000000E+00 0. -1.
         22    1    1    2    0    0  0.13957086752E+02  0.57895132714E+02  0.92353713391E+02  0.10989019538E+03  0.00000000000E+00 0.  1.
         22    1    1    2    0    0 -0.90169799006E+01 -0.70449919186E+01 -0.31984372918E+02  0.33969662180E+02  0.00000000000E+00 0. -1.
</event>
<event>
 6    1  0.8017648E-006  0.1103736E+03  0.7818608E-02  0.1340599E+00
          2   -1    0    0  502    0  0.00000000000E+00  0.00000000000E+00  0.79235888195E+03  0.79235888195E+03  0.00000000000E+00 0. -1.
          1   -1    0    0  501    0 -0.00000000000E+00 -0.00000000000E+00 -0.25631256740E+02  0.25631256740E+02  0.00000000000E+00 0. -1.
          2    1    1    2  501    0  0.53201182413E+02  0.26965524612E+00  0.23922571437E+03  0.24507015514E+03  0.00000000000E+00 0. -1.
          1    1    1    2  502    0 -0.83878263472E+02  0.23555453763E+02  0.16285740005E+03  0.18469692806E+03  0.00000000000E+00 0. -1.
         22    1    1    2    0    0 -0.14950749635E+02  0.19911116474E+02  0.81948457722E+01  0.26213221304E+02  0.00000000000E+00 0. -1.
         22    1    1    2    0    0  0.45627830695E+02 -0.43736225484E+02  0.35644966502E+03  0.36200983419E+03  0.00000000000E+00 0.  1.
</event>
<event>
 6    1  0.8017648E-006  0.6265870E+02  0.7818608E-02  0.1509883E+00
          2   -1    0    0  502    0  0.00000000000E+00  0.00000000000E+00  0.29184303170E+03  0.29184303170E+03  0.00000000000E+00 0. -1.
          1   -1    0    0  501    0 -0.00000000000E+00 -0.00000000000E+00 -0.58481760645E+02  0.58481760645E+02  0.00000000000E+00 0. -1.
          2    1    1    2  501    0  0.38937140343E+01 -0.22182633800E+02  0.89152494295E+02  0.91953235344E+02  0.00000000000E+00 0. -1.
          1    1    1    2  502    0  0.11308334673E+02  0.51888407298E+02 -0.14476059557E+02  0.55043996451E+02  0.00000000000E+00 0. -1.
         22    1    1    2    0    0 -0.35537542249E+01  0.95318525392E+01 -0.18696705883E+02  0.21285022734E+02  0.00000000000E+00 0. -1.
         22    1    1    2    0    0 -0.11648294483E+02 -0.39237626037E+02  0.17738154220E+03  0.18204253782E+03  0.00000000000E+00 0. -1.
</event>
<event>
 6    1  0.8017648E-006  0.5003915E+02  0.7818608E-02  0.1476914E+00
          2   -1    0    0  502    0  0.00000000000E+00  0.00000000000E+00  0.25774215686E+03  0.25774215686E+03  0.00000000000E+00 0. -1.
          1   -1    0    0  501    0 -0.00000000000E+00 -0.00000000000E+00 -0.13577296454E+03  0.13577296454E+03  0.00000000000E+00 0. -1.
          2    1    1    2  501    0  0.25085093255E+02 -0.97827266086E+01  0.14389002363E+03  0.14638750815E+03  0.00000000000E+00 0. -1.
          1    1    1    2  502    0 -0.38331802800E+02  0.29287947438E+02 -0.89919346246E+02  0.10204214718E+03  0.00000000000E+00 0. -1.
         22    1    1    2    0    0 -0.67803226297E+01 -0.30815888739E+02 -0.30531630486E+02  0.43906403107E+02  0.00000000000E+00 0.  1.
         22    1    1    2    0    0  0.20027032174E+02  0.11310667910E+02  0.98530145424E+02  0.10117906297E+03  0.00000000000E+00 0. -1.
</event>
<event>
 6    1  0.8017648E-006  0.9639463E+02  0.7818608E-02  0.1358613E+00
          2   -1    0    0  502    0  0.00000000000E+00  0.00000000000E+00  0.11146561629E+03  0.11146561629E+03  0.00000000000E+00 0.  1.
          1   -1    0    0  501    0 -0.00000000000E+00 -0.00000000000E+00 -0.15087191932E+03  0.15087191932E+03  0.00000000000E+00 0.  1.
          2    1    1    2  501    0  0.19316646646E+02  0.22372563896E+02 -0.55058769903E+01  0.30066245764E+02  0.00000000000E+00 0.  1.
          1    1    1    2  502    0 -0.77006330073E+02 -0.41361004016E+02  0.88668354037E+01  0.87859708027E+02  0.00000000000E+00 0.  1.
         22    1    1    2    0    0  0.56504721043E+02  0.46444656316E+02  0.20053934165E+02  0.75842269718E+02  0.00000000000E+00 0.  1.
         22    1    1    2    0    0  0.11849623848E+01 -0.27456216196E+02 -0.62821195613E+02  0.68569312100E+02  0.00000000000E+00 0.  1.
</event>
<event>
 6    1  0.8017648E-006  0.6642557E+02  0.7818608E-02  0.1412908E+00
          2   -1    0    0  502    0  0.00000000000E+00  0.00000000000E+00  0.10397827978E+03  0.10397827978E+03  0.00000000000E+00 0.  1.
          1   -1    0    0  501    0 -0.00000000000E+00 -0.00000000000E+00 -0.20834988019E+03  0.20834988019E+03  0.00000000000E+00 0.  1.
          2    1    1    2  501    0  0.39471862626E+02  0.39673192027E+02  0.45335466406E+02  0.72022875665E+02  0.00000000000E+00 0.  1.
          1    1    1    2  502    0 -0.15691834510E+02 -0.54621932301E+02 -0.22267384244E+02  0.61037902647E+02  0.00000000000E+00 0.  1.
         22    1    1    2    0    0  0.10686057035E+02  0.95161236152E+01  0.21759447036E+02  0.26042694925E+02  0.00000000000E+00 0.  1.
         22    1    1    2    0    0 -0.34466085151E+02  0.54326166583E+01 -0.14919912960E+03  0.15322468673E+03  0.00000000000E+00 0.  1.
</event>
<event>
 6    1  0.8017648E-006  0.3829127E+02  0.7818608E-02  0.1626941E+00
          2   -1    0    0  502    0  0.00000000000E+00  0.00000000000E+00  0.14696283762E+03  0.14696283762E+03  0.00000000000E+00 0.  1.
          1   -1    0    0  501    0 -0.00000000000E+00 -0.00000000000E+00 -0.43043614785E+03  0.43043614785E+03  0.00000000000E+00 0.  1.
          2    1    1    2  501    0 -0.22878849695E+02  0.10410872440E+02  0.87126684160E+02  0.90680136309E+02  0.00000000000E+00 0.  1.
          1    1    1    2  502    0  0.27915075727E+02 -0.14410194702E+02 -0.36485466393E+03  0.36620462989E+03  0.00000000000E+00 0.  1.
         22    1    1    2    0    0 -0.12686365650E+02 -0.28252088185E+01  0.56221917444E+02  0.57704676408E+02  0.00000000000E+00 0.  1.
         22    1    1    2    0    0  0.76501396183E+01  0.68245310801E+01 -0.61967247912E+02  0.62809542861E+02  0.00000000000E+00 0. -1.
</event>
<event>
 6    1  0.8017648E-006  0.4003914E+02  0.7818608E-02  0.1533457E+00
          2   -1    0    0  502    0  0.00000000000E+00  0.00000000000E+00  0.20539438108E+03  0.20539438108E+03  0.00000000000E+00 0. -1.
          1   -1    0    0  501    0 -0.00000000000E+00 -0.00000000000E+00 -0.88033854322E+02  0.88033854322E+02  0.00000000000E+00 0.  1.
          2    1    1    2  501    0 -0.75066748685E+00 -0.61588480491E+02  0.51069799431E+02  0.80011429463E+02  0.00000000000E+00 0. -1.
          1    1    1    2  502    0  0.61535544077E+01  0.74459319651E+02  0.15034135254E+02  0.76210771795E+02  0.00000000000E+00 0.  1.
         22    1    1    2    0    0  0.81833549319E+01 -0.21743018408E+02  0.91189435596E+02  0.94102281119E+02  0.00000000000E+00 0. -1.
         22    1    1    2    0    0 -0.13586241853E+02  0.88721792472E+01 -0.39932843527E+02  0.43103753020E+02  0.00000000000E+00 0. -1.
</event>
<event>
 6    1  0.8017648E-006  0.1074795E+03  0.7818608E-02  0.1320993E+00
          2   -1    0    0  502    0  0.00000000000E+00  0.00000000000E+00  0.46266022524E+03  0.46266022524E+03  0.00000000000E+00 0. -1.
          1   -1    0    0  501    0 -0.00000000000E+00 -0.00000000000E+00 -0.50543420944E+02  0.50543420944E+02  0.00000000000E+00 0. -1.
          2    1    1    2  501    0 -0.25956787947E+02  0.71042736697E+01  0.14769400188E+02  0.30697894501E+02  0.00000000000E+00 0. -1.
          1    1    1    2  502    0  0.97831372760E+02 -0.51465684219E+01  0.27951897135E+03  0.29618966898E+03  0.00000000000E+00 0. -1.
         22    1    1    2    0    0 -0.60867942159E+02 -0.38388260282E+02  0.12807190904E+03  0.14690465886E+03  0.00000000000E+00 0.  1.
         22    1    1    2    0    0 -0.11006642654E+02  0.36430555034E+02 -0.10243476289E+02  0.39411423840E+02  0.00000000000E+00 0.  1.
</event>
<event>
 6    1  0.8017648E-006  0.1356560E+03  0.7818608E-02  0.1303012E+00
          2   -1    0    0  502    0  0.00000000000E+00  0.00000000000E+00  0.65254829914E+03  0.65254829914E+03  0.00000000000E+00 0.  1.
          1   -1    0    0  501    0 -0.00000000000E+00 -0.00000000000E+00 -0.23057497133E+03  0.23057497133E+03  0.00000000000E+00 0. -1.
          2    1    1    2  501    0 -0.96489742148E+02 -0.32109144127E+02  0.54859420116E+03  0.55793983997E+03  0.00000000000E+00 0.  1.
          1    1    1    2  502    0  0.12547387492E+03  0.28871057688E+02 -0.14351826341E+03  0.19280747701E+03  0.00000000000E+00 0. -1.
         22    1    1    2    0    0 -0.18430373430E+02 -0.20747390610E+02  0.68825959669E+02  0.74210144901E+02  0.00000000000E+00 0. -1.
         22    1    1    2    0    0 -0.10553759346E+02  0.23985477048E+02 -0.51928569619E+02  0.58165808584E+02  0.00000000000E+00 0.  1.
</event>
<event>
 6    1  0.8017648E-006  0.1430715E+03  0.7818608E-02  0.1312610E+00
          2   -1    0    0  502    0  0.00000000000E+00  0.00000000000E+00  0.94103211070E+03  0.94103211070E+03  0.00000000000E+00 0. -1.
          1   -1    0    0  501    0 -0.00000000000E+00 -0.00000000000E+00 -0.43045617351E+02  0.43045617351E+02  0.00000000000E+00 0. -1.
          2    1    1    2  501    0 -0.10299918134E+02  0.18172708806E+02  0.62044587082E+03  0.62079740196E+03  0.00000000000E+00 0. -1.
          1    1    1    2  502    0 -0.64444968096E+02 -0.12952343944E+02  0.16809008677E+03  0.18048599501E+03  0.00000000000E+00 0. -1.
         22    1    1    2    0    0  0.16680470228E+02  0.85746510559E+01 -0.27567682862E+02  0.33342763325E+02  0.00000000000E+00 0. -1.
         22    1    1    2    0    0  0.58064416003E+02 -0.13795015918E+02  0.13701821862E+03  0.14945156776E+03  0.00000000000E+00 0. -1.
</event>
<event>
 6    1  0.8017648E-006  0.5668202E+02  0.7818608E-02  0.1420226E+00
          2   -1    0    0  502    0  0.00000000000E+00  0.00000000000E+00  0.86812530273E+02  0.86812530273E+02  0.00000000000E+00 0. -1.
          1   -1    0    0  501    0 -0.00000000000E+00 -0.00000000000E+00 -0.67660717011E+03  0.67660717011E+03  0.00000000000E+00 0.  1.
          2    1    1    2  501    0  0.21236284955E+02  0.31357749699E+02  0.49005337675E+02  0.61933927580E+02  0.00000000000E+00 0. -1.
          1    1    1    2  502    0 -0.38420220995E+02  0.19927462770E+02 -0.51013875367E+03  0.51197144954E+03  0.00000000000E+00 0.  1.
         22    1    1    2    0    0  0.19272977133E+02 -0.11795457814E+01  0.22851941507E+02  0.29917389700E+02  0.00000000000E+00 0.  1.
         22    1    1    2    0    0 -0.20890410927E+01 -0.50105666688E+02 -0.15151316536E+03  0.15959693356E+03  0.00000000000E+00 0. -1.
</event>
<event>
 6    1  0.8017648E-006  0.8290680E+02  0.7818608E-02  0.1441127E+00
          2   -1    0    0  502    0  0.00000000000E+00  0.00000000000E+00  0.20010718562E+04  0.20010718562E+04  0.00000000000E+00 0. -1.
          1   -1    0    0  501    0 -0.00000000000E+00 -0.00000000000E+00 -0.24211602664E+03  0.24211602664E+03  0.00000000000E+00 0. -1.
          2    1    1    2  501    0  0.13255964452E+03  0.76926941066E+02  0.18122273414E+04  0.18186967176E+04  0.00000000000E+00 0. -1.
          1    1    1    2  502    0 -0.97675110683E+02 -0.96864097548E+01 -0.19624439356E+03  0.21942223174E+03  0.00000000000E+00 0. -1.
         22    1    1    2    0    0 -0.44180015347E+02 -0.61923899317E+02  0.16438286935E+03  0.18113025920E+03  0.00000000000E+00 0. -1.
         22    1    1    2    0    0  0.92954815130E+01 -0.53166319946E+01 -0.21409987687E+02  0.23938674255E+02  0.00000000000E+00 0. -1.
</event>
<event>
 6    1  0.8017648E-006  0.2681321E+02  0.7818608E-02  0.1701007E+00
          2   -1    0    0  502    0  0.00000000000E+00  0.00000000000E+00  0.10312241118E+03  0.10312241118E+03  0.00000000000E+00 0.  1.
          1   -1    0    0  501    0 -0.00000000000E+00 -0.00000000000E+00 -0.14134588162E+03  0.14134588162E+03  0.00000000000E+00 0.  1.
          2    1    1    2  501    0 -0.10197227191E+02  0.36337714616E+02  0.37527026614E+02  0.53223027651E+02  0.00000000000E+00 0.  1.
          1    1    1    2  502    0  0.21824224500E+02 -0.43148965500E+02 -0.23231318949E+01  0.48409988025E+02  0.00000000000E+00 0.  1.
         22    1    1    2    0    0 -0.11998327795E+02  0.16875383663E+02 -0.10638085214E+03  0.10837723076E+03  0.00000000000E+00 0.  1.
         22    1    1    2    0    0  0.37133048613E+00 -0.10064132779E+02  0.32953486984E+02  0.34458046365E+02  0.00000000000E+00 0. -1.
</event>
<event>
 6    1  0.8017648E-006  0.5491972E+02  0.7818608E-02  0.1437071E+00
          2   -1    0    0  502    0  0.00000000000E+00  0.00000000000E+00  0.31943715609E+03  0.31943715609E+03  0.00000000000E+00 0. -1.
          1   -1    0    0  501    0 -0.00000000000E+00 -0.00000000000E+00 -0.64967992037E+02  0.64967992037E+02  0.00000000000E+00 0. -1.
          2    1    1    2  501    0 -0.57923646138E+01 -0.27050727176E+02  0.11504067121E+03  0.11832011394E+03  0.00000000000E+00 0. -1.
          1    1    1    2  502    0  0.13514305606E+02  0.87301869530E+02  0.70501181659E+02  0.11302508348E+03  0.00000000000E+00 0. -1.
         22    1    1    2    0    0  0.63572440869E+01 -0.42209636201E+02 -0.29577550102E+02  0.51931680221E+02  0.00000000000E+00 0. -1.
         22    1    1    2    0    0 -0.14079185079E+02 -0.18041506153E+02  0.98504861284E+02  0.10112827049E+03  0.00000000000E+00 0. -1.
</event>
<event>
 6    1  0.8017648E-006  0.1079387E+03  0.7818608E-02  0.1321783E+00
          2   -1    0    0  502    0  0.00000000000E+00  0.00000000000E+00  0.13980934553E+03  0.13980934553E+03  0.00000000000E+00 0.  1.
          1   -1    0    0  501    0 -0.00000000000E+00 -0.00000000000E+00 -0.13398578971E+03  0.13398578971E+03  0.00000000000E+00 0.  1.
          2    1    1    2  501    0  0.28381519695E+01  0.50709040302E+02  0.11927738955E+02  0.52170229361E+02  0.00000000000E+00 0.  1.
          1    1    1    2  502    0  0.30633375542E+02  0.46864371639E+01 -0.65769768541E+02  0.72705081282E+02  0.00000000000E+00 0.  1.
         22    1    1    2    0    0 -0.43050547218E+01 -0.32552054837E+02  0.93283098706E+02  0.98893408651E+02  0.00000000000E+00 0.  1.
         22    1    1    2    0    0 -0.29166472789E+02 -0.22843422629E+02 -0.33617513303E+02  0.50026415953E+02  0.00000000000E+00 0.  1.
</event>
<event>
 6    1  0.8017648E-006  0.2627896E+03  0.7818608E-02  0.1245063E+00
          2   -1    0    0  502    0  0.00000000000E+00  0.00000000000E+00  0.13795202354E+03  0.13795202354E+03  0.00000000000E+00 0.  1.
          1   -1    0    0  501    0 -0.00000000000E+00 -0.00000000000E+00 -0.10035733816E+04  0.10035733816E+04  0.00000000000E+00 0.  1.
          2    1    1    2  501    0 -0.41151777855E+02  0.88726753077E+01  0.45410914970E+02  0.61922083187E+02  0.00000000000E+00 0.  1.
          1    1    1    2  502    0  0.10315920333E+02  0.26338347626E+03 -0.30220199304E+03  0.40100289073E+03  0.00000000000E+00 0.  1.
         22    1    1    2    0    0  0.33199689592E+02 -0.26153164711E+03 -0.61265731968E+03  0.66697077387E+03  0.00000000000E+00 0.  1.
         22    1    1    2    0    0 -0.23638320695E+01 -0.10724504457E+02  0.38270396814E+01  0.11629657374E+02  0.00000000000E+00 0. -1.
</event>
<event>
 6    1  0.8017648E-006  0.3417250E+02  0.7818608E-02  0.1617964E+00
          2   -1    0    0  502    0  0.00000000000E+00  0.00000000000E+00  0.78881325230E+03  0.78881325230E+03  0.00000000000E+00 0. -1.
          1   -1    0    0  501    0 -0.00000000000E+00 -0.00000000000E+00 -0.61055460025E+02  0.61055460025E+02  0.00000000000E+00 0.  1.
          2    1    1    2  501    0 -0.59510195026E+01 -0.32215706783E+02  0.65534805387E+03  0.65616639514E+03  0.00000000000E+00 0. -1.
          1    1    1    2  502    0 -0.46078723693E+01  0.48030560508E+02 -0.87628244095E+00  0.48259041655E+02  0.00000000000E+00 0.  1.
         22    1    1    2    0    0  0.23866520844E+01 -0.22115118557E+02  0.10746381708E+03  0.10974172660E+03  0.00000000000E+00 0. -1.
         22    1    1    2    0    0  0.81722397875E+01  0.63002648318E+01 -0.34177796236E+02  0.35701548925E+02  0.00000000000E+00 0.  1.
</event>
<event>
 6    1  0.8017648E-006  0.5586805E+02  0.7818608E-02  0.1523175E+00
          2   -1    0    0  502    0  0.00000000000E+00  0.00000000000E+00  0.33098690339E+03  0.33098690339E+03  0.00000000000E+00 0. -1.
          1   -1    0    0  501    0 -0.00000000000E+00 -0.00000000000E+00 -0.37057500342E+02  0.37057500342E+02  0.00000000000E+00 0. -1.
          2    1    1    2  501    0 -0.26184256813E+02 -0.62978171318E+01  0.48593499670E+02  0.55557231894E+02  0.00000000000E+00 0. -1.
          1    1    1    2  502    0  0.45925665262E+02  0.27845564251E+01  0.14762683883E+03  0.15463054041E+03  0.00000000000E+00 0. -1.
         22    1    1    2    0    0  0.11976793604E+02  0.80993317977E+00 -0.26787758562E+02  0.29354447458E+02  0.00000000000E+00 0. -1.
         22    1    1    2    0    0 -0.31718202053E+02  0.27033275269E+01  0.12449682311E+03  0.12850218397E+03  0.00000000000E+00 0. -1.
</event>
<event>
 6    1  0.8017648E-006  0.9979767E+02  0.7818608E-02  0.1310738E+00
          2   -1    0    0  502    0  0.00000000000E+00  0.00000000000E+00  0.51649133163E+03  0.51649133163E+03  0.00000000000E+00 0.  1.
          1   -1    0    0  501    0 -0.00000000000E+00 -0.00000000000E+00 -0.18029875865E+03  0.18029875865E+03  0.00000000000E+00 0. -1.
          2    1    1    2  501    0 -0.75838826527E+02 -0.38153709709E+02  0.39327063286E+03  0.40232949661E+03  0.00000000000E+00 0.  1.
          1    1    1    2  502    0  0.59559930762E+02  0.10109568712E+03 -0.96758122703E+02  0.15208503416E+03  0.00000000000E+00 0. -1.
         22    1    1    2    0    0  0.25201704790E+02 -0.51311580766E+02 -0.34493871854E+02  0.66766993645E+02  0.00000000000E+00 0. -1.
         22    1    1    2    0    0 -0.89228090256E+01 -0.11630396647E+02  0.74173934670E+02  0.75608565861E+02  0.00000000000E+00 0.  1.
</event>
<event>
 6    1  0.8017648E-006  0.2096648E+03  0.7818608E-02  0.1143317E+00
          2   -1    0    0  502    0  0.00000000000E+00  0.00000000000E+00  0.17636363614E+03  0.17636363614E+03  0.00000000000E+00 0. -1.
          1   -1    0    0  501    0 -0.00000000000E+00 -0.00000000000E+00 -0.26747457999E+03  0.26747457999E+03  0.00000000000E+00 0. -1.
          2    1    1    2  501    0 -0.10871798402E+03 -0.11015708280E+03  0.24665645477E+01  0.15479104264E+03  0.00000000000E+00 0. -1.
          1    1    1    2  502    0  0.11261604341E+03  0.99989613373E+02 -0.51240811103E+02  0.15907833523E+03  0.00000000000E+00 0. -1.
         22    1    1    2    0    0  0.30811231595E+02  0.36204083730E+02 -0.65382458783E+02  0.80838936086E+02  0.00000000000E+00 0. -1.
         22    1    1    2    0    0 -0.34709290989E+02 -0.26036614301E+02  0.23045761492E+02  0.49129902177E+02  0.00000000000E+00 0. -1.
</event>
<event>
 6    1  0.8017648E-006  0.6072910E+02  0.7818608E-02  0.1429962E+00
          2   -1    0    0  502    0  0.00000000000E+00  0.00000000000E+00  0.83835118735E+03  0.83835118735E+03  0.00000000000E+00 0.  1.
          1   -1    0    0  501    0 -0.00000000000E+00 -0.00000000000E+00 -0.62051115963E+02  0.62051115963E+02  0.00000000000E+00 0.  1.
          2    1    1    2  501    0 -0.12285198792E+03  0.65051019559E+02  0.52167266358E+03  0.53987648032E+03  0.00000000000E+00 0.  1.
          1    1    1    2  502    0  0.92398064775E+02 -0.73359814948E+02  0.16289094665E+03  0.20112813161E+03  0.00000000000E+00 0.  1.
         22    1    1    2    0    0  0.10830544802E+02 -0.12413352268E+02 -0.30073006163E+02  0.34289615264E+02  0.00000000000E+00 0.  1.
         22    1    1    2    0    0  0.19623378342E+02  0.20722147657E+02  0.12180946732E+03  0.12510807611E+03  0.00000000000E+00 0.  1.
</event>
<event>
 6    1  0.8017648E-006  0.6781755E+02  0.7818608E-02  0.1467515E+00
          2   -1    0    0  502    0  0.00000000000E+00  0.00000000000E+00  0.31260531307E+03  0.31260531307E+03  0.00000000000E+00 0.  1.
          1   -1    0    0  501    0 -0.00000000000E+00 -0.00000000000E+00 -0.24738871364E+03  0.24738871364E+03  0.00000000000E+00 0.  1.
          2    1    1    2  501    0  0.10820352985E+03  0.25941326497E+02  0.23612194574E+03  0.26102591740E+03  0.00000000000E+00 0.  1.
          1    1    1    2  502    0 -0.64098506570E+02  0.21365894356E+02 -0.13690763363E+03  0.15267226379E+03  0.00000000000E+00 0.  1.
         22    1    1    2    0    0 -0.12437973865E+02  0.12537191187E+01 -0.74521621324E+02  0.75562868198E+02  0.00000000000E+00 0.  1.
         22    1    1    2    0    0 -0.31667049410E+02 -0.48560939972E+02  0.40523908646E+02  0.70732977325E+02  0.00000000000E+00 0. -1.
</event>
<event>
 6    1  0.8017648E-006  0.9754391E+02  0.7818608E-02  0.1304976E+00
          2   -1    0    0  502    0  0.00000000000E+00  0.00000000000E+00  0.81286940683E+02  0.81286940683E+02  0.00000000000E+00 0.  1.
          1   -1    0    0  501    0 -0.00000000000E+00 -0.00000000000E+00 -0.37223694454E+03  0.37223694454E+03  0.00000000000E+00 0.  1.
          2    1    1    2  501    0  0.48697970363E+01 -0.27848567483E+02  0.34182047539E+02  0.44358426572E+02  0.00000000000E+00 0.  1.
          1    1    1    2  502    0 -0.46128979210E+01  0.71371828130E+02 -0.23734448178E+03  0.24788630400E+03  0.00000000000E+00 0.  1.
         22    1    1    2    0    0 -0.57439260161E+02 -0.36384323019E+02 -0.76873314973E+02  0.10262842747E+03  0.00000000000E+00 0.  1.
         22    1    1    2    0    0  0.57182361046E+02 -0.71389376292E+01 -0.10914254644E+02  0.58650727188E+02  0.00000000000E+00 0.  1.
</event>
<event>
 6    1  0.8017648E-006  0.4503410E+02  0.7818608E-02  0.1582775E+00
          2   -1    0    0  502    0  0.00000000000E+00  0.00000000000E+00  0.17187424119E+03  0.17187424119E+03  0.00000000000E+00 0.  1.
          1   -1    0    0  501    0 -0.00000000000E+00 -0.00000000000E+00 -0.16882402181E+03  0.16882402181E+03  0.00000000000E+00 0.  1.
          2    1    1    2  501    0  0.31182349835E+02 -0.32250278642E+01  0.31107067090E+02  0.44163212846E+02  0.00000000000E+00 0.  1.
          1    1    1    2  502    0  0.20261161927E+02 -0.39252543885E+01 -0.12670572960E+03  0.12837548137E+03  0.00000000000E+00 0.  1.
         22    1    1    2    0    0 -0.56965128946E+02  0.16301173937E+02  0.12575927615E+03  0.13901852296E+03  0.00000000000E+00 0.  1.
         22    1    1    2    0    0  0.55216171838E+01 -0.91508916847E+01 -0.27110394255E+02  0.29141045822E+02  0.00000000000E+00 0. -1.
</event>
<event>
 6    1  0.8017648E-006  0.6584545E+03  0.7818608E-02  0.9797470E-01
          2   -1    0    0  502    0  0.00000000000E+00  0.00000000000E+00  0.14993168376E+04  0.14993168376E+04  0.00000000000E+00 0. -1.
          1   -1    0    0  501    0 -0.00000000000E+00 -0.00000000000E+00 -0.36211573379E+03  0.36211573379E+03  0.00000000000E+00 0. -1.
          2    1    1    2  501    0  0.38144908480E+03 -0.13036879472E+03  0.11293242624E+03  0.41863248778E+03  0.00000000000E+00 0. -1.
          1    1    1    2  502    0 -0.55439859587E+03  0.29555485503E+03  0.98934078240E+03  0.11719665777E+04  0.00000000000E+00 0. -1.
         22    1    1    2    0    0  0.18304001840E+03 -0.17460602592E+03  0.25782502573E+02  0.25427475309E+03  0.00000000000E+00 0. -1.
         22    1    1    2    0    0 -0.10090507329E+02  0.94199656064E+01  0.91453925930E+01  0.16558752847E+02  0.00000000000E+00 0. -1.
</event>
<event>
 6    1  0.8017648E-006  0.8047175E+02  0.7818608E-02  0.1434466E+00
          2   -1    0    0  502    0  0.00000000000E+00  0.00000000000E+00  0.14851481798E+04  0.14851481798E+04  0.00000000000E+00 0.  1.
          1   -1    0    0  501    0 -0.00000000000E+00 -0.00000000000E+00 -0.21015531094E+02  0.21015531094E+02  0.00000000000E+00 0.  1.
          2    1    1    2  501    0 -0.20910398001E+02 -0.17241709700E+02  0.10976316225E+03  0.11305959970E+03  0.00000000000E+00 0.  1.
          1    1    1    2  502    0  0.76707913993E+02  0.16709644278E+02  0.11077177897E+04  0.11104962935E+04  0.00000000000E+00 0.  1.
         22    1    1    2    0    0 -0.35631066817E+01  0.13653512089E+02 -0.11929329470E+02  0.18477635758E+02  0.00000000000E+00 0.  1.
         22    1    1    2    0    0 -0.52234409310E+02 -0.13121446667E+02  0.25858102623E+03  0.26413018193E+03  0.00000000000E+00 0.  1.
</event>
<event>
 6    1  0.8017648E-006  0.4383734E+02  0.7818608E-02  0.1549374E+00
          2   -1    0    0  502    0  0.00000000000E+00  0.00000000000E+00  0.92681401548E+02  0.92681401548E+02  0.00000000000E+00 0.  1.
          1   -1    0    0  501    0 -0.00000000000E+00 -0.00000000000E+00 -0.15574861764E+03  0.15574861764E+03  0.00000000000E+00 0.  1.
          2    1    1    2  501    0 -0.27825543032E+02  0.95597630203E+01  0.26621538092E+02  0.39678157775E+02  0.00000000000E+00 0.  1.
          1    1    1    2  502    0  0.30247261206E+02  0.34050947001E+01 -0.80783628502E+02  0.86327782981E+02  0.00000000000E+00 0.  1.
         22    1    1    2    0    0  0.12644674464E+02 -0.37964686404E+01 -0.63600062038E+02  0.64955899329E+02  0.00000000000E+00 0.  1.
         22    1    1    2    0    0 -0.15066392638E+02 -0.91683890800E+01  0.54694936361E+02  0.57468179099E+02  0.00000000000E+00 0.  1.
</event>
<event>
 6    1  0.8017648E-006  0.1288444E+03  0.7818608E-02  0.1230453E+00
          2   -1    0    0  502    0  0.00000000000E+00  0.00000000000E+00  0.19233588119E+03  0.19233588119E+03  0.00000000000E+00 0.  1.
          1   -1    0    0  501    0 -0.00000000000E+00 -0.00000000000E+00 -0.27040090341E+03  0.27040090341E+03  0.00000000000E+00 0.  1.
          2    1    1    2  501    0  0.77817735896E+02 -0.79330403741E+02  0.12382954366E+03  0.16638109526E+03  0.00000000000E+00 0.  1.
          1    1    1    2  502    0 -0.33556836579E+02  0.60993727303E+02 -0.11490618371E+03  0.13434927281E+03  0.00000000000E+00 0.  1.
         22    1    1    2    0    0  0.79545036495E+01 -0.87672712323E+01  0.29345292179E+02  0.31643093184E+02  0.00000000000E+00 0.  1.
         22    1    1    2    0    0 -0.52215402966E+02  0.27103947671E+02 -0.11633367435E+03  0.13036332335E+03  0.00000000000E+00 0.  1.
</event>
<event>
 6    1  0.8017648E-006  0.7814727E+02  0.7818608E-02  0.1433694E+00
          2   -1    0    0  502    0  0.00000000000E+00  0.00000000000E+00  0.28577389288E+03  0.28577389288E+03  0.00000000000E+00 0. -1.
          1   -1    0    0  501    0 -0.00000000000E+00 -0.00000000000E+00 -0.78670851040E+02  0.78670851040E+02  0.00000000000E+00 0. -1.
          2    1    1    2  501    0  0.17949554686E+02  0.45217692457E+02  0.11435085688E+03  0.12426964510E+03  0.00000000000E+00 0. -1.
          1    1    1    2  502    0 -0.37976245811E+02 -0.80712529946E+02  0.45805634748E+02  0.10027394433E+03  0.00000000000E+00 0. -1.
         22    1    1    2    0    0  0.12231430751E+02  0.21995898661E+02  0.90346576284E+02  0.93786626458E+02  0.00000000000E+00 0.  1.
         22    1    1    2    0    0  0.77952603744E+01  0.13498938828E+02 -0.43400026065E+02  0.46114528039E+02  0.00000000000E+00 0. -1.
</event>
<event>
 6    1  0.8017648E-006  0.4672394E+03  0.7818608E-02  0.1060533E+00
          2   -1    0    0  502    0  0.00000000000E+00  0.00000000000E+00  0.12618974349E+04  0.12618974349E+04  0.00000000000E+00 0.  1.
          1   -1    0    0  501    0 -0.00000000000E+00 -0.00000000000E+00 -0.47654957989E+03  0.47654957989E+03  0.00000000000E+00 0. -1.
          2    1    1    2  501    0  0.11401416223E+03 -0.20234489789E+03  0.53403471634E+03  0.58235364268E+03  0.00000000000E+00 0.  1.
          1    1    1    2  502    0  0.32612605201E+02  0.37917052754E+03  0.60582372029E+03  0.71544129810E+03  0.00000000000E+00 0. -1.
         22    1    1    2    0    0 -0.10346718384E+03 -0.11663463212E+03 -0.32585797951E+03  0.36123748193E+03  0.00000000000E+00 0. -1.
         22    1    1    2    0    0 -0.43159583584E+02 -0.60190997519E+02 -0.28652602057E+02  0.79414592123E+02  0.00000000000E+00 0.  1.
</event>
<event>
 6    1  0.8017648E-006  0.2713793E+03  0.7818608E-02  0.1179073E+00
          2   -1    0    0  502    0  0.00000000000E+00  0.00000000000E+00  0.80865644734E+03  0.80865644734E+03  0.00000000000E+00 0. -1.
          1   -1    0    0  501    0 -0.00000000000E+00 -0.00000000000E+00 -0.20705238612E+03  0.20705238612E+03  0.00000000000E+00 0. -1.
          2    1    1    2  501    0 -0.21852055459E+03  0.12932611503E+03  0.14134760769E+03  0.29061249630E+03  0.00000000000E+00 0. -1.
          1    1    1    2  502    0  0.21964864351E+03 -0.13690835372E+03  0.52400415007E+03  0.58443970878E+03  0.00000000000E+00 0. -1.
         22    1    1    2    0    0  0.40326135840E+02  0.51285868119E+01 -0.84843018549E+02  0.94078889401E+02  0.00000000000E+00 0. -1.
         22    1    1    2    0    0 -0.41454224758E+02  0.24536518792E+01  0.21095322012E+02  0.46577738981E+02  0.00000000000E+00 0.  1.
</event>
<event>
 6    1  0.8017648E-006  0.2698550E+03  0.7818608E-02  0.1208832E+00
          2   -1    0    0  502    0  0.00000000000E+00  0.00000000000E+00  0.11418790116E+03  0.11418790116E+03  0.00000000000E+00 0.  1.
          1   -1    0    0  501    0 -0.00000000000E+00 -0.00000000000E+00 -0.14335430066E+04  0.14335430066E+04  0.00000000000E+00 0.  1.
          2    1    1    2  501    0  0.17823444614E+03  0.69268584611E+02 -0.61101958387E+02  0.20074636715E+03  0.00000000000E+00 0.  1.
          1    1    1    2  502    0 -0.22233482672E+03 -0.11889170800E+03 -0.11180720295E+04  0.11461470571E+04  0.00000000000E+00 0.  1.
         22    1    1    2    0    0  0.37264923021E+02  0.70023609620E+02 -0.24277820854E+02  0.82954161905E+02  0.00000000000E+00 0.  1.
         22    1    1    2    0    0  0.68354575595E+01 -0.20400486229E+02 -0.11590329670E+03  0.11788332157E+03  0.00000000000E+00 0.  1.
</event>
<event>
 6    1  0.8017648E-006  0.5524614E+02  0.7818608E-02  0.1423280E+00
          2   -1    0    0  502    0  0.00000000000E+00  0.00000000000E+00  0.38065130046E+03  0.38065130046E+03  0.00000000000E+00 0.  1.
          1   -1    0    0  501    0 -0.00000000000E+00 -0.00000000000E+00 -0.14228609507E+03  0.14228609507E+03  0.00000000000E+00 0.  1.
          2    1    1    2  501    0  0.27696947583E+02  0.23489249271E+02  0.28263007116E+03  0.28495372055E+03  0.00000000000E+00 0.  1.
          1    1    1    2  502    0 -0.35617049747E+02 -0.10132738781E+02 -0.92531982598E+02  0.99666516099E+02  0.00000000000E+00 0.  1.
         22    1    1    2    0    0  0.14603285212E+02  0.35643675842E+01  0.90810946775E+02  0.92046665933E+02  0.00000000000E+00 0.  1.
         22    1    1    2    0    0 -0.66831830472E+01 -0.16920878074E+02 -0.42543829941E+02  0.46270492935E+02  0.00000000000E+00 0.  1.
</event>
<event>
 6    1  0.8017648E-006  0.5109127E+03  0.7818608E-02  0.1117858E+00
          2   -1    0    0  502    0  0.00000000000E+00  0.00000000000E+00  0.62012905446E+03  0.62012905446E+03  0.00000000000E+00 0. -1.
          1   -1    0    0  501    0 -0.00000000000E+00 -0.00000000000E+00 -0.46188602462E+03  0.46188602462E+03  0.00000000000E+00 0. -1.
          2    1    1    2  501    0 -0.47793010053E+03  0.10547020621E+02 -0.81656882174E+02  0.48497037749E+03  0.00000000000E+00 0. -1.
          1    1    1    2  502    0  0.36948435135E+03 -0.23881290270E+02  0.22410970928E+03  0.43279806343E+03  0.00000000000E+00 0. -1.
         22    1    1    2    0    0 -0.64198938381E+01 -0.25312110988E+02  0.32735372272E+02  0.41875083251E+02  0.00000000000E+00 0. -1.
         22    1    1    2    0    0  0.11486564302E+03  0.38646380637E+02 -0.16945169541E+02  0.12237155492E+03  0.00000000000E+00 0. -1.
</event>
<event>
 6    1  0.8017648E-006  0.9043212E+02  0.7818608E-02  0.1413534E+00
          2   -1    0    0  502    0  0.00000000000E+00  0.00000000000E+00  0.58555801110E+03  0.58555801110E+03  0.00000000000E+00 0.  1.
          1   -1    0    0  501    0 -0.00000000000E+00 -0.00000000000E+00 -0.46044474327E+02  0.46044474327E+02  0.00000000000E+00 0.  1.
          2    1    1    2  501    0  0.19951312007E+02 -0.15660309846E+01  0.15708846030E+03  0.15835811208E+03  0.00000000000E+00 0.  1.
          1    1    1    2  502    0  0.27525645233E+02  0.67006039435E+02  0.95153820647E+01  0.73061706537E+02  0.00000000000E+00 0.  1.
         22    1    1    2    0    0 -0.35409878996E+02 -0.58965539396E+02  0.37900329325E+03  0.38519383518E+03  0.00000000000E+00 0.  1.
         22    1    1    2    0    0 -0.12067078244E+02 -0.64744690544E+01 -0.60935988351E+01  0.14988831630E+02  0.00000000000E+00 0.  1.
</event>
<event>
 6    1  0.8017648E-006  0.1116334E+03  0.7818608E-02  0.1300890E+00
          2   -1    0    0  502    0  0.00000000000E+00  0.00000000000E+00  0.28395253242E+02  0.28395253242E+02  0.00000000000E+00 0.  1.
          1   -1    0    0  501    0 -0.00000000000E+00 -0.00000000000E+00 -0.70521252429E+03  0.70521252429E+03  0.00000000000E+00 0. -1.
          2    1    1    2  501    0 -0.32025117783E+02  0.13301315092E+02 -0.11981586431E+03  0.12473321327E+03  0.00000000000E+00 0.  1.
          1    1    1    2  502    0  0.99616789070E+02 -0.46486786710E+01 -0.19438779962E+03  0.21847592892E+03  0.00000000000E+00 0. -1.
         22    1    1    2    0    0 -0.81609087832E+02  0.38188301992E+02 -0.17915523645E+03  0.20053675068E+03  0.00000000000E+00 0.  1.
         22    1    1    2    0    0  0.14017416546E+02 -0.46840938413E+02 -0.18345837067E+03  0.18986188466E+03  0.00000000000E+00 0. -1.
</event>
<event>
 6    1  0.8017648E-006  0.1108333E+03  0.7818608E-02  0.1380008E+00
          2   -1    0    0  502    0  0.00000000000E+00  0.00000000000E+00  0.10974238176E+03  0.10974238176E+03  0.00000000000E+00 0.  1.
          1   -1    0    0  501    0 -0.00000000000E+00 -0.00000000000E+00 -0.90322120293E+03  0.90322120293E+03  0.00000000000E+00 0.  1.
          2    1    1    2  501    0  0.10667227083E+02 -0.21611549747E+02 -0.12892152436E+01  0.24135262420E+02  0.00000000000E+00 0.  1.
          1    1    1    2  502    0 -0.15443903720E+02  0.10105349139E+03 -0.82795682906E+03  0.83424386907E+03  0.00000000000E+00 0.  1.
         22    1    1    2    0    0  0.17145856305E+02 -0.76641766506E+02  0.77879730029E+02  0.11060376626E+03  0.00000000000E+00 0.  1.
         22    1    1    2    0    0 -0.12369179667E+02 -0.28001751330E+01 -0.42112506893E+02  0.43980686935E+02  0.00000000000E+00 0.  1.
</event>
<event>
 6    1  0.8017648E-006  0.7896129E+02  0.7818608E-02  0.1346041E+00
          2   -1    0    0  502    0  0.00000000000E+00  0.00000000000E+00  0.11820655623E+04  0.11820655623E+04  0.00000000000E+00 0. -1.
          1   -1    0    0  501    0 -0.00000000000E+00 -0.00000000000E+00 -0.13255945064E+03  0.13255945064E+03  0.00000000000E+00 0.  1.
          2    1    1    2  501    0  0.78649150955E+01  0.57884451951E+02  0.99032216138E+03  0.99204357263E+03  0.00000000000E+00 0. -1.
          1    1    1    2  502    0  0.74254114258E+02 -0.68145711202E+02 -0.73543488569E+02  0.12476440258E+03  0.00000000000E+00 0.  1.
         22    1    1    2    0    0 -0.55146806425E+02 -0.31866674841E+02  0.89548793392E+01  0.64318310676E+02  0.00000000000E+00 0.  1.
         22    1    1    2    0    0 -0.26972222929E+02  0.42127934092E+02  0.12377255950E+03  0.13349872706E+03  0.00000000000E+00 0. -1.
</event>
<event>
 6    1  0.8017648E-006  0.8748154E+02  0.7818608E-02  0.1386183E+00
          2   -1    0    0  502    0  0.00000000000E+00  0.00000000000E+00  0.19243300280E+03  0.19243300280E+03  0.00000000000E+00 0.  1.
          1   -1    0    0  501    0 -0.00000000000E+00 -0.00000000000E+00 -0.17392727607E+03  0.17392727607E+03  0.00000000000E+00 0.  1.
          2    1    1    2  501    0  0.25401839282E+02 -0.49184411770E+02  0.97501166290E+02  0.11211974504E+03  0.00000000000E+00 0.  1.
          1    1    1    2  502    0 -0.16100707521E+02  0.95659633965E+02  0.64286361502E+01  0.97217928983E+02  0.00000000000E+00 0.  1.
         22    1    1    2    0    0 -0.13358313099E+02 -0.19127088112E+02 -0.11452802070E+03  0.11688009905E+03  0.00000000000E+00 0. -1.
         22    1    1    2    0    0  0.40571813385E+01 -0.27348134083E+02  0.29103944986E+02  0.40142505801E+02  0.00000000000E+00 0. -1.
</event>
<event>
 6    1  0.8017648E-006  0.3221894E+03  0.7818608E-02  0.1076053E+00
          2   -1    0    0  502    0  0.00000000000E+00  0.00000000000E+00  0.58475326353E+03  0.58475326353E+03  0.00000000000E+00 0. -1.
          1   -1    0    0  501    0 -0.00000000000E+00 -0.00000000000E+00 -0.22102084746E+03  0.22102084746E+03  0.00000000000E+00 0. -1.
          2    1    1    2  501    0 -0.18663959626E+03  0.20572243414E+03  0.30366169427E+03  0.41154159372E+03  0.00000000000E+00 0. -1.
          1    1    1    2  502    0  0.15169906484E+03 -0.20442267781E+03  0.28884483077E+02  0.25619436145E+03  0.00000000000E+00 0. -1.
         22    1    1    2    0    0  0.51244667816E+02 -0.20872735204E+02 -0.36116084963E+02  0.66076157936E+02  0.00000000000E+00 0. -1.
         22    1    1    2    0    0 -0.16304136401E+02  0.19572978872E+02  0.67302323690E+02  0.71961997886E+02  0.00000000000E+00 0.  1.
</event>
<event>
 6    1  0.8017648E-006  0.3373130E+02  0.7818608E-02  0.1606645E+00
          2   -1    0    0  502    0  0.00000000000E+00  0.00000000000E+00  0.20272765764E+03  0.20272765764E+03  0.00000000000E+00 0. -1.
          1   -1    0    0  501    0 -0.00000000000E+00 -0.00000000000E+00 -0.66995245413E+02  0.66995245413E+02  0.00000000000E+00 0.  1.
          2    1    1    2  501    0 -0.86236539200E+01 -0.25593890990E+02  0.81458871581E+02  0.85819359251E+02  0.00000000000E+00 0. -1.
          1    1    1    2  502    0 -0.48396240406E+01  0.27501642654E+02  0.56419290255E+02  0.62951557744E+02  0.00000000000E+00 0.  1.
         22    1    1    2    0    0 -0.36615835176E+01 -0.10244301117E+02  0.57406456790E+02  0.58428196792E+02  0.00000000000E+00 0.  1.
         22    1    1    2    0    0  0.17124861478E+02  0.83365494537E+01 -0.59552206398E+02  0.62523789267E+02  0.00000000000E+00 0.  1.
</event>
<event>
 6    1  0.1255785E-005  0.1058361E+03  0.7818608E-02  0.1366830E+00
          2   -1    0    0  502    0  0.00000000000E+00  0.00000000000E+00  0.28193651946E+03  0.28193651946E+03  0.00000000000E+00 0. -1.
          1   -1    0    0  501    0 -0.00000000000E+00 -0.00000000000E+00 -0.21158006673E+03  0.21158006673E+03  0.00000000000E+00 0.  1.
          2    1    1    2  501    0  0.16790390063E+02  0.93263888058E+02  0.20642238023E+03  0.22713491381E+03  0.00000000000E+00 0. -1.
          1    1    1    2  502    0 -0.14072126622E+02 -0.85363707237E+02 -0.99539821968E+02  0.13188314304E+03  0.00000000000E+00 0.  1.
         22    1    1    2    0    0 -0.24649768859E+01 -0.17927037424E+02 -0.84025367881E+02  0.85951830867E+02  0.00000000000E+00 0.  1.
         22    1    1    2    0    0 -0.25328655601E+00  0.10026856602E+02  0.47499262358E+02  0.48546698466E+02  0.00000000000E+00 0. -1.
</event>
<event>
 6    1  0.8017648E-006  0.6115308E+02  0.7818608E-02  0.1393402E+00
          2   -1    0    0  502    0  0.00000000000E+00  0.00000000000E+00  0.24094197616E+03  0.24094197616E+03  0.00000000000E+00 0.  1.
          1   -1    0    0  501    0 -0.00000000000E+00 -0.00000000000E+00 -0.24239103556E+03  0.24239103556E+03  0.00000000000E+00 0.  1.
          2    1    1    2  501    0 -0.29850396257E+02  0.41674222653E+02  0.17859638530E+03  0.18580757744E+03  0.00000000000E+00 0.  1.
          1    1    1    2  502    0 -0.11094899232E+02 -0.78543834221E+02 -0.13261692170E+03  0.15452986315E+03  0.00000000000E+00 0.  1.
         22    1    1    2    0    0 -0.96037163861E+01  0.30572889676E+01  0.37335519821E+02  0.38671946222E+02  0.00000000000E+00 0.  1.
         22    1    1    2    0    0  0.50549011875E+02  0.33812322601E+02 -0.84764042815E+02  0.10432362492E+03  0.00000000000E+00 0. -1.
</event>
<event>
 6    1  0.8017648E-006  0.4336297E+02  0.7818608E-02  0.1593434E+00
          2   -1    0    0  502    0  0.00000000000E+00  0.00000000000E+00  0.18946651414E+03  0.18946651414E+03  0.00000000000E+00 0. -1.
          1   -1    0    0  501    0 -0.00000000000E+00 -0.00000000000E+00 -0.19400450445E+03  0.19400450445E+03  0.00000000000E+00 0.  1.
          2    1    1    2  501    0 -0.36135998777E+02 -0.18273835445E+02  0.13913533542E+03  0.14490819519E+03  0.00000000000E+00 0. -1.
          1    1    1    2  502    0  0.22823014851E+02 -0.38316459074E+02 -0.55241451540E+02  0.70997598629E+02  0.00000000000E+00 0.  1.
         22    1    1    2    0    0  0.15658727562E+02  0.46345904701E+02 -0.12250327571E+03  0.13190978428E+03  0.00000000000E+00 0.  1.
         22    1    1    2    0    0 -0.23457436359E+01  0.10244389818E+02  0.34071401509E+02  0.35655440493E+02  0.00000000000E+00 0.  1.
</event>
<event>
 6    1  0.8017648E-006  0.5962912E+02  0.7818608E-02  0.1401542E+00
          2   -1    0    0  502    0  0.00000000000E+00  0.00000000000E+00  0.66954387493E+02  0.66954387493E+02  0.00000000000E+00 0.  1.
          1   -1    0    0  501    0 -0.00000000000E+00 -0.00000000000E+00 -0.19789391168E+03  0.19789391168E+03  0.00000000000E+00 0. -1.
          2    1    1    2  501    0 -0.13756946154E+02  0.17693986579E+02  0.14870654958E+02  0.26897343873E+02  0.00000000000E+00 0.  1.
          1    1    1    2  502    0  0.11025608536E+02 -0.37228416881E+02 -0.97466429087E+02  0.10491531759E+03  0.00000000000E+00 0. -1.
         22    1    1    2    0    0 -0.10619370328E+02  0.33173570866E+02  0.33900688942E+02  0.48605694531E+02  0.00000000000E+00 0.  1.
         22    1    1    2    0    0  0.13350707946E+02 -0.13639140564E+02 -0.82244439005E+02  0.84429943179E+02  0.00000000000E+00 0. -1.
</event>
<event>
 6    1  0.8017648E-006  0.1378228E+03  0.7818608E-02  0.1282368E+00
          2   -1    0    0  502    0  0.00000000000E+00  0.00000000000E+00  0.82818068930E+03  0.82818068930E+03  0.00000000000E+00 0.  1.
          1   -1    0    0  501    0 -0.00000000000E+00 -0.00000000000E+00 -0.32818022693E+02  0.32818022693E+02  0.00000000000E+00 0. -1.
          2    1    1    2  501    0 -0.70471231778E+02 -0.37574127108E+02  0.24951401468E+03  0.26198330683E+03  0.00000000000E+00 0.  1.
          1    1    1    2  502    0  0.11068286119E+03  0.61991624847E+01  0.28341759220E+03  0.30432656299E+03  0.00000000000E+00 0. -1.
         22    1    1    2    0    0 -0.73647056756E+02  0.16185919496E+02  0.24020620904E+03  0.25176357127E+03  0.00000000000E+00 0.  1.
         22    1    1    2    0    0  0.33435427344E+02  0.15189045127E+02  0.22224850696E+02  0.42925270902E+02  0.00000000000E+00 0. -1.
</event>
<event>
 6    1  0.8017648E-006  0.3280785E+02  0.7818608E-02  0.1576096E+00
          2   -1    0    0  502    0  0.00000000000E+00  0.00000000000E+00  0.58269161063E+03  0.58269161063E+03  0.00000000000E+00 0.  1.
          1   -1    0    0  501    0 -0.00000000000E+00 -0.00000000000E+00 -0.17295749776E+03  0.17295749776E+03  0.00000000000E+00 0.  1.
          2    1    1    2  501    0  0.53944733856E+02 -0.53783682028E+02  0.49293634068E+03  0.49878748453E+03  0.00000000000E+00 0.  1.
          1    1    1    2  502    0 -0.77534768753E+02  0.48848723503E+02 -0.93503720703E+02  0.13092281672E+03  0.00000000000E+00 0.  1.
         22    1    1    2    0    0  0.13343100382E+02 -0.19661994480E+01 -0.56457599402E+02  0.58046229837E+02  0.00000000000E+00 0.  1.
         22    1    1    2    0    0  0.10246934515E+02  0.69011579728E+01  0.66759092299E+02  0.67892577303E+02  0.00000000000E+00 0. -1.
</event>
<event>
 6    1  0.8017648E-006  0.1369253E+03  0.7818608E-02  0.1346872E+00
          2   -1    0    0  502    0  0.00000000000E+00  0.00000000000E+00  0.13246443619E+03  0.13246443619E+03  0.00000000000E+00 0.  1.
          1   -1    0    0  501    0 -0.00000000000E+00 -0.00000000000E+00 -0.30521569135E+03  0.30521569135E+03  0.00000000000E+00 0.  1.
          2    1    1    2  501    0 -0.64392745514E+02  0.11998462323E+03 -0.30287319312E+02  0.13949930895E+03  0.00000000000E+00 0.  1.
          1    1    1    2  502    0  0.54554003545E+02 -0.89006697456E+02 -0.13282261535E+03  0.16893838712E+03  0.00000000000E+00 0.  1.
         22    1    1    2    0    0  0.10886107507E+02 -0.43033869939E+01  0.56613926902E+02  0.57811445195E+02  0.00000000000E+00 0.  1.
         22    1    1    2    0    0 -0.10473655378E+01 -0.26674538776E+02 -0.66255247394E+02  0.71430986279E+02  0.00000000000E+00 0. -1.
</event>
<event>
 6    1  0.8017648E-006  0.5167979E+02  0.7818608E-02  0.1445730E+00
          2   -1    0    0  502    0  0.00000000000E+00  0.00000000000E+00  0.65983295796E+02  0.65983295796E+02  0.00000000000E+00 0.  1.
          1   -1    0    0  501    0 -0.00000000000E+00 -0.00000000000E+00 -0.40919616408E+03  0.40919616408E+03  0.00000000000E+00 0.  1.
          2    1    1    2  501    0  0.90119963195E+01  0.48117006512E+02 -0.17142751849E+02  0.51868452206E+02  0.00000000000E+00 0.  1.
          1    1    1    2  502    0 -0.74083061934E+02 -0.56423466089E+02 -0.23865144203E+03  0.25617653752E+03  0.00000000000E+00 0.  1.
         22    1    1    2    0    0  0.33007471744E+02  0.18662478717E+02  0.27846924866E+02  0.47045005338E+02  0.00000000000E+00 0. -1.
         22    1    1    2    0    0  0.32063593871E+02 -0.10356019141E+02 -0.11526559926E+03  0.12008946481E+03  0.00000000000E+00 0.  1.
</event>
<event>
 6    1  0.8017648E-006  0.9938629E+02  0.7818608E-02  0.1303794E+00
          2   -1    0    0  502    0  0.00000000000E+00  0.00000000000E+00  0.54748610626E+03  0.54748610626E+03  0.00000000000E+00 0.  1.
          1   -1    0    0  501    0 -0.00000000000E+00 -0.00000000000E+00 -0.41589706845E+02  0.41589706845E+02  0.00000000000E+00 0.  1.
          2    1    1    2  501    0 -0.52760760610E+02 -0.64190466754E+01  0.15179191919E+03  0.16082813420E+03  0.00000000000E+00 0.  1.
          1    1    1    2  502    0  0.10325338934E+03 -0.19618058470E+02  0.12649524847E+03  0.16446026424E+03  0.00000000000E+00 0.  1.
         22    1    1    2    0    0 -0.28971130508E+02 -0.36025429211E+02  0.17078617632E+03  0.17693240510E+03  0.00000000000E+00 0. -1.
         22    1    1    2    0    0 -0.21521498225E+02  0.62062534356E+02  0.56823055438E+02  0.86855009561E+02  0.00000000000E+00 0.  1.
</event>
<event>
 6    1  0.8017648E-006  0.6355862E+02  0.7818608E-02  0.1395878E+00
          2   -1    0    0  502    0  0.00000000000E+00  0.00000000000E+00  0.26679538083E+03  0.26679538083E+03  0.00000000000E+00 0. -1.
          1   -1    0    0  501    0 -0.00000000000E+00 -0.00000000000E+00 -0.50123232157E+02  0.50123232157E+02  0.00000000000E+00 0. -1.
          2    1    1    2  501    0 -0.50933501860E+01 -0.52283409824E+02  0.74114471506E+02  0.90843007687E+02  0.00000000000E+00 0. -1.
          1    1    1    2  502    0  0.27518642151E+02 -0.61860880172E+01 -0.41583471089E+00  0.28208443227E+02  0.00000000000E+00 0. -1.
         22    1    1    2    0    0 -0.38895830795E+02  0.74687577218E+02  0.15141748066E+03  0.17325811177E+03  0.00000000000E+00 0. -1.
         22    1    1    2    0    0  0.16470538830E+02 -0.16218079376E+02 -0.84439687834E+01  0.24609050303E+02  0.00000000000E+00 0. -1.
</event>
<event>
 6    1  0.8194582E-006  0.2764382E+03  0.7818608E-02  0.1187611E+00
          2   -1    0    0  502    0  0.00000000000E+00  0.00000000000E+00  0.11990108710E+04  0.11990108710E+04  0.00000000000E+00 0. -1.
          1   -1    0    0  501    0 -0.00000000000E+00 -0.00000000000E+00 -0.70976163492E+03  0.70976163492E+03  0.00000000000E+00 0. -1.
          2    1    1    2  501    0  0.24673088928E+03  0.86173383946E+02  0.10708002854E+04  0.11022319334E+04  0.00000000000E+00 0. -1.
          1    1    1    2  502    0 -0.25759314262E+03 -0.56876320600E+02 -0.61738421333E+03  0.67138097221E+03  0.00000000000E+00 0. -1.
         22    1    1    2    0    0 -0.10212671310E+02 -0.55119159802E+01 -0.45963874106E+02  0.47406303335E+02  0.00000000000E+00 0. -1.
         22    1    1    2    0    0  0.21074924645E+02 -0.23785147366E+02  0.81797038164E+02  0.87753297012E+02  0.00000000000E+00 0. -1.
</event>
<event>
 6    1  0.8017648E-006  0.6641847E+02  0.7818608E-02  0.1468131E+00
          2   -1    0    0  502    0  0.00000000000E+00  0.00000000000E+00  0.43733754665E+03  0.43733754665E+03  0.00000000000E+00 0. -1.
          1   -1    0    0  501    0 -0.00000000000E+00 -0.00000000000E+00 -0.11049667689E+03  0.11049667689E+03  0.00000000000E+00 0.  1.
          2    1    1    2  501    0 -0.27562789930E+02 -0.33288236618E+02  0.32255997744E+03  0.32544239602E+03  0.00000000000E+00 0. -1.
          1    1    1    2  502    0  0.29194714210E+02  0.50425760556E+02 -0.59657520753E+02  0.83391297195E+02  0.00000000000E+00 0.  1.
         22    1    1    2    0    0 -0.16604894690E+02 -0.14014486020E+02  0.98678498342E+02  0.10104243851E+03  0.00000000000E+00 0.  1.
         22    1    1    2    0    0  0.14972970409E+02 -0.31230379182E+01 -0.34740085271E+02  0.37958091804E+02  0.00000000000E+00 0.  1.
</event>
<event>
 6    1  0.8017648E-006  0.2405043E+03  0.7818608E-02  0.1224741E+00
          2   -1    0    0  502    0  0.00000000000E+00  0.00000000000E+00  0.12087350602E+04  0.12087350602E+04  0.00000000000E+00 0. -1.
          1   -1    0    0  501    0 -0.00000000000E+00 -0.00000000000E+00 -0.16744224189E+03  0.16744224189E+03  0.00000000000E+00 0. -1.
          2    1    1    2  501    0 -0.16946693195E+02  0.34614994719E+03  0.24471338557E+03  0.42425418964E+03  0.00000000000E+00 0. -1.
          1    1    1    2  502    0  0.17171003494E+03 -0.20239011275E+03  0.32589418682E+03  0.42030121917E+03  0.00000000000E+00 0. -1.
         22    1    1    2    0    0 -0.13737253438E+03 -0.13967359307E+03  0.47450247953E+03  0.51335419437E+03  0.00000000000E+00 0. -1.
         22    1    1    2    0    0 -0.17390807372E+02 -0.40862413686E+01 -0.38172336403E+01  0.18267698877E+02  0.00000000000E+00 0. -1.
</event>
<event>
 6    1  0.8017648E-006  0.8512459E+02  0.7818608E-02  0.1438289E+00
          2   -1    0    0  502    0  0.00000000000E+00  0.00000000000E+00  0.38586565201E+03  0.38586565201E+03  0.00000000000E+00 0. -1.
          1   -1    0    0  501    0 -0.00000000000E+00 -0.00000000000E+00 -0.85078840595E+02  0.85078840595E+02  0.00000000000E+00 0.  1.
          2    1    1    2  501    0  0.40039840799E+02 -0.35980568733E+02  0.20283393542E+03  0.20985565404E+03  0.00000000000E+00 0. -1.
          1    1    1    2  502    0 -0.30951852217E+02  0.66817048379E+02 -0.30700710869E+02  0.79781381021E+02  0.00000000000E+00 0.  1.
         22    1    1    2    0    0 -0.11253361376E+02  0.22949798176E+00 -0.23469817641E+02  0.26029274897E+02  0.00000000000E+00 0.  1.
         22    1    1    2    0    0  0.21653727934E+01 -0.31065977627E+02  0.15212340451E+03  0.15527818264E+03  0.00000000000E+00 0. -1.
</event>
<event>
 6    1  0.8017648E-006  0.5048130E+02  0.7818608E-02  0.1444837E+00
          2   -1    0    0  502    0  0.00000000000E+00  0.00000000000E+00  0.19359925964E+03  0.19359925964E+03  0.00000000000E+00 0.  1.
          1   -1    0    0  501    0 -0.00000000000E+00 -0.00000000000E+00 -0.10434612559E+03  0.10434612559E+03  0.00000000000E+00 0.  1.
          2    1    1    2  501    0 -0.28283355444E+02  0.16054085140E+02  0.12947584678E+03  0.13349785296E+03  0.00000000000E+00 0.  1.
          1    1    1    2  502    0  0.19337650629E+02 -0.10687946654E+02 -0.35562050185E+02  0.41866888455E+02  0.00000000000E+00 0.  1.
         22    1    1    2    0    0  0.14055500647E+02 -0.22243758912E+02 -0.59455764317E+02  0.65017919219E+02  0.00000000000E+00 0.  1.
         22    1    1    2    0    0 -0.51097958321E+01  0.16877620426E+02  0.54795101769E+02  0.57562724593E+02  0.00000000000E+00 0.  1.
</event>
<event>
 6    1  0.8017648E-006  0.6776612E+02  0.7818608E-02  0.1427262E+00
          2   -1    0    0  502    0  0.00000000000E+00  0.00000000000E+00  0.25708437696E+03  0.25708437696E+03  0.00000000000E+00 0. -1.
          1   -1    0    0  501    0 -0.00000000000E+00 -0.00000000000E+00 -0.32960755320E+03  0.32960755320E+03  0.00000000000E+00 0. -1.
          2    1    1    2  501    0 -0.26484278363E+01  0.79047838667E+02  0.89201881590E+02  0.11921640259E+03  0.00000000000E+00 0. -1.
          1    1    1    2  502    0  0.82984676940E+02 -0.30489749216E+02 -0.26381439485E+03  0.27823392378E+03  0.00000000000E+00 0. -1.
         22    1    1    2    0    0 -0.54006117153E+02 -0.47481440166E+02  0.13142238881E+03  0.14980985325E+03  0.00000000000E+00 0. -1.
         22    1    1    2    0    0 -0.26330131951E+02 -0.10766492847E+01 -0.29333051803E+02  0.39431750535E+02  0.00000000000E+00 0. -1.
</event>
<event>
 6    1  0.8017648E-006  0.9134417E+03  0.7818608E-02  0.1065973E+00
          2   -1    0    0  502    0  0.00000000000E+00  0.00000000000E+00  0.24829613843E+04  0.24829613843E+04  0.00000000000E+00 0. -1.
          1   -1    0    0  501    0 -0.00000000000E+00 -0.00000000000E+00 -0.39908172597E+03  0.39908172597E+03  0.00000000000E+00 0. -1.
          2    1    1    2  501    0 -0.11826845266E+03  0.86360753190E+03  0.80601978159E+03  0.11872124007E+04  0.00000000000E+00 0. -1.
          1    1    1    2  502    0  0.93784654217E+02 -0.89782645932E+03  0.12758666466E+04  0.15629214991E+04  0.00000000000E+00 0. -1.
         22    1    1    2    0    0  0.13491312999E+02  0.48392910279E+02  0.55863803813E+02  0.75130911535E+02  0.00000000000E+00 0.  1.
         22    1    1    2    0    0  0.10992485447E+02 -0.14173982857E+02 -0.53870573665E+02  0.56778298964E+02  0.00000000000E+00 0. -1.
</event>
<event>
 6    1  0.8017648E-006  0.5210007E+02  0.7818608E-02  0.1475102E+00
          2   -1    0    0  502    0  0.00000000000E+00  0.00000000000E+00  0.85149961439E+02  0.85149961439E+02  0.00000000000E+00 0. -1.
          1   -1    0    0  501    0 -0.00000000000E+00 -0.00000000000E+00 -0.27180159155E+03  0.27180159155E+03  0.00000000000E+00 0. -1.
          2    1    1    2  501    0  0.27306349293E+01 -0.26822479220E+02  0.46684706866E+02  0.53910700365E+02  0.00000000000E+00 0. -1.
          1    1    1    2  502    0 -0.39544463172E+02  0.36952405218E+02 -0.98546284479E+02  0.11243048965E+03  0.00000000000E+00 0. -1.
         22    1    1    2    0    0  0.26407279699E+02  0.11198423136E+02 -0.15610099168E+03  0.15871442501E+03  0.00000000000E+00 0. -1.
         22    1    1    2    0    0  0.10406548543E+02 -0.21328349134E+02  0.21310939186E+02  0.31895937960E+02  0.00000000000E+00 0. -1.
</event>
<event>
 6    1  0.8017648E-006  0.8422103E+02  0.7818608E-02  0.1359991E+00
          2   -1    0    0  502    0  0.00000000000E+00  0.00000000000E+00  0.25321000144E+03  0.25321000144E+03  0.00000000000E+00 0.  1.
          1   -1    0    0  501    0 -0.00000000000E+00 -0.00000000000E+00 -0.61249693297E+02  0.61249693297E+02  0.00000000000E+00 0.  1.
          2    1    1    2  501    0 -0.59602652935E+00  0.30808649919E+02 -0.30685793207E-01  0.30814430046E+02  0.00000000000E+00 0.  1.
          1    1    1    2  502    0  0.28375506204E+02 -0.52050578878E+02  0.12165484584E+03  0.13533046084E+03  0.00000000000E+00 0.  1.
         22    1    1    2    0    0 -0.17372283172E+02  0.60133960996E+02  0.84919042144E+02  0.10549470701E+03  0.00000000000E+00 0.  1.
         22    1    1    2    0    0 -0.10407196503E+02 -0.38892032037E+02 -0.14582894049E+02  0.42820096846E+02  0.00000000000E+00 0.  1.
</event>
<event>
 6    1  0.8017648E-006  0.4933353E+02  0.7818608E-02  0.1459159E+00
          2   -1    0    0  502    0  0.00000000000E+00  0.00000000000E+00  0.19231904807E+03  0.19231904807E+03  0.00000000000E+00 0. -1.
          1   -1    0    0  501    0 -0.00000000000E+00 -0.00000000000E+00 -0.82512186031E+02  0.82512186031E+02  0.00000000000E+00 0. -1.
          2    1    1    2  501    0  0.28440907519E+02  0.21310047576E+02  0.81432623188E+02  0.88849735326E+02  0.00000000000E+00 0. -1.
          1    1    1    2  502    0 -0.73261670701E+01 -0.52708760881E+02  0.27323671368E+02  0.59820307710E+02  0.00000000000E+00 0. -1.
         22    1    1    2    0    0 -0.34805459465E+02  0.24376600522E+02 -0.54163825375E+02  0.68842999940E+02  0.00000000000E+00 0. -1.
         22    1    1    2    0    0  0.13690719016E+02  0.70221127827E+01  0.55214392856E+02  0.57318191123E+02  0.00000000000E+00 0. -1.
</event>
<event>
 6    1  0.8017648E-006  0.1327637E+03  0.7818608E-02  0.1228349E+00
          2   -1    0    0  502    0  0.00000000000E+00  0.00000000000E+00  0.45115291260E+03  0.45115291260E+03  0.00000000000E+00 0. -1.
          1   -1    0    0  501    0 -0.00000000000E+00 -0.00000000000E+00 -0.14645777225E+03  0.14645777225E+03  0.00000000000E+00 0. -1.
          2    1    1    2  501    0 -0.79253719736E+02  0.11950251454E+03  0.27805815962E+03  0.31285514732E+03  0.00000000000E+00 0. -1.
          1    1    1    2  502    0 -0.29336784213E+02 -0.10737502077E+03  0.39413064645E+02  0.11808230883E+03  0.00000000000E+00 0. -1.
         22    1    1    2    0    0 -0.95830008809E+01  0.76111775674E+01  0.35463591267E+02  0.37515733172E+02  0.00000000000E+00 0.  1.
         22    1    1    2    0    0  0.11817350483E+03 -0.19738671338E+02 -0.48239675182E+02  0.12915749553E+03  0.00000000000E+00 0. -1.
</event>
<event>
 6    1  0.8017648E-006  0.3999130E+03  0.7818608E-02  0.1062434E+00
          2   -1    0    0  502    0  0.00000000000E+00  0.00000000000E+00  0.18371800902E+04  0.18371800902E+04  0.00000000000E+00 0. -1.
          1   -1    0    0  501    0 -0.00000000000E+00 -0.00000000000E+00 -0.19074763760E+03  0.19074763760E+03  0.00000000000E+00 0. -1.
          2    1    1    2  501    0 -0.20586271017E+03  0.56091323534E+02  0.62686944218E+03  0.66218652173E+03  0.00000000000E+00 0. -1.
          1    1    1    2  502    0  0.33263888056E+03  0.29007529039E+03  0.26155047160E+03  0.51303113760E+03  0.00000000000E+00 0. -1.
         22    1    1    2    0    0 -0.10596889573E+03 -0.34651191942E+03  0.66414687837E+03  0.75656526038E+03  0.00000000000E+00 0.  1.
         22    1    1    2    0    0 -0.20807274656E+02  0.34530549641E+00  0.93865660467E+02  0.96144808125E+02  0.00000000000E+00 0. -1.
</event>
<event>
 6    1  0.8017648E-006  0.4212768E+02  0.7818608E-02  0.1544790E+00
          2   -1    0    0  502    0  0.00000000000E+00  0.00000000000E+00  0.14153910131E+03  0.14153910131E+03  0.00000000000E+00 0.  1.
          1   -1    0    0  501    0 -0.00000000000E+00 -0.00000000000E+00 -0.16451949801E+03  0.16451949801E+03  0.00000000000E+00 0.  1.
          2    1    1    2  501    0  0.20897674209E+02  0.21420501156E+02  0.10534957059E+03  0.10951749943E+03  0.00000000000E+00 0.  1.
          1    1    1    2  502    0 -0.83586727188E+01 -0.26117996675E+02 -0.29312112715E+02  0.40139969005E+02  0.00000000000E+00 0.  1.
         22    1    1    2    0    0 -0.20420712084E+02 -0.52404304580E+01 -0.12538325871E+03  0.12714334099E+03  0.00000000000E+00 0.  1.
         22    1    1    2    0    0  0.78817105940E+01  0.99379259771E+01  0.26365404135E+02  0.29257789899E+02  0.00000000000E+00 0.  1.
</event>
<event>
 6    1  0.8017648E-006  0.4420214E+03  0.7818608E-02  0.1136625E+00
          2   -1    0    0  502    0  0.00000000000E+00  0.00000000000E+00  0.95406452878E+03  0.95406452878E+03  0.00000000000E+00 0.  1.
          1   -1    0    0  501    0 -0.00000000000E+00 -0.00000000000E+00 -0.31750081181E+03  0.31750081181E+03  0.00000000000E+00 0.  1.
          2    1    1    2  501    0 -0.21848349062E+02 -0.52705143863E+01 -0.92176670062E+01  0.24291851796E+02  0.00000000000E+00 0.  1.
          1    1    1    2  502    0 -0.54916937987E+02  0.38861951618E+03 -0.91576465241E+02  0.40302263884E+03  0.00000000000E+00 0.  1.
         22    1    1    2    0    0  0.55733375461E+02 -0.36915396504E+03  0.72617118198E+03  0.81652032710E+03  0.00000000000E+00 0.  1.
         22    1    1    2    0    0  0.21031911589E+02 -0.14195036755E+02  0.11186667246E+02  0.27730522852E+02  0.00000000000E+00 0.  1.
</event>
<event>
 6    1  0.8017648E-006  0.3127951E+02  0.7818608E-02  0.1604844E+00
          2   -1    0    0  502    0  0.00000000000E+00  0.00000000000E+00  0.77608738115E+02  0.77608738115E+02  0.00000000000E+00 0. -1.
          1   -1    0    0  501    0 -0.00000000000E+00 -0.00000000000E+00 -0.22747891320E+03  0.22747891320E+03  0.00000000000E+00 0. -1.
          2    1    1    2  501    0  0.23836743401E+02 -0.20575004186E+02  0.38114787210E+01  0.31718267659E+02  0.00000000000E+00 0. -1.
          1    1    1    2  502    0 -0.54684510888E+02  0.36446128959E+01 -0.12930729474E+03  0.14044235617E+03  0.00000000000E+00 0. -1.
         22    1    1    2    0    0  0.21600244046E+02  0.25524187979E+01  0.51102326318E+02  0.55538573440E+02  0.00000000000E+00 0. -1.
         22    1    1    2    0    0  0.92475234408E+01  0.14377972493E+02 -0.75476685379E+02  0.77388454039E+02  0.00000000000E+00 0. -1.
</event>
<event>
 6    1  0.8017648E-006  0.6649797E+02  0.7818608E-02  0.1493950E+00
          2   -1    0    0  502    0  0.00000000000E+00  0.00000000000E+00  0.21618629005E+03  0.21618629005E+03  0.00000000000E+00 0. -1.
          1   -1    0    0  501    0 -0.00000000000E+00 -0.00000000000E+00 -0.64345122864E+02  0.64345122864E+02  0.00000000000E+00 0. -1.
          2    1    1    2  501    0  0.19988011751E+02 -0.97799527208E+01  0.87493710056E+02  0.90279108260E+02  0.00000000000E+00 0. -1.
          1    1    1    2  502    0 -0.30963737321E+02 -0.27318699974E+02 -0.10393365545E+02  0.42580352799E+02  0.00000000000E+00 0. -1.
         22    1    1    2    0    0  0.89628018724E+01 -0.56365031099E+01 -0.31451311221E+02  0.33185643918E+02  0.00000000000E+00 0.  1.
         22    1    1    2    0    0  0.20129236976E+01  0.42735155805E+02  0.10619213390E+03  0.11448630794E+03  0.00000000000E+00 0. -1.
</event>
<event>
 6    1  0.8017648E-006  0.6136970E+02  0.7818608E-02  0.1458135E+00
          2   -1    0    0  502    0  0.00000000000E+00  0.00000000000E+00  0.98392960654E+02  0.98392960654E+02  0.00000000000E+00 0.  1.
          1   -1    0    0  501    0 -0.00000000000E+00 -0.00000000000E+00 -0.18525139979E+03  0.18525139979E+03  0.00000000000E+00 0.  1.
          2    1    1    2  501    0  0.23940381513E+02  0.31833626174E+02  0.40732645069E+02  0.56970781956E+02  0.00000000000E+00 0.  1.
          1    1    1    2  502    0 -0.22854232914E+02 -0.36604446976E+02 -0.88813147125E+02  0.98741969814E+02  0.00000000000E+00 0.  1.
         22    1    1    2    0    0  0.21152117050E+02  0.20408714227E+01  0.40398218126E+02  0.45646393501E+02  0.00000000000E+00 0.  1.
         22    1    1    2    0    0 -0.22238265650E+02  0.27299493794E+01 -0.79176155209E+02  0.82285215175E+02  0.00000000000E+00 0.  1.
</event>
<event>
 6    1  0.8017648E-006  0.8246735E+02  0.7818608E-02  0.1397727E+00
          2   -1    0    0  502    0  0.00000000000E+00  0.00000000000E+00  0.45574790420E+03  0.45574790420E+03  0.00000000000E+00 0. -1.
          1   -1    0    0  501    0 -0.00000000000E+00 -0.00000000000E+00 -0.51878115790E+02  0.51878115790E+02  0.00000000000E+00 0. -1.
          2    1    1    2  501    0 -0.64822566559E+01 -0.50106776096E+02  0.17971639748E+03  0.18668340094E+03  0.00000000000E+00 0. -1.
          1    1    1    2  502    0  0.45527097432E+02  0.79832263480E+02  0.12895250089E+03  0.15834978491E+03  0.00000000000E+00 0. -1.
         22    1    1    2    0    0 -0.21808212363E+02 -0.77562976626E+01 -0.27964809167E+02  0.36301361292E+02  0.00000000000E+00 0. -1.
         22    1    1    2    0    0 -0.17236628413E+02 -0.21969189721E+02  0.12316569920E+03  0.12629147285E+03  0.00000000000E+00 0. -1.
</event>
<event>
 6    1  0.8017648E-006  0.4743094E+02  0.7818608E-02  0.1500978E+00
          2   -1    0    0  502    0  0.00000000000E+00  0.00000000000E+00  0.22799720384E+03  0.22799720384E+03  0.00000000000E+00 0. -1.
          1   -1    0    0  501    0 -0.00000000000E+00 -0.00000000000E+00 -0.28235820809E+03  0.28235820809E+03  0.00000000000E+00 0. -1.
          2    1    1    2  501    0  0.70276207874E+02  0.36880936551E+02  0.18110073836E+03  0.19772816266E+03  0.00000000000E+00 0. -1.
          1    1    1    2  502    0 -0.54245506133E+02 -0.53962634752E+02 -0.11049452826E+03  0.13440082463E+03  0.00000000000E+00 0. -1.
         22    1    1    2    0    0 -0.66923253729E+01  0.33824314619E+02 -0.14585475490E+03  0.14987488450E+03  0.00000000000E+00 0. -1.
         22    1    1    2    0    0 -0.93383763681E+01 -0.16742616419E+02  0.20887540552E+02  0.28351540136E+02  0.00000000000E+00 0. -1.
</event>
<event>
 6    1  0.8017648E-006  0.4573200E+02  0.7818608E-02  0.1555858E+00
          2   -1    0    0  502    0  0.00000000000E+00  0.00000000000E+00  0.22159847458E+03  0.22159847458E+03  0.00000000000E+00 0. -1.
          1   -1    0    0  501    0 -0.00000000000E+00 -0.00000000000E+00 -0.79223109382E+02  0.79223109382E+02  0.00000000000E+00 0.  1.
          2    1    1    2  501    0  0.35242631727E+02  0.22505986095E+02  0.78070323397E+02  0.88563750465E+02  0.00000000000E+00 0. -1.
          1    1    1    2  502    0 -0.63827357022E+02 -0.14240571880E+02 -0.39892386168E+01  0.65518237283E+02  0.00000000000E+00 0.  1.
         22    1    1    2    0    0 -0.23890552514E+01  0.10965439646E+02 -0.35234649899E+02  0.36978764246E+02  0.00000000000E+00 0.  1.
         22    1    1    2    0    0  0.30973780547E+02 -0.19230853862E+02  0.10352893032E+03  0.10976083197E+03  0.00000000000E+00 0. -1.
</event>
<event>
 6    1  0.8017648E-006  0.4371373E+02  0.7818608E-02  0.1532393E+00
          2   -1    0    0  502    0  0.00000000000E+00  0.00000000000E+00  0.16414924328E+03  0.16414924328E+03  0.00000000000E+00 0. -1.
          1   -1    0    0  501    0 -0.00000000000E+00 -0.00000000000E+00 -0.65157496693E+02  0.65157496693E+02  0.00000000000E+00 0. -1.
          2    1    1    2  501    0 -0.15969999380E+02  0.16067241707E+02  0.53621730954E+02  0.58210713505E+02  0.00000000000E+00 0. -1.
          1    1    1    2  502    0  0.36752915225E+02 -0.13735211639E+02  0.55937851473E+01  0.39632351035E+02  0.00000000000E+00 0. -1.
         22    1    1    2    0    0 -0.11919878523E+02  0.18001999694E+02  0.81445256470E+02  0.84258443485E+02  0.00000000000E+00 0. -1.
         22    1    1    2    0    0 -0.88630373217E+01 -0.20334029762E+02 -0.41669025984E+02  0.47205231949E+02  0.00000000000E+00 0. -1.
</event>
<event>
 6    1  0.8017648E-006  0.9142959E+02  0.7818608E-02  0.1353944E+00
          2   -1    0    0  502    0  0.00000000000E+00  0.00000000000E+00  0.29315376044E+03  0.29315376044E+03  0.00000000000E+00 0.  1.
          1   -1    0    0  501    0 -0.00000000000E+00 -0.00000000000E+00 -0.23013996176E+03  0.23013996176E+03  0.00000000000E+00 0. -1.
          2    1    1    2  501    0  0.18834200595E+02 -0.75552505653E+02  0.11786659894E+03  0.14126373692E+03  0.00000000000E+00 0.  1.
          1    1    1    2  502    0  0.56147173337E+02  0.10912684489E+03 -0.15884325519E+03  0.20072955205E+03  0.00000000000E+00 0. -1.
         22    1    1    2    0    0 -0.52181005248E+02 -0.48577841361E+02  0.12697324581E+03  0.14561891750E+03  0.00000000000E+00 0.  1.
         22    1    1    2    0    0 -0.22800368683E+02  0.15003502123E+02 -0.22982790892E+02  0.35681515737E+02  0.00000000000E+00 0. -1.
</event>
<event>
 6    1  0.8017648E-006  0.1056294E+03  0.7818608E-02  0.1403114E+00
          2   -1    0    0  502    0  0.00000000000E+00  0.00000000000E+00  0.73662811310E+02  0.73662811310E+02  0.00000000000E+00 0. -1.
          1   -1    0    0  501    0 -0.00000000000E+00 -0.00000000000E+00 -0.20623817314E+03  0.20623817314E+03  0.00000000000E+00 0.  1.
          2    1    1    2  501    0  0.41443142627E+01  0.22662742860E+02 -0.29421162655E+02  0.37368169164E+02  0.00000000000E+00 0. -1.
          1    1    1    2  502    0 -0.55134411321E+01 -0.72523559526E+02 -0.83077462085E+02  0.11041707036E+03  0.00000000000E+00 0.  1.
         22    1    1    2    0    0 -0.45813803532E+01  0.58039753376E+02  0.40358000344E+02  0.70840456023E+02  0.00000000000E+00 0. -1.
         22    1    1    2    0    0  0.59505072227E+01 -0.81789367099E+01 -0.60434737439E+02  0.61275288911E+02  0.00000000000E+00 0. -1.
</event>
<event>
 6    1  0.8017648E-006  0.3677009E+02  0.7818608E-02  0.1573737E+00
          2   -1    0    0  502    0  0.00000000000E+00  0.00000000000E+00  0.30656044187E+03  0.30656044187E+03  0.00000000000E+00 0. -1.
          1   -1    0    0  501    0 -0.00000000000E+00 -0.00000000000E+00 -0.13163297776E+03  0.13163297776E+03  0.00000000000E+00 0.  1.
          2    1    1    2  501    0 -0.72366887900E+01  0.69443081848E+02  0.21575207749E+03  0.22676787740E+03  0.00000000000E+00 0. -1.
          1    1    1    2  502    0  0.14174946046E+02 -0.57002322543E+02 -0.55878585507E+02  0.81071636155E+02  0.00000000000E+00 0.  1.
         22    1    1    2    0    0 -0.34377068543E+00  0.18290539290E+02 -0.52635017768E+02  0.55723487877E+02  0.00000000000E+00 0.  1.
         22    1    1    2    0    0 -0.65944865708E+01 -0.30731298595E+02  0.67688989898E+02  0.74630418195E+02  0.00000000000E+00 0.  1.
</event>
<event>
 6    1  0.8017648E-006  0.8585329E+02  0.7818608E-02  0.1319312E+00
          2   -1    0    0  502    0  0.00000000000E+00  0.00000000000E+00  0.27541728343E+03  0.27541728343E+03  0.00000000000E+00 0.  1.
          1   -1    0    0  501    0 -0.00000000000E+00 -0.00000000000E+00 -0.11042507967E+03  0.11042507967E+03  0.00000000000E+00 0.  1.
          2    1    1    2  501    0  0.68657896198E+02  0.18038192589E+02  0.11235960391E+03  0.13290584522E+03  0.00000000000E+00 0.  1.
          1    1    1    2  502    0 -0.49921767067E+02 -0.77780952651E+02  0.57437247305E+02  0.10881680385E+03  0.00000000000E+00 0.  1.
         22    1    1    2    0    0  0.16385375270E+02 -0.87188961056E+01  0.47555532452E+02  0.51049273636E+02  0.00000000000E+00 0.  1.
         22    1    1    2    0    0 -0.35121504401E+02  0.68461656168E+02 -0.52360179903E+02  0.93070440399E+02  0.00000000000E+00 0.  1.
</event>
<event>
 6    1  0.8017648E-006  0.4678249E+02  0.7818608E-02  0.1486636E+00
          2   -1    0    0  502    0  0.00000000000E+00  0.00000000000E+00  0.17541378068E+03  0.17541378068E+03  0.00000000000E+00 0.  1.
          1   -1    0    0  501    0 -0.00000000000E+00 -0.00000000000E+00 -0.11902898507E+03  0.11902898507E+03  0.00000000000E+00 0.  1.
          2    1    1    2  501    0  0.28518088633E+01  0.35175952934E+02  0.11176763233E+03  0.11720701393E+03  0.00000000000E+00 0.  1.
          1    1    1    2  502    0 -0.18239026011E+02 -0.14019443759E+02 -0.39503010692E+02  0.45713178919E+02  0.00000000000E+00 0.  1.
         22    1    1    2    0    0  0.71599568740E+01  0.11491035076E+02  0.53081707221E+02  0.54781169310E+02  0.00000000000E+00 0.  1.
         22    1    1    2    0    0  0.82272602737E+01 -0.32647544251E+02 -0.68961533241E+02  0.76741403585E+02  0.00000000000E+00 0. -1.
</event>
<event>
 6    1  0.8017648E-006  0.5059364E+02  0.7818608E-02  0.1481384E+00
          2   -1    0    0  502    0  0.00000000000E+00  0.00000000000E+00  0.24142093210E+03  0.24142093210E+03  0.00000000000E+00 0.  1.
          1   -1    0    0  501    0 -0.00000000000E+00 -0.00000000000E+00 -0.43398877848E+02  0.43398877848E+02  0.00000000000E+00 0.  1.
          2    1    1    2  501    0  0.92069960926E+01  0.23781477629E+02  0.92649414968E+02  0.96094961102E+02  0.00000000000E+00 0.  1.
          1    1    1    2  502    0 -0.15077519784E+02 -0.30017405760E+02  0.14631697643E+02  0.36639634650E+02  0.00000000000E+00 0.  1.
         22    1    1    2    0    0  0.21636509751E+02 -0.18789912759E+02 -0.21619359644E+02  0.35897020589E+02  0.00000000000E+00 0.  1.
         22    1    1    2    0    0 -0.15765986060E+02  0.25025840890E+02  0.11236030128E+03  0.11618819360E+03  0.00000000000E+00 0.  1.
</event>
<event>
 6    1  0.8017648E-006  0.8423877E+02  0.7818608E-02  0.1407502E+00
          2   -1    0    0  502    0  0.00000000000E+00  0.00000000000E+00  0.61349757538E+03  0.61349757538E+03  0.00000000000E+00 0. -1.
          1   -1    0    0  501    0 -0.00000000000E+00 -0.00000000000E+00 -0.41478243559E+02  0.41478243559E+02  0.00000000000E+00 0. -1.
          2    1    1    2  501    0  0.37102753974E+02  0.11458824869E+01  0.25674053196E+03  0.25941015429E+03  0.00000000000E+00 0. -1.
          1    1    1    2  502    0 -0.96225367714E+02 -0.18687054987E+02  0.11547606713E+03  0.15147029245E+03  0.00000000000E+00 0. -1.
         22    1    1    2    0    0  0.40905979310E+02  0.13719378523E+02  0.21548159908E+03  0.21975859490E+03  0.00000000000E+00 0. -1.
         22    1    1    2    0    0  0.18216634430E+02  0.38217939768E+01 -0.15678866348E+02  0.24336777295E+02  0.00000000000E+00 0. -1.
</event>
<event>
 6    1  0.8017648E-006  0.1726376E+03  0.7818608E-02  0.1251242E+00
          2   -1    0    0  502    0  0.00000000000E+00  0.00000000000E+00  0.77092945701E+03  0.77092945701E+03  0.00000000000E+00 0. -1.
          1   -1    0    0  501    0 -0.00000000000E+00 -0.00000000000E+00 -0.12580316238E+03  0.12580316238E+03  0.00000000000E+00 0. -1.
          2    1    1    2  501    0  0.15125694553E+03 -0.68742770979E+02  0.54601358900E+03  0.57073204878E+03  0.00000000000E+00 0. -1.
          1    1    1    2  502    0 -0.13144272446E+03  0.79880083847E+02  0.11766643178E+03  0.19365796337E+03  0.00000000000E+00 0. -1.
         22    1    1    2    0    0 -0.30804500886E+02 -0.14910782212E+02 -0.70896994699E+02  0.78725044035E+02  0.00000000000E+00 0. -1.
         22    1    1    2    0    0  0.10990279809E+02  0.37734693437E+01  0.52343268548E+02  0.53617563200E+02  0.00000000000E+00 0. -1.
</event>
<event>
 6    1  0.8017648E-006  0.9677045E+02  0.7818608E-02  0.1371612E+00
          2   -1    0    0  502    0  0.00000000000E+00  0.00000000000E+00  0.41197988896E+03  0.41197988896E+03  0.00000000000E+00 0.  1.
          1   -1    0    0  501    0 -0.00000000000E+00 -0.00000000000E+00 -0.72044294012E+02  0.72044294012E+02  0.00000000000E+00 0. -1.
          2    1    1    2  501    0  0.20658466214E+02 -0.28915456843E+02  0.22300457206E+02  0.41954573796E+02  0.00000000000E+00 0.  1.
          1    1    1    2  502    0 -0.12015727963E+03  0.29384386999E+01  0.23007098741E+03  0.25957477828E+03  0.00000000000E+00 0. -1.
         22    1    1    2    0    0  0.14968198930E+02 -0.15943368750E+02  0.85357836120E+02  0.88114687615E+02  0.00000000000E+00 0.  1.
         22    1    1    2    0    0  0.84530614486E+02  0.41920386893E+02  0.22063142045E+01  0.94380143277E+02  0.00000000000E+00 0. -1.
</event>
<event>
 6    1  0.8017648E-006  0.7636686E+02  0.7818608E-02  0.1339833E+00
          2   -1    0    0  502    0  0.00000000000E+00  0.00000000000E+00  0.89396939769E+02  0.89396939769E+02  0.00000000000E+00 0. -1.
          1   -1    0    0  501    0 -0.00000000000E+00 -0.00000000000E+00 -0.22935453098E+03  0.22935453098E+03  0.00000000000E+00 0. -1.
          2    1    1    2  501    0  0.13613697120E+02 -0.34483274600E+02  0.26038904823E+02  0.45304012414E+02  0.00000000000E+00 0. -1.
          1    1    1    2  502    0 -0.56541847497E+01  0.55466826506E+02 -0.12374826912E+03  0.13572830493E+03  0.00000000000E+00 0. -1.
         22    1    1    2    0    0 -0.64540046445E+01 -0.38050771550E+02  0.38890967649E+02  0.54790717792E+02  0.00000000000E+00 0. -1.
         22    1    1    2    0    0 -0.15055077254E+01  0.17067219643E+02 -0.81139194558E+02  0.82928435614E+02  0.00000000000E+00 0. -1.
</event>
<event>
 6    1  0.8017648E-006  0.3215618E+02  0.7818608E-02  0.1637781E+00
          2   -1    0    0  502    0  0.00000000000E+00  0.00000000000E+00  0.12805264009E+03  0.12805264009E+03  0.00000000000E+00 0.  1.
          1   -1    0    0  501    0 -0.00000000000E+00 -0.00000000000E+00 -0.20541879754E+03  0.20541879754E+03  0.00000000000E+00 0. -1.
          2    1    1    2  501    0  0.15110530321E+02  0.31772458511E+02  0.72626731932E+02  0.80699810642E+02  0.00000000000E+00 0.  1.
          1    1    1    2  502    0  0.21666306432E+02 -0.52235235289E+02 -0.99835266153E+02  0.11473896029E+03  0.00000000000E+00 0. -1.
         22    1    1    2    0    0 -0.13694141246E+02  0.27701549358E+01  0.40490540603E+02  0.42833248081E+02  0.00000000000E+00 0.  1.
         22    1    1    2    0    0 -0.23082695507E+02  0.17692621842E+02 -0.90648163830E+02  0.95199418618E+02  0.00000000000E+00 0.  1.
</event>
<event>
 6    1  0.8017648E-006  0.7268853E+02  0.7818608E-02  0.1472276E+00
          2   -1    0    0  502    0  0.00000000000E+00  0.00000000000E+00  0.50855166273E+03  0.50855166273E+03  0.00000000000E+00 0.  1.
          1   -1    0    0  501    0 -0.00000000000E+00 -0.00000000000E+00 -0.15365082370E+03  0.15365082370E+03  0.00000000000E+00 0.  1.
          2    1    1    2  501    0 -0.11208169145E+01  0.50338037265E+02  0.38842704525E+03  0.39167683581E+03  0.00000000000E+00 0.  1.
          1    1    1    2  502    0 -0.22634071307E+02 -0.70191894235E+02 -0.97926374768E+02  0.12259191684E+03  0.00000000000E+00 0.  1.
         22    1    1    2    0    0  0.10264474310E+02  0.39444292288E+01 -0.39992901194E+02  0.41477103331E+02  0.00000000000E+00 0. -1.
         22    1    1    2    0    0  0.13490413911E+02  0.15909427740E+02  0.10439306974E+03  0.10645663046E+03  0.00000000000E+00 0.  1.
</event>
<event>
 6    1  0.8017648E-006  0.6731615E+02  0.7818608E-02  0.1461097E+00
          2   -1    0    0  502    0  0.00000000000E+00  0.00000000000E+00  0.49247293741E+03  0.49247293741E+03  0.00000000000E+00 0. -1.
          1   -1    0    0  501    0 -0.00000000000E+00 -0.00000000000E+00 -0.11367606587E+03  0.11367606587E+03  0.00000000000E+00 0.  1.
          2    1    1    2  501    0 -0.57450806411E+02 -0.46872758708E+02  0.34549029608E+03  0.35335703666E+03  0.00000000000E+00 0. -1.
          1    1    1    2  502    0  0.90179333832E+02  0.35354186658E+02 -0.39955998121E+02  0.10477935174E+03  0.00000000000E+00 0.  1.
         22    1    1    2    0    0 -0.42999937391E+02  0.15012567335E+02  0.10501046011E+03  0.11446208336E+03  0.00000000000E+00 0. -1.
         22    1    1    2    0    0  0.10271409970E+02 -0.34939952856E+01 -0.31747886543E+02  0.33550531527E+02  0.00000000000E+00 0.  1.
</event>
<event>
 6    1  0.8017648E-006  0.1844047E+03  0.7818608E-02  0.1229550E+00
          2   -1    0    0  502    0  0.00000000000E+00  0.00000000000E+00  0.11051294653E+04  0.11051294653E+04  0.00000000000E+00 0.  1.
          1   -1    0    0  501    0 -0.00000000000E+00 -0.00000000000E+00 -0.46943377272E+02  0.46943377272E+02  0.00000000000E+00 0.  1.
          2    1    1    2  501    0 -0.29663980149E+02 -0.67882370255E+02  0.17788142472E+03  0.19269086427E+03  0.00000000000E+00 0.  1.
          1    1    1    2  502    0  0.62231906057E+02  0.18780540635E+03  0.35847975367E+03  0.40945257916E+03  0.00000000000E+00 0.  1.
         22    1    1    2    0    0  0.72550997336E+01 -0.43006288651E+02  0.36313341927E+02  0.56752410852E+02  0.00000000000E+00 0. -1.
         22    1    1    2    0    0 -0.39823025642E+02 -0.76916747446E+02  0.48551156773E+03  0.49317698832E+03  0.00000000000E+00 0.  1.
</event>
<event>
 6    1  0.8017648E-006  0.2142552E+03  0.7818608E-02  0.1199191E+00
          2   -1    0    0  502    0  0.00000000000E+00  0.00000000000E+00  0.49100280438E+03  0.49100280438E+03  0.00000000000E+00 0.  1.
          1   -1    0    0  501    0 -0.00000000000E+00 -0.00000000000E+00 -0.12136386379E+03  0.12136386379E+03  0.00000000000E+00 0.  1.
          2    1    1    2  501    0  0.22462280761E+02  0.88362455268E+02  0.39378199220E+02  0.99313242479E+02  0.00000000000E+00 0.  1.
          1    1    1    2  502    0  0.96321429760E+02 -0.16767885516E+03  0.23032576453E+03  0.30073904653E+03  0.00000000000E+00 0.  1.
         22    1    1    2    0    0 -0.69962896685E+02  0.99753030886E+02  0.10265036359E+03  0.15931908621E+03  0.00000000000E+00 0.  1.
         22    1    1    2    0    0 -0.48820813835E+02 -0.20436630994E+02 -0.27153867575E+01  0.52995292953E+02  0.00000000000E+00 0.  1.
</event>
<event>
 6    1  0.8017648E-006  0.1671782E+03  0.7818608E-02  0.1185300E+00
          2   -1    0    0  502    0  0.00000000000E+00  0.00000000000E+00  0.38261045430E+03  0.38261045430E+03  0.00000000000E+00 0. -1.
          1   -1    0    0  501    0 -0.00000000000E+00 -0.00000000000E+00 -0.12774131109E+03  0.12774131109E+03  0.00000000000E+00 0. -1.
          2    1    1    2  501    0 -0.55284022894E+02 -0.16688186152E+02  0.55817165709E+02  0.80314224968E+02  0.00000000000E+00 0. -1.
          1    1    1    2  502    0  0.11421603948E+03  0.77351007308E+02 -0.43200109744E+02  0.14455010027E+03  0.00000000000E+00 0. -1.
         22    1    1    2    0    0 -0.66509343793E+02 -0.70438571155E+02  0.25184479631E+03  0.26983492462E+03  0.00000000000E+00 0. -1.
         22    1    1    2    0    0  0.75773272076E+01  0.97757499992E+01 -0.95927090579E+01  0.15652515540E+02  0.00000000000E+00 0.  1.
</event>
<event>
 6    1  0.8017648E-006  0.3639399E+02  0.7818608E-02  0.1589965E+00
          2   -1    0    0  502    0  0.00000000000E+00  0.00000000000E+00  0.10076857670E+03  0.10076857670E+03  0.00000000000E+00 0.  1.
          1   -1    0    0  501    0 -0.00000000000E+00 -0.00000000000E+00 -0.11962012993E+03  0.11962012993E+03  0.00000000000E+00 0. -1.
          2    1    1    2  501    0  0.21917783871E+02  0.11170283959E+02  0.44492118561E+02  0.50840073835E+02  0.00000000000E+00 0.  1.
          1    1    1    2  502    0 -0.14429171687E+02 -0.19913147511E+02  0.35945202750E+01  0.24852666163E+02  0.00000000000E+00 0. -1.
         22    1    1    2    0    0 -0.17958492147E+02 -0.46188562826E+01 -0.10309676074E+03  0.10475105417E+03  0.00000000000E+00 0. -1.
         22    1    1    2    0    0  0.10469879963E+02  0.13361719835E+02  0.36158568678E+02  0.39944912470E+02  0.00000000000E+00 0.  1.
</event>
<event>
 6    1  0.8017648E-006  0.8923240E+02  0.7818608E-02  0.1327421E+00
          2   -1    0    0  502    0  0.00000000000E+00  0.00000000000E+00  0.19940275414E+04  0.19940275414E+04  0.00000000000E+00 0. -1.
          1   -1    0    0  501    0 -0.00000000000E+00 -0.00000000000E+00 -0.47318725927E+02  0.47318725927E+02  0.00000000000E+00 0. -1.
          2    1    1    2  501    0 -0.13635811756E+03 -0.50494348410E+02  0.15923481280E+03  0.21563613114E+03  0.00000000000E+00 0. -1.
          1    1    1    2  502    0  0.14903303263E+03  0.10789652577E+03  0.14237454581E+04  0.14355847709E+04  0.00000000000E+00 0. -1.
         22    1    1    2    0    0 -0.46691377613E+02 -0.37748077272E+02  0.33770696035E+03  0.34300290545E+03  0.00000000000E+00 0.  1.
         22    1    1    2    0    0  0.34016462542E+02 -0.19654100087E+02  0.26021584279E+02  0.47122459852E+02  0.00000000000E+00 0. -1.
</event>
<event>
 6    1  0.8017648E-006  0.1653200E+03  0.7818608E-02  0.1289322E+00
          2   -1    0    0  502    0  0.00000000000E+00  0.00000000000E+00  0.11403073817E+03  0.11403073817E+03  0.00000000000E+00 0. -1.
          1   -1    0    0  501    0 -0.00000000000E+00 -0.00000000000E+00 -0.33496983820E+03  0.33496983820E+03  0.00000000000E+00 0. -1.
          2    1    1    2  501    0 -0.35521412925E+02  0.77557695723E+02 -0.32165487595E+02  0.91167897498E+02  0.00000000000E+00 0. -1.
          1    1    1    2  502    0  0.12960515534E+02 -0.15348923618E+03 -0.11718657762E+03  0.19354486446E+03  0.00000000000E+00 0. -1.
         22    1    1    2    0    0  0.18537715327E+02  0.21641787772E+01 -0.86865178068E+02  0.88847564514E+02  0.00000000000E+00 0. -1.
         22    1    1    2    0    0  0.40231820633E+01  0.73767361681E+02  0.15278143243E+02  0.75440249895E+02  0.00000000000E+00 0. -1.
</event>
<event>
 6    1  0.8017648E-006  0.2010050E+02  0.7818608E-02  0.1762660E+00
          2   -1    0    0  502    0  0.00000000000E+00  0.00000000000E+00  0.18715417190E+03  0.18715417190E+03  0.00000000000E+00 0.  1.
          1   -1    0    0  501    0 -0.00000000000E+00 -0.00000000000E+00 -0.23565381576E+03  0.23565381576E+03  0.00000000000E+00 0.  1.
          2    1    1    2  501    0 -0.38224056965E+01  0.21893725268E+02  0.11066339038E+03  0.11287307900E+03  0.00000000000E+00 0.  1.
          1    1    1    2  502    0 -0.19515360388E+02 -0.34267944422E+02 -0.17717677488E+03  0.18151239865E+03  0.00000000000E+00 0.  1.
         22    1    1    2    0    0  0.12442293760E+02  0.73461090381E+01 -0.53752157459E+02  0.55660312822E+02  0.00000000000E+00 0.  1.
         22    1    1    2    0    0  0.10895472325E+02  0.50281101151E+01  0.71765898103E+02  0.72762197184E+02  0.00000000000E+00 0.  1.
</event>
<event>
 6    1  0.8017648E-006  0.5412580E+02  0.7818608E-02  0.1527002E+00
          2   -1    0    0  502    0  0.00000000000E+00  0.00000000000E+00  0.29571117250E+03  0.29571117250E+03  0.00000000000E+00 0. -1.
          1   -1    0    0  501    0 -0.00000000000E+00 -0.00000000000E+00 -0.53066308643E+02  0.53066308643E+02  0.00000000000E+00 0.  1.
          2    1    1    2  501    0 -0.83834802711E+01  0.24097059578E+02  0.13737235383E+03  0.13972156104E+03  0.00000000000E+00 0. -1.
          1    1    1    2  502    0  0.33152463956E+02 -0.36472791796E+02  0.13107123651E+02  0.51001442118E+02  0.00000000000E+00 0.  1.
         22    1    1    2    0    0 -0.17809087836E+02  0.22815377825E+02  0.12215970800E+03  0.12554162391E+03  0.00000000000E+00 0. -1.
         22    1    1    2    0    0 -0.69598958490E+01 -0.10439645607E+02 -0.29994321625E+02  0.32512854079E+02  0.00000000000E+00 0. -1.
</event>
<event>
 6    1  0.8017648E-006  0.4450346E+02  0.7818608E-02  0.1515378E+00
          2   -1    0    0  502    0  0.00000000000E+00  0.00000000000E+00  0.17501103431E+03  0.17501103431E+03  0.00000000000E+00 0. -1.
          1   -1    0    0  501    0 -0.00000000000E+00 -0.00000000000E+00 -0.16923717868E+03  0.16923717868E+03  0.00000000000E+00 0.  1.
          2    1    1    2  501    0 -0.13282010658E+01 -0.27550157909E+02  0.13408180389E+03  0.13688939131E+03  0.00000000000E+00 0. -1.
          1    1    1    2  502    0 -0.10248962621E+02  0.21076438895E+02 -0.63569383581E+02  0.67751930158E+02  0.00000000000E+00 0.  1.
         22    1    1    2    0    0 -0.14560687240E+02  0.30469380701E+01  0.34158228746E+02  0.37256972979E+02  0.00000000000E+00 0. -1.
         22    1    1    2    0    0  0.26137850926E+02  0.34267809437E+01 -0.98896793419E+02  0.10234991855E+03  0.00000000000E+00 0. -1.
</event>
<event>
 6    1  0.8017648E-006  0.5013959E+02  0.7818608E-02  0.1546107E+00
          2   -1    0    0  502    0  0.00000000000E+00  0.00000000000E+00  0.14536287754E+03  0.14536287754E+03  0.00000000000E+00 0. -1.
          1   -1    0    0  501    0 -0.00000000000E+00 -0.00000000000E+00 -0.19513377456E+03  0.19513377456E+03  0.00000000000E+00 0.  1.
          2    1    1    2  501    0  0.17472761241E+02  0.11539084234E+02  0.80807590266E+02  0.83476430775E+02  0.00000000000E+00 0. -1.
          1    1    1    2  502    0 -0.12905515747E+02 -0.39647078774E+02 -0.12239197886E+03  0.12929903202E+03  0.00000000000E+00 0.  1.
         22    1    1    2    0    0 -0.12143837427E+02  0.19148116103E+01 -0.64230311731E+02  0.65396270811E+02  0.00000000000E+00 0. -1.
         22    1    1    2    0    0  0.75765919333E+01  0.26193182930E+02  0.56043803299E+02  0.62324918496E+02  0.00000000000E+00 0. -1.
</event>
<event>
 6    1  0.8017648E-006  0.9381464E+02  0.7818608E-02  0.1363675E+00
          2   -1    0    0  502    0  0.00000000000E+00  0.00000000000E+00  0.39778748143E+02  0.39778748143E+02  0.00000000000E+00 0. -1.
          1   -1    0    0  501    0 -0.00000000000E+00 -0.00000000000E+00 -0.33256937669E+03  0.33256937669E+03  0.00000000000E+00 0. -1.
          2    1    1    2  501    0  0.23169917091E+02 -0.19296376572E+01 -0.55869664996E+02  0.60514362149E+02  0.00000000000E+00 0. -1.
          1    1    1    2  502    0 -0.28203395177E+02 -0.60536284639E+02 -0.69335808931E+02  0.96267999135E+02  0.00000000000E+00 0. -1.
         22    1    1    2    0    0 -0.21898033183E+02  0.16443894941E+02 -0.15925953535E+03  0.16159679805E+03  0.00000000000E+00 0.  1.
         22    1    1    2    0    0  0.26931511268E+02  0.46022027355E+02 -0.83256192654E+01  0.53968965501E+02  0.00000000000E+00 0. -1.
</event>
<event>
 6    1  0.8017648E-006  0.6058811E+02  0.7818608E-02  0.1435780E+00
          2   -1    0    0  502    0  0.00000000000E+00  0.00000000000E+00  0.34453032696E+02  0.34453032696E+02  0.00000000000E+00 0.  1.
          1   -1    0    0  501    0 -0.00000000000E+00 -0.00000000000E+00 -0.31248782883E+03  0.31248782883E+03  0.00000000000E+00 0.  1.
          2    1    1    2  501    0  0.13009899645E+02  0.18302201251E+02 -0.22039256723E+02  0.31463580475E+02  0.00000000000E+00 0.  1.
          1    1    1    2  502    0  0.13545112544E+02 -0.20179301268E+02 -0.13813424506E+03  0.14025599428E+03  0.00000000000E+00 0.  1.
         22    1    1    2    0    0 -0.31743567919E+01  0.24326938733E+02  0.21205094056E+02  0.32427341906E+02  0.00000000000E+00 0.  1.
         22    1    1    2    0    0 -0.23380655398E+02 -0.22449838716E+02 -0.13906638841E+03  0.14279394487E+03  0.00000000000E+00 0. -1.
</event>
<event>
 6    1  0.8017648E-006  0.5036094E+02  0.7818608E-02  0.1519747E+00
          2   -1    0    0  502    0  0.00000000000E+00  0.00000000000E+00  0.10291372828E+03  0.10291372828E+03  0.00000000000E+00 0.  1.
          1   -1    0    0  501    0 -0.00000000000E+00 -0.00000000000E+00 -0.12012480692E+04  0.12012480692E+04  0.00000000000E+00 0. -1.
          2    1    1    2  501    0  0.11232364228E+02 -0.25512287147E+02  0.40316231534E+02  0.49014705209E+02  0.00000000000E+00 0.  1.
          1    1    1    2  502    0 -0.21582192830E+02  0.48397332270E+02 -0.11269787672E+04  0.11282239292E+04  0.00000000000E+00 0. -1.
         22    1    1    2    0    0 -0.65143887893E+01 -0.19735876814E+02  0.54623680407E+02  0.58443892377E+02  0.00000000000E+00 0.  1.
         22    1    1    2    0    0  0.16864217391E+02 -0.31491683088E+01 -0.66295485653E+02  0.68479270638E+02  0.00000000000E+00 0.  1.
</event>
<event>
 6    1  0.8017648E-006  0.1204359E+03  0.7818608E-02  0.1278702E+00
          2   -1    0    0  502    0  0.00000000000E+00  0.00000000000E+00  0.61351303527E+03  0.61351303527E+03  0.00000000000E+00 0. -1.
          1   -1    0    0  501    0 -0.00000000000E+00 -0.00000000000E+00 -0.68156786239E+02  0.68156786239E+02  0.00000000000E+00 0. -1.
          2    1    1    2  501    0 -0.13812291357E+02  0.49629689520E+02 -0.15581836105E+02  0.53820805370E+02  0.00000000000E+00 0. -1.
          1    1    1    2  502    0  0.21213100282E+02 -0.96788573104E+00  0.46358007849E+03  0.46406618234E+03  0.00000000000E+00 0. -1.
         22    1    1    2    0    0  0.54944438333E+02 -0.21519862506E+02  0.23845334847E+02  0.63644291024E+02  0.00000000000E+00 0. -1.
         22    1    1    2    0    0 -0.62345247259E+02 -0.27141941283E+02  0.73512671801E+02  0.10013854277E+03  0.00000000000E+00 0. -1.
</event>
<event>
 6    1  0.8017648E-006  0.2655685E+03  0.7818608E-02  0.1192956E+00
          2   -1    0    0  502    0  0.00000000000E+00  0.00000000000E+00  0.14716268606E+03  0.14716268606E+03  0.00000000000E+00 0.  1.
          1   -1    0    0  501    0 -0.00000000000E+00 -0.00000000000E+00 -0.72578173836E+03  0.72578173836E+03  0.00000000000E+00 0. -1.
          2    1    1    2  501    0 -0.15174061612E+03 -0.14830684400E+03 -0.67929363594E+02  0.22278808989E+03  0.00000000000E+00 0.  1.
          1    1    1    2  502    0  0.16082283075E+03  0.19218429101E+03 -0.41731402157E+03  0.48677487322E+03  0.00000000000E+00 0. -1.
         22    1    1    2    0    0 -0.38177047239E+02 -0.30913403493E+02  0.14244010141E+02  0.51147016299E+02  0.00000000000E+00 0. -1.
         22    1    1    2    0    0  0.29094832605E+02 -0.12964043509E+02 -0.10761967728E+03  0.11223444501E+03  0.00000000000E+00 0.  1.
</event>
<event>
 6    1  0.8017648E-006  0.1520853E+03  0.7818608E-02  0.1295241E+00
          2   -1    0    0  502    0  0.00000000000E+00  0.00000000000E+00  0.40863424093E+02  0.40863424093E+02  0.00000000000E+00 0. -1.
          1   -1    0    0  501    0 -0.00000000000E+00 -0.00000000000E+00 -0.26494364205E+04  0.26494364205E+04  0.00000000000E+00 0. -1.
          2    1    1    2  501    0 -0.54444112300E+01 -0.45709637268E+02 -0.10741700078E+02  0.47269405257E+02  0.00000000000E+00 0. -1.
          1    1    1    2  502    0  0.14929949947E+03  0.25732837167E+02 -0.21447621273E+04  0.21501063001E+04  0.00000000000E+00 0. -1.
         22    1    1    2    0    0 -0.16147266452E+03  0.32239700291E+02 -0.43409471604E+03  0.46427474856E+03  0.00000000000E+00 0.  1.
         22    1    1    2    0    0  0.17617576279E+02 -0.12262900191E+02 -0.18974453042E+02  0.28649390626E+02  0.00000000000E+00 0. -1.
</event>
<event>
 6    1  0.8017648E-006  0.9931282E+02  0.7818608E-02  0.1282125E+00
          2   -1    0    0  502    0  0.00000000000E+00  0.00000000000E+00  0.60564105241E+03  0.60564105241E+03  0.00000000000E+00 0.  1.
          1   -1    0    0  501    0 -0.00000000000E+00 -0.00000000000E+00 -0.19896749016E+02  0.19896749016E+02  0.00000000000E+00 0.  1.
          2    1    1    2  501    0 -0.30895050042E+02 -0.77362381015E+01  0.11594994793E+03  0.12024451722E+03  0.00000000000E+00 0.  1.
          1    1    1    2  502    0  0.57289923443E+02 -0.70751575232E+01  0.12038601730E+03  0.13351024808E+03  0.00000000000E+00 0.  1.
         22    1    1    2    0    0 -0.60499789539E+02  0.28350700174E+02  0.31314530057E+03  0.32019363829E+03  0.00000000000E+00 0.  1.
         22    1    1    2    0    0  0.34104916138E+02 -0.13539304549E+02  0.36263037597E+02  0.51589397827E+02  0.00000000000E+00 0.  1.
</event>
<event>
 6    1  0.8017648E-006  0.9550155E+02  0.7818608E-02  0.1367123E+00
          2   -1    0    0  502    0  0.00000000000E+00  0.00000000000E+00  0.51910242739E+03  0.51910242739E+03  0.00000000000E+00 0.  1.
          1   -1    0    0  501    0 -0.00000000000E+00 -0.00000000000E+00 -0.17170186966E+03  0.17170186966E+03  0.00000000000E+00 0. -1.
          2    1    1    2  501    0 -0.75175620856E+02 -0.34354503335E+02  0.42210208143E+03  0.43011832444E+03  0.00000000000E+00 0.  1.
          1    1    1    2  502    0  0.92048374196E+02  0.63885482237E+02  0.79768156408E+00  0.11204862484E+03  0.00000000000E+00 0. -1.
         22    1    1    2    0    0 -0.82282782034E+01 -0.65967602473E+01  0.34430031040E+02  0.36009010614E+02  0.00000000000E+00 0.  1.
         22    1    1    2    0    0 -0.86444751365E+01 -0.22934218654E+02 -0.10992923630E+03  0.11262833715E+03  0.00000000000E+00 0. -1.
</event>
<event>
 6    1  0.8017648E-006  0.4395689E+02  0.7818608E-02  0.1562210E+00
          2   -1    0    0  502    0  0.00000000000E+00  0.00000000000E+00  0.16325184628E+03  0.16325184628E+03  0.00000000000E+00 0. -1.
          1   -1    0    0  501    0 -0.00000000000E+00 -0.00000000000E+00 -0.59396772428E+02  0.59396772428E+02  0.00000000000E+00 0.  1.
          2    1    1    2  501    0  0.10497883640E+02  0.19640790877E+02  0.47777680893E+02  0.52713119986E+02  0.00000000000E+00 0. -1.
          1    1    1    2  502    0 -0.70698448503E+01 -0.32116958403E+02  0.87852577282E+01  0.34039131549E+02  0.00000000000E+00 0.  1.
         22    1    1    2    0    0 -0.12132119978E+02 -0.85682266693E+01 -0.41579819857E+02  0.44152964371E+02  0.00000000000E+00 0.  1.
         22    1    1    2    0    0  0.87040811875E+01  0.21044394196E+02  0.88871955088E+02  0.91743402801E+02  0.00000000000E+00 0. -1.
</event>
<event>
 6    1  0.8017648E-006  0.2298058E+03  0.7818608E-02  0.1224675E+00
          2   -1    0    0  502    0  0.00000000000E+00  0.00000000000E+00  0.80698659130E+03  0.80698659130E+03  0.00000000000E+00 0.  1.
          1   -1    0    0  501    0 -0.00000000000E+00 -0.00000000000E+00 -0.12985958943E+03  0.12985958943E+03  0.00000000000E+00 0.  1.
          2    1    1    2  501    0  0.14275967956E+03 -0.45273731616E+02  0.98463880377E+02  0.17923496484E+03  0.00000000000E+00 0.  1.
          1    1    1    2  502    0 -0.15071709240E+03  0.10664181494E+03  0.58662032655E+03  0.61498904555E+03  0.00000000000E+00 0.  1.
         22    1    1    2    0    0  0.47633496049E+00 -0.85153281457E+02  0.35708879631E+02  0.92338682698E+02  0.00000000000E+00 0.  1.
         22    1    1    2    0    0  0.74810778772E+01  0.23785198128E+02 -0.43666084683E+02  0.50283487625E+02  0.00000000000E+00 0.  1.
</event>
<event>
 6    1  0.8017648E-006  0.1002534E+03  0.7818608E-02  0.1296913E+00
          2   -1    0    0  502    0  0.00000000000E+00  0.00000000000E+00  0.14608850603E+04  0.14608850603E+04  0.00000000000E+00 0. -1.
          1   -1    0    0  501    0 -0.00000000000E+00 -0.00000000000E+00 -0.30930982170E+02  0.30930982170E+02  0.00000000000E+00 0. -1.
          2    1    1    2  501    0 -0.82766860754E+02 -0.79359612751E+02  0.10737218325E+04  0.10798272431E+04  0.00000000000E+00 0. -1.
          1    1    1    2  502    0  0.13074054757E+02  0.53602479409E+02  0.69577706258E+02  0.88798726988E+02  0.00000000000E+00 0. -1.
         22    1    1    2    0    0 -0.14693429875E+01  0.40382614386E+02  0.16860495479E+02  0.43785737647E+02  0.00000000000E+00 0. -1.
         22    1    1    2    0    0  0.71162148985E+02 -0.14625481044E+02  0.26979404394E+03  0.27940433477E+03  0.00000000000E+00 0. -1.
</event>
<event>
 6    1  0.8017648E-006  0.1372278E+03  0.7818608E-02  0.1224720E+00
          2   -1    0    0  502    0  0.00000000000E+00  0.00000000000E+00  0.39767019569E+03  0.39767019569E+03  0.00000000000E+00 0. -1.
          1   -1    0    0  501    0 -0.00000000000E+00 -0.00000000000E+00 -0.20321026851E+03  0.20321026851E+03  0.00000000000E+00 0. -1.
          2    1    1    2  501    0 -0.10297452527E+03 -0.49101776960E+02 -0.75017443563E+02  0.13653700668E+03  0.00000000000E+00 0. -1.
          1    1    1    2  502    0 -0.86919592668E+01  0.11202945779E+03  0.25873910830E+03  0.28208522778E+03  0.00000000000E+00 0. -1.
         22    1    1    2    0    0 -0.27815233770E+02 -0.11602031584E+02  0.14803556313E+02  0.33577368063E+02  0.00000000000E+00 0.  1.
         22    1    1    2    0    0  0.13948171831E+03 -0.51325649250E+02 -0.40652938636E+01  0.14868086167E+03  0.00000000000E+00 0. -1.
</event>
<event>
 6    1  0.8017648E-006  0.4368490E+02  0.7818608E-02  0.1562373E+00
          2   -1    0    0  502    0  0.00000000000E+00  0.00000000000E+00  0.19563137243E+03  0.19563137243E+03  0.00000000000E+00 0. -1.
          1   -1    0    0  501    0 -0.00000000000E+00 -0.00000000000E+00 -0.61563967727E+02  0.61563967727E+02  0.00000000000E+00 0. -1.
          2    1    1    2  501    0 -0.24799594082E+02 -0.54221389907E+01  0.81003477660E+02  0.84888060709E+02  0.00000000000E+00 0. -1.
          1    1    1    2  502    0  0.32161845366E+02  0.39009045245E+01 -0.10024158189E+02  0.33912904636E+02  0.00000000000E+00 0. -1.
         22    1    1    2    0    0 -0.12877953668E+02 -0.12536119060E+02  0.98379689050E+02  0.10000779564E+03  0.00000000000E+00 0. -1.
         22    1    1    2    0    0  0.55157023829E+01  0.14057353526E+02 -0.35291603814E+02  0.38386579174E+02  0.00000000000E+00 0. -1.
</event>
<event>
 6    1  0.8017648E-006  0.1904197E+02  0.7818608E-02  0.1785839E+00
          2   -1    0    0  502    0  0.00000000000E+00  0.00000000000E+00  0.10160834962E+03  0.10160834962E+03  0.00000000000E+00 0.  1.
          1   -1    0    0  501    0 -0.00000000000E+00 -0.00000000000E+00 -0.82472716479E+02  0.82472716479E+02  0.00000000000E+00 0.  1.
          2    1    1    2  501    0  0.17691219801E+02  0.12230709925E+02  0.17750861792E+02  0.27886602835E+02  0.00000000000E+00 0.  1.
          1    1    1    2  502    0 -0.20973806458E+02 -0.19745885305E+02 -0.15015448359E+02  0.32484830817E+02  0.00000000000E+00 0.  1.
         22    1    1    2    0    0  0.12660298791E+02  0.28525857672E+01  0.68932544324E+02  0.70143539104E+02  0.00000000000E+00 0.  1.
         22    1    1    2    0    0 -0.93777121349E+01  0.46625896135E+01 -0.52532324615E+02  0.53566093345E+02  0.00000000000E+00 0.  1.
</event>
<event>
 6    1  0.8017648E-006  0.4202810E+02  0.7818608E-02  0.1547827E+00
          2   -1    0    0  502    0  0.00000000000E+00  0.00000000000E+00  0.10372832587E+03  0.10372832587E+03  0.00000000000E+00 0.  1.
          1   -1    0    0  501    0 -0.00000000000E+00 -0.00000000000E+00 -0.84644139345E+03  0.84644139345E+03  0.00000000000E+00 0.  1.
          2    1    1    2  501    0  0.49448403362E+01  0.53586403145E+02  0.33865747793E+02  0.63583354123E+02  0.00000000000E+00 0.  1.
          1    1    1    2  502    0 -0.42263932370E+02 -0.58439141755E+02 -0.75489485603E+03  0.75833212838E+03  0.00000000000E+00 0.  1.
         22    1    1    2    0    0  0.75221781114E+01  0.12996770495E+02 -0.69623542141E+02  0.71224552136E+02  0.00000000000E+00 0. -1.
         22    1    1    2    0    0  0.29796913922E+02 -0.81440318844E+01  0.47939582802E+02  0.57029684672E+02  0.00000000000E+00 0.  1.
</event>
<event>
 6    1  0.8017648E-006  0.2745397E+03  0.7818608E-02  0.1217265E+00
          2   -1    0    0  502    0  0.00000000000E+00  0.00000000000E+00  0.10499006510E+04  0.10499006510E+04  0.00000000000E+00 0.  1.
          1   -1    0    0  501    0 -0.00000000000E+00 -0.00000000000E+00 -0.95505287864E+02  0.95505287864E+02  0.00000000000E+00 0. -1.
          2    1    1    2  501    0 -0.83212993882E+02  0.14075301439E+03  0.39078629129E+03  0.42361508339E+03  0.00000000000E+00 0.  1.
          1    1    1    2  502    0  0.77951350936E+02 -0.25083725046E+03  0.22673923754E+03  0.34699628408E+03  0.00000000000E+00 0. -1.
         22    1    1    2    0    0  0.17078266908E+02 -0.31862315513E+00 -0.29150760944E+01  0.17328196385E+02  0.00000000000E+00 0. -1.
         22    1    1    2    0    0 -0.11816623963E+02  0.11040285922E+03  0.33978491039E+03  0.35746637500E+03  0.00000000000E+00 0. -1.
</event>
<event>
 6    1  0.8017648E-006  0.4307616E+02  0.7818608E-02  0.1597406E+00
          2   -1    0    0  502    0  0.00000000000E+00  0.00000000000E+00  0.37216610841E+03  0.37216610841E+03  0.00000000000E+00 0. -1.
          1   -1    0    0  501    0 -0.00000000000E+00 -0.00000000000E+00 -0.58003383060E+02  0.58003383060E+02  0.00000000000E+00 0.  1.
          2    1    1    2  501    0 -0.19451976888E+02 -0.20577485735E+02  0.24718220047E+03  0.24879881944E+03  0.00000000000E+00 0. -1.
          1    1    1    2  502    0  0.14815488415E+02  0.34333346419E+02  0.24993062504E+02  0.44977000196E+02  0.00000000000E+00 0.  1.
         22    1    1    2    0    0 -0.55808836243E+01 -0.13676220108E+02  0.88014891233E+02  0.89245763693E+02  0.00000000000E+00 0. -1.
         22    1    1    2    0    0  0.10217372098E+02 -0.79640576601E-01 -0.46027428857E+02  0.47147908145E+02  0.00000000000E+00 0.  1.
</event>
<event>
 6    1  0.8017648E-006  0.7470951E+02  0.7818608E-02  0.1345161E+00
          2   -1    0    0  502    0  0.00000000000E+00  0.00000000000E+00  0.14548602267E+03  0.14548602267E+03  0.00000000000E+00 0. -1.
          1   -1    0    0  501    0 -0.00000000000E+00 -0.00000000000E+00 -0.31867423438E+03  0.31867423438E+03  0.00000000000E+00 0.  1.
          2    1    1    2  501    0 -0.44541765474E+02 -0.79374699176E+01  0.99989360108E+02  0.10974900653E+03  0.00000000000E+00 0. -1.
          1    1    1    2  502    0  0.53708402630E+02  0.17095905702E+02 -0.21006060798E+03  0.21749096885E+03  0.00000000000E+00 0.  1.
         22    1    1    2    0    0  0.16942681070E+02 -0.42559215258E+01 -0.94329282744E+02  0.95933210583E+02  0.00000000000E+00 0.  1.
         22    1    1    2    0    0 -0.26109318227E+02 -0.49025142585E+01  0.31212318910E+02  0.40987071084E+02  0.00000000000E+00 0. -1.
</event>
<event>
 6    1  0.8017648E-006  0.2640507E+02  0.7818608E-02  0.1718452E+00
          2   -1    0    0  502    0  0.00000000000E+00  0.00000000000E+00  0.35036909110E+03  0.35036909110E+03  0.00000000000E+00 0. -1.
          1   -1    0    0  501    0 -0.00000000000E+00 -0.00000000000E+00 -0.16828302137E+03  0.16828302137E+03  0.00000000000E+00 0.  1.
          2    1    1    2  501    0 -0.14181461180E+02  0.16739766250E+02  0.30001934563E+03  0.30082044706E+03  0.00000000000E+00 0. -1.
          1    1    1    2  502    0 -0.14830343272E+02 -0.38689358313E+02 -0.67015637963E+02  0.78790235815E+02  0.00000000000E+00 0.  1.
         22    1    1    2    0    0  0.65607395686E+01  0.91119845729E+01  0.41542123739E+02  0.43032773688E+02  0.00000000000E+00 0.  1.
         22    1    1    2    0    0  0.22451064884E+02  0.12837607490E+02 -0.92459761678E+02  0.96008655912E+02  0.00000000000E+00 0.  1.
</event>
<event>
 6    1  0.8017648E-006  0.1406866E+03  0.7818608E-02  0.1316869E+00
          2   -1    0    0  502    0  0.00000000000E+00  0.00000000000E+00  0.10346052999E+03  0.10346052999E+03  0.00000000000E+00 0. -1.
          1   -1    0    0  501    0 -0.00000000000E+00 -0.00000000000E+00 -0.64665648661E+03  0.64665648661E+03  0.00000000000E+00 0. -1.
          2    1    1    2  501    0  0.64583488142E+01 -0.32017568663E+02 -0.13014140780E+02  0.35159676232E+02  0.00000000000E+00 0. -1.
          1    1    1    2  502    0 -0.67013125228E+02  0.11894246315E+03 -0.53755633331E+03  0.55462138434E+03  0.00000000000E+00 0. -1.
         22    1    1    2    0    0 -0.62399353861E+01 -0.17169772706E+02 -0.46350255946E+02  0.49820519012E+02  0.00000000000E+00 0. -1.
         22    1    1    2    0    0  0.66794711799E+02 -0.69755121779E+02  0.53724773420E+02  0.11051543701E+03  0.00000000000E+00 0. -1.
</event>
<event>
 6    1  0.8017648E-006  0.8343510E+02  0.7818608E-02  0.1424583E+00
          2   -1    0    0  502    0  0.00000000000E+00  0.00000000000E+00  0.11493471624E+04  0.11493471624E+04  0.00000000000E+00 0.  1.
          1   -1    0    0  501    0 -0.00000000000E+00 -0.00000000000E+00 -0.42937851987E+02  0.42937851987E+02  0.00000000000E+00 0. -1.
          2    1    1    2  501    0  0.10208270183E+03 -0.30238923273E+02  0.73073329414E+03  0.73844865608E+03  0.00000000000E+00 0.  1.
          1    1    1    2  502    0 -0.38839954544E+02 -0.23410279717E+02 -0.32687000600E+01  0.45467215282E+02  0.00000000000E+00 0. -1.
         22    1    1    2    0    0 -0.53231885717E+02  0.42874067718E+02  0.38603650195E+03  0.39204081442E+03  0.00000000000E+00 0. -1.
         22    1    1    2    0    0 -0.10010861572E+02  0.10775135273E+02 -0.70917856621E+01  0.16328328556E+02  0.00000000000E+00 0. -1.
</event>
<event>
 6    1  0.8017648E-006  0.5595141E+02  0.7818608E-02  0.1530903E+00
          2   -1    0    0  502    0  0.00000000000E+00  0.00000000000E+00  0.15344345788E+03  0.15344345788E+03  0.00000000000E+00 0.  1.
          1   -1    0    0  501    0 -0.00000000000E+00 -0.00000000000E+00 -0.93549422806E+02  0.93549422806E+02  0.00000000000E+00 0. -1.
          2    1    1    2  501    0 -0.35014257390E+01 -0.24383334283E+02  0.34461242469E+02  0.42360172396E+02  0.00000000000E+00 0.  1.
          1    1    1    2  502    0 -0.23807475230E+02  0.47450802575E+02 -0.33812509131E+02  0.62941721581E+02  0.00000000000E+00 0. -1.
         22    1    1    2    0    0  0.88723373261E+01 -0.61366334594E+01 -0.38918538616E+02  0.40386003614E+02  0.00000000000E+00 0.  1.
         22    1    1    2    0    0  0.18436563642E+02 -0.16930834833E+02  0.98163840356E+02  0.10130498310E+03  0.00000000000E+00 0. -1.
</event>
<event>
 6    1  0.8017648E-006  0.2547280E+03  0.7818608E-02  0.1206208E+00
          2   -1    0    0  502    0  0.00000000000E+00  0.00000000000E+00  0.34557209270E+03  0.34557209270E+03  0.00000000000E+00 0. -1.
          1   -1    0    0  501    0 -0.00000000000E+00 -0.00000000000E+00 -0.10273674855E+04  0.10273674855E+04  0.00000000000E+00 0.  1.
          2    1    1    2  501    0  0.20476737677E+03  0.11142381550E+03  0.19608922699E+03  0.30462424426E+03  0.00000000000E+00 0. -1.
          1    1    1    2  502    0 -0.20409908249E+03 -0.13611934460E+03 -0.90879247032E+03  0.94132282749E+03  0.00000000000E+00 0.  1.
         22    1    1    2    0    0  0.10020807756E+02  0.25137619374E+02  0.75986683628E+02  0.80661592996E+02  0.00000000000E+00 0. -1.
         22    1    1    2    0    0 -0.10689102038E+02 -0.44209027480E+00 -0.45078833063E+02  0.46330913400E+02  0.00000000000E+00 0.  1.
</event>
<event>
 6    1  0.8017648E-006  0.6861709E+02  0.7818608E-02  0.1423870E+00
          2   -1    0    0  502    0  0.00000000000E+00  0.00000000000E+00  0.48046471366E+03  0.48046471366E+03  0.00000000000E+00 0. -1.
          1   -1    0    0  501    0 -0.00000000000E+00 -0.00000000000E+00 -0.17081737340E+03  0.17081737340E+03  0.00000000000E+00 0.  1.
          2    1    1    2  501    0 -0.11061086154E+03  0.92408852562E+02  0.25504035755E+03  0.29295006862E+03  0.00000000000E+00 0. -1.
          1    1    1    2  502    0  0.10729596796E+03 -0.13196226363E+03 -0.65178399614E+02  0.18213919825E+03  0.00000000000E+00 0.  1.
         22    1    1    2    0    0  0.41243563729E+01  0.10562643509E+02 -0.25570451487E+02  0.27971909886E+02  0.00000000000E+00 0.  1.
         22    1    1    2    0    0 -0.80946279120E+00  0.28990767554E+02  0.14535583381E+03  0.14822091032E+03  0.00000000000E+00 0.  1.
</event>
<event>
 6    1  0.8017648E-006  0.7258483E+02  0.7818608E-02  0.1409141E+00
          2   -1    0    0  502    0  0.00000000000E+00  0.00000000000E+00  0.24778398456E+03  0.24778398456E+03  0.00000000000E+00 0.  1.
          1   -1    0    0  501    0 -0.00000000000E+00 -0.00000000000E+00 -0.56297942736E+02  0.56297942736E+02  0.00000000000E+00 0.  1.
          2    1    1    2  501    0 -0.43755194072E+02  0.48721723690E+01  0.86443444448E+02  0.97008887015E+02  0.00000000000E+00 0.  1.
          1    1    1    2  502    0  0.50254776737E+02 -0.26593355765E+01  0.13417351668E+02  0.52083010439E+02  0.00000000000E+00 0.  1.
         22    1    1    2    0    0  0.24967176291E+02 -0.13447925277E+02 -0.22420312648E+02  0.36150753871E+02  0.00000000000E+00 0.  1.
         22    1    1    2    0    0 -0.31466758957E+02  0.11235088484E+02  0.11404555836E+03  0.11883927597E+03  0.00000000000E+00 0.  1.
</event>
<event>
 6    1  0.8017648E-006  0.6942216E+02  0.7818608E-02  0.1381715E+00
          2   -1    0    0  502    0  0.00000000000E+00  0.00000000000E+00  0.79636418250E+03  0.79636418250E+03  0.00000000000E+00 0.  1.
          1   -1    0    0  501    0 -0.00000000000E+00 -0.00000000000E+00 -0.20666899017E+02  0.20666899017E+02  0.00000000000E+00 0.  1.
          2    1    1    2  501    0 -0.49627199204E+02  0.45004427502E+02  0.18325682833E+03  0.19511873955E+03  0.00000000000E+00 0.  1.
          1    1    1    2  502    0  0.61168682362E+01 -0.41358278041E+02  0.29183015138E+03  0.29480970217E+03  0.00000000000E+00 0.  1.
         22    1    1    2    0    0  0.81123177688E+02 -0.92174290493E+01  0.14013588345E+03  0.16218506955E+03  0.00000000000E+00 0.  1.
         22    1    1    2    0    0 -0.37612846720E+02  0.55712795883E+01  0.16047442033E+03  0.16491757024E+03  0.00000000000E+00 0.  1.
</event>
<event>
 6    1  0.8017648E-006  0.1250137E+03  0.7818608E-02  0.1369969E+00
          2   -1    0    0  502    0  0.00000000000E+00  0.00000000000E+00  0.24520285722E+03  0.24520285722E+03  0.00000000000E+00 0. -1.
          1   -1    0    0  501    0 -0.00000000000E+00 -0.00000000000E+00 -0.75608841915E+02  0.75608841915E+02  0.00000000000E+00 0. -1.
          2    1    1    2  501    0  0.37758954653E+02  0.41476345402E+01  0.50532117122E+01  0.38320705596E+02  0.00000000000E+00 0. -1.
          1    1    1    2  502    0 -0.71617749369E+02  0.48287118804E+02  0.50434123181E+02  0.10002174088E+03  0.00000000000E+00 0. -1.
         22    1    1    2    0    0  0.43919820990E+02 -0.49712815908E+02  0.13980149581E+03  0.15474098673E+03  0.00000000000E+00 0. -1.
         22    1    1    2    0    0 -0.10061026274E+02 -0.27219374362E+01 -0.25694815403E+02  0.27728265934E+02  0.00000000000E+00 0.  1.
</event>
<event>
 6    1  0.8017648E-006  0.9476390E+02  0.7818608E-02  0.1375888E+00
          2   -1    0    0  502    0  0.00000000000E+00  0.00000000000E+00  0.43424543580E+03  0.43424543580E+03  0.00000000000E+00 0.  1.
          1   -1    0    0  501    0 -0.00000000000E+00 -0.00000000000E+00 -0.20047065341E+03  0.20047065341E+03  0.00000000000E+00 0.  1.
          2    1    1    2  501    0 -0.72206136100E+02 -0.71731958146E+02  0.31295374651E+03  0.32908850992E+03  0.00000000000E+00 0.  1.
          1    1    1    2  502    0  0.12917366919E+03  0.83161909265E+02 -0.60063798194E+02  0.16495271995E+03  0.00000000000E+00 0.  1.
         22    1    1    2    0    0 -0.54915066665E+02 -0.25003725102E+02  0.44895007916E+02  0.75209125454E+02  0.00000000000E+00 0.  1.
         22    1    1    2    0    0 -0.20524664287E+01  0.13573773983E+02 -0.64010173833E+02  0.65465733882E+02  0.00000000000E+00 0.  1.
</event>
<event>
 6    1  0.8017648E-006  0.1139136E+03  0.7818608E-02  0.1375236E+00
          2   -1    0    0  502    0  0.00000000000E+00  0.00000000000E+00  0.38500637082E+03  0.38500637082E+03  0.00000000000E+00 0.  1.
          1   -1    0    0  501    0 -0.00000000000E+00 -0.00000000000E+00 -0.37023128494E+03  0.37023128494E+03  0.00000000000E+00 0.  1.
          2    1    1    2  501    0  0.22108051757E+02  0.28911873996E+02  0.23429920035E+03  0.23710921048E+03  0.00000000000E+00 0.  1.
          1    1    1    2  502    0 -0.37288570535E+02 -0.80404714272E+02 -0.33045191843E+03  0.34213129931E+03  0.00000000000E+00 0.  1.
         22    1    1    2    0    0  0.25542018760E+02  0.58714851156E+02  0.13466312626E+03  0.14911065033E+03  0.00000000000E+00 0.  1.
         22    1    1    2    0    0 -0.10361499983E+02 -0.72220108803E+01 -0.23735322296E+02  0.26886495635E+02  0.00000000000E+00 0.  1.
</event>
<event>
 6    1  0.8017648E-006  0.9454173E+02  0.7818608E-02  0.1351166E+00
          2   -1    0    0  502    0  0.00000000000E+00  0.00000000000E+00  0.15473738794E+03  0.15473738794E+03  0.00000000000E+00 0. -1.
          1   -1    0    0  501    0 -0.00000000000E+00 -0.00000000000E+00 -0.42067064598E+03  0.42067064598E+03  0.00000000000E+00 0.  1.
          2    1    1    2  501    0 -0.19312760528E+02  0.55649707175E+02  0.99878340585E+02  0.11595497206E+03  0.00000000000E+00 0. -1.
          1    1    1    2  502    0 -0.10252929931E+02 -0.69037175419E+02 -0.31140965866E+03  0.31913512760E+03  0.00000000000E+00 0.  1.
         22    1    1    2    0    0  0.39171671505E+01  0.34224313962E+02  0.32491207922E+02  0.47353209573E+02  0.00000000000E+00 0. -1.
         22    1    1    2    0    0  0.25648523308E+02 -0.20836845718E+02 -0.86893147876E+02  0.92964724682E+02  0.00000000000E+00 0.  1.
</event>
<event>
 6    1  0.8017648E-006  0.1463398E+03  0.7818608E-02  0.1255611E+00
          2   -1    0    0  502    0  0.00000000000E+00  0.00000000000E+00  0.60610576456E+03  0.60610576456E+03  0.00000000000E+00 0. -1.
          1   -1    0    0  501    0 -0.00000000000E+00 -0.00000000000E+00 -0.98715467890E+02  0.98715467890E+02  0.00000000000E+00 0. -1.
          2    1    1    2  501    0 -0.67133945934E+02  0.18697092395E+02  0.24233545514E+03  0.25215673852E+03  0.00000000000E+00 0. -1.
          1    1    1    2  502    0  0.14391979533E+03  0.50620493168E+02  0.12287894583E+02  0.15305663713E+03  0.00000000000E+00 0. -1.
         22    1    1    2    0    0 -0.30756895656E+01 -0.51424541343E+02  0.20804288972E+02  0.55558633517E+02  0.00000000000E+00 0.  1.
         22    1    1    2    0    0 -0.73710159828E+02 -0.17893044221E+02  0.23196265797E+03  0.24404922329E+03  0.00000000000E+00 0. -1.
</event>
<event>
 6    1  0.8017648E-006  0.9983250E+02  0.7818608E-02  0.1283218E+00
          2   -1    0    0  502    0  0.00000000000E+00  0.00000000000E+00  0.49153216804E+03  0.49153216804E+03  0.00000000000E+00 0. -1.
          1   -1    0    0  501    0 -0.00000000000E+00 -0.00000000000E+00 -0.70217367959E+02  0.70217367959E+02  0.00000000000E+00 0. -1.
          2    1    1    2  501    0  0.64534197753E+02  0.15453264643E+02  0.29247024495E+03  0.29990383501E+03  0.00000000000E+00 0. -1.
          1    1    1    2  502    0 -0.71145280318E+02 -0.24342121667E+02 -0.54368611479E+01  0.75390644367E+02  0.00000000000E+00 0. -1.
         22    1    1    2    0    0 -0.15912868997E+02 -0.81494070115E+01 -0.21598133049E+02  0.28037681530E+02  0.00000000000E+00 0. -1.
         22    1    1    2    0    0  0.22523951563E+02  0.17038264036E+02  0.15587954932E+03  0.15841737509E+03  0.00000000000E+00 0.  1.
</event>
<event>
 6    1  0.8017648E-006  0.1126055E+03  0.7818608E-02  0.1258989E+00
          2   -1    0    0  502    0  0.00000000000E+00  0.00000000000E+00  0.40371798582E+03  0.40371798582E+03  0.00000000000E+00 0. -1.
          1   -1    0    0  501    0 -0.00000000000E+00 -0.00000000000E+00 -0.15142794503E+03  0.15142794503E+03  0.00000000000E+00 0.  1.
          2    1    1    2  501    0  0.23422496347E+02 -0.14928964561E+02  0.16510729533E+03  0.16742731644E+03  0.00000000000E+00 0. -1.
          1    1    1    2  502    0 -0.92070924552E+02  0.19251025112E+02 -0.10924255233E+03  0.14415821986E+03  0.00000000000E+00 0.  1.
         22    1    1    2    0    0 -0.90989705133E+01  0.73622995482E+01 -0.14397574591E+02  0.18554915067E+02  0.00000000000E+00 0.  1.
         22    1    1    2    0    0  0.77747398719E+02 -0.11684360099E+02  0.21082287238E+03  0.22500547948E+03  0.00000000000E+00 0. -1.
</event>
<event>
 6    1  0.8017648E-006  0.3028092E+02  0.7818608E-02  0.1626605E+00
          2   -1    0    0  502    0  0.00000000000E+00  0.00000000000E+00  0.12413100878E+03  0.12413100878E+03  0.00000000000E+00 0. -1.
          1   -1    0    0  501    0 -0.00000000000E+00 -0.00000000000E+00 -0.40096069057E+03  0.40096069057E+03  0.00000000000E+00 0. -1.
          2    1    1    2  501    0  0.54001258111E+01 -0.34549538448E+02  0.45508427069E+02  0.57392063041E+02  0.00000000000E+00 0. -1.
          1    1    1    2  502    0 -0.22617863419E+02  0.53073383870E+02 -0.33522580295E+03  0.34015392220E+03  0.00000000000E+00 0. -1.
         22    1    1    2    0    0  0.12076637563E+02 -0.15809950052E+01 -0.55542395787E+02  0.56862135466E+02  0.00000000000E+00 0. -1.
         22    1    1    2    0    0  0.51411000451E+01 -0.16942850416E+02  0.68430089879E+02  0.70683578650E+02  0.00000000000E+00 0. -1.
</event>
<event>
 6    1  0.8017648E-006  0.9006711E+02  0.7818608E-02  0.1402615E+00
          2   -1    0    0  502    0  0.00000000000E+00  0.00000000000E+00  0.19531764844E+04  0.19531764844E+04  0.00000000000E+00 0. -1.
          1   -1    0    0  501    0 -0.00000000000E+00 -0.00000000000E+00 -0.53766714657E+02  0.53766714657E+02  0.00000000000E+00 0. -1.
          2    1    1    2  501    0 -0.68860918723E+02  0.17093854605E+02  0.10651819114E+04  0.10675422851E+04  0.00000000000E+00 0. -1.
          1    1    1    2  502    0  0.61621592562E+02  0.36853022685E+01  0.80687868993E+03  0.80923669120E+03  0.00000000000E+00 0. -1.
         22    1    1    2    0    0  0.12038743447E+02 -0.50505539304E+01  0.76877048562E+02  0.77977689337E+02  0.00000000000E+00 0. -1.
         22    1    1    2    0    0 -0.47994172855E+01 -0.15728602944E+02 -0.49527880183E+02  0.52186533438E+02  0.00000000000E+00 0. -1.
</event>
<event>
 6    1  0.8017648E-006  0.8985115E+02  0.7818608E-02  0.1377739E+00
          2   -1    0    0  502    0  0.00000000000E+00  0.00000000000E+00  0.10348399259E+03  0.10348399259E+03  0.00000000000E+00 0.  1.
          1   -1    0    0  501    0 -0.00000000000E+00 -0.00000000000E+00 -0.47941830159E+03  0.47941830159E+03  0.00000000000E+00 0.  1.
          2    1    1    2  501    0 -0.25866159260E+02 -0.46714855283E+02 -0.13587874491E+02  0.55099602832E+02  0.00000000000E+00 0.  1.
          1    1    1    2  502    0  0.75531964142E+02  0.75248989717E+00  0.50035322609E+02  0.90604510686E+02  0.00000000000E+00 0.  1.
         22    1    1    2    0    0 -0.68945458928E+02  0.61405476855E+02 -0.39809758040E+03  0.40866342192E+03  0.00000000000E+00 0.  1.
         22    1    1    2    0    0  0.19279654046E+02 -0.15443111469E+02 -0.14284176717E+02  0.28534758742E+02  0.00000000000E+00 0.  1.
</event>
<event>
 6    1  0.8017648E-006  0.3131016E+02  0.7818608E-02  0.1605166E+00
          2   -1    0    0  502    0  0.00000000000E+00  0.00000000000E+00  0.16578832180E+03  0.16578832180E+03  0.00000000000E+00 0. -1.
          1   -1    0    0  501    0 -0.00000000000E+00 -0.00000000000E+00 -0.13544004073E+03  0.13544004073E+03  0.00000000000E+00 0. -1.
          2    1    1    2  501    0 -0.13077386590E+02 -0.24960994048E+02  0.62647015322E+02  0.68692923891E+02  0.00000000000E+00 0. -1.
          1    1    1    2  502    0 -0.11595532130E+02  0.55690639161E+02 -0.75511064562E+02  0.94540068367E+02  0.00000000000E+00 0. -1.
         22    1    1    2    0    0  0.57641148091E+01 -0.17403007158E+02  0.86764814823E+02  0.88680453139E+02  0.00000000000E+00 0. -1.
         22    1    1    2    0    0  0.18908803910E+02 -0.13326637955E+02 -0.43552484515E+02  0.49314917134E+02  0.00000000000E+00 0.  1.
</event>
<event>
 6    1  0.8017648E-006  0.1049450E+03  0.7818608E-02  0.1272386E+00
          2   -1    0    0  502    0  0.00000000000E+00  0.00000000000E+00  0.24575719557E+03  0.24575719557E+03  0.00000000000E+00 0.  1.
          1   -1    0    0  501    0 -0.00000000000E+00 -0.00000000000E+00 -0.33758627092E+03  0.33758627092E+03  0.00000000000E+00 0.  1.
          2    1    1    2  501    0  0.38719575124E+02  0.29343696736E+02  0.97463864260E+02  0.10890116102E+03  0.00000000000E+00 0.  1.
          1    1    1    2  502    0 -0.29010420256E+02 -0.76633676661E+02 -0.29376724931E+03  0.30498118245E+03  0.00000000000E+00 0.  1.
         22    1    1    2    0    0  0.26546915329E+01  0.56105002889E+02  0.12895343798E+03  0.14065492491E+03  0.00000000000E+00 0.  1.
         22    1    1    2    0    0 -0.12363846400E+02 -0.88150229639E+01 -0.24479128278E+02  0.28806198099E+02  0.00000000000E+00 0. -1.
</event>
<event>
 6    1  0.8017648E-006  0.1717885E+03  0.7818608E-02  0.1263379E+00
          2   -1    0    0  502    0  0.00000000000E+00  0.00000000000E+00  0.80960834266E+03  0.80960834266E+03  0.00000000000E+00 0.  1.
          1   -1    0    0  501    0 -0.00000000000E+00 -0.00000000000E+00 -0.36104077654E+02  0.36104077654E+02  0.00000000000E+00 0.  1.
          2    1    1    2  501    0  0.48886901955E+02 -0.24864061357E+02  0.13850703563E+03  0.14897096915E+03  0.00000000000E+00 0.  1.
          1    1    1    2  502    0  0.76580510971E+02  0.21664020872E+02  0.75333479617E+02  0.10958575460E+03  0.00000000000E+00 0.  1.
         22    1    1    2    0    0 -0.10651014173E+03 -0.16490278783E+02  0.54611539002E+03  0.55664922420E+03  0.00000000000E+00 0.  1.
         22    1    1    2    0    0 -0.18957271200E+02  0.19690319268E+02  0.13548359735E+02  0.30506472358E+02  0.00000000000E+00 0.  1.
</event>
<event>
 6    1  0.8017648E-006  0.2376335E+03  0.7818608E-02  0.1170956E+00
          2   -1    0    0  502    0  0.00000000000E+00  0.00000000000E+00  0.22805382984E+03  0.22805382984E+03  0.00000000000E+00 0. -1.
          1   -1    0    0  501    0 -0.00000000000E+00 -0.00000000000E+00 -0.88141750765E+03  0.88141750765E+03  0.00000000000E+00 0.  1.
          2    1    1    2  501    0  0.22479169683E+03 -0.62965715090E+02  0.12337140404E+03  0.26403880695E+03  0.00000000000E+00 0. -1.
          1    1    1    2  502    0 -0.18626554680E+03  0.97165769585E+01 -0.38595913642E+03  0.42866504497E+03  0.00000000000E+00 0.  1.
         22    1    1    2    0    0  0.13501167983E+02  0.23560469166E+01  0.48232553576E+01  0.14529152977E+02  0.00000000000E+00 0.  1.
         22    1    1    2    0    0 -0.52027318019E+02  0.50893091215E+02 -0.39559920077E+03  0.40223833259E+03  0.00000000000E+00 0.  1.
</event>
<event>
 6    1  0.8017648E-006  0.4861742E+02  0.7818608E-02  0.1515704E+00
          2   -1    0    0  502    0  0.00000000000E+00  0.00000000000E+00  0.27279559162E+03  0.27279559162E+03  0.00000000000E+00 0. -1.
          1   -1    0    0  501    0 -0.00000000000E+00 -0.00000000000E+00 -0.68967494049E+02  0.68967494049E+02  0.00000000000E+00 0. -1.
          2    1    1    2  501    0 -0.53287300174E+01  0.45693719392E+02  0.14570618853E+03  0.15279595783E+03  0.00000000000E+00 0. -1.
          1    1    1    2  502    0  0.14154173697E+02 -0.23895103630E+02 -0.23760389345E+02  0.36549592506E+02  0.00000000000E+00 0. -1.
         22    1    1    2    0    0  0.10678078912E+02 -0.16810256689E+02 -0.31497024921E+02  0.37264845070E+02  0.00000000000E+00 0.  1.
         22    1    1    2    0    0 -0.19503522591E+02 -0.49883590729E+01  0.11337932331E+03  0.11515269026E+03  0.00000000000E+00 0.  1.
</event>
<event>
 6    1  0.8017648E-006  0.7998979E+02  0.7818608E-02  0.1439664E+00
          2   -1    0    0  502    0  0.00000000000E+00  0.00000000000E+00  0.99723081748E+02  0.99723081748E+02  0.00000000000E+00 0.  1.
          1   -1    0    0  501    0 -0.00000000000E+00 -0.00000000000E+00 -0.40097219313E+03  0.40097219313E+03  0.00000000000E+00 0. -1.
          2    1    1    2  501    0 -0.12320225256E+02 -0.40189817735E+02  0.29127953322E+02  0.51141441754E+02  0.00000000000E+00 0.  1.
          1    1    1    2  502    0  0.56114141688E+02  0.47708768078E+02 -0.30026435448E+03  0.30916598457E+03  0.00000000000E+00 0. -1.
         22    1    1    2    0    0 -0.32589069960E+02 -0.14664197496E+02  0.48732075801E+02  0.60430963760E+02  0.00000000000E+00 0.  1.
         22    1    1    2    0    0 -0.11204846473E+02  0.71452471535E+01 -0.78844786024E+02  0.79956884786E+02  0.00000000000E+00 0. -1.
</event>
<event>
 6    1  0.8017648E-006  0.8014335E+02  0.7818608E-02  0.1408429E+00
          2   -1    0    0  502    0  0.00000000000E+00  0.00000000000E+00  0.44768455585E+02  0.44768455585E+02  0.00000000000E+00 0.  1.
          1   -1    0    0  501    0 -0.00000000000E+00 -0.00000000000E+00 -0.29955917122E+03  0.29955917122E+03  0.00000000000E+00 0.  1.
          2    1    1    2  501    0 -0.17549019725E+02  0.23952619705E+02 -0.18045105468E+02  0.34746538178E+02  0.00000000000E+00 0.  1.
          1    1    1    2  502    0  0.46402929879E+02 -0.40502533260E+02 -0.12606456540E+03  0.14030667037E+03  0.00000000000E+00 0.  1.
         22    1    1    2    0    0 -0.35228288158E+02  0.36877613291E+02  0.53721589373E+01  0.51282070358E+02  0.00000000000E+00 0.  1.
         22    1    1    2    0    0  0.63743780039E+01 -0.20327699736E+02 -0.11605320371E+03  0.11799234790E+03  0.00000000000E+00 0.  1.
</event>
<event>
 6    1  0.8017648E-006  0.1713555E+03  0.7818608E-02  0.1244019E+00
          2   -1    0    0  502    0  0.00000000000E+00  0.00000000000E+00  0.23244020721E+04  0.23244020721E+04  0.00000000000E+00 0. -1.
          1   -1    0    0  501    0 -0.00000000000E+00 -0.00000000000E+00 -0.19819676814E+02  0.19819676814E+02  0.00000000000E+00 0. -1.
          2    1    1    2  501    0  0.28600371816E+02 -0.11802114123E+03  0.51685125595E+03  0.53092578749E+03  0.00000000000E+00 0. -1.
          1    1    1    2  502    0 -0.56789879212E+02  0.13040480859E+03  0.13245167103E+04  0.13321317579E+04  0.00000000000E+00 0. -1.
         22    1    1    2    0    0 -0.34645459053E+02  0.20883438531E+02  0.64322457845E+02  0.75985554028E+02  0.00000000000E+00 0. -1.
         22    1    1    2    0    0  0.62834966449E+02 -0.33267105893E+02  0.39889197116E+03  0.40517864949E+03  0.00000000000E+00 0. -1.
</event>
<event>
 6    1  0.8017648E-006  0.3259960E+02  0.7818608E-02  0.1653734E+00
          2   -1    0    0  502    0  0.00000000000E+00  0.00000000000E+00  0.24117079357E+03  0.24117079357E+03  0.00000000000E+00 0.  1.
          1   -1    0    0  501    0 -0.00000000000E+00 -0.00000000000E+00 -0.50484714642E+02  0.50484714642E+02  0.00000000000E+00 0.  1.
          2    1    1    2  501    0 -0.27196841562E+02  0.12248233354E+02  0.52588354848E+02  0.60458435944E+02  0.00000000000E+00 0.  1.
          1    1    1    2  502    0  0.27416208044E+02 -0.45843806213E+02  0.48410377019E+02  0.72089303192E+02  0.00000000000E+00 0.  1.
         22    1    1    2    0    0 -0.63859086250E+01  0.25602718631E+02  0.12222454385E+03  0.12504046605E+03  0.00000000000E+00 0.  1.
         22    1    1    2    0    0  0.61665421428E+01  0.79928542281E+01 -0.32537196789E+02  0.34067303028E+02  0.00000000000E+00 0.  1.
</event>
<event>
 6    1  0.8017648E-006  0.3803820E+02  0.7818608E-02  0.1527705E+00
          2   -1    0    0  502    0  0.00000000000E+00  0.00000000000E+00  0.11978086072E+03  0.11978086072E+03  0.00000000000E+00 0.  1.
          1   -1    0    0  501    0 -0.00000000000E+00 -0.00000000000E+00 -0.23450217472E+03  0.23450217472E+03  0.00000000000E+00 0. -1.
          2    1    1    2  501    0  0.31911251394E+02 -0.64239009612E+01  0.86666615907E+02  0.92578057778E+02  0.00000000000E+00 0.  1.
          1    1    1    2  502    0 -0.30916578211E+02 -0.12219793371E+02 -0.64646154161E+02  0.72693076741E+02  0.00000000000E+00 0. -1.
         22    1    1    2    0    0 -0.27343634495E+02  0.69654186552E+01 -0.15323097664E+03  0.15580732847E+03  0.00000000000E+00 0. -1.
         22    1    1    2    0    0  0.26348961312E+02  0.11678275677E+02  0.16489200900E+02  0.33204572446E+02  0.00000000000E+00 0.  1.
</event>
<event>
 6    1  0.8017648E-006  0.4676780E+02  0.7818608E-02  0.1465143E+00
          2   -1    0    0  502    0  0.00000000000E+00  0.00000000000E+00  0.14511146643E+03  0.14511146643E+03  0.00000000000E+00 0. -1.
          1   -1    0    0  501    0 -0.00000000000E+00 -0.00000000000E+00 -0.91553442937E+02  0.91553442937E+02  0.00000000000E+00 0. -1.
          2    1    1    2  501    0 -0.36217956171E+02  0.15822509549E+02  0.17015163466E+02  0.43030314261E+02  0.00000000000E+00 0. -1.
          1    1    1    2  502    0  0.13777974343E+02 -0.30484891516E+02  0.58462342076E+02  0.67357305682E+02  0.00000000000E+00 0. -1.
         22    1    1    2    0    0 -0.23038023768E+02  0.98130296894E+01  0.41270120700E+02  0.48272859387E+02  0.00000000000E+00 0. -1.
         22    1    1    2    0    0  0.45478005596E+02  0.48493522779E+01 -0.63189602747E+02  0.78004430039E+02  0.00000000000E+00 0. -1.
</event>
<event>
 6    1  0.8017648E-006  0.7909572E+02  0.7818608E-02  0.1368039E+00
          2   -1    0    0  502    0  0.00000000000E+00  0.00000000000E+00  0.38055925510E+03  0.38055925510E+03  0.00000000000E+00 0.  1.
          1   -1    0    0  501    0 -0.00000000000E+00 -0.00000000000E+00 -0.10875084626E+03  0.10875084626E+03  0.00000000000E+00 0.  1.
          2    1    1    2  501    0 -0.30298940743E+02 -0.72003196540E+02  0.20889193400E+03  0.22302090981E+03  0.00000000000E+00 0.  1.
          1    1    1    2  502    0 -0.23118414570E+02  0.79499370986E+02 -0.42406277482E+02  0.93020983919E+02  0.00000000000E+00 0.  1.
         22    1    1    2    0    0  0.80662307704E+02 -0.40101540447E+02  0.48473653282E+02  0.10229485076E+03  0.00000000000E+00 0.  1.
         22    1    1    2    0    0 -0.27244952392E+02  0.32605366002E+02  0.56849099049E+02  0.70973356871E+02  0.00000000000E+00 0.  1.
</event>
<event>
 6    1  0.8017648E-006  0.4101215E+02  0.7818608E-02  0.1507599E+00
          2   -1    0    0  502    0  0.00000000000E+00  0.00000000000E+00  0.68783016749E+03  0.68783016749E+03  0.00000000000E+00 0. -1.
          1   -1    0    0  501    0 -0.00000000000E+00 -0.00000000000E+00 -0.93064096351E+02  0.93064096351E+02  0.00000000000E+00 0.  1.
          2    1    1    2  501    0 -0.38758392901E+02  0.39356141392E+02  0.58959838033E+03  0.59218018286E+03  0.00000000000E+00 0. -1.
          1    1    1    2  502    0  0.43671934166E+02 -0.48646372538E+02 -0.11398083300E+02  0.66359804835E+02  0.00000000000E+00 0.  1.
         22    1    1    2    0    0 -0.24221181896E+02  0.50888756577E+00  0.65059997055E+02  0.69424259706E+02  0.00000000000E+00 0.  1.
         22    1    1    2    0    0  0.19307640631E+02  0.87813435805E+01 -0.48494222942E+02  0.52930016443E+02  0.00000000000E+00 0.  1.
</event>
<event>
 6    1  0.8017648E-006  0.9189115E+02  0.7818608E-02  0.1299249E+00
          2   -1    0    0  502    0  0.00000000000E+00  0.00000000000E+00  0.81972362948E+02  0.81972362948E+02  0.00000000000E+00 0.  1.
          1   -1    0    0  501    0 -0.00000000000E+00 -0.00000000000E+00 -0.26180340137E+03  0.26180340137E+03  0.00000000000E+00 0.  1.
          2    1    1    2  501    0 -0.47926313959E+02  0.37301608215E+02  0.20817036362E+02  0.64200393675E+02  0.00000000000E+00 0.  1.
          1    1    1    2  502    0  0.47622502487E+02 -0.27203560934E+02 -0.10383693846E+03  0.11743102767E+03  0.00000000000E+00 0.  1.
         22    1    1    2    0    0 -0.25509430614E+02  0.10712329379E+02  0.24147742685E+02  0.36723269567E+02  0.00000000000E+00 0.  1.
         22    1    1    2    0    0  0.25813242086E+02 -0.20810376660E+02 -0.12095887901E+03  0.12542107341E+03  0.00000000000E+00 0. -1.
</event>
<event>
 6    1  0.8017648E-006  0.1055500E+03  0.7818608E-02  0.1366789E+00
          2   -1    0    0  502    0  0.00000000000E+00  0.00000000000E+00  0.83177635379E+02  0.83177635379E+02  0.00000000000E+00 0. -1.
          1   -1    0    0  501    0 -0.00000000000E+00 -0.00000000000E+00 -0.24432786253E+03  0.24432786253E+03  0.00000000000E+00 0.  1.
          2    1    1    2  501    0  0.85239455748E+02 -0.34207020802E+02 -0.17087351589E+02  0.93423030740E+02  0.00000000000E+00 0. -1.
          1    1    1    2  502    0 -0.42756966522E+02  0.52793358528E-01 -0.60442280568E+02  0.74036681811E+02  0.00000000000E+00 0.  1.
         22    1    1    2    0    0 -0.60206652056E+02  0.29781730025E+02 -0.10944920048E+03  0.12841697661E+03  0.00000000000E+00 0.  1.
         22    1    1    2    0    0  0.17724162830E+02  0.43724974179E+01  0.25828605486E+02  0.31628808752E+02  0.00000000000E+00 0. -1.
</event>
<event>
 6    1  0.8017648E-006  0.1313470E+03  0.7818608E-02  0.1315545E+00
          2   -1    0    0  502    0  0.00000000000E+00  0.00000000000E+00  0.53802706207E+03  0.53802706207E+03  0.00000000000E+00 0.  1.
          1   -1    0    0  501    0 -0.00000000000E+00 -0.00000000000E+00 -0.30402960228E+02  0.30402960228E+02  0.00000000000E+00 0.  1.
          2    1    1    2  501    0 -0.17063218846E+02 -0.39575282909E+02  0.70509922230E+02  0.82637797572E+02  0.00000000000E+00 0.  1.
          1    1    1    2  502    0  0.69814165706E+02  0.49135399339E+01  0.11407087454E+03  0.13382946248E+03  0.00000000000E+00 0.  1.
         22    1    1    2    0    0 -0.67847710406E+02  0.52000031391E+02  0.31681414809E+03  0.32814405298E+03  0.00000000000E+00 0.  1.
         22    1    1    2    0    0  0.15096763547E+02 -0.17338288416E+02  0.62291569761E+01  0.23818709273E+02  0.00000000000E+00 0.  1.
</event>
<event>
 6    1  0.8017648E-006  0.7779763E+02  0.7818608E-02  0.1420124E+00
          2   -1    0    0  502    0  0.00000000000E+00  0.00000000000E+00  0.27057580087E+03  0.27057580087E+03  0.00000000000E+00 0.  1.
          1   -1    0    0  501    0 -0.00000000000E+00 -0.00000000000E+00 -0.77234807164E+02  0.77234807164E+02  0.00000000000E+00 0. -1.
          2    1    1    2  501    0 -0.22349234029E+02 -0.27058855737E+02  0.15212039342E+03  0.15611625166E+03  0.00000000000E+00 0.  1.
          1    1    1    2  502    0  0.36979661098E+02 -0.13267980448E+02 -0.24606904774E+02  0.46357679005E+02  0.00000000000E+00 0. -1.
         22    1    1    2    0    0  0.15220337460E+02  0.12071173088E+02 -0.33005160311E+02  0.38297682688E+02  0.00000000000E+00 0. -1.
         22    1    1    2    0    0 -0.29850764530E+02  0.28255663097E+02  0.98832665367E+02  0.10703899469E+03  0.00000000000E+00 0.  1.
</event>
<event>
 6    1  0.8017648E-006  0.2893264E+03  0.7818608E-02  0.1169184E+00
          2   -1    0    0  502    0  0.00000000000E+00  0.00000000000E+00  0.11540747230E+03  0.11540747230E+03  0.00000000000E+00 0. -1.
          1   -1    0    0  501    0 -0.00000000000E+00 -0.00000000000E+00 -0.11191121774E+04  0.11191121774E+04  0.00000000000E+00 0. -1.
          2    1    1    2  501    0 -0.14890883029E+03  0.33230156352E+02 -0.85126326144E+02  0.17471283419E+03  0.00000000000E+00 0. -1.
          1    1    1    2  502    0  0.25644301457E+03  0.56233009190E+02 -0.79537384620E+03  0.83758266832E+03  0.00000000000E+00 0. -1.
         22    1    1    2    0    0 -0.71055912614E+02 -0.11026381869E+03 -0.55237521119E+02  0.14233143072E+03  0.00000000000E+00 0. -1.
         22    1    1    2    0    0 -0.36478271664E+02  0.20800653151E+02 -0.67967011601E+02  0.79892716445E+02  0.00000000000E+00 0.  1.
</event>
<event>
 6    1  0.8017648E-006  0.7960464E+02  0.7818608E-02  0.1331082E+00
          2   -1    0    0  502    0  0.00000000000E+00  0.00000000000E+00  0.22832327762E+03  0.22832327762E+03  0.00000000000E+00 0. -1.
          1   -1    0    0  501    0 -0.00000000000E+00 -0.00000000000E+00 -0.39519438387E+03  0.39519438387E+03  0.00000000000E+00 0.  1.
          2    1    1    2  501    0  0.94497498174E+01  0.64292025557E+02  0.16626011839E+03  0.17850823311E+03  0.00000000000E+00 0. -1.
          1    1    1    2  502    0 -0.90993443193E+01 -0.60183683231E+02 -0.31552994937E+03  0.32134719968E+03  0.00000000000E+00 0.  1.
         22    1    1    2    0    0  0.10864359460E+02  0.87607145587E+01  0.51048538310E+02  0.52921996274E+02  0.00000000000E+00 0. -1.
         22    1    1    2    0    0 -0.11214764958E+02 -0.12869056885E+02 -0.68649813577E+02  0.70740232417E+02  0.00000000000E+00 0. -1.
</event>
<event>
 6    1  0.8017648E-006  0.5550871E+02  0.7818608E-02  0.1421985E+00
          2   -1    0    0  502    0  0.00000000000E+00  0.00000000000E+00  0.12680836131E+03  0.12680836131E+03  0.00000000000E+00 0. -1.
          1   -1    0    0  501    0 -0.00000000000E+00 -0.00000000000E+00 -0.17587930433E+03  0.17587930433E+03  0.00000000000E+00 0. -1.
          2    1    1    2  501    0  0.19174146399E+02  0.56685426590E+02  0.37415922574E+02  0.70575043322E+02  0.00000000000E+00 0. -1.
          1    1    1    2  502    0 -0.21603668733E+02 -0.33078074091E+02  0.39582645814E+02  0.55925515983E+02  0.00000000000E+00 0. -1.
         22    1    1    2    0    0 -0.75291071027E+01  0.27403596789E+02  0.10316420796E+02  0.30233642003E+02  0.00000000000E+00 0.  1.
         22    1    1    2    0    0  0.99586294374E+01 -0.51010949287E+02 -0.13638593220E+03  0.14595346433E+03  0.00000000000E+00 0. -1.
</event>
<event>
 6    1  0.8017648E-006  0.7800273E+02  0.7818608E-02  0.1395730E+00
          2   -1    0    0  502    0  0.00000000000E+00  0.00000000000E+00  0.46380036812E+03  0.46380036812E+03  0.00000000000E+00 0.  1.
          1   -1    0    0  501    0 -0.00000000000E+00 -0.00000000000E+00 -0.53933374214E+02  0.53933374214E+02  0.00000000000E+00 0.  1.
          2    1    1    2  501    0 -0.25344424522E+02  0.23712029695E+02  0.12300550180E+02  0.36822598243E+02  0.00000000000E+00 0.  1.
          1    1    1    2  502    0  0.31218331610E+01 -0.51577885686E+02  0.33374122575E+03  0.33771767780E+03  0.00000000000E+00 0.  1.
         22    1    1    2    0    0  0.16512110243E+01  0.47206985022E+02  0.91929426485E+02  0.10335494853E+03  0.00000000000E+00 0.  1.
         22    1    1    2    0    0  0.20571380337E+02 -0.19341129031E+02 -0.28104208509E+02  0.39838517757E+02  0.00000000000E+00 0.  1.
</event>
<event>
 6    1  0.8017648E-006  0.6549612E+02  0.7818608E-02  0.1494952E+00
          2   -1    0    0  502    0  0.00000000000E+00  0.00000000000E+00  0.25357425179E+03  0.25357425179E+03  0.00000000000E+00 0. -1.
          1   -1    0    0  501    0 -0.00000000000E+00 -0.00000000000E+00 -0.76675569182E+02  0.76675569182E+02  0.00000000000E+00 0. -1.
          2    1    1    2  501    0 -0.11230765827E+02  0.23757728933E+02  0.94798450754E+02  0.98373299479E+02  0.00000000000E+00 0. -1.
          1    1    1    2  502    0  0.16808723884E+02 -0.69907630508E+02 -0.74832289750E+01  0.72288371940E+02  0.00000000000E+00 0. -1.
         22    1    1    2    0    0 -0.74082302300E+01  0.80342512857E+01 -0.31126991588E+02  0.32989705579E+02  0.00000000000E+00 0. -1.
         22    1    1    2    0    0  0.18302721729E+01  0.38115650290E+02  0.12071045241E+03  0.12659844397E+03  0.00000000000E+00 0. -1.
</event>
<event>
 6    1  0.8017648E-006  0.2642636E+02  0.7818608E-02  0.1675937E+00
          2   -1    0    0  502    0  0.00000000000E+00  0.00000000000E+00  0.63584901583E+02  0.63584901583E+02  0.00000000000E+00 0. -1.
          1   -1    0    0  501    0 -0.00000000000E+00 -0.00000000000E+00 -0.23320453357E+03  0.23320453357E+03  0.00000000000E+00 0.  1.
          2    1    1    2  501    0  0.13410050705E+01 -0.30735346431E+02  0.13491680215E+02  0.33592934523E+02  0.00000000000E+00 0. -1.
          1    1    1    2  502    0  0.31480768392E+02  0.82067933639E+01 -0.10913580124E+03  0.11388157598E+03  0.00000000000E+00 0.  1.
         22    1    1    2    0    0 -0.16850494487E+02  0.17182607701E+02 -0.10837431330E+03  0.11101429167E+03  0.00000000000E+00 0.  1.
         22    1    1    2    0    0 -0.15971278976E+02  0.53459453662E+01  0.34398802339E+02  0.38300632976E+02  0.00000000000E+00 0. -1.
</event>
<event>
 6    1  0.8017648E-006  0.6899749E+02  0.7818608E-02  0.1480719E+00
          2   -1    0    0  502    0  0.00000000000E+00  0.00000000000E+00  0.10471939192E+03  0.10471939192E+03  0.00000000000E+00 0.  1.
          1   -1    0    0  501    0 -0.00000000000E+00 -0.00000000000E+00 -0.28569587601E+03  0.28569587601E+03  0.00000000000E+00 0.  1.
          2    1    1    2  501    0 -0.12066898587E+02  0.20065532037E+02  0.25725709527E+02  0.34785740586E+02  0.00000000000E+00 0.  1.
          1    1    1    2  502    0 -0.24934999392E+02 -0.15521154805E+02 -0.21966484024E+03  0.22161972494E+03  0.00000000000E+00 0.  1.
         22    1    1    2    0    0 -0.84532451263E+01 -0.76559742950E+01 -0.52793607552E+02  0.54011445953E+02  0.00000000000E+00 0. -1.
         22    1    1    2    0    0  0.45455143105E+02  0.31115970628E+01  0.65756254185E+02  0.79998356455E+02  0.00000000000E+00 0.  1.
</event>
<event>
 6    1  0.8017648E-006  0.1963231E+03  0.7818608E-02  0.1252776E+00
          2   -1    0    0  502    0  0.00000000000E+00  0.00000000000E+00  0.51791794824E+03  0.51791794824E+03  0.00000000000E+00 0.  1.
          1   -1    0    0  501    0 -0.00000000000E+00 -0.00000000000E+00 -0.18338370038E+03  0.18338370038E+03  0.00000000000E+00 0. -1.
          2    1    1    2  501    0  0.39690940587E+02  0.86482498976E+02  0.42441450687E+03  0.43495087888E+03  0.00000000000E+00 0.  1.
          1    1    1    2  502    0 -0.77973818775E-01 -0.11355540511E+03 -0.63434214050E+02  0.13007204013E+03  0.00000000000E+00 0. -1.
         22    1    1    2    0    0 -0.30647922920E+02  0.47786800308E+02  0.37786510712E+02  0.68195995885E+02  0.00000000000E+00 0. -1.
         22    1    1    2    0    0 -0.89650438479E+01 -0.20713894171E+02 -0.64232555681E+02  0.68082733731E+02  0.00000000000E+00 0. -1.
</event>
<event>
 6    1  0.8017648E-006  0.6297250E+02  0.7818608E-02  0.1508075E+00
          2   -1    0    0  502    0  0.00000000000E+00  0.00000000000E+00  0.94635424746E+03  0.94635424746E+03  0.00000000000E+00 0. -1.
          1   -1    0    0  501    0 -0.00000000000E+00 -0.00000000000E+00 -0.34352903147E+02  0.34352903147E+02  0.00000000000E+00 0. -1.
          2    1    1    2  501    0  0.22913751536E+02 -0.15171191084E+02  0.18298533258E+03  0.18503739349E+03  0.00000000000E+00 0. -1.
          1    1    1    2  502    0 -0.44826895490E+02  0.34718628386E+02  0.63104427170E+03  0.63358638445E+03  0.00000000000E+00 0. -1.
         22    1    1    2    0    0 -0.10241007676E+02  0.77899234528E+00 -0.28352735668E+02  0.30155641051E+02  0.00000000000E+00 0. -1.
         22    1    1    2    0    0  0.32154151630E+02 -0.20326429647E+02  0.12632447569E+03  0.13192773161E+03  0.00000000000E+00 0. -1.
</event>
<event>
 6    1  0.8017648E-006  0.3325968E+02  0.7818608E-02  0.1604069E+00
          2   -1    0    0  502    0  0.00000000000E+00  0.00000000000E+00  0.19213634756E+03  0.19213634756E+03  0.00000000000E+00 0. -1.
          1   -1    0    0  501    0 -0.00000000000E+00 -0.00000000000E+00 -0.61005229689E+02  0.61005229689E+02  0.00000000000E+00 0. -1.
          2    1    1    2  501    0  0.20155939550E+02 -0.21916343246E+02  0.69660081298E+01  0.30579621804E+02  0.00000000000E+00 0. -1.
          1    1    1    2  502    0  0.12520617885E+02  0.52188292225E+02  0.42598843639E+02  0.68520399860E+02  0.00000000000E+00 0. -1.
         22    1    1    2    0    0 -0.32083262870E+02 -0.97914359357E+01 -0.27309134723E+02  0.43255020672E+02  0.00000000000E+00 0. -1.
         22    1    1    2    0    0 -0.59329456598E+00 -0.20480513043E+02  0.10887540082E+03  0.11078653491E+03  0.00000000000E+00 0. -1.
</event>
<event>
 6    1  0.8017648E-006  0.1050018E+03  0.7818608E-02  0.1271686E+00
          2   -1    0    0  502    0  0.00000000000E+00  0.00000000000E+00  0.89194005767E+03  0.89194005767E+03  0.00000000000E+00 0. -1.
          1   -1    0    0  501    0 -0.00000000000E+00 -0.00000000000E+00 -0.63867486573E+02  0.63867486573E+02  0.00000000000E+00 0. -1.
          2    1    1    2  501    0 -0.13082492184E+03  0.77309045955E+02  0.23323359607E+03  0.27836982433E+03  0.00000000000E+00 0. -1.
          1    1    1    2  502    0  0.88240064048E+02 -0.23622760032E+01  0.48270351829E+03  0.49070823900E+03  0.00000000000E+00 0. -1.
         22    1    1    2    0    0 -0.25891476510E+02  0.67581686560E+01  0.64761146296E+02  0.70071730884E+02  0.00000000000E+00 0. -1.
         22    1    1    2    0    0  0.68476334304E+02 -0.81704938608E+02  0.47374310442E+02  0.11665775003E+03  0.00000000000E+00 0. -1.
</event>
<event>
 6    1  0.8017648E-006  0.9279785E+02  0.7818608E-02  0.1374929E+00
          2   -1    0    0  502    0  0.00000000000E+00  0.00000000000E+00  0.73636008782E+03  0.73636008782E+03  0.00000000000E+00 0. -1.
          1   -1    0    0  501    0 -0.00000000000E+00 -0.00000000000E+00 -0.58185350547E+02  0.58185350547E+02  0.00000000000E+00 0. -1.
          2    1    1    2  501    0 -0.59190016702E+02 -0.17743400269E+02  0.40570239819E+03  0.41038119137E+03  0.00000000000E+00 0. -1.
          1    1    1    2  502    0  0.11689801708E+03  0.48318644590E+02  0.16694402918E+03  0.20945201524E+03  0.00000000000E+00 0. -1.
         22    1    1    2    0    0 -0.65701130302E+02 -0.52653236714E+02  0.20712758033E+02  0.86706517660E+02  0.00000000000E+00 0. -1.
         22    1    1    2    0    0  0.79931299266E+01  0.22077992392E+02  0.84815551864E+02  0.88005714088E+02  0.00000000000E+00 0. -1.
</event>
<event>
 6    1  0.8017648E-006  0.1795038E+03  0.7818608E-02  0.1207380E+00
          2   -1    0    0  502    0  0.00000000000E+00  0.00000000000E+00  0.51583516061E+03  0.51583516061E+03  0.00000000000E+00 0.  1.
          1   -1    0    0  501    0 -0.00000000000E+00 -0.00000000000E+00 -0.36008004068E+03  0.36008004068E+03  0.00000000000E+00 0.  1.
          2    1    1    2  501    0 -0.14422979230E+03 -0.42791490335E+02  0.34430595555E+03  0.37573918568E+03  0.00000000000E+00 0.  1.
          1    1    1    2  502    0  0.22256419827E+03  0.81549954342E+02  0.23314163408E+02  0.23817801666E+03  0.00000000000E+00 0.  1.
         22    1    1    2    0    0 -0.15240588759E+02  0.25443877536E+01  0.15841529945E+02  0.22129245938E+02  0.00000000000E+00 0.  1.
         22    1    1    2    0    0 -0.63093817211E+02 -0.41302851760E+02 -0.22770652897E+03  0.23986875301E+03  0.00000000000E+00 0.  1.
</event>
<event>
 6    1  0.8017648E-006  0.1136121E+03  0.7818608E-02  0.1328241E+00
          2   -1    0    0  502    0  0.00000000000E+00  0.00000000000E+00  0.41460988646E+03  0.41460988646E+03  0.00000000000E+00 0. -1.
          1   -1    0    0  501    0 -0.00000000000E+00 -0.00000000000E+00 -0.95119679990E+02  0.95119679990E+02  0.00000000000E+00 0.  1.
          2    1    1    2  501    0  0.86934388456E+02 -0.76151349642E+02  0.16309098791E+03  0.19988818446E+03  0.00000000000E+00 0. -1.
          1    1    1    2  502    0  0.47886307109E+02  0.57594576686E+02  0.18428892230E+02  0.77135320969E+02  0.00000000000E+00 0.  1.
         22    1    1    2    0    0 -0.13299586592E+03 -0.97174578347E+01  0.15105780737E+03  0.20149637839E+03  0.00000000000E+00 0. -1.
         22    1    1    2    0    0 -0.18248296458E+01  0.28274230790E+02 -0.13087481037E+02  0.31209682631E+02  0.00000000000E+00 0.  1.
</event>
<event>
 6    1  0.8017648E-006  0.3544707E+02  0.7818608E-02  0.1592037E+00
          2   -1    0    0  502    0  0.00000000000E+00  0.00000000000E+00  0.76162546840E+02  0.76162546840E+02  0.00000000000E+00 0.  1.
          1   -1    0    0  501    0 -0.00000000000E+00 -0.00000000000E+00 -0.16428629203E+03  0.16428629203E+03  0.00000000000E+00 0.  1.
          2    1    1    2  501    0  0.12922397305E+02 -0.17108140177E+02  0.28294977961E+02  0.35500459014E+02  0.00000000000E+00 0.  1.
          1    1    1    2  502    0 -0.15313746431E+01  0.27959358993E+02 -0.63173682865E+02  0.69101266778E+02  0.00000000000E+00 0.  1.
         22    1    1    2    0    0 -0.19476562899E+02 -0.19014567947E+01 -0.92620782640E+02  0.94665523910E+02  0.00000000000E+00 0. -1.
         22    1    1    2    0    0  0.80855402372E+01 -0.89497620211E+01  0.39375742350E+02  0.41181589172E+02  0.00000000000E+00 0.  1.
</event>
<event>
 6    1  0.8017648E-006  0.4157915E+02  0.7818608E-02  0.1560900E+00
          2   -1    0    0  502    0  0.00000000000E+00  0.00000000000E+00  0.16168114136E+03  0.16168114136E+03  0.00000000000E+00 0. -1.
          1   -1    0    0  501    0 -0.00000000000E+00 -0.00000000000E+00 -0.13646480269E+03  0.13646480269E+03  0.00000000000E+00 0.  1.
          2    1    1    2  501    0 -0.21452849791E+02 -0.26029766094E+02  0.38266894478E+02  0.51011064487E+02  0.00000000000E+00 0. -1.
          1    1    1    2  502    0  0.27868281145E+02  0.66657226138E+02 -0.72085032617E+02  0.10205919272E+03  0.00000000000E+00 0.  1.
         22    1    1    2    0    0  0.28300720040E+01 -0.30908713843E+02  0.98562291466E+02  0.10333384343E+03  0.00000000000E+00 0. -1.
         22    1    1    2    0    0 -0.92455033580E+01 -0.97187462003E+01 -0.39527814658E+02  0.41741843415E+02  0.00000000000E+00 0.  1.
</event>
<event>
 6    1  0.8017648E-006  0.1130967E+03  0.7818608E-02  0.1380900E+00
          2   -1    0    0  502    0  0.00000000000E+00  0.00000000000E+00  0.78823245544E+03  0.78823245544E+03  0.00000000000E+00 0. -1.
          1   -1    0    0  501    0 -0.00000000000E+00 -0.00000000000E+00 -0.85319238447E+02  0.85319238447E+02  0.00000000000E+00 0. -1.
          2    1    1    2  501    0  0.79574604716E+01  0.46057101843E+02  0.51831646459E+03  0.52041957618E+03  0.00000000000E+00 0. -1.
          1    1    1    2  502    0 -0.59817550461E+01 -0.96498319973E+02 -0.28478678521E+02  0.10079058627E+03  0.00000000000E+00 0. -1.
         22    1    1    2    0    0  0.11516026505E+02 -0.24007892972E+01 -0.14300127582E+02  0.18516919414E+02  0.00000000000E+00 0.  1.
         22    1    1    2    0    0 -0.13491731931E+02  0.52842007427E+02  0.22737555851E+03  0.23382461202E+03  0.00000000000E+00 0.  1.
</event>
<event>
 6    1  0.8017648E-006  0.3293270E+03  0.7818608E-02  0.1165508E+00
          2   -1    0    0  502    0  0.00000000000E+00  0.00000000000E+00  0.24517578227E+03  0.24517578227E+03  0.00000000000E+00 0. -1.
          1   -1    0    0  501    0 -0.00000000000E+00 -0.00000000000E+00 -0.35859920321E+03  0.35859920321E+03  0.00000000000E+00 0.  1.
          2    1    1    2  501    0 -0.21229772694E+02  0.15030131358E+03  0.11545208064E+03  0.19071017549E+03  0.00000000000E+00 0. -1.
          1    1    1    2  502    0  0.13303826693E+03 -0.68307259781E+02 -0.67129188791E+02  0.16392495293E+03  0.00000000000E+00 0.  1.
         22    1    1    2    0    0  0.10590310026E+02 -0.29118523155E+02 -0.95217317570E+02  0.10013181623E+03  0.00000000000E+00 0.  1.
         22    1    1    2    0    0 -0.12239880426E+03 -0.52875530645E+02 -0.66528995216E+02  0.14900804082E+03  0.00000000000E+00 0. -1.
</event>
<event>
 6    1  0.8017648E-006  0.1449197E+03  0.7818608E-02  0.1262450E+00
          2   -1    0    0  502    0  0.00000000000E+00  0.00000000000E+00  0.11298919995E+03  0.11298919995E+03  0.00000000000E+00 0.  1.
          1   -1    0    0  501    0 -0.00000000000E+00 -0.00000000000E+00 -0.18015042671E+04  0.18015042671E+04  0.00000000000E+00 0. -1.
          2    1    1    2  501    0 -0.22187509529E+02 -0.15048317049E+03  0.43650890879E+01  0.15217267884E+03  0.00000000000E+00 0.  1.
          1    1    1    2  502    0 -0.13989644836E+03  0.12572070142E+02 -0.12287918413E+04  0.12367936216E+04  0.00000000000E+00 0. -1.
         22    1    1    2    0    0 -0.10488598399E+02  0.45161904480E+02 -0.54926831428E+02  0.71878822496E+02  0.00000000000E+00 0. -1.
         22    1    1    2    0    0  0.17257255628E+03  0.92749195872E+02 -0.40916148346E+03  0.45364834406E+03  0.00000000000E+00 0.  1.
</event>
<event>
 6    1  0.8017648E-006  0.7670196E+02  0.7818608E-02  0.1339155E+00
          2   -1    0    0  502    0  0.00000000000E+00  0.00000000000E+00  0.19464745160E+03  0.19464745160E+03  0.00000000000E+00 0.  1.
          1   -1    0    0  501    0 -0.00000000000E+00 -0.00000000000E+00 -0.48361951128E+03  0.48361951128E+03  0.00000000000E+00 0.  1.
          2    1    1    2  501    0  0.44785304479E+02 -0.45786194839E+02  0.14413295149E+03  0.15772256288E+03  0.00000000000E+00 0.  1.
          1    1    1    2  502    0 -0.37798496497E+02  0.40130859125E+02 -0.38108409232E+03  0.38505103248E+03  0.00000000000E+00 0.  1.
         22    1    1    2    0    0 -0.18961610439E+02  0.57337735405E+01 -0.91819561237E+02  0.93932159856E+02  0.00000000000E+00 0.  1.
         22    1    1    2    0    0  0.11974802457E+02 -0.78437826007E-01  0.39798642392E+02  0.41561207666E+02  0.00000000000E+00 0. -1.
</event>
<event>
 6    1  0.8017648E-006  0.1632245E+03  0.7818608E-02  0.1314874E+00
          2   -1    0    0  502    0  0.00000000000E+00  0.00000000000E+00  0.18175016457E+04  0.18175016457E+04  0.00000000000E+00 0. -1.
          1   -1    0    0  501    0 -0.00000000000E+00 -0.00000000000E+00 -0.75438634261E+02  0.75438634261E+02  0.00000000000E+00 0. -1.
          2    1    1    2  501    0 -0.71596540573E+02  0.14366360817E+03  0.86141554671E+03  0.87624314037E+03  0.00000000000E+00 0. -1.
          1    1    1    2  502    0  0.73702592791E+02  0.41973634020E+02 -0.21027331574E+02  0.87384248066E+02  0.00000000000E+00 0. -1.
         22    1    1    2    0    0  0.36061811892E+01 -0.17494194941E+03  0.90025794041E+03  0.91710525540E+03  0.00000000000E+00 0. -1.
         22    1    1    2    0    0 -0.57122334068E+01 -0.10695292789E+02  0.14168558551E+01  0.12207636088E+02  0.00000000000E+00 0. -1.
</event>
<event>
 6    1  0.8017648E-006  0.3962300E+02  0.7818608E-02  0.1535824E+00
          2   -1    0    0  502    0  0.00000000000E+00  0.00000000000E+00  0.91929283649E+02  0.91929283649E+02  0.00000000000E+00 0. -1.
          1   -1    0    0  501    0 -0.00000000000E+00 -0.00000000000E+00 -0.17248878790E+03  0.17248878790E+03  0.00000000000E+00 0.  1.
          2    1    1    2  501    0  0.56708458024E+01  0.29604407251E+02  0.54103135077E+02  0.61933259610E+02  0.00000000000E+00 0. -1.
          1    1    1    2  502    0 -0.24110962294E+02 -0.11847393808E+02 -0.25988663741E+02  0.37377933140E+02  0.00000000000E+00 0.  1.
         22    1    1    2    0    0  0.99381533172E+01 -0.26683541664E+02 -0.13397235016E+03  0.13696484547E+03  0.00000000000E+00 0.  1.
         22    1    1    2    0    0  0.85019631746E+01  0.89265282214E+01  0.25298374573E+02  0.28142033330E+02  0.00000000000E+00 0. -1.
</event>
<event>
 6    1  0.8017648E-006  0.6512829E+02  0.7818608E-02  0.1462748E+00
          2   -1    0    0  502    0  0.00000000000E+00  0.00000000000E+00  0.21935342836E+03  0.21935342836E+03  0.00000000000E+00 0.  1.
          1   -1    0    0  501    0 -0.00000000000E+00 -0.00000000000E+00 -0.48045312034E+02  0.48045312034E+02  0.00000000000E+00 0.  1.
          2    1    1    2  501    0  0.22921738849E+02 -0.12587286079E+02  0.47903715463E+02  0.54576660193E+02  0.00000000000E+00 0.  1.
          1    1    1    2  502    0  0.57152327541E+01  0.22535583155E+02 -0.13234519017E+02  0.26751988471E+02  0.00000000000E+00 0.  1.
         22    1    1    2    0    0 -0.46520300797E+01  0.16903032588E+02 -0.19273735892E+02  0.26054381393E+02  0.00000000000E+00 0.  1.
         22    1    1    2    0    0 -0.23984941523E+02 -0.26851329664E+02  0.15591265578E+03  0.16001571034E+03  0.00000000000E+00 0.  1.
</event>
<event>
 6    1  0.8017648E-006  0.9480182E+02  0.7818608E-02  0.1375110E+00
          2   -1    0    0  502    0  0.00000000000E+00  0.00000000000E+00  0.16025835390E+03  0.16025835390E+03  0.00000000000E+00 0.  1.
          1   -1    0    0  501    0 -0.00000000000E+00 -0.00000000000E+00 -0.10045570820E+03  0.10045570820E+03  0.00000000000E+00 0.  1.
          2    1    1    2  501    0  0.41496777002E+02  0.21778526557E+02  0.27026673397E+02  0.54099240249E+02  0.00000000000E+00 0.  1.
          1    1    1    2  502    0 -0.75364080860E+02 -0.15194806081E+02  0.17421485580E+01  0.76900337433E+02  0.00000000000E+00 0.  1.
         22    1    1    2    0    0  0.50451991881E+02  0.78063097588E+01  0.69013719827E+02  0.85844251299E+02  0.00000000000E+00 0. -1.
         22    1    1    2    0    0 -0.16584688023E+02 -0.14390030235E+02 -0.37979896089E+02  0.43870233119E+02  0.00000000000E+00 0.  1.
</event>
<event>
 6    1  0.8017648E-006  0.4643948E+02  0.7818608E-02  0.1542598E+00
          2   -1    0    0  502    0  0.00000000000E+00  0.00000000000E+00  0.73278620330E+02  0.73278620330E+02  0.00000000000E+00 0. -1.
          1   -1    0    0  501    0 -0.00000000000E+00 -0.00000000000E+00 -0.30284757201E+03  0.30284757201E+03  0.00000000000E+00 0. -1.
          2    1    1    2  501    0 -0.30181538613E+02 -0.86032794965E+01  0.17331914677E+01  0.31431602629E+02  0.00000000000E+00 0. -1.
          1    1    1    2  502    0  0.32016268664E+02  0.17450570408E+02 -0.21802849684E+03  0.22105652965E+03  0.00000000000E+00 0. -1.
         22    1    1    2    0    0  0.11647979960E+02  0.11880099713E+00 -0.66752761794E+02  0.67761499083E+02  0.00000000000E+00 0. -1.
         22    1    1    2    0    0 -0.13482710011E+02 -0.89660919086E+01  0.53479115486E+02  0.55876560977E+02  0.00000000000E+00 0. -1.
</event>
<event>
 6    1  0.8017648E-006  0.1911419E+03  0.7818608E-02  0.1165298E+00
          2   -1    0    0  502    0  0.00000000000E+00  0.00000000000E+00  0.14419535575E+04  0.14419535575E+04  0.00000000000E+00 0.  1.
          1   -1    0    0  501    0 -0.00000000000E+00 -0.00000000000E+00 -0.62799482903E+02  0.62799482903E+02  0.00000000000E+00 0.  1.
          2    1    1    2  501    0 -0.14576948143E+03  0.17593999101E+02  0.41173747778E+03  0.43713389382E+03  0.00000000000E+00 0.  1.
          1    1    1    2  502    0  0.17477005386E+03 -0.17056848707E+03  0.64857181999E+03  0.69302495351E+03  0.00000000000E+00 0.  1.
         22    1    1    2    0    0 -0.27750663696E+02 -0.62614310911E+01  0.99854761236E+02  0.10382811852E+03  0.00000000000E+00 0. -1.
         22    1    1    2    0    0 -0.12499087302E+01  0.15923591906E+03  0.21899001557E+03  0.27076607452E+03  0.00000000000E+00 0.  1.
</event>
<event>
 6    1  0.8017648E-006  0.6231001E+02  0.7818608E-02  0.1435609E+00
          2   -1    0    0  502    0  0.00000000000E+00  0.00000000000E+00  0.13123283644E+03  0.13123283644E+03  0.00000000000E+00 0.  1.
          1   -1    0    0  501    0 -0.00000000000E+00 -0.00000000000E+00 -0.15886672377E+03  0.15886672377E+03  0.00000000000E+00 0. -1.
          2    1    1    2  501    0  0.40367415650E+02 -0.35069730956E+02  0.79108986762E+02  0.95486365844E+02  0.00000000000E+00 0.  1.
          1    1    1    2  502    0 -0.35596094596E+02  0.15749664381E+02 -0.33707630139E+02  0.51491146892E+02  0.00000000000E+00 0. -1.
         22    1    1    2    0    0  0.11223200634E+02 -0.59149179835E+01  0.31734087133E+02  0.34175997036E+02  0.00000000000E+00 0.  1.
         22    1    1    2    0    0 -0.15994521687E+02  0.25234984558E+02 -0.10476933108E+03  0.10894605043E+03  0.00000000000E+00 0. -1.
</event>
<event>
 6    1  0.8017648E-006  0.2617989E+03  0.7818608E-02  0.1173170E+00
          2   -1    0    0  502    0  0.00000000000E+00  0.00000000000E+00  0.22839268248E+03  0.22839268248E+03  0.00000000000E+00 0.  1.
          1   -1    0    0  501    0 -0.00000000000E+00 -0.00000000000E+00 -0.38257389835E+03  0.38257389835E+03  0.00000000000E+00 0.  1.
          2    1    1    2  501    0  0.74659806802E+02  0.17566493171E+03 -0.86065907272E+02  0.20937907101E+03  0.00000000000E+00 0.  1.
          1    1    1    2  502    0 -0.55723762349E+01 -0.23390553967E+03  0.36298601887E+01  0.23400006143E+03  0.00000000000E+00 0.  1.
         22    1    1    2    0    0 -0.45883889966E+02 -0.23932506485E+02 -0.63333629363E+02  0.81787803696E+02  0.00000000000E+00 0.  1.
         22    1    1    2    0    0 -0.23203540602E+02  0.82173114446E+02 -0.84115394220E+01  0.85799644694E+02  0.00000000000E+00 0. -1.
</event>
<event>
 6    1  0.8017648E-006  0.6141376E+02  0.7818608E-02  0.1463111E+00
          2   -1    0    0  502    0  0.00000000000E+00  0.00000000000E+00  0.11876216064E+03  0.11876216064E+03  0.00000000000E+00 0. -1.
          1   -1    0    0  501    0 -0.00000000000E+00 -0.00000000000E+00 -0.31327327758E+03  0.31327327758E+03  0.00000000000E+00 0. -1.
          2    1    1    2  501    0  0.45225465214E+02  0.68307583523E+01  0.67885398838E+02  0.81856150281E+02  0.00000000000E+00 0. -1.
          1    1    1    2  502    0 -0.73288914664E+02 -0.27208611034E+02 -0.17607156647E+03  0.19264674937E+03  0.00000000000E+00 0. -1.
         22    1    1    2    0    0  0.17112413366E+02  0.11822848859E+02 -0.11964044022E+03  0.12143495947E+03  0.00000000000E+00 0. -1.
         22    1    1    2    0    0  0.10951036084E+02  0.85550038225E+01  0.33315490908E+02  0.36097579090E+02  0.00000000000E+00 0. -1.
</event>
<event>
 6    1  0.8017648E-006  0.1910107E+03  0.7818608E-02  0.1260037E+00
          2   -1    0    0  502    0  0.00000000000E+00  0.00000000000E+00  0.66479876943E+03  0.66479876943E+03  0.00000000000E+00 0. -1.
          1   -1    0    0  501    0 -0.00000000000E+00 -0.00000000000E+00 -0.79866761702E+02  0.79866761702E+02  0.00000000000E+00 0. -1.
          2    1    1    2  501    0  0.26550127451E+01  0.10882351035E+03  0.15411913503E+03  0.18868575272E+03  0.00000000000E+00 0. -1.
          1    1    1    2  502    0  0.67874384079E+02 -0.16796449909E+03  0.30041402223E+03  0.35080990539E+03  0.00000000000E+00 0. -1.
         22    1    1    2    0    0 -0.16252325610E+02  0.13658852174E+02 -0.25952518516E+02  0.33529621945E+02  0.00000000000E+00 0. -1.
         22    1    1    2    0    0 -0.54277071214E+02  0.45482136562E+02  0.15635136899E+03  0.17164025108E+03  0.00000000000E+00 0. -1.
</event>
<event>
 6    1  0.8017648E-006  0.4173805E+02  0.7818608E-02  0.1604612E+00
          2   -1    0    0  502    0  0.00000000000E+00  0.00000000000E+00  0.80064522484E+02  0.80064522484E+02  0.00000000000E+00 0.  1.
          1   -1    0    0  501    0 -0.00000000000E+00 -0.00000000000E+00 -0.17320462808E+03  0.17320462808E+03  0.00000000000E+00 0.  1.
          2    1    1    2  501    0  0.33427801564E+02  0.10715014331E+02  0.91088027352E+01  0.36265682632E+02  0.00000000000E+00 0.  1.
          1    1    1    2  502    0 -0.96828489269E+01  0.22400770490E+02 -0.85086637899E+02  0.88517162352E+02  0.00000000000E+00 0.  1.
         22    1    1    2    0    0  0.72589843054E+01  0.73079581672E+01 -0.60641717053E+02  0.61510299567E+02  0.00000000000E+00 0.  1.
         22    1    1    2    0    0 -0.31003936943E+02 -0.40423742988E+02  0.43479446619E+02  0.66976006013E+02  0.00000000000E+00 0.  1.
</event>
<event>
 6    1  0.8017648E-006  0.1642873E+03  0.7818608E-02  0.1207734E+00
          2   -1    0    0  502    0  0.00000000000E+00  0.00000000000E+00  0.84752448545E+03  0.84752448545E+03  0.00000000000E+00 0. -1.
          1   -1    0    0  501    0 -0.00000000000E+00 -0.00000000000E+00 -0.54528160945E+02  0.54528160945E+02  0.00000000000E+00 0. -1.
          2    1    1    2  501    0  0.12467095337E+03  0.12851321972E+03  0.38136493774E+03  0.42130477091E+03  0.00000000000E+00 0. -1.
          1    1    1    2  502    0 -0.38253862889E+02 -0.68363013806E+02  0.20532854544E+03  0.21976503647E+03  0.00000000000E+00 0. -1.
         22    1    1    2    0    0 -0.27298987499E+02  0.17534518467E+02  0.13819127035E+03  0.14194900935E+03  0.00000000000E+00 0. -1.
         22    1    1    2    0    0 -0.59118102979E+02 -0.77684724380E+02  0.68111570977E+02  0.11903382966E+03  0.00000000000E+00 0. -1.
</event>
<event>
 6    1  0.8017648E-006  0.7493844E+02  0.7818608E-02  0.1355470E+00
          2   -1    0    0  502    0  0.00000000000E+00  0.00000000000E+00  0.42756051102E+03  0.42756051102E+03  0.00000000000E+00 0. -1.
          1   -1    0    0  501    0 -0.00000000000E+00 -0.00000000000E+00 -0.23241460058E+02  0.23241460058E+02  0.00000000000E+00 0. -1.
          2    1    1    2  501    0  0.87523621716E+01  0.38576242747E+02  0.51086508633E+02  0.64610848256E+02  0.00000000000E+00 0. -1.
          1    1    1    2  502    0 -0.11993254740E+02 -0.25132003190E+02  0.85474198325E+02  0.89896019505E+02  0.00000000000E+00 0. -1.
         22    1    1    2    0    0 -0.41387754033E+02  0.29129361363E+02  0.19223706218E+03  0.19878771077E+03  0.00000000000E+00 0. -1.
         22    1    1    2    0    0  0.44628646602E+02 -0.42573600920E+02  0.75521281818E+02  0.97507392542E+02  0.00000000000E+00 0. -1.
</event>
<event>
 6    1  0.8017648E-006  0.1186785E+03  0.7818608E-02  0.1325346E+00
          2   -1    0    0  502    0  0.00000000000E+00  0.00000000000E+00  0.21866724537E+03  0.21866724537E+03  0.00000000000E+00 0.  1.
          1   -1    0    0  501    0 -0.00000000000E+00 -0.00000000000E+00 -0.93810860458E+02  0.93810860458E+02  0.00000000000E+00 0.  1.
          2    1    1    2  501    0 -0.40678832976E+02  0.12426297810E+01  0.73916759309E+02  0.84380085848E+02  0.00000000000E+00 0.  1.
          1    1    1    2  502    0 -0.48871122041E+02  0.38042385133E+02  0.49406640674E+00  0.61934269495E+02  0.00000000000E+00 0.  1.
         22    1    1    2    0    0  0.19538000739E+02 -0.17399409532E+02 -0.41183091112E+02  0.48790572024E+02  0.00000000000E+00 0. -1.
         22    1    1    2    0    0  0.70011954278E+02 -0.21885605382E+02  0.91628650307E+02  0.11737317846E+03  0.00000000000E+00 0.  1.
</event>
<event>
 6    1  0.8017648E-006  0.2778982E+02  0.7818608E-02  0.1668392E+00
          2   -1    0    0  502    0  0.00000000000E+00  0.00000000000E+00  0.10696636649E+03  0.10696636649E+03  0.00000000000E+00 0.  1.
          1   -1    0    0  501    0 -0.00000000000E+00 -0.00000000000E+00 -0.13757883598E+03  0.13757883598E+03  0.00000000000E+00 0.  1.
          2    1    1    2  501    0  0.21654343972E+02  0.27210638473E+02 -0.79605888030E+01  0.35674927232E+02  0.00000000000E+00 0.  1.
          1    1    1    2  502    0 -0.28060385770E+02 -0.35630107437E+02 -0.64235441151E+02  0.78632574073E+02  0.00000000000E+00 0.  1.
         22    1    1    2    0    0  0.13828365550E+01  0.18067813125E+02  0.84265308367E+02  0.86191648681E+02  0.00000000000E+00 0.  1.
         22    1    1    2    0    0  0.50232052429E+01 -0.96483441607E+01 -0.42681747901E+02  0.44046052489E+02  0.00000000000E+00 0.  1.
</event>
<event>
 6    1  0.8017648E-006  0.7500364E+02  0.7818608E-02  0.1431812E+00
          2   -1    0    0  502    0  0.00000000000E+00  0.00000000000E+00  0.77326070047E+03  0.77326070047E+03  0.00000000000E+00 0. -1.
          1   -1    0    0  501    0 -0.00000000000E+00 -0.00000000000E+00 -0.18663489447E+02  0.18663489447E+02  0.00000000000E+00 0. -1.
          2    1    1    2  501    0  0.24613314754E+02  0.14632655614E+02  0.26236014390E+03  0.26391812174E+03  0.00000000000E+00 0. -1.
          1    1    1    2  502    0 -0.52573765816E+01 -0.49749815564E+02  0.24573413952E+03  0.25077470264E+03  0.00000000000E+00 0. -1.
         22    1    1    2    0    0 -0.85398363019E+01  0.49679421065E+02  0.25299275694E+03  0.25796571234E+03  0.00000000000E+00 0. -1.
         22    1    1    2    0    0 -0.10816101870E+02 -0.14562261115E+02 -0.64898293343E+01  0.19265653201E+02  0.00000000000E+00 0. -1.
</event>
<event>
 6    1  0.8017648E-006  0.3159101E+02  0.7818608E-02  0.1603246E+00
          2   -1    0    0  502    0  0.00000000000E+00  0.00000000000E+00  0.62161810103E+02  0.62161810103E+02  0.00000000000E+00 0.  1.
          1   -1    0    0  501    0 -0.00000000000E+00 -0.00000000000E+00 -0.55560651568E+03  0.55560651568E+03  0.00000000000E+00 0.  1.
          2    1    1    2  501    0  0.28374343495E+02 -0.22944158058E+02 -0.26112098007E+02  0.44870696675E+02  0.00000000000E+00 0.  1.
          1    1    1    2  502    0 -0.34629004712E+02  0.33531066297E+02 -0.44539258131E+03  0.44799336140E+03  0.00000000000E+00 0.  1.
         22    1    1    2    0    0 -0.69806523071E+01 -0.20794567879E+02  0.48117033871E+02  0.52880927644E+02  0.00000000000E+00 0.  1.
         22    1    1    2    0    0  0.13235313525E+02  0.10207659641E+02 -0.70057060132E+02  0.72023340063E+02  0.00000000000E+00 0. -1.
</event>
<event>
 6    1  0.8017648E-006  0.2931512E+02  0.7818608E-02  0.1671806E+00
          2   -1    0    0  502    0  0.00000000000E+00  0.00000000000E+00  0.35693505872E+03  0.35693505872E+03  0.00000000000E+00 0. -1.
          1   -1    0    0  501    0 -0.00000000000E+00 -0.00000000000E+00 -0.51703486186E+02  0.51703486186E+02  0.00000000000E+00 0. -1.
          2    1    1    2  501    0 -0.18017224284E+02  0.17567841530E+02  0.22945105918E+03  0.23082685716E+03  0.00000000000E+00 0. -1.
          1    1    1    2  502    0  0.11942667675E+01 -0.30035561633E+02  0.28782299146E+01  0.30196778689E+02  0.00000000000E+00 0. -1.
         22    1    1    2    0    0  0.62691507502E+01 -0.91248423450E+01 -0.35186151645E+02  0.36886722090E+02  0.00000000000E+00 0. -1.
         22    1    1    2    0    0  0.10553806766E+02  0.21592562449E+02  0.10808843508E+03  0.11072818696E+03  0.00000000000E+00 0. -1.
</event>
<event>
 6    1  0.8017648E-006  0.1937208E+02  0.7818608E-02  0.1786173E+00
          2   -1    0    0  502    0  0.00000000000E+00  0.00000000000E+00  0.11742896028E+03  0.11742896028E+03  0.00000000000E+00 0.  1.
          1   -1    0    0  501    0 -0.00000000000E+00 -0.00000000000E+00 -0.73022888122E+02  0.73022888122E+02  0.00000000000E+00 0.  1.
          2    1    1    2  501    0 -0.23514141392E+02  0.37996411707E+01  0.11530788196E+02  0.26463393487E+02  0.00000000000E+00 0.  1.
          1    1    1    2  502    0  0.99673417962E+01 -0.26981762217E+02  0.21287995557E+02  0.35784663609E+02  0.00000000000E+00 0.  1.
         22    1    1    2    0    0  0.18810634637E+01  0.12388248988E+02 -0.56711965116E+02  0.58079721935E+02  0.00000000000E+00 0.  1.
         22    1    1    2    0    0  0.11665736132E+02  0.10793872058E+02  0.68299253525E+02  0.70124069374E+02  0.00000000000E+00 0.  1.
</event>
<event>
 6    1  0.1024318E-005  0.1230395E+03  0.7818608E-02  0.1365210E+00
          2   -1    0    0  502    0  0.00000000000E+00  0.00000000000E+00  0.64536814027E+03  0.64536814027E+03  0.00000000000E+00 0.  1.
          1   -1    0    0  501    0 -0.00000000000E+00 -0.00000000000E+00 -0.43046400236E+03  0.43046400236E+03  0.00000000000E+00 0.  1.
          2    1    1    2  501    0  0.11048272444E+03 -0.29582922349E+02  0.16178295190E+03  0.19812951628E+03  0.00000000000E+00 0.  1.
          1    1    1    2  502    0  0.44992151656E+01 -0.30044666040E+02 -0.39432603871E+03  0.39549456342E+03  0.00000000000E+00 0.  1.
         22    1    1    2    0    0 -0.11809347674E+03  0.48212053472E+02  0.45190655112E+03  0.46956362965E+03  0.00000000000E+00 0.  1.
         22    1    1    2    0    0  0.31115371273E+01  0.11415534917E+02 -0.44593264079E+01  0.12644433271E+02  0.00000000000E+00 0.  1.
</event>
<event>
 6    1  0.8017648E-006  0.1644759E+03  0.7818608E-02  0.1278811E+00
          2   -1    0    0  502    0  0.00000000000E+00  0.00000000000E+00  0.20188502272E+03  0.20188502272E+03  0.00000000000E+00 0. -1.
          1   -1    0    0  501    0 -0.00000000000E+00 -0.00000000000E+00 -0.17816029777E+03  0.17816029777E+03  0.00000000000E+00 0. -1.
          2    1    1    2  501    0  0.25919049041E+02 -0.86992498454E+01  0.22565578521E+02  0.35449673977E+02  0.00000000000E+00 0. -1.
          1    1    1    2  502    0 -0.14507018695E+03  0.62499787938E+02 -0.29543507392E+02  0.16069972453E+03  0.00000000000E+00 0. -1.
         22    1    1    2    0    0  0.11540921525E+03 -0.76615074800E+02  0.56187902166E+02  0.14948657800E+03  0.00000000000E+00 0. -1.
         22    1    1    2    0    0  0.37419226612E+01  0.22814536708E+02 -0.25485248343E+02  0.34409343985E+02  0.00000000000E+00 0.  1.
</event>
<event>
 6    1  0.8017648E-006  0.4881814E+02  0.7818608E-02  0.1504282E+00
          2   -1    0    0  502    0  0.00000000000E+00  0.00000000000E+00  0.18165367506E+03  0.18165367506E+03  0.00000000000E+00 0.  1.
          1   -1    0    0  501    0 -0.00000000000E+00 -0.00000000000E+00 -0.53063231463E+02  0.53063231463E+02  0.00000000000E+00 0. -1.
          2    1    1    2  501    0  0.22377367903E+02  0.13144463643E+02  0.55829125715E+02  0.61566344677E+02  0.00000000000E+00 0.  1.
          1    1    1    2  502    0 -0.12504716383E+02 -0.31600170783E+02  0.93984522936E+01  0.35260028799E+02  0.00000000000E+00 0. -1.
         22    1    1    2    0    0 -0.22945250119E+02 -0.35222973246E+01 -0.31788734403E+02  0.39362605559E+02  0.00000000000E+00 0. -1.
         22    1    1    2    0    0  0.13072598599E+02  0.21978004465E+02  0.95151599986E+02  0.98527927484E+02  0.00000000000E+00 0.  1.
</event>
<event>
 6    1  0.8017648E-006  0.5449669E+02  0.7818608E-02  0.1449407E+00
          2   -1    0    0  502    0  0.00000000000E+00  0.00000000000E+00  0.14042497788E+03  0.14042497788E+03  0.00000000000E+00 0. -1.
          1   -1    0    0  501    0 -0.00000000000E+00 -0.00000000000E+00 -0.20564508743E+03  0.20564508743E+03  0.00000000000E+00 0. -1.
          2    1    1    2  501    0 -0.73699904750E+02  0.44812190902E+02 -0.38289431431E+02  0.94371017653E+02  0.00000000000E+00 0. -1.
          1    1    1    2  502    0  0.98453291768E+02 -0.20604049219E+02  0.38097870616E+02  0.10755940335E+03  0.00000000000E+00 0. -1.
         22    1    1    2    0    0 -0.37900395970E+02 -0.32249374718E+01  0.28409879683E+02  0.47475904414E+02  0.00000000000E+00 0. -1.
         22    1    1    2    0    0  0.13147008952E+02 -0.20983204211E+02 -0.93438428416E+02  0.96663739883E+02  0.00000000000E+00 0. -1.
</event>
<event>
 6    1  0.8017648E-006  0.9374382E+02  0.7818608E-02  0.1403901E+00
          2   -1    0    0  502    0  0.00000000000E+00  0.00000000000E+00  0.46800868162E+03  0.46800868162E+03  0.00000000000E+00 0.  1.
          1   -1    0    0  501    0 -0.00000000000E+00 -0.00000000000E+00 -0.40767350877E+02  0.40767350877E+02  0.00000000000E+00 0. -1.
          2    1    1    2  501    0 -0.26010713742E+02 -0.30752437512E+02  0.11423246494E+03  0.12112524794E+03  0.00000000000E+00 0.  1.
          1    1    1    2  502    0  0.33474227956E+02  0.68236932436E+02  0.45000580888E+02  0.88328110847E+02  0.00000000000E+00 0. -1.
         22    1    1    2    0    0  0.67866671393E+01  0.12577753529E+02 -0.93786523163E+01  0.17094380772E+02  0.00000000000E+00 0. -1.
         22    1    1    2    0    0 -0.14250181352E+02 -0.50062248453E+02  0.27738693723E+03  0.28222829294E+03  0.00000000000E+00 0.  1.
</event>
<event>
 6    1  0.8017648E-006  0.4464995E+02  0.7818608E-02  0.1573940E+00
          2   -1    0    0  502    0  0.00000000000E+00  0.00000000000E+00  0.31933428746E+03  0.31933428746E+03  0.00000000000E+00 0. -1.
          1   -1    0    0  501    0 -0.00000000000E+00 -0.00000000000E+00 -0.99882262099E+02  0.99882262099E+02  0.00000000000E+00 0.  1.
          2    1    1    2  501    0  0.18633418648E+02 -0.26728279259E+02  0.24019024770E+03  0.24239009941E+03  0.00000000000E+00 0. -1.
          1    1    1    2  502    0 -0.17888408131E+02  0.26847890136E+02 -0.42327095584E+02  0.53220178230E+02  0.00000000000E+00 0.  1.
         22    1    1    2    0    0  0.19341070436E+01 -0.12055423287E+02  0.71337977275E+02  0.72375278946E+02  0.00000000000E+00 0.  1.
         22    1    1    2    0    0 -0.26791175611E+01  0.11935812410E+02 -0.49749104031E+02  0.51230992970E+02  0.00000000000E+00 0. -1.
</event>
<event>
 6    1  0.8017648E-006  0.8055548E+02  0.7818608E-02  0.1384897E+00
          2   -1    0    0  502    0  0.00000000000E+00  0.00000000000E+00  0.97874691406E+02  0.97874691406E+02  0.00000000000E+00 0.  1.
          1   -1    0    0  501    0 -0.00000000000E+00 -0.00000000000E+00 -0.19384318867E+03  0.19384318867E+03  0.00000000000E+00 0. -1.
          2    1    1    2  501    0  0.41703830241E+02 -0.19197066714E+02  0.28078925750E+02  0.53816009686E+02  0.00000000000E+00 0.  1.
          1    1    1    2  502    0 -0.52448737179E+02  0.33150854617E+02 -0.79403710868E+02  0.10077102011E+03  0.00000000000E+00 0. -1.
         22    1    1    2    0    0  0.38339637435E+02 -0.94296622230E+00  0.34951853501E+02  0.51888814277E+02  0.00000000000E+00 0. -1.
         22    1    1    2    0    0 -0.27594730497E+02 -0.13010821680E+02 -0.79595565652E+02  0.85242036012E+02  0.00000000000E+00 0. -1.
</event>
<event>
 6    1  0.8017648E-006  0.4817337E+02  0.7818608E-02  0.1523886E+00
          2   -1    0    0  502    0  0.00000000000E+00  0.00000000000E+00  0.32804038004E+03  0.32804038004E+03  0.00000000000E+00 0. -1.
          1   -1    0    0  501    0 -0.00000000000E+00 -0.00000000000E+00 -0.70903635504E+02  0.70903635504E+02  0.00000000000E+00 0.  1.
          2    1    1    2  501    0 -0.45019358767E+02  0.50510963314E+02  0.15745481004E+03  0.17137712007E+03  0.00000000000E+00 0. -1.
          1    1    1    2  502    0  0.44045489368E+02 -0.20071292869E+02 -0.22532830468E+02  0.53390920389E+02  0.00000000000E+00 0.  1.
         22    1    1    2    0    0 -0.91438546098E+01 -0.43915523723E+02  0.14157362998E+03  0.14851018823E+03  0.00000000000E+00 0. -1.
         22    1    1    2    0    0  0.10117724009E+02  0.13475853279E+02 -0.19358865013E+02  0.25665786863E+02  0.00000000000E+00 0. -1.
</event>
<event>
 6    1  0.8017648E-006  0.6584729E+02  0.7818608E-02  0.1375404E+00
          2   -1    0    0  502    0  0.00000000000E+00  0.00000000000E+00  0.13969896885E+03  0.13969896885E+03  0.00000000000E+00 0.  1.
          1   -1    0    0  501    0 -0.00000000000E+00 -0.00000000000E+00 -0.18406551596E+03  0.18406551596E+03  0.00000000000E+00 0. -1.
          2    1    1    2  501    0 -0.67919567323E+01  0.37914955887E+02  0.58975441327E+02  0.70439883843E+02  0.00000000000E+00 0.  1.
          1    1    1    2  502    0  0.15783535174E+02 -0.48338610598E+02 -0.11675778178E+03  0.12735038619E+03  0.00000000000E+00 0. -1.
         22    1    1    2    0    0 -0.66792326174E+01  0.23853338743E+02  0.66607612906E+02  0.71064534155E+02  0.00000000000E+00 0.  1.
         22    1    1    2    0    0 -0.23123458246E+01 -0.13429684031E+02 -0.53191819562E+02  0.54909680610E+02  0.00000000000E+00 0. -1.
</event>
<event>
 6    1  0.8017648E-006  0.3724950E+02  0.7818608E-02  0.1543304E+00
          2   -1    0    0  502    0  0.00000000000E+00  0.00000000000E+00  0.48929415172E+03  0.48929415172E+03  0.00000000000E+00 0.  1.
          1   -1    0    0  501    0 -0.00000000000E+00 -0.00000000000E+00 -0.35039385152E+02  0.35039385152E+02  0.00000000000E+00 0.  1.
          2    1    1    2  501    0 -0.21018091114E+02  0.38498438309E+02  0.23432491705E+03  0.23839474964E+03  0.00000000000E+00 0.  1.
          1    1    1    2  502    0 -0.30624900642E+02 -0.33312737681E+02  0.91883254682E+02  0.10242146026E+03  0.00000000000E+00 0.  1.
         22    1    1    2    0    0  0.22697917031E+02 -0.17607387564E+02 -0.18140848518E+02  0.33975077915E+02  0.00000000000E+00 0.  1.
         22    1    1    2    0    0  0.28945074725E+02  0.12421686936E+02  0.14618744336E+03  0.14954224905E+03  0.00000000000E+00 0.  1.
</event>
<event>
 6    1  0.8017648E-006  0.1177376E+03  0.7818608E-02  0.1333681E+00
          2   -1    0    0  502    0  0.00000000000E+00  0.00000000000E+00  0.10101214618E+04  0.10101214618E+04  0.00000000000E+00 0.  1.
          1   -1    0    0  501    0 -0.00000000000E+00 -0.00000000000E+00 -0.10942394886E+03  0.10942394886E+03  0.00000000000E+00 0. -1.
          2    1    1    2  501    0 -0.42471569830E+02  0.97221313170E+02  0.84213623356E+03  0.84879282152E+03  0.00000000000E+00 0.  1.
          1    1    1    2  502    0  0.69819651080E+02 -0.94718955126E+02  0.72896893367E+02  0.13842117323E+03  0.00000000000E+00 0. -1.
         22    1    1    2    0    0 -0.69321084566E+01  0.83850119280E+01  0.56642202714E+02  0.57677566531E+02  0.00000000000E+00 0. -1.
         22    1    1    2    0    0 -0.20415972793E+02 -0.10887369972E+02 -0.70977816684E+02  0.74653849407E+02  0.00000000000E+00 0. -1.
</event>
<event>
 6    1  0.8017648E-006  0.9075317E+02  0.7818608E-02  0.1314806E+00
          2   -1    0    0  502    0  0.00000000000E+00  0.00000000000E+00  0.19972808166E+03  0.19972808166E+03  0.00000000000E+00 0.  1.
          1   -1    0    0  501    0 -0.00000000000E+00 -0.00000000000E+00 -0.16260559513E+03  0.16260559513E+03  0.00000000000E+00 0. -1.
          2    1    1    2  501    0 -0.17225789922E+02 -0.64841554114E+02  0.88964241526E+02  0.11142616950E+03  0.00000000000E+00 0.  1.
          1    1    1    2  502    0 -0.52643819486E+02  0.35245059035E+02 -0.79221044105E+02  0.10143746717E+03  0.00000000000E+00 0. -1.
         22    1    1    2    0    0  0.51695447167E+02  0.48127237936E+02 -0.37230175726E+02  0.79841945579E+02  0.00000000000E+00 0. -1.
         22    1    1    2    0    0  0.18174162241E+02 -0.18530742857E+02  0.64609464839E+02  0.69628094551E+02  0.00000000000E+00 0.  1.
</event>
<event>
 6    1  0.8017648E-006  0.5002887E+03  0.7818608E-02  0.1039666E+00
          2   -1    0    0  502    0  0.00000000000E+00  0.00000000000E+00  0.27535525438E+03  0.27535525438E+03  0.00000000000E+00 0.  1.
          1   -1    0    0  501    0 -0.00000000000E+00 -0.00000000000E+00 -0.16375283740E+04  0.16375283740E+04  0.00000000000E+00 0.  1.
          2    1    1    2  501    0  0.21908795303E+03  0.44798827011E+03 -0.23424490019E+03  0.55096614649E+03  0.00000000000E+00 0.  1.
          1    1    1    2  502    0  0.55333442778E+00 -0.50478903854E+03 -0.72548275146E+03  0.88381983587E+03  0.00000000000E+00 0.  1.
         22    1    1    2    0    0  0.65563145485E+01  0.13262381884E+02 -0.47296528573E+00  0.14802017763E+02  0.00000000000E+00 0.  1.
         22    1    1    2    0    0 -0.22619760200E+03  0.43538386552E+02 -0.40197250272E+03  0.46329562830E+03  0.00000000000E+00 0. -1.
</event>
<event>
 6    1  0.8017648E-006  0.3376284E+02  0.7818608E-02  0.1639618E+00
          2   -1    0    0  502    0  0.00000000000E+00  0.00000000000E+00  0.23307924904E+03  0.23307924904E+03  0.00000000000E+00 0.  1.
          1   -1    0    0  501    0 -0.00000000000E+00 -0.00000000000E+00 -0.57545061867E+02  0.57545061867E+02  0.00000000000E+00 0.  1.
          2    1    1    2  501    0  0.95720810598E+01  0.27923428480E+02  0.71744001409E+02  0.77579277723E+02  0.00000000000E+00 0.  1.
          1    1    1    2  502    0 -0.27182742177E+02 -0.28430845381E+02 -0.15496813307E+02  0.42277247593E+02  0.00000000000E+00 0.  1.
         22    1    1    2    0    0  0.28140101049E+02 -0.75808024294E+00  0.14249632406E+03  0.14525027485E+03  0.00000000000E+00 0. -1.
         22    1    1    2    0    0 -0.10529439932E+02  0.12654971442E+01 -0.23209324987E+02  0.25517510746E+02  0.00000000000E+00 0. -1.
</event>
<event>
 6    1  0.8017648E-006  0.6928957E+02  0.7818608E-02  0.1456438E+00
          2   -1    0    0  502    0  0.00000000000E+00  0.00000000000E+00  0.16453973270E+03  0.16453973270E+03  0.00000000000E+00 0. -1.
          1   -1    0    0  501    0 -0.00000000000E+00 -0.00000000000E+00 -0.28720833727E+03  0.28720833727E+03  0.00000000000E+00 0. -1.
          2    1    1    2  501    0 -0.43268647346E+02  0.16659438553E+02  0.81686197297E+02  0.93927352592E+02  0.00000000000E+00 0. -1.
          1    1    1    2  502    0  0.54126711595E+02 -0.35958311888E+02 -0.22018548464E+03  0.22957427719E+03  0.00000000000E+00 0. -1.
         22    1    1    2    0    0 -0.19526904807E+02  0.59016667844E+01  0.69407821996E+02  0.72343454690E+02  0.00000000000E+00 0. -1.
         22    1    1    2    0    0  0.86688405578E+01  0.13397206550E+02 -0.53577139232E+02  0.55902985504E+02  0.00000000000E+00 0.  1.
</event>
<event>
 6    1  0.8017648E-006  0.4929626E+02  0.7818608E-02  0.1490668E+00
          2   -1    0    0  502    0  0.00000000000E+00  0.00000000000E+00  0.33265799704E+03  0.33265799704E+03  0.00000000000E+00 0. -1.
          1   -1    0    0  501    0 -0.00000000000E+00 -0.00000000000E+00 -0.51318492051E+02  0.51318492051E+02  0.00000000000E+00 0. -1.
          2    1    1    2  501    0  0.29276054770E+02 -0.61446951208E+02  0.76980352522E+02  0.10275597243E+03  0.00000000000E+00 0. -1.
          1    1    1    2  502    0  0.34514115879E+02  0.33636291061E+02  0.32079765928E+02  0.57894176333E+02  0.00000000000E+00 0. -1.
         22    1    1    2    0    0 -0.14712646220E+02  0.24058710571E+02 -0.13408160481E+02  0.31225987264E+02  0.00000000000E+00 0. -1.
         22    1    1    2    0    0 -0.49077524429E+02  0.37519495755E+01  0.18568754702E+03  0.19210035307E+03  0.00000000000E+00 0. -1.
</event>
<event>
 6    1  0.8017648E-006  0.2258009E+02  0.7818608E-02  0.1708424E+00
          2   -1    0    0  502    0  0.00000000000E+00  0.00000000000E+00  0.11132316582E+03  0.11132316582E+03  0.00000000000E+00 0. -1.
          1   -1    0    0  501    0 -0.00000000000E+00 -0.00000000000E+00 -0.54188116748E+03  0.54188116748E+03  0.00000000000E+00 0.  1.
          2    1    1    2  501    0  0.25636704992E+02 -0.40411905905E+01  0.46162626881E+02  0.52958096499E+02  0.00000000000E+00 0. -1.
          1    1    1    2  502    0 -0.38468064854E+02  0.26830687489E+02 -0.46774669463E+03  0.47009216983E+03  0.00000000000E+00 0.  1.
         22    1    1    2    0    0  0.80528955879E+01 -0.11266009004E+02  0.59225557894E+02  0.60823012044E+02  0.00000000000E+00 0. -1.
         22    1    1    2    0    0  0.47784642744E+01 -0.11523487895E+02 -0.68199491812E+02  0.69331054929E+02  0.00000000000E+00 0.  1.
</event>
<event>
 6    1  0.8017648E-006  0.1239491E+03  0.7818608E-02  0.1238673E+00
          2   -1    0    0  502    0  0.00000000000E+00  0.00000000000E+00  0.44494334522E+03  0.44494334522E+03  0.00000000000E+00 0. -1.
          1   -1    0    0  501    0 -0.00000000000E+00 -0.00000000000E+00 -0.90961231868E+02  0.90961231868E+02  0.00000000000E+00 0. -1.
          2    1    1    2  501    0 -0.15776975598E+02 -0.30093523474E+02  0.16320694050E+03  0.16670644421E+03  0.00000000000E+00 0. -1.
          1    1    1    2  502    0  0.37012660885E+02  0.88155999521E+02 -0.36044877437E+02  0.10217950140E+03  0.00000000000E+00 0. -1.
         22    1    1    2    0    0 -0.13076344398E+02  0.23244835033E+02  0.80236901114E+00  0.26682521143E+02  0.00000000000E+00 0. -1.
         22    1    1    2    0    0 -0.81593408889E+01 -0.81307311080E+02  0.22601768128E+03  0.24033611033E+03  0.00000000000E+00 0. -1.
</event>
<event>
 6    1  0.8017648E-006  0.1012171E+03  0.7818608E-02  0.1369897E+00
          2   -1    0    0  502    0  0.00000000000E+00  0.00000000000E+00  0.97938484786E+02  0.97938484786E+02  0.00000000000E+00 0. -1.
          1   -1    0    0  501    0 -0.00000000000E+00 -0.00000000000E+00 -0.21360450391E+03  0.21360450391E+03  0.00000000000E+00 0. -1.
          2    1    1    2  501    0 -0.28443811359E+02 -0.14202221812E+02 -0.38171455348E+01  0.32020682521E+02  0.00000000000E+00 0. -1.
          1    1    1    2  502    0  0.62327187431E+02 -0.39529647999E+02 -0.12158944129E+03  0.14223664646E+03  0.00000000000E+00 0. -1.
         22    1    1    2    0    0  0.12127003036E+02  0.15475402891E+02 -0.49391045916E+02  0.53160396104E+02  0.00000000000E+00 0. -1.
         22    1    1    2    0    0 -0.46010379108E+02  0.38256466920E+02  0.59131613621E+02  0.84125263603E+02  0.00000000000E+00 0. -1.
</event>
<event>
 6    1  0.8017648E-006  0.6177973E+02  0.7818608E-02  0.1390800E+00
          2   -1    0    0  502    0  0.00000000000E+00  0.00000000000E+00  0.17563768303E+03  0.17563768303E+03  0.00000000000E+00 0.  1.
          1   -1    0    0  501    0 -0.00000000000E+00 -0.00000000000E+00 -0.26242342074E+03  0.26242342074E+03  0.00000000000E+00 0. -1.
          2    1    1    2  501    0 -0.26721380150E+02  0.12819568027E+02  0.94293387546E+02  0.98841369964E+02  0.00000000000E+00 0.  1.
          1    1    1    2  502    0  0.47152359155E+02 -0.19669950095E+02 -0.20741693524E+03  0.21361656522E+03  0.00000000000E+00 0. -1.
         22    1    1    2    0    0 -0.30848696458E+02  0.45140534736E+01  0.72131701971E+02  0.78581175743E+02  0.00000000000E+00 0.  1.
         22    1    1    2    0    0  0.10417717452E+02  0.23363285949E+01 -0.45793891985E+02  0.47021992847E+02  0.00000000000E+00 0. -1.
</event>
<event>
 6    1  0.1221429E-005  0.1100117E+03  0.7818608E-02  0.1351586E+00
          2   -1    0    0  502    0  0.00000000000E+00  0.00000000000E+00  0.40981023776E+03  0.40981023776E+03  0.00000000000E+00 0.  1.
          1   -1    0    0  501    0 -0.00000000000E+00 -0.00000000000E+00 -0.11966853625E+04  0.11966853625E+04  0.00000000000E+00 0. -1.
          2    1    1    2  501    0 -0.94474858920E+02  0.72692046254E+01  0.33619330119E+03  0.34929110506E+03  0.00000000000E+00 0.  1.
          1    1    1    2  502    0  0.90104579083E+02 -0.36417145279E+01 -0.11260560447E+04  0.11296611497E+04  0.00000000000E+00 0. -1.
         22    1    1    2    0    0  0.18013378816E+02 -0.10447339128E+02 -0.59595238034E+02  0.63128607679E+02  0.00000000000E+00 0. -1.
         22    1    1    2    0    0 -0.13643098979E+02  0.68198490300E+01  0.62582856795E+02  0.64414737873E+02  0.00000000000E+00 0. -1.
</event>
<event>
 6    1  0.8017648E-006  0.2604694E+02  0.7818608E-02  0.1704551E+00
          2   -1    0    0  502    0  0.00000000000E+00  0.00000000000E+00  0.26889466729E+03  0.26889466729E+03  0.00000000000E+00 0. -1.
          1   -1    0    0  501    0 -0.00000000000E+00 -0.00000000000E+00 -0.75693938814E+02  0.75693938814E+02  0.00000000000E+00 0. -1.
          2    1    1    2  501    0  0.22981498522E+02  0.26070028298E+02  0.15065184238E+03  0.15460845145E+03  0.00000000000E+00 0. -1.
          1    1    1    2  502    0  0.14532283357E+02 -0.22095750262E+02 -0.28806494966E+02  0.39105288535E+02  0.00000000000E+00 0. -1.
         22    1    1    2    0    0 -0.12532239093E+02 -0.49613170718E+01 -0.37153609094E+02  0.39522934513E+02  0.00000000000E+00 0. -1.
         22    1    1    2    0    0 -0.24981542786E+02  0.98703903587E+00  0.10850899016E+03  0.11135193160E+03  0.00000000000E+00 0. -1.
</event>
<event>
 6    1  0.8017648E-006  0.1884307E+03  0.7818608E-02  0.1252476E+00
          2   -1    0    0  502    0  0.00000000000E+00  0.00000000000E+00  0.13459020610E+03  0.13459020610E+03  0.00000000000E+00 0.  1.
          1   -1    0    0  501    0 -0.00000000000E+00 -0.00000000000E+00 -0.28045244218E+03  0.28045244218E+03  0.00000000000E+00 0.  1.
          2    1    1    2  501    0  0.81569495482E+02  0.15600277380E+02 -0.43781222613E+02  0.93881556767E+02  0.00000000000E+00 0.  1.
          1    1    1    2  502    0 -0.12422399486E+03 -0.75106376431E+02 -0.99090176434E+02  0.17575958508E+03  0.00000000000E+00 0.  1.
         22    1    1    2    0    0  0.53991366476E+02  0.82548340855E+02  0.30457083166E+02  0.10323240841E+03  0.00000000000E+00 0.  1.
         22    1    1    2    0    0 -0.11336867094E+02 -0.23042241804E+02 -0.33447920193E+02  0.42169098023E+02  0.00000000000E+00 0.  1.
</event>
<event>
 6    1  0.8017648E-006  0.9581187E+02  0.7818608E-02  0.1388409E+00
          2   -1    0    0  502    0  0.00000000000E+00  0.00000000000E+00  0.63004839140E+03  0.63004839140E+03  0.00000000000E+00 0. -1.
          1   -1    0    0  501    0 -0.00000000000E+00 -0.00000000000E+00 -0.39080118094E+02  0.39080118094E+02  0.00000000000E+00 0.  1.
          2    1    1    2  501    0 -0.51903815716E+02 -0.12163773768E+02  0.31066808759E+03  0.31520885794E+03  0.00000000000E+00 0. -1.
          1    1    1    2  502    0  0.71341576506E+02  0.33995122198E+02  0.72946638448E+02  0.10754766819E+03  0.00000000000E+00 0.  1.
         22    1    1    2    0    0 -0.34795864331E+02 -0.29423511282E+02  0.22025870559E+03  0.22492308147E+03  0.00000000000E+00 0. -1.
         22    1    1    2    0    0  0.15358103541E+02  0.75921628524E+01 -0.12905158321E+02  0.21448901893E+02  0.00000000000E+00 0.  1.
</event>
<event>
 6    1  0.8017648E-006  0.1010655E+03  0.7818608E-02  0.1378940E+00
          2   -1    0    0  502    0  0.00000000000E+00  0.00000000000E+00  0.19037104041E+03  0.19037104041E+03  0.00000000000E+00 0. -1.
          1   -1    0    0  501    0 -0.00000000000E+00 -0.00000000000E+00 -0.10912083582E+03  0.10912083582E+03  0.00000000000E+00 0. -1.
          2    1    1    2  501    0 -0.15609665815E+02  0.28807892169E+02  0.69350204023E+02  0.76700763465E+02  0.00000000000E+00 0. -1.
          1    1    1    2  502    0  0.39952568314E+02  0.29657790388E+02 -0.48115463152E+02  0.69216255604E+02  0.00000000000E+00 0. -1.
         22    1    1    2    0    0  0.16604987002E+02 -0.37370388885E+01 -0.33598196716E+02  0.37663375786E+02  0.00000000000E+00 0. -1.
         22    1    1    2    0    0 -0.40947889501E+02 -0.54728643668E+02  0.93613660434E+02  0.11591148137E+03  0.00000000000E+00 0. -1.
</event>
<event>
 6    1  0.8017648E-006  0.1304975E+03  0.7818608E-02  0.1277840E+00
          2   -1    0    0  502    0  0.00000000000E+00  0.00000000000E+00  0.39800808549E+03  0.39800808549E+03  0.00000000000E+00 0.  1.
          1   -1    0    0  501    0 -0.00000000000E+00 -0.00000000000E+00 -0.27490013240E+03  0.27490013240E+03  0.00000000000E+00 0.  1.
          2    1    1    2  501    0 -0.81194650112E+02  0.10999170592E+03  0.30980296812E+03  0.33862756184E+03  0.00000000000E+00 0.  1.
          1    1    1    2  502    0 -0.53100460374E+02 -0.33521753874E+02 -0.96950739359E+02  0.11551109357E+03  0.00000000000E+00 0.  1.
         22    1    1    2    0    0  0.46442764384E+02 -0.81602992787E+01 -0.96370061087E+02  0.10728797473E+03  0.00000000000E+00 0.  1.
         22    1    1    2    0    0  0.87852346103E+02 -0.68309652768E+02  0.66257854136E+01  0.11148158776E+03  0.00000000000E+00 0.  1.
</event>
<event>
 6    1  0.8017648E-006  0.5427130E+02  0.7818608E-02  0.1436232E+00
          2   -1    0    0  502    0  0.00000000000E+00  0.00000000000E+00  0.11460015716E+03  0.11460015716E+03  0.00000000000E+00 0. -1.
          1   -1    0    0  501    0 -0.00000000000E+00 -0.00000000000E+00 -0.19284201626E+03  0.19284201626E+03  0.00000000000E+00 0.  1.
          2    1    1    2  501    0  0.34294503842E+02 -0.33798766470E+02  0.69644062617E+02  0.84668560083E+02  0.00000000000E+00 0. -1.
          1    1    1    2  502    0 -0.31537914573E+00  0.35069156551E+02 -0.34357154810E+02  0.49095410089E+02  0.00000000000E+00 0.  1.
         22    1    1    2    0    0  0.10815814370E+02 -0.14845213371E+01  0.25431737524E+02  0.27675962812E+02  0.00000000000E+00 0. -1.
         22    1    1    2    0    0 -0.44794939066E+02  0.21413125650E+00 -0.13896050444E+03  0.14600224043E+03  0.00000000000E+00 0.  1.
</event>
<event>
 6    1  0.8017648E-006  0.7583707E+02  0.7818608E-02  0.1444061E+00
          2   -1    0    0  502    0  0.00000000000E+00  0.00000000000E+00  0.34137981691E+03  0.34137981691E+03  0.00000000000E+00 0.  1.
          1   -1    0    0  501    0 -0.00000000000E+00 -0.00000000000E+00 -0.69402504384E+02  0.69402504384E+02  0.00000000000E+00 0.  1.
          2    1    1    2  501    0  0.17584760287E+02  0.21167421820E+02  0.80479501807E+02  0.85054298844E+02  0.00000000000E+00 0.  1.
          1    1    1    2  502    0 -0.34904500965E+02 -0.63718231712E+02 -0.18628999185E+02  0.75002512296E+02  0.00000000000E+00 0.  1.
         22    1    1    2    0    0  0.30083282788E+02  0.35452382006E+02  0.22507481923E+03  0.22982721672E+03  0.00000000000E+00 0.  1.
         22    1    1    2    0    0 -0.12763542110E+02  0.70984278870E+01 -0.14948009326E+02  0.20898293435E+02  0.00000000000E+00 0. -1.
</event>
<event>
 6    1  0.8017648E-006  0.7376693E+02  0.7818608E-02  0.1430412E+00
          2   -1    0    0  502    0  0.00000000000E+00  0.00000000000E+00  0.41323690178E+03  0.41323690178E+03  0.00000000000E+00 0.  1.
          1   -1    0    0  501    0 -0.00000000000E+00 -0.00000000000E+00 -0.28213336344E+02  0.28213336344E+02  0.00000000000E+00 0.  1.
          2    1    1    2  501    0 -0.11263552440E+02 -0.17082128045E+02  0.67411507615E+02  0.70448407158E+02  0.00000000000E+00 0.  1.
          1    1    1    2  502    0  0.47139557620E+01  0.58930093982E+02  0.83450072010E+02  0.10226872383E+03  0.00000000000E+00 0.  1.
         22    1    1    2    0    0 -0.21411182587E+01 -0.59277335054E+02  0.24092265944E+03  0.24811713901E+03  0.00000000000E+00 0.  1.
         22    1    1    2    0    0  0.86907149366E+01  0.17429369117E+02 -0.67606736271E+01  0.20615968127E+02  0.00000000000E+00 0.  1.
</event>
<event>
 6    1  0.8017648E-006  0.1716125E+03  0.7818608E-02  0.1277133E+00
          2   -1    0    0  502    0  0.00000000000E+00  0.00000000000E+00  0.16070239672E+03  0.16070239672E+03  0.00000000000E+00 0.  1.
          1   -1    0    0  501    0 -0.00000000000E+00 -0.00000000000E+00 -0.13024672203E+03  0.13024672203E+03  0.00000000000E+00 0.  1.
          2    1    1    2  501    0 -0.19790058346E+02 -0.31138271790E+01 -0.35196054757E+02  0.40498204893E+02  0.00000000000E+00 0.  1.
          1    1    1    2  502    0 -0.68548514173E+02 -0.20101810797E+02 -0.21495511814E+02  0.74599186462E+02  0.00000000000E+00 0.  1.
         22    1    1    2    0    0  0.95718720593E+02  0.42893013515E+02  0.10489808997E+03  0.14834248670E+03  0.00000000000E+00 0.  1.
         22    1    1    2    0    0 -0.73801480732E+01 -0.19677375540E+02 -0.17750848708E+02  0.27509240694E+02  0.00000000000E+00 0. -1.
</event>
<event>
 6    1  0.8017648E-006  0.8987155E+02  0.7818608E-02  0.1333880E+00
          2   -1    0    0  502    0  0.00000000000E+00  0.00000000000E+00  0.91658407684E+03  0.91658407684E+03  0.00000000000E+00 0. -1.
          1   -1    0    0  501    0 -0.00000000000E+00 -0.00000000000E+00 -0.16552748586E+02  0.16552748586E+02  0.00000000000E+00 0. -1.
          2    1    1    2  501    0  0.12753732528E+02  0.42533557169E+02  0.87269611601E+02  0.97917037781E+02  0.00000000000E+00 0. -1.
          1    1    1    2  502    0 -0.34290361295E+02 -0.47370229172E+02  0.34520815681E+03  0.35012631866E+03  0.00000000000E+00 0. -1.
         22    1    1    2    0    0  0.33595256672E+02  0.55256979045E+02  0.35921923110E+03  0.36499374104E+03  0.00000000000E+00 0. -1.
         22    1    1    2    0    0 -0.12058627905E+02 -0.50420307042E+02  0.10833432874E+03  0.12009972795E+03  0.00000000000E+00 0. -1.
</event>
<event>
 6    1  0.8017648E-006  0.1241916E+03  0.7818608E-02  0.1299320E+00
          2   -1    0    0  502    0  0.00000000000E+00  0.00000000000E+00  0.87253653182E+02  0.87253653182E+02  0.00000000000E+00 0.  1.
          1   -1    0    0  501    0 -0.00000000000E+00 -0.00000000000E+00 -0.88843653405E+03  0.88843653405E+03  0.00000000000E+00 0. -1.
          2    1    1    2  501    0 -0.25860807802E+02 -0.30360233729E+02 -0.28292416067E+02  0.48897709345E+02  0.00000000000E+00 0.  1.
          1    1    1    2  502    0 -0.28255389204E+02 -0.20190187584E+02 -0.78193476695E+03  0.78270555796E+03  0.00000000000E+00 0. -1.
         22    1    1    2    0    0  0.17711930219E+02  0.47254879473E+02  0.61873967547E+02  0.79844373415E+02  0.00000000000E+00 0.  1.
         22    1    1    2    0    0  0.36404266786E+02  0.32955418396E+01 -0.52829665391E+02  0.64242546506E+02  0.00000000000E+00 0.  1.
</event>
<event>
 6    1  0.8017648E-006  0.5145373E+02  0.7818608E-02  0.1494892E+00
          2   -1    0    0  502    0  0.00000000000E+00  0.00000000000E+00  0.18465379934E+03  0.18465379934E+03  0.00000000000E+00 0. -1.
          1   -1    0    0  501    0 -0.00000000000E+00 -0.00000000000E+00 -0.31024554276E+03  0.31024554276E+03  0.00000000000E+00 0. -1.
          2    1    1    2  501    0  0.17168035711E+02  0.11496489683E+02  0.46347757158E+02  0.50744707299E+02  0.00000000000E+00 0. -1.
          1    1    1    2  502    0 -0.16228904935E+02 -0.34057857082E+02 -0.27797327701E+03  0.28052175979E+03  0.00000000000E+00 0. -1.
         22    1    1    2    0    0 -0.22205640367E+02  0.39764247731E+01 -0.22601728941E+02  0.31933377041E+02  0.00000000000E+00 0. -1.
         22    1    1    2    0    0  0.21266509591E+02  0.18584942625E+02  0.12863550537E+03  0.13169949797E+03  0.00000000000E+00 0. -1.
</event>
<event>
 6    1  0.8017648E-006  0.2135046E+03  0.7818608E-02  0.1211002E+00
          2   -1    0    0  502    0  0.00000000000E+00  0.00000000000E+00  0.86800369438E+03  0.86800369438E+03  0.00000000000E+00 0. -1.
          1   -1    0    0  501    0 -0.00000000000E+00 -0.00000000000E+00 -0.54318431601E+02  0.54318431601E+02  0.00000000000E+00 0. -1.
          2    1    1    2  501    0 -0.80092055642E+02  0.75302718393E+02  0.46034807500E+03  0.47329228488E+03  0.00000000000E+00 0. -1.
          1    1    1    2  502    0  0.12858241995E+03 -0.27101515835E+02  0.12541151504E+03  0.18164795343E+03  0.00000000000E+00 0. -1.
         22    1    1    2    0    0 -0.18925616377E+02  0.36906200941E+02  0.34301199595E+02  0.53822104352E+02  0.00000000000E+00 0.  1.
         22    1    1    2    0    0 -0.29564747927E+02 -0.85107403500E+02  0.19362447314E+03  0.21355978332E+03  0.00000000000E+00 0.  1.
</event>
<event>
 6    1  0.8017648E-006  0.1831050E+03  0.7818608E-02  0.1293241E+00
          2   -1    0    0  502    0  0.00000000000E+00  0.00000000000E+00  0.41938749206E+03  0.41938749206E+03  0.00000000000E+00 0.  1.
          1   -1    0    0  501    0 -0.00000000000E+00 -0.00000000000E+00 -0.13157269201E+03  0.13157269201E+03  0.00000000000E+00 0.  1.
          2    1    1    2  501    0 -0.60480554328E+01 -0.78936425002E+02  0.99193556945E+02  0.12691296193E+03  0.00000000000E+00 0.  1.
          1    1    1    2  502    0  0.69592155767E+02  0.15259279026E+03 -0.11909304913E+02  0.16813524118E+03  0.00000000000E+00 0.  1.
         22    1    1    2    0    0 -0.76164308157E+01  0.10245039627E+02 -0.13951115187E+02  0.18910432842E+02  0.00000000000E+00 0.  1.
         22    1    1    2    0    0 -0.55927669518E+02 -0.83901404886E+02  0.21448166320E+03  0.23700154812E+03  0.00000000000E+00 0.  1.
</event>
<event>
 6    1  0.8017648E-006  0.8925228E+02  0.7818608E-02  0.1374121E+00
          2   -1    0    0  502    0  0.00000000000E+00  0.00000000000E+00  0.25234474849E+03  0.25234474849E+03  0.00000000000E+00 0.  1.
          1   -1    0    0  501    0 -0.00000000000E+00 -0.00000000000E+00 -0.11773989156E+03  0.11773989156E+03  0.00000000000E+00 0.  1.
          2    1    1    2  501    0 -0.98566035635E+01 -0.57652233508E+02  0.12927125671E+03  0.14188724563E+03  0.00000000000E+00 0.  1.
          1    1    1    2  502    0  0.99839030058E+01  0.93805690635E+02  0.17587918343E+01  0.94351890620E+02  0.00000000000E+00 0.  1.
         22    1    1    2    0    0 -0.21564060500E+02 -0.20162180011E+02  0.62507542492E+02  0.69128250929E+02  0.00000000000E+00 0.  1.
         22    1    1    2    0    0  0.21436761058E+02 -0.15991277117E+02 -0.58932734112E+02  0.64717252865E+02  0.00000000000E+00 0.  1.
</event>
<event>
 6    1  0.8017648E-006  0.1212459E+03  0.7818608E-02  0.1363916E+00
          2   -1    0    0  502    0  0.00000000000E+00  0.00000000000E+00  0.65522167251E+03  0.65522167251E+03  0.00000000000E+00 0. -1.
          1   -1    0    0  501    0 -0.00000000000E+00 -0.00000000000E+00 -0.50362276342E+02  0.50362276342E+02  0.00000000000E+00 0.  1.
          2    1    1    2  501    0  0.52201367126E+02  0.66775285001E+01  0.29430475036E+03  0.29897300581E+03  0.00000000000E+00 0. -1.
          1    1    1    2  502    0 -0.10547450643E+03 -0.23433295662E+02  0.70438831318E+02  0.12897914486E+03  0.00000000000E+00 0.  1.
         22    1    1    2    0    0 -0.12261933332E+02 -0.30469025779E+01 -0.11367796110E+02  0.16996041091E+02  0.00000000000E+00 0.  1.
         22    1    1    2    0    0  0.65535072636E+02  0.19802669739E+02  0.25148361059E+03  0.26063575708E+03  0.00000000000E+00 0. -1.
</event>
<event>
 6    1  0.8017648E-006  0.2644406E+03  0.7818608E-02  0.1105284E+00
          2   -1    0    0  502    0  0.00000000000E+00  0.00000000000E+00  0.27377542015E+03  0.27377542015E+03  0.00000000000E+00 0.  1.
          1   -1    0    0  501    0 -0.00000000000E+00 -0.00000000000E+00 -0.10443671444E+04  0.10443671444E+04  0.00000000000E+00 0.  1.
          2    1    1    2  501    0  0.21144007359E+03 -0.39522929264E+02  0.14926814489E+03  0.26182044560E+03  0.00000000000E+00 0.  1.
          1    1    1    2  502    0 -0.23664988409E+03  0.67272102541E+02 -0.88821260880E+03  0.92165630354E+03  0.00000000000E+00 0.  1.
         22    1    1    2    0    0  0.33433382844E+02 -0.36100729600E+02  0.39166062027E+02  0.62889062489E+02  0.00000000000E+00 0.  1.
         22    1    1    2    0    0 -0.82235723474E+01  0.83515563229E+01 -0.70813322386E+02  0.71776752939E+02  0.00000000000E+00 0.  1.
</event>
<event>
 6    1  0.8017648E-006  0.1046106E+03  0.7818608E-02  0.1382428E+00
          2   -1    0    0  502    0  0.00000000000E+00  0.00000000000E+00  0.13152594286E+03  0.13152594286E+03  0.00000000000E+00 0.  1.
          1   -1    0    0  501    0 -0.00000000000E+00 -0.00000000000E+00 -0.56546007236E+03  0.56546007236E+03  0.00000000000E+00 0.  1.
          2    1    1    2  501    0  0.40193034245E+02 -0.86456167802E+02  0.69165737572E+02  0.11778814969E+03  0.00000000000E+00 0.  1.
          1    1    1    2  502    0 -0.15962946225E+02  0.81742263007E+02 -0.41350734311E+03  0.42181149346E+03  0.00000000000E+00 0.  1.
         22    1    1    2    0    0 -0.94371150407E+01 -0.11008782310E+02  0.31345432873E+02  0.34536771567E+02  0.00000000000E+00 0. -1.
         22    1    1    2    0    0 -0.14792972980E+02  0.15722687106E+02 -0.12093795684E+03  0.12284960051E+03  0.00000000000E+00 0.  1.
</event>
<event>
 6    1  0.8017648E-006  0.1440065E+03  0.7818608E-02  0.1308513E+00
          2   -1    0    0  502    0  0.00000000000E+00  0.00000000000E+00  0.26664721218E+03  0.26664721218E+03  0.00000000000E+00 0. -1.
          1   -1    0    0  501    0 -0.00000000000E+00 -0.00000000000E+00 -0.70847730960E+02  0.70847730960E+02  0.00000000000E+00 0.  1.
          2    1    1    2  501    0 -0.37906908700E+02  0.30436265983E+01 -0.48887504139E+01  0.38341847512E+02  0.00000000000E+00 0. -1.
          1    1    1    2  502    0  0.63798404920E+02  0.23905099431E+02  0.13436711011E+02  0.69442317444E+02  0.00000000000E+00 0.  1.
         22    1    1    2    0    0 -0.44983153207E+02 -0.32238148689E+02  0.19908552880E+03  0.20663453264E+03  0.00000000000E+00 0. -1.
         22    1    1    2    0    0  0.19091656987E+02  0.52894226598E+01 -0.11834008179E+02  0.23076245539E+02  0.00000000000E+00 0.  1.
</event>
<event>
 6    1  0.8017648E-006  0.6766139E+02  0.7818608E-02  0.1467963E+00
          2   -1    0    0  502    0  0.00000000000E+00  0.00000000000E+00  0.16865502566E+03  0.16865502566E+03  0.00000000000E+00 0.  1.
          1   -1    0    0  501    0 -0.00000000000E+00 -0.00000000000E+00 -0.18524237934E+03  0.18524237934E+03  0.00000000000E+00 0.  1.
          2    1    1    2  501    0  0.23993707027E+02  0.45548755490E+02  0.10526831402E+03  0.11718278474E+03  0.00000000000E+00 0.  1.
          1    1    1    2  502    0 -0.24434517908E+02 -0.47452651605E+02 -0.89234265738E+02  0.10397862276E+03  0.00000000000E+00 0.  1.
         22    1    1    2    0    0  0.32210794371E+00  0.16406065435E+02  0.48048294105E+02  0.50773037165E+02  0.00000000000E+00 0.  1.
         22    1    1    2    0    0  0.11870293763E+00 -0.14502169319E+02 -0.80669696061E+02  0.81962960342E+02  0.00000000000E+00 0.  1.
</event>
<event>
 6    1  0.8017648E-006  0.8553130E+02  0.7818608E-02  0.1382772E+00
          2   -1    0    0  502    0  0.00000000000E+00  0.00000000000E+00  0.10633664380E+04  0.10633664380E+04  0.00000000000E+00 0. -1.
          1   -1    0    0  501    0 -0.00000000000E+00 -0.00000000000E+00 -0.11134579338E+03  0.11134579338E+03  0.00000000000E+00 0. -1.
          2    1    1    2  501    0 -0.78911152037E+02 -0.85064605003E+02  0.74773124379E+03  0.75668022961E+03  0.00000000000E+00 0. -1.
          1    1    1    2  502    0  0.78966009882E+02  0.25389935589E+02 -0.70774664083E+02  0.10903821634E+03  0.00000000000E+00 0. -1.
         22    1    1    2    0    0 -0.14825978333E+02  0.79156312389E+02  0.27280249091E+03  0.28444108436E+03  0.00000000000E+00 0.  1.
         22    1    1    2    0    0  0.14771120487E+02 -0.19481642975E+02  0.22615740165E+01  0.24552701083E+02  0.00000000000E+00 0. -1.
</event>
<event>
 6    1  0.8017648E-006  0.4835823E+02  0.7818608E-02  0.1456338E+00
          2   -1    0    0  502    0  0.00000000000E+00  0.00000000000E+00  0.15618429268E+03  0.15618429268E+03  0.00000000000E+00 0.  1.
          1   -1    0    0  501    0 -0.00000000000E+00 -0.00000000000E+00 -0.22932446502E+03  0.22932446502E+03  0.00000000000E+00 0. -1.
          2    1    1    2  501    0 -0.20913969163E+02  0.10347235133E+02  0.76604887094E+02  0.80079760912E+02  0.00000000000E+00 0.  1.
          1    1    1    2  502    0  0.14041337344E+02 -0.28357764074E+02 -0.17106113413E+03  0.17396331093E+03  0.00000000000E+00 0. -1.
         22    1    1    2    0    0  0.13196628861E+02 -0.61322104290E+01 -0.52010723189E+02  0.54008058146E+02  0.00000000000E+00 0. -1.
         22    1    1    2    0    0 -0.63239970425E+01  0.24142739370E+02  0.73326797888E+02  0.77457627716E+02  0.00000000000E+00 0.  1.
</event>
<event>
 6    1  0.8017648E-006  0.4316084E+02  0.7818608E-02  0.1570279E+00
          2   -1    0    0  502    0  0.00000000000E+00  0.00000000000E+00  0.57164889796E+03  0.57164889796E+03  0.00000000000E+00 0.  1.
          1   -1    0    0  501    0 -0.00000000000E+00 -0.00000000000E+00 -0.10615137941E+03  0.10615137941E+03  0.00000000000E+00 0.  1.
          2    1    1    2  501    0  0.90150148989E+01  0.23035824557E+02  0.50363896865E+03  0.50424610107E+03  0.00000000000E+00 0.  1.
          1    1    1    2  502    0 -0.38565904121E+00 -0.24258490688E+02 -0.45186795626E+02  0.51288103906E+02  0.00000000000E+00 0.  1.
         22    1    1    2    0    0 -0.13001239262E+02 -0.12262459206E+02 -0.55410637786E+02  0.58221464323E+02  0.00000000000E+00 0. -1.
         22    1    1    2    0    0  0.43718834048E+01  0.13485125337E+02  0.62455983312E+02  0.64044608058E+02  0.00000000000E+00 0.  1.
</event>
<event>
 6    1  0.8017648E-006  0.1251635E+03  0.7818608E-02  0.1259219E+00
          2   -1    0    0  502    0  0.00000000000E+00  0.00000000000E+00  0.93629416281E+03  0.93629416281E+03  0.00000000000E+00 0. -1.
          1   -1    0    0  501    0 -0.00000000000E+00 -0.00000000000E+00 -0.50008362802E+02  0.50008362802E+02  0.00000000000E+00 0. -1.
          2    1    1    2  501    0  0.16352694644E+02  0.28833308395E+02  0.72404940028E+02  0.79631938539E+02  0.00000000000E+00 0. -1.
          1    1    1    2  502    0 -0.15907892302E+03 -0.69311810026E+02  0.56619841296E+03  0.59219158521E+03  0.00000000000E+00 0. -1.
         22    1    1    2    0    0  0.11686705560E+03  0.99038932514E+01  0.79732425197E+02  0.14182120932E+03  0.00000000000E+00 0. -1.
         22    1    1    2    0    0  0.25859172781E+02  0.30574608380E+02  0.16795002182E+03  0.17265779254E+03  0.00000000000E+00 0. -1.
</event>
<event>
 6    1  0.8017648E-006  0.3774163E+02  0.7818608E-02  0.1597149E+00
          2   -1    0    0  502    0  0.00000000000E+00  0.00000000000E+00  0.13693967074E+03  0.13693967074E+03  0.00000000000E+00 0. -1.
          1   -1    0    0  501    0 -0.00000000000E+00 -0.00000000000E+00 -0.27643999177E+03  0.27643999177E+03  0.00000000000E+00 0.  1.
          2    1    1    2  501    0  0.91439816520E+01 -0.40281842724E+02  0.57174766309E+02  0.70535049133E+02  0.00000000000E+00 0. -1.
          1    1    1    2  502    0  0.20425924435E+02  0.61391672776E+02 -0.20143237655E+03  0.21156832985E+03  0.00000000000E+00 0.  1.
         22    1    1    2    0    0 -0.37194986745E+01 -0.10749281404E+02  0.64429186705E+02  0.65425544098E+02  0.00000000000E+00 0. -1.
         22    1    1    2    0    0 -0.25850407412E+02 -0.10360548648E+02 -0.59671897503E+02  0.65850739428E+02  0.00000000000E+00 0.  1.
</event>
<event>
 6    1  0.8017648E-006  0.9297892E+02  0.7818608E-02  0.1309049E+00
          2   -1    0    0  502    0  0.00000000000E+00  0.00000000000E+00  0.30333730263E+03  0.30333730263E+03  0.00000000000E+00 0.  1.
          1   -1    0    0  501    0 -0.00000000000E+00 -0.00000000000E+00 -0.67206530581E+03  0.67206530581E+03  0.00000000000E+00 0. -1.
          2    1    1    2  501    0 -0.10301528312E+02  0.72205962396E+02  0.28060305053E+03  0.28992739515E+03  0.00000000000E+00 0.  1.
          1    1    1    2  502    0 -0.32346389513E+02 -0.24382986587E+02 -0.38934815786E+03  0.39144962253E+03  0.00000000000E+00 0. -1.
         22    1    1    2    0    0  0.45429589480E+00  0.11611290694E+02  0.94061089183E+01  0.14950028138E+02  0.00000000000E+00 0.  1.
         22    1    1    2    0    0  0.42193621931E+02 -0.59434266504E+02 -0.26938900477E+03  0.27907556263E+03  0.00000000000E+00 0. -1.
</event>
<event>
 6    1  0.8017648E-006  0.1570939E+03  0.7818608E-02  0.1307558E+00
          2   -1    0    0  502    0  0.00000000000E+00  0.00000000000E+00  0.61616608131E+03  0.61616608131E+03  0.00000000000E+00 0.  1.
          1   -1    0    0  501    0 -0.00000000000E+00 -0.00000000000E+00 -0.76181990971E+02  0.76181990971E+02  0.00000000000E+00 0.  1.
          2    1    1    2  501    0  0.99690134649E+02 -0.58094393557E+02  0.22545419313E+03  0.25326404148E+03  0.00000000000E+00 0.  1.
          1    1    1    2  502    0 -0.13474341899E+03  0.86731401767E+02  0.23289574252E+03  0.28269869454E+03  0.00000000000E+00 0.  1.
         22    1    1    2    0    0  0.35462214362E+01 -0.15117638291E+02 -0.33141224221E+02  0.36598625887E+02  0.00000000000E+00 0.  1.
         22    1    1    2    0    0  0.31507062904E+02 -0.13519369919E+02  0.11477537892E+03  0.11978671037E+03  0.00000000000E+00 0.  1.
</event>
<event>
 6    1  0.8017648E-006  0.6227932E+03  0.7818608E-02  0.1113016E+00
          2   -1    0    0  502    0  0.00000000000E+00  0.00000000000E+00  0.13437627082E+04  0.13437627082E+04  0.00000000000E+00 0.  1.
          1   -1    0    0  501    0 -0.00000000000E+00 -0.00000000000E+00 -0.93496463657E+03  0.93496463657E+03  0.00000000000E+00 0. -1.
          2    1    1    2  501    0 -0.15769024073E+03  0.58469095998E+03  0.10552875406E+04  0.12167010825E+04  0.00000000000E+00 0.  1.
          1    1    1    2  502    0  0.16860303349E+03 -0.58135700903E+03 -0.70368708917E+03  0.92821251571E+03  0.00000000000E+00 0. -1.
         22    1    1    2    0    0 -0.94262299727E+01  0.13284963933E+02  0.92946314845E+02  0.94362924506E+02  0.00000000000E+00 0.  1.
         22    1    1    2    0    0 -0.14865627894E+01 -0.16618914890E+02 -0.35748694603E+02  0.39450822132E+02  0.00000000000E+00 0. -1.
</event>
<event>
 6    1  0.8017648E-006  0.1684143E+03  0.7818608E-02  0.1306482E+00
          2   -1    0    0  502    0  0.00000000000E+00  0.00000000000E+00  0.21351290953E+03  0.21351290953E+03  0.00000000000E+00 0. -1.
          1   -1    0    0  501    0 -0.00000000000E+00 -0.00000000000E+00 -0.18828989465E+03  0.18828989465E+03  0.00000000000E+00 0. -1.
          2    1    1    2  501    0  0.24861612174E+02 -0.27430833614E+02  0.11056530423E+02  0.38636734562E+02  0.00000000000E+00 0. -1.
          1    1    1    2  502    0 -0.15033603095E+03  0.33756321690E+02 -0.69505697948E+02  0.16903092469E+03  0.00000000000E+00 0. -1.
         22    1    1    2    0    0 -0.32992129428E+01  0.12421554663E+02 -0.22683047372E+02  0.26071065655E+02  0.00000000000E+00 0.  1.
         22    1    1    2    0    0  0.12877363172E+03 -0.18747042740E+02  0.10635522978E+03  0.16806407926E+03  0.00000000000E+00 0. -1.
</event>
<event>
 6    1  0.8017648E-006  0.9398210E+02  0.7818608E-02  0.1295361E+00
          2   -1    0    0  502    0  0.00000000000E+00  0.00000000000E+00  0.72287923353E+03  0.72287923353E+03  0.00000000000E+00 0.  1.
          1   -1    0    0  501    0 -0.00000000000E+00 -0.00000000000E+00 -0.14138106514E+03  0.14138106514E+03  0.00000000000E+00 0.  1.
          2    1    1    2  501    0  0.31641224167E+02 -0.52646150038E+02  0.57612776354E+03  0.57939277187E+03  0.00000000000E+00 0.  1.
          1    1    1    2  502    0 -0.44769730614E+02  0.59469517626E+02 -0.95238177136E+02  0.12087705609E+03  0.00000000000E+00 0.  1.
         22    1    1    2    0    0 -0.35889972447E+01  0.15420838239E+02 -0.28129632140E+02  0.32279395248E+02  0.00000000000E+00 0. -1.
         22    1    1    2    0    0  0.16717503692E+02 -0.22244205828E+02  0.12873821413E+03  0.13171107546E+03  0.00000000000E+00 0. -1.
</event>
<event>
 6    1  0.8017648E-006  0.1954548E+03  0.7818608E-02  0.1155173E+00
          2   -1    0    0  502    0  0.00000000000E+00  0.00000000000E+00  0.19726413684E+04  0.19726413684E+04  0.00000000000E+00 0. -1.
          1   -1    0    0  501    0 -0.00000000000E+00 -0.00000000000E+00 -0.17846269346E+03  0.17846269346E+03  0.00000000000E+00 0. -1.
          2    1    1    2  501    0 -0.12185180975E+03  0.85213901184E+02  0.16981318707E+04  0.17046293212E+04  0.00000000000E+00 0. -1.
          1    1    1    2  502    0  0.13365092714E+03 -0.98905361149E+02 -0.11415899162E+03  0.20168568655E+03  0.00000000000E+00 0. -1.
         22    1    1    2    0    0  0.72290927379E+01 -0.20272561613E+02 -0.81317229492E+01  0.23007856360E+02  0.00000000000E+00 0. -1.
         22    1    1    2    0    0 -0.19028210127E+02  0.33964021578E+02  0.21833751877E+03  0.22178119768E+03  0.00000000000E+00 0.  1.
</event>
<event>
 6    1  0.8017648E-006  0.4336455E+02  0.7818608E-02  0.1507160E+00
          2   -1    0    0  502    0  0.00000000000E+00  0.00000000000E+00  0.44459803449E+03  0.44459803449E+03  0.00000000000E+00 0. -1.
          1   -1    0    0  501    0 -0.00000000000E+00 -0.00000000000E+00 -0.30905322079E+02  0.30905322079E+02  0.00000000000E+00 0. -1.
          2    1    1    2  501    0  0.30542350970E+02  0.65164455746E+01  0.20815744271E+03  0.21048710227E+03  0.00000000000E+00 0. -1.
          1    1    1    2  502    0 -0.30497504662E+02  0.49217065679E+01  0.91829513928E+02  0.96886431529E+02  0.00000000000E+00 0. -1.
         22    1    1    2    0    0 -0.15412875649E+02 -0.27866825235E+02 -0.16589202990E+02  0.35907079250E+02  0.00000000000E+00 0. -1.
         22    1    1    2    0    0  0.15368029341E+02  0.16428673092E+02  0.13029495876E+03  0.13222274352E+03  0.00000000000E+00 0. -1.
</event>
<event>
 6    1  0.8017648E-006  0.4952168E+02  0.7818608E-02  0.1491976E+00
          2   -1    0    0  502    0  0.00000000000E+00  0.00000000000E+00  0.10472315851E+03  0.10472315851E+03  0.00000000000E+00 0. -1.
          1   -1    0    0  501    0 -0.00000000000E+00 -0.00000000000E+00 -0.10559734843E+03  0.10559734843E+03  0.00000000000E+00 0. -1.
          2    1    1    2  501    0  0.36012994739E+02 -0.17346200538E+01  0.12785975889E+02  0.38254749721E+02  0.00000000000E+00 0. -1.
          1    1    1    2  502    0 -0.31487874332E+02  0.38918312298E+01  0.28189645135E+02  0.42441591312E+02  0.00000000000E+00 0. -1.
         22    1    1    2    0    0 -0.26030996125E+02 -0.40713974848E+01 -0.80856345426E+02  0.85040799811E+02  0.00000000000E+00 0. -1.
         22    1    1    2    0    0  0.21505875718E+02  0.19141863088E+01  0.39006534490E+02  0.44583366097E+02  0.00000000000E+00 0. -1.
</event>
<event>
 6    1  0.8017648E-006  0.6342469E+02  0.7818608E-02  0.1501556E+00
          2   -1    0    0  502    0  0.00000000000E+00  0.00000000000E+00  0.41307956598E+03  0.41307956598E+03  0.00000000000E+00 0. -1.
          1   -1    0    0  501    0 -0.00000000000E+00 -0.00000000000E+00 -0.21382446180E+03  0.21382446180E+03  0.00000000000E+00 0. -1.
          2    1    1    2  501    0 -0.25571301680E+02  0.24718845521E+02  0.31441288734E+03  0.31641804077E+03  0.00000000000E+00 0. -1.
          1    1    1    2  502    0  0.49420824697E+02 -0.34017011873E+02 -0.16309909021E+03  0.17378402757E+03  0.00000000000E+00 0. -1.
         22    1    1    2    0    0 -0.79484945225E+01 -0.75867736111E+01 -0.42209035115E+02  0.43615826764E+02  0.00000000000E+00 0.  1.
         22    1    1    2    0    0 -0.15901028494E+02  0.16884939963E+02  0.90150342163E+02  0.93086132677E+02  0.00000000000E+00 0. -1.
</event>
<event>
 6    1  0.8017648E-006  0.1451071E+03  0.7818608E-02  0.1301009E+00
          2   -1    0    0  502    0  0.00000000000E+00  0.00000000000E+00  0.19240604267E+03  0.19240604267E+03  0.00000000000E+00 0. -1.
          1   -1    0    0  501    0 -0.00000000000E+00 -0.00000000000E+00 -0.20489698164E+03  0.20489698164E+03  0.00000000000E+00 0. -1.
          2    1    1    2  501    0  0.59775622125E+02  0.71139475656E+02  0.53906627945E+02  0.10742380804E+03  0.00000000000E+00 0. -1.
          1    1    1    2  502    0 -0.83181351144E+02 -0.10157362857E+03 -0.88486957173E+02  0.15832334253E+03  0.00000000000E+00 0. -1.
         22    1    1    2    0    0 -0.20584883483E+02  0.83480090482E+01 -0.43917651925E+02  0.49215717344E+02  0.00000000000E+00 0. -1.
         22    1    1    2    0    0  0.43990612503E+02  0.22086143867E+02  0.66007042177E+02  0.82340156401E+02  0.00000000000E+00 0. -1.
</event>
<event>
 6    1  0.8017648E-006  0.4240733E+02  0.7818608E-02  0.1493562E+00
          2   -1    0    0  502    0  0.00000000000E+00  0.00000000000E+00  0.23639616831E+03  0.23639616831E+03  0.00000000000E+00 0. -1.
          1   -1    0    0  501    0 -0.00000000000E+00 -0.00000000000E+00 -0.91284591642E+02  0.91284591642E+02  0.00000000000E+00 0. -1.
          2    1    1    2  501    0  0.22871522247E+02 -0.18326677328E+02  0.14041995124E+03  0.14344593524E+03  0.00000000000E+00 0. -1.
          1    1    1    2  502    0  0.13971125576E+02  0.31086768442E+02 -0.33021290198E+02  0.47455085379E+02  0.00000000000E+00 0. -1.
         22    1    1    2    0    0 -0.43102214166E+02 -0.57675190219E+00 -0.39436361141E+02  0.58423968444E+02  0.00000000000E+00 0.  1.
         22    1    1    2    0    0  0.62595663428E+01 -0.12183339213E+02  0.77149276766E+02  0.78355770883E+02  0.00000000000E+00 0. -1.
</event>
<event>
 6    1  0.8017648E-006  0.1237604E+03  0.7818608E-02  0.1254523E+00
          2   -1    0    0  502    0  0.00000000000E+00  0.00000000000E+00  0.14225464744E+03  0.14225464744E+03  0.00000000000E+00 0. -1.
          1   -1    0    0  501    0 -0.00000000000E+00 -0.00000000000E+00 -0.31774476609E+03  0.31774476609E+03  0.00000000000E+00 0. -1.
          2    1    1    2  501    0 -0.39225204451E+02  0.53207138231E+02 -0.14649476727E+03  0.16071817900E+03  0.00000000000E+00 0. -1.
          1    1    1    2  502    0  0.71769516380E+02 -0.23522870208E+02  0.91302028256E+02  0.11849155779E+03  0.00000000000E+00 0. -1.
         22    1    1    2    0    0 -0.69486852884E+02 -0.52392906555E+02 -0.10101411396E+03  0.13333150640E+03  0.00000000000E+00 0.  1.
         22    1    1    2    0    0  0.36942540955E+02  0.22708638533E+02 -0.19283265672E+02  0.47458170332E+02  0.00000000000E+00 0. -1.
</event>
<event>
 6    1  0.8017648E-006  0.1229137E+03  0.7818608E-02  0.1353205E+00
          2   -1    0    0  502    0  0.00000000000E+00  0.00000000000E+00  0.60590196027E+03  0.60590196027E+03  0.00000000000E+00 0. -1.
          1   -1    0    0  501    0 -0.00000000000E+00 -0.00000000000E+00 -0.48924169387E+02  0.48924169387E+02  0.00000000000E+00 0.  1.
          2    1    1    2  501    0 -0.26944480767E+01  0.20562467928E+02  0.32329217385E+02  0.38409028033E+02  0.00000000000E+00 0. -1.
          1    1    1    2  502    0 -0.38410313083E+01 -0.10014335456E+03  0.36388773595E+02  0.10661889058E+03  0.00000000000E+00 0.  1.
         22    1    1    2    0    0  0.49941049154E+00  0.92792396012E+02  0.48637918621E+03  0.49515188675E+03  0.00000000000E+00 0. -1.
         22    1    1    2    0    0  0.60360688935E+01 -0.13211509379E+02  0.18806136948E+01  0.14646324304E+02  0.00000000000E+00 0.  1.
</event>
<event>
 6    1  0.8017648E-006  0.5663940E+02  0.7818608E-02  0.1416924E+00
          2   -1    0    0  502    0  0.00000000000E+00  0.00000000000E+00  0.29445424245E+03  0.29445424245E+03  0.00000000000E+00 0. -1.
          1   -1    0    0  501    0 -0.00000000000E+00 -0.00000000000E+00 -0.11891009161E+03  0.11891009161E+03  0.00000000000E+00 0. -1.
          2    1    1    2  501    0 -0.45087843414E+02 -0.52827977666E+02 -0.16636252422E+01  0.69472847192E+02  0.00000000000E+00 0. -1.
          1    1    1    2  502    0  0.67777436184E+02  0.56923001383E+02 -0.36373895841E+02  0.95692576728E+02  0.00000000000E+00 0. -1.
         22    1    1    2    0    0 -0.10241148587E+02 -0.39645061108E+02  0.20567523299E+03  0.20971150054E+03  0.00000000000E+00 0. -1.
         22    1    1    2    0    0 -0.12448444183E+02  0.35550037391E+02  0.79064389382E+01  0.38487409601E+02  0.00000000000E+00 0. -1.
</event>
<event>
 6    1  0.8017648E-006  0.9512578E+02  0.7818608E-02  0.1350654E+00
          2   -1    0    0  502    0  0.00000000000E+00  0.00000000000E+00  0.31879970123E+03  0.31879970123E+03  0.00000000000E+00 0. -1.
          1   -1    0    0  501    0 -0.00000000000E+00 -0.00000000000E+00 -0.10158983159E+03  0.10158983159E+03  0.00000000000E+00 0. -1.
          2    1    1    2  501    0  0.72759111918E+02  0.24788381822E+02  0.16744933935E+03  0.18424883579E+03  0.00000000000E+00 0. -1.
          1    1    1    2  502    0 -0.71470096595E+02 -0.59535801613E+02  0.41292937764E+02  0.10177226091E+03  0.00000000000E+00 0. -1.
         22    1    1    2    0    0  0.16371741113E+02  0.71976399905E+01  0.65891054970E+02  0.68274966522E+02  0.00000000000E+00 0.  1.
         22    1    1    2    0    0 -0.17660756436E+02  0.27549779800E+02 -0.57423462449E+02  0.66093469606E+02  0.00000000000E+00 0. -1.
</event>
<event>
 6    1  0.8017648E-006  0.7684897E+02  0.7818608E-02  0.1338520E+00
          2   -1    0    0  502    0  0.00000000000E+00  0.00000000000E+00  0.23009923202E+03  0.23009923202E+03  0.00000000000E+00 0.  1.
          1   -1    0    0  501    0 -0.00000000000E+00 -0.00000000000E+00 -0.34369860287E+03  0.34369860287E+03  0.00000000000E+00 0.  1.
          2    1    1    2  501    0 -0.61760844109E+02 -0.15107383638E+02  0.17827921492E+03  0.18927787345E+03  0.00000000000E+00 0.  1.
          1    1    1    2  502    0  0.49265035598E+02  0.24377655446E+02 -0.24421628699E+03  0.25032560526E+03  0.00000000000E+00 0.  1.
         22    1    1    2    0    0 -0.93215625788E+01 -0.87865938714E+01  0.40964329923E+02  0.42920532229E+02  0.00000000000E+00 0.  1.
         22    1    1    2    0    0  0.21817371089E+02 -0.48367793675E+00 -0.88626628698E+02  0.91273823959E+02  0.00000000000E+00 0. -1.
</event>
<event>
 6    1  0.8017648E-006  0.6469396E+02  0.7818608E-02  0.1389522E+00
          2   -1    0    0  502    0  0.00000000000E+00  0.00000000000E+00  0.32595338854E+03  0.32595338854E+03  0.00000000000E+00 0. -1.
          1   -1    0    0  501    0 -0.00000000000E+00 -0.00000000000E+00 -0.70716362565E+02  0.70716362565E+02  0.00000000000E+00 0. -1.
          2    1    1    2  501    0  0.24952487253E+02  0.14996333160E+02  0.12173337663E+02  0.31554821790E+02  0.00000000000E+00 0. -1.
          1    1    1    2  502    0 -0.54676867150E+02  0.22913871291E+02  0.21743138711E+03  0.22536861671E+03  0.00000000000E+00 0. -1.
         22    1    1    2    0    0 -0.22938688413E+02 -0.49617588535E+02 -0.29914175134E+02  0.62313292259E+02  0.00000000000E+00 0. -1.
         22    1    1    2    0    0  0.52663068311E+02  0.11707384085E+02  0.55546476338E+02  0.77433020343E+02  0.00000000000E+00 0.  1.
</event>
<event>
 6    1  0.8017648E-006  0.7374233E+02  0.7818608E-02  0.1381318E+00
          2   -1    0    0  502    0  0.00000000000E+00  0.00000000000E+00  0.11229943623E+03  0.11229943623E+03  0.00000000000E+00 0. -1.
          1   -1    0    0  501    0 -0.00000000000E+00 -0.00000000000E+00 -0.32753324976E+03  0.32753324976E+03  0.00000000000E+00 0. -1.
          2    1    1    2  501    0  0.22877292719E+02  0.36700793844E+02  0.41827108526E+02  0.60164988146E+02  0.00000000000E+00 0. -1.
          1    1    1    2  502    0 -0.24171075222E+02 -0.10028834433E+03 -0.24560912852E+02  0.10604353505E+03  0.00000000000E+00 0. -1.
         22    1    1    2    0    0  0.63210044847E+01  0.21739669480E+02  0.11927168449E+02  0.25589561818E+02  0.00000000000E+00 0.  1.
         22    1    1    2    0    0 -0.50272219814E+01  0.41847881007E+02 -0.24442717765E+03  0.24803460097E+03  0.00000000000E+00 0. -1.
</event>
<event>
 6    1  0.8017648E-006  0.5615588E+02  0.7818608E-02  0.1491048E+00
          2   -1    0    0  502    0  0.00000000000E+00  0.00000000000E+00  0.27897213054E+03  0.27897213054E+03  0.00000000000E+00 0. -1.
          1   -1    0    0  501    0 -0.00000000000E+00 -0.00000000000E+00 -0.59580511623E+02  0.59580511623E+02  0.00000000000E+00 0. -1.
          2    1    1    2  501    0  0.85239566513E+01 -0.34652118482E+02  0.97762495833E+02  0.10407176727E+03  0.00000000000E+00 0. -1.
          1    1    1    2  502    0 -0.36435279847E+02 -0.27956983950E+02 -0.56016816939E+00  0.45928600648E+02  0.00000000000E+00 0. -1.
         22    1    1    2    0    0  0.43116216566E+02  0.72799657950E+02  0.22988687934E+02  0.87677124163E+02  0.00000000000E+00 0. -1.
         22    1    1    2    0    0 -0.15204893370E+02 -0.10190555519E+02  0.99200603323E+02  0.10087515008E+03  0.00000000000E+00 0. -1.
</event>
<event>
 6    1  0.8017648E-006  0.3477706E+02  0.7818608E-02  0.1556254E+00
          2   -1    0    0  502    0  0.00000000000E+00  0.00000000000E+00  0.18347382762E+03  0.18347382762E+03  0.00000000000E+00 0.  1.
          1   -1    0    0  501    0 -0.00000000000E+00 -0.00000000000E+00 -0.92977955532E+02  0.92977955532E+02  0.00000000000E+00 0.  1.
          2    1    1    2  501    0 -0.17208152565E+02 -0.42733779666E+02  0.15190819774E+02  0.48508323458E+02  0.00000000000E+00 0.  1.
          1    1    1    2  502    0  0.15893464471E+02  0.53150986824E+02 -0.27965945523E+02  0.62126674805E+02  0.00000000000E+00 0.  1.
         22    1    1    2    0    0  0.24037914893E+02 -0.71555494056E+01  0.12895366254E+03  0.13136997496E+03  0.00000000000E+00 0.  1.
         22    1    1    2    0    0 -0.22723226800E+02 -0.32616577526E+01 -0.25682664706E+02  0.34446809923E+02  0.00000000000E+00 0. -1.
</event>
<event>
 6    1  0.8017648E-006  0.1044047E+03  0.7818608E-02  0.1356465E+00
          2   -1    0    0  502    0  0.00000000000E+00  0.00000000000E+00  0.23835974175E+03  0.23835974175E+03  0.00000000000E+00 0.  1.
          1   -1    0    0  501    0 -0.00000000000E+00 -0.00000000000E+00 -0.34639003814E+03  0.34639003814E+03  0.00000000000E+00 0. -1.
          2    1    1    2  501    0 -0.10982451198E+02  0.56100924301E+02  0.16226165650E+03  0.17203712713E+03  0.00000000000E+00 0.  1.
          1    1    1    2  502    0  0.14655548470E+02 -0.13438295900E+03 -0.21265591696E+03  0.25198433242E+03  0.00000000000E+00 0. -1.
         22    1    1    2    0    0  0.22380851216E+02  0.14453767273E+01  0.32479505852E+02  0.39470367561E+02  0.00000000000E+00 0. -1.
         22    1    1    2    0    0 -0.26053948488E+02  0.76836657971E+02 -0.90115541786E+02  0.12125795278E+03  0.00000000000E+00 0. -1.
</event>
<event>
 6    1  0.8017648E-006  0.6124504E+02  0.7818608E-02  0.1399485E+00
          2   -1    0    0  502    0  0.00000000000E+00  0.00000000000E+00  0.33689802473E+03  0.33689802473E+03  0.00000000000E+00 0.  1.
          1   -1    0    0  501    0 -0.00000000000E+00 -0.00000000000E+00 -0.10279827574E+03  0.10279827574E+03  0.00000000000E+00 0. -1.
          2    1    1    2  501    0  0.23522578006E+02  0.10556210582E+03  0.15433171398E+03  0.18845409999E+03  0.00000000000E+00 0.  1.
          1    1    1    2  502    0 -0.28629266854E+02 -0.73624719801E+02 -0.28655162152E+02  0.84031854700E+02  0.00000000000E+00 0. -1.
         22    1    1    2    0    0  0.42178857765E+02  0.14051914194E+00 -0.61165272190E+01  0.42620273266E+02  0.00000000000E+00 0. -1.
         22    1    1    2    0    0 -0.37072168918E+02 -0.32077905162E+02  0.11453972438E+03  0.12459007251E+03  0.00000000000E+00 0.  1.
</event>
<event>
 6    1  0.8017648E-006  0.7634914E+02  0.7818608E-02  0.1451334E+00
          2   -1    0    0  502    0  0.00000000000E+00  0.00000000000E+00  0.11847452042E+03  0.11847452042E+03  0.00000000000E+00 0. -1.
          1   -1    0    0  501    0 -0.00000000000E+00 -0.00000000000E+00 -0.11533637133E+03  0.11533637133E+03  0.00000000000E+00 0. -1.
          2    1    1    2  501    0 -0.62132255594E+01 -0.33653445016E+02  0.22871933647E+02  0.41161679777E+02  0.00000000000E+00 0. -1.
          1    1    1    2  502    0  0.36178438416E+02  0.35086993106E+02 -0.32133275445E+02  0.59770593792E+02  0.00000000000E+00 0. -1.
         22    1    1    2    0    0 -0.39698611897E+02 -0.98286867507E+01  0.66062827190E+02  0.77697361642E+02  0.00000000000E+00 0. -1.
         22    1    1    2    0    0  0.97333990407E+01  0.83951386612E+01 -0.53663336305E+02  0.55181256541E+02  0.00000000000E+00 0. -1.
</event>
<event>
 6    1  0.8017648E-006  0.1774439E+03  0.7818608E-02  0.1275875E+00
          2   -1    0    0  502    0  0.00000000000E+00  0.00000000000E+00  0.65786945317E+03  0.65786945317E+03  0.00000000000E+00 0. -1.
          1   -1    0    0  501    0 -0.00000000000E+00 -0.00000000000E+00 -0.49176763115E+02  0.49176763115E+02  0.00000000000E+00 0. -1.
          2    1    1    2  501    0 -0.44945101745E+02 -0.25553346452E+02  0.42536406344E+02  0.66950590367E+02  0.00000000000E+00 0. -1.
          1    1    1    2  502    0  0.12779919239E+03  0.49125092507E+02  0.18109680312E+03  0.22702854531E+03  0.00000000000E+00 0. -1.
         22    1    1    2    0    0 -0.10100878639E+03 -0.30618828641E+02  0.37782752865E+03  0.39229316716E+03  0.00000000000E+00 0. -1.
         22    1    1    2    0    0  0.18154695752E+02  0.70470825861E+01  0.72319519464E+01  0.20773913444E+02  0.00000000000E+00 0. -1.
</event>
<event>
 6    1  0.8017648E-006  0.3485114E+02  0.7818608E-02  0.1584870E+00
          2   -1    0    0  502    0  0.00000000000E+00  0.00000000000E+00  0.16854646900E+03  0.16854646900E+03  0.00000000000E+00 0.  1.
          1   -1    0    0  501    0 -0.00000000000E+00 -0.00000000000E+00 -0.90340636866E+02  0.90340636866E+02  0.00000000000E+00 0.  1.
          2    1    1    2  501    0  0.38886173657E+02  0.13612126990E+02  0.16665126257E+02  0.44442670217E+02  0.00000000000E+00 0.  1.
          1    1    1    2  502    0 -0.31303867534E+02  0.34319118149E+02  0.67388548041E+02  0.81847116017E+02  0.00000000000E+00 0.  1.
         22    1    1    2    0    0  0.28105498776E+01 -0.20440155739E+02 -0.64106619940E+02  0.67345065724E+02  0.00000000000E+00 0.  1.
         22    1    1    2    0    0 -0.10392856000E+02 -0.27491089401E+02  0.58258777778E+02  0.65252253911E+02  0.00000000000E+00 0. -1.
</event>
<event>
 6    1  0.8017648E-006  0.3889358E+02  0.7818608E-02  0.1526256E+00
          2   -1    0    0  502    0  0.00000000000E+00  0.00000000000E+00  0.22306601683E+03  0.22306601683E+03  0.00000000000E+00 0.  1.
          1   -1    0    0  501    0 -0.00000000000E+00 -0.00000000000E+00 -0.42856058993E+03  0.42856058993E+03  0.00000000000E+00 0.  1.
          2    1    1    2  501    0  0.79648645101E+02 -0.25423950820E+01  0.13912026059E+03  0.16032721960E+03  0.00000000000E+00 0.  1.
          1    1    1    2  502    0 -0.82648326321E+02 -0.23492090251E+02 -0.35015776021E+03  0.36054553275E+03  0.00000000000E+00 0.  1.
         22    1    1    2    0    0 -0.73584905104E+01  0.12804162622E+02 -0.60670342574E+02  0.62441848395E+02  0.00000000000E+00 0. -1.
         22    1    1    2    0    0  0.10358171731E+02  0.13230322711E+02  0.66213269100E+02  0.68312006013E+02  0.00000000000E+00 0. -1.
</event>
<event>
 6    1  0.8017648E-006  0.7758791E+02  0.7818608E-02  0.1379563E+00
          2   -1    0    0  502    0  0.00000000000E+00  0.00000000000E+00  0.11408268089E+03  0.11408268089E+03  0.00000000000E+00 0.  1.
          1   -1    0    0  501    0 -0.00000000000E+00 -0.00000000000E+00 -0.16176272428E+03  0.16176272428E+03  0.00000000000E+00 0. -1.
          2    1    1    2  501    0 -0.25149597575E+02 -0.33999181745E+02  0.27981414409E+02  0.50709034401E+02  0.00000000000E+00 0.  1.
          1    1    1    2  502    0  0.92382119442E+01  0.66708222330E+02 -0.71178598475E+02  0.97988388941E+02  0.00000000000E+00 0. -1.
         22    1    1    2    0    0  0.37005305468E+02 -0.41478342848E+01 -0.54379959171E+02  0.65907337387E+02  0.00000000000E+00 0. -1.
         22    1    1    2    0    0 -0.21093919838E+02 -0.28561206300E+02  0.49897099841E+02  0.61240644445E+02  0.00000000000E+00 0.  1.
</event>
<event>
 6    1  0.8017648E-006  0.1147413E+03  0.7818608E-02  0.1370517E+00
          2   -1    0    0  502    0  0.00000000000E+00  0.00000000000E+00  0.36064049512E+03  0.36064049512E+03  0.00000000000E+00 0.  1.
          1   -1    0    0  501    0 -0.00000000000E+00 -0.00000000000E+00 -0.55040268291E+02  0.55040268291E+02  0.00000000000E+00 0. -1.
          2    1    1    2  501    0 -0.45799962583E+00  0.38936667391E+02  0.42958581476E+02  0.57980285905E+02  0.00000000000E+00 0.  1.
          1    1    1    2  502    0 -0.58906132288E+02 -0.55477150395E+02  0.32288268696E+02  0.87121632976E+02  0.00000000000E+00 0. -1.
         22    1    1    2    0    0  0.53615499111E+01 -0.12235229392E+02 -0.13602987362E+02  0.19065369677E+02  0.00000000000E+00 0.  1.
         22    1    1    2    0    0  0.54002582002E+02  0.28775712395E+02  0.24395636402E+03  0.25151347485E+03  0.00000000000E+00 0.  1.
</event>
<event>
 6    1  0.8017648E-006  0.6824933E+02  0.7818608E-02  0.1470743E+00
          2   -1    0    0  502    0  0.00000000000E+00  0.00000000000E+00  0.26011394122E+03  0.26011394122E+03  0.00000000000E+00 0. -1.
          1   -1    0    0  501    0 -0.00000000000E+00 -0.00000000000E+00 -0.45169628272E+03  0.45169628272E+03  0.00000000000E+00 0.  1.
          2    1    1    2  501    0  0.67936685776E+01  0.46062325513E+02  0.15145412738E+03  0.15844950130E+03  0.00000000000E+00 0. -1.
          1    1    1    2  502    0  0.92399440306E+01 -0.74712161467E+02 -0.40359985392E+03  0.41056074547E+03  0.00000000000E+00 0.  1.
         22    1    1    2    0    0 -0.10192521065E+02  0.89721563250E+01 -0.38920148599E+02  0.41220929657E+02  0.00000000000E+00 0.  1.
         22    1    1    2    0    0 -0.58410915428E+01  0.19677679629E+02  0.99483533643E+02  0.10157904751E+03  0.00000000000E+00 0.  1.
</event>
<event>
 6    1  0.8017648E-006  0.5154807E+02  0.7818608E-02  0.1457699E+00
          2   -1    0    0  502    0  0.00000000000E+00  0.00000000000E+00  0.38169174299E+02  0.38169174299E+02  0.00000000000E+00 0. -1.
          1   -1    0    0  501    0 -0.00000000000E+00 -0.00000000000E+00 -0.94730940647E+03  0.94730940647E+03  0.00000000000E+00 0. -1.
          2    1    1    2  501    0 -0.11839669104E+02  0.16968277205E+02  0.21630223646E+02  0.29932704034E+02  0.00000000000E+00 0. -1.
          1    1    1    2  502    0  0.28475827703E+02  0.36919044837E+02 -0.51554888630E+03  0.51765291731E+03  0.00000000000E+00 0. -1.
         22    1    1    2    0    0 -0.26893739365E+01  0.14478997552E+02  0.20137333196E+01  0.14863688108E+02  0.00000000000E+00 0. -1.
         22    1    1    2    0    0 -0.13946784662E+02 -0.68366319595E+02 -0.41723530284E+03  0.42302927132E+03  0.00000000000E+00 0. -1.
</event>
<event>
 6    1  0.8017648E-006  0.1395017E+03  0.7818608E-02  0.1291909E+00
          2   -1    0    0  502    0  0.00000000000E+00  0.00000000000E+00  0.54317016970E+03  0.54317016970E+03  0.00000000000E+00 0. -1.
          1   -1    0    0  501    0 -0.00000000000E+00 -0.00000000000E+00 -0.12299915171E+03  0.12299915171E+03  0.00000000000E+00 0. -1.
          2    1    1    2  501    0  0.11851052424E+03  0.67510378272E+02  0.36334069586E+03  0.38809645296E+03  0.00000000000E+00 0. -1.
          1    1    1    2  502    0 -0.10485699296E+03 -0.52342616244E+02  0.92763019489E+02  0.14946476585E+03  0.00000000000E+00 0. -1.
         22    1    1    2    0    0  0.11907840329E+02 -0.25302644917E+00  0.42837214797E+02  0.44462204795E+02  0.00000000000E+00 0. -1.
         22    1    1    2    0    0 -0.25561371615E+02 -0.14914735579E+02 -0.78769912157E+02  0.84145897805E+02  0.00000000000E+00 0. -1.
</event>
<event>
 6    1  0.8017648E-006  0.6879054E+02  0.7818608E-02  0.1365264E+00
          2   -1    0    0  502    0  0.00000000000E+00  0.00000000000E+00  0.19579181070E+03  0.19579181070E+03  0.00000000000E+00 0. -1.
          1   -1    0    0  501    0 -0.00000000000E+00 -0.00000000000E+00 -0.91588584642E+02  0.91588584642E+02  0.00000000000E+00 0. -1.
          2    1    1    2  501    0  0.16959782954E+02  0.41999043794E+02  0.11199220940E+03  0.12080483800E+03  0.00000000000E+00 0. -1.
          1    1    1    2  502    0 -0.89823465307E+01 -0.28471721024E+02 -0.18733641729E+02  0.35245861881E+02  0.00000000000E+00 0. -1.
         22    1    1    2    0    0 -0.18328834510E+01  0.22129506477E+02  0.63643080724E+02  0.67405609876E+02  0.00000000000E+00 0.  1.
         22    1    1    2    0    0 -0.61445529725E+01 -0.35656829247E+02 -0.52698422329E+02  0.63924085595E+02  0.00000000000E+00 0. -1.
</event>
<event>
 6    1  0.8017648E-006  0.1671128E+03  0.7818608E-02  0.1297852E+00
          2   -1    0    0  502    0  0.00000000000E+00  0.00000000000E+00  0.63425575019E+03  0.63425575019E+03  0.00000000000E+00 0. -1.
          1   -1    0    0  501    0 -0.00000000000E+00 -0.00000000000E+00 -0.57152566530E+02  0.57152566530E+02  0.00000000000E+00 0. -1.
          2    1    1    2  501    0  0.15500627092E+01  0.22566112224E+02  0.18231026443E+02  0.29051720095E+02  0.00000000000E+00 0. -1.
          1    1    1    2  502    0 -0.12054936190E+03 -0.10241203964E+03  0.31976334334E+03  0.35674776841E+03  0.00000000000E+00 0. -1.
         22    1    1    2    0    0  0.10756825806E+03  0.90187857439E+02  0.25001427689E+03  0.28672620812E+03  0.00000000000E+00 0. -1.
         22    1    1    2    0    0  0.11431041132E+02 -0.10341930022E+02 -0.10905463022E+02  0.18882620095E+02  0.00000000000E+00 0. -1.
</event>
<event>
 6    1  0.8017648E-006  0.5797480E+02  0.7818608E-02  0.1505716E+00
          2   -1    0    0  502    0  0.00000000000E+00  0.00000000000E+00  0.38185346738E+03  0.38185346738E+03  0.00000000000E+00 0.  1.
          1   -1    0    0  501    0 -0.00000000000E+00 -0.00000000000E+00 -0.59441345302E+02  0.59441345302E+02  0.00000000000E+00 0. -1.
          2    1    1    2  501    0  0.64004220557E+01  0.26944821909E+02  0.24963460600E+03  0.25116613097E+03  0.00000000000E+00 0.  1.
          1    1    1    2  502    0 -0.29346386476E+02  0.89030976953E+00 -0.17890901733E+02  0.34381498157E+02  0.00000000000E+00 0. -1.
         22    1    1    2    0    0 -0.13070848147E+00 -0.13591000220E+02 -0.29540493639E+02  0.32517274426E+02  0.00000000000E+00 0.  1.
         22    1    1    2    0    0  0.23076672902E+02 -0.14244131459E+02  0.12020891144E+03  0.12322990913E+03  0.00000000000E+00 0.  1.
</event>
<event>
 6    1  0.8017648E-006  0.2223057E+02  0.7818608E-02  0.1734391E+00
          2   -1    0    0  502    0  0.00000000000E+00  0.00000000000E+00  0.84145114983E+02  0.84145114983E+02  0.00000000000E+00 0. -1.
          1   -1    0    0  501    0 -0.00000000000E+00 -0.00000000000E+00 -0.52661503754E+03  0.52661503754E+03  0.00000000000E+00 0. -1.
          2    1    1    2  501    0 -0.13180881867E+02 -0.15706956506E+02  0.26864393932E+02  0.33795558744E+02  0.00000000000E+00 0. -1.
          1    1    1    2  502    0  0.37052769571E+02  0.46116936753E+01 -0.44594086654E+03  0.44750132056E+03  0.00000000000E+00 0. -1.
         22    1    1    2    0    0 -0.11675693216E+02  0.11580835351E+02 -0.74821090436E+02  0.76607004467E+02  0.00000000000E+00 0.  1.
         22    1    1    2    0    0 -0.12196194488E+02 -0.48557251993E+00  0.51427640486E+02  0.52856268754E+02  0.00000000000E+00 0. -1.
</event>
<event>
 6    1  0.8017648E-006  0.1829395E+03  0.7818608E-02  0.1204158E+00
          2   -1    0    0  502    0  0.00000000000E+00  0.00000000000E+00  0.15615363117E+04  0.15615363117E+04  0.00000000000E+00 0. -1.
          1   -1    0    0  501    0 -0.00000000000E+00 -0.00000000000E+00 -0.26396688143E+03  0.26396688143E+03  0.00000000000E+00 0. -1.
          2    1    1    2  501    0  0.49927318557E+03 -0.22950628058E+03  0.66671652263E+03  0.86397787483E+03  0.00000000000E+00 0. -1.
          1    1    1    2  502    0 -0.54712763215E+03  0.16646347431E+03  0.44353707366E+03  0.72372914122E+03  0.00000000000E+00 0. -1.
         22    1    1    2    0    0  0.45210710501E+02  0.38316551721E+02  0.20090125173E+03  0.20945997094E+03  0.00000000000E+00 0. -1.
         22    1    1    2    0    0  0.26437360760E+01  0.24726254558E+02 -0.13585417725E+02  0.28336206162E+02  0.00000000000E+00 0.  1.
</event>
<event>
 6    1  0.8017648E-006  0.9805355E+02  0.7818608E-02  0.1320385E+00
          2   -1    0    0  502    0  0.00000000000E+00  0.00000000000E+00  0.44849208780E+03  0.44849208780E+03  0.00000000000E+00 0.  1.
          1   -1    0    0  501    0 -0.00000000000E+00 -0.00000000000E+00 -0.51201042047E+02  0.51201042047E+02  0.00000000000E+00 0.  1.
          2    1    1    2  501    0  0.21781333198E+02  0.70018330631E+02  0.23985877102E+03  0.25081711093E+03  0.00000000000E+00 0.  1.
          1    1    1    2  502    0 -0.12783510907E+02 -0.66219683075E+02  0.76342896255E+02  0.10186610028E+03  0.00000000000E+00 0.  1.
         22    1    1    2    0    0  0.30854280568E+02  0.27489934063E+02  0.86688520795E+02  0.96034278993E+02  0.00000000000E+00 0.  1.
         22    1    1    2    0    0 -0.39852102860E+02 -0.31288581620E+02 -0.55991423192E+01  0.50975639641E+02  0.00000000000E+00 0.  1.
</event>
<event>
 6    1  0.8017648E-006  0.1546089E+03  0.7818608E-02  0.1247584E+00
          2   -1    0    0  502    0  0.00000000000E+00  0.00000000000E+00  0.29052065662E+03  0.29052065662E+03  0.00000000000E+00 0.  1.
          1   -1    0    0  501    0 -0.00000000000E+00 -0.00000000000E+00 -0.50174153380E+03  0.50174153380E+03  0.00000000000E+00 0.  1.
          2    1    1    2  501    0 -0.13101013990E+03  0.64608544311E+02  0.22928541773E+03  0.27186342810E+03  0.00000000000E+00 0.  1.
          1    1    1    2  502    0  0.99707246117E+02 -0.95098743676E+02 -0.25362397362E+03  0.28863545516E+03  0.00000000000E+00 0.  1.
         22    1    1    2    0    0 -0.10394655310E+02  0.67337301796E+00  0.17874025177E+02  0.20687751600E+02  0.00000000000E+00 0.  1.
         22    1    1    2    0    0  0.41697549097E+02  0.29816826348E+02 -0.20475634647E+03  0.21107555556E+03  0.00000000000E+00 0.  1.
</event>
<event>
 6    1  0.8017648E-006  0.2962673E+02  0.7818608E-02  0.1618612E+00
          2   -1    0    0  502    0  0.00000000000E+00  0.00000000000E+00  0.25184887181E+03  0.25184887181E+03  0.00000000000E+00 0.  1.
          1   -1    0    0  501    0 -0.00000000000E+00 -0.00000000000E+00 -0.94140975598E+02  0.94140975598E+02  0.00000000000E+00 0. -1.
          2    1    1    2  501    0 -0.26535545681E+02  0.32845026963E+02  0.53929870984E+02  0.68493517687E+02  0.00000000000E+00 0.  1.
          1    1    1    2  502    0  0.51287274832E+02 -0.11259154192E+02  0.13334303388E+03  0.14330916858E+03  0.00000000000E+00 0. -1.
         22    1    1    2    0    0 -0.17317362288E+02 -0.18444126865E+01  0.49438309160E+02  0.52416021476E+02  0.00000000000E+00 0.  1.
         22    1    1    2    0    0 -0.74343668636E+01 -0.19741460084E+02 -0.79003317816E+02  0.81771139669E+02  0.00000000000E+00 0.  1.
</event>
<event>
 6    1  0.8017648E-006  0.3813869E+02  0.7818608E-02  0.1568625E+00
          2   -1    0    0  502    0  0.00000000000E+00  0.00000000000E+00  0.28409801263E+03  0.28409801263E+03  0.00000000000E+00 0.  1.
          1   -1    0    0  501    0 -0.00000000000E+00 -0.00000000000E+00 -0.14449639350E+03  0.14449639350E+03  0.00000000000E+00 0.  1.
          2    1    1    2  501    0 -0.46594848262E+02 -0.88078429285E+01  0.34288316229E+02  0.58517917012E+02  0.00000000000E+00 0.  1.
          1    1    1    2  502    0  0.18290487496E+02 -0.44135212034E+02 -0.10617407953E+03  0.11642763434E+03  0.00000000000E+00 0.  1.
         22    1    1    2    0    0  0.17910181688E+02  0.34723497953E+02  0.22521586235E+03  0.22857970288E+03  0.00000000000E+00 0.  1.
         22    1    1    2    0    0  0.10394179078E+02  0.18219557009E+02 -0.13728479907E+02  0.25069151897E+02  0.00000000000E+00 0.  1.
</event>
<event>
 6    1  0.8017648E-006  0.1687943E+03  0.7818608E-02  0.1233239E+00
          2   -1    0    0  502    0  0.00000000000E+00  0.00000000000E+00  0.20032947084E+03  0.20032947084E+03  0.00000000000E+00 0.  1.
          1   -1    0    0  501    0 -0.00000000000E+00 -0.00000000000E+00 -0.23367923024E+03  0.23367923024E+03  0.00000000000E+00 0. -1.
          2    1    1    2  501    0 -0.11281948532E+03  0.44326102607E+02  0.15794724404E+02  0.12223957198E+03  0.00000000000E+00 0.  1.
          1    1    1    2  502    0  0.14404430205E+03 -0.78661445328E+02  0.17772776315E+02  0.16508257180E+03  0.00000000000E+00 0. -1.
         22    1    1    2    0    0  0.11584152191E+02  0.51418595665E+02 -0.82613791679E+02  0.97995424065E+02  0.00000000000E+00 0. -1.
         22    1    1    2    0    0 -0.42808968928E+02 -0.17083252945E+02  0.15696531568E+02  0.48691133229E+02  0.00000000000E+00 0. -1.
</event>
<event>
 6    1  0.8017648E-006  0.7208073E+02  0.7818608E-02  0.1383171E+00
          2   -1    0    0  502    0  0.00000000000E+00  0.00000000000E+00  0.32294842296E+03  0.32294842296E+03  0.00000000000E+00 0. -1.
          1   -1    0    0  501    0 -0.00000000000E+00 -0.00000000000E+00 -0.15204447971E+03  0.15204447971E+03  0.00000000000E+00 0. -1.
          2    1    1    2  501    0 -0.22533731946E+02 -0.83817104373E+02 -0.24721617955E+02  0.90245412378E+02  0.00000000000E+00 0. -1.
          1    1    1    2  502    0  0.14558925075E+02  0.50545686799E+02  0.24079467702E+03  0.24647293002E+03  0.00000000000E+00 0. -1.
         22    1    1    2    0    0  0.29776748019E+02 -0.32111041645E+02 -0.53178358997E+02  0.68889125293E+02  0.00000000000E+00 0.  1.
         22    1    1    2    0    0 -0.21801941148E+02  0.65382459219E+02  0.80092431843E+01  0.69385434982E+02  0.00000000000E+00 0. -1.
</event>
<event>
 6    1  0.8017648E-006  0.4236072E+02  0.7818608E-02  0.1553553E+00
          2   -1    0    0  502    0  0.00000000000E+00  0.00000000000E+00  0.16856843639E+03  0.16856843639E+03  0.00000000000E+00 0.  1.
          1   -1    0    0  501    0 -0.00000000000E+00 -0.00000000000E+00 -0.49483875668E+02  0.49483875668E+02  0.00000000000E+00 0.  1.
          2    1    1    2  501    0 -0.17174653705E+02  0.10310335049E+02  0.42508044033E+02  0.46991547604E+02  0.00000000000E+00 0.  1.
          1    1    1    2  502    0  0.19686224585E+02 -0.19729841532E+02  0.16561854355E+02  0.32420812836E+02  0.00000000000E+00 0.  1.
         22    1    1    2    0    0  0.14294080688E+02 -0.11786042004E+02 -0.35133741291E+02  0.39719155404E+02  0.00000000000E+00 0.  1.
         22    1    1    2    0    0 -0.16805651569E+02  0.21205548487E+02  0.95148403623E+02  0.98920796213E+02  0.00000000000E+00 0.  1.
</event>
<event>
 6    1  0.8017648E-006  0.5789627E+02  0.7818608E-02  0.1457515E+00
          2   -1    0    0  502    0  0.00000000000E+00  0.00000000000E+00  0.12279225403E+03  0.12279225403E+03  0.00000000000E+00 0. -1.
          1   -1    0    0  501    0 -0.00000000000E+00 -0.00000000000E+00 -0.16636579482E+03  0.16636579482E+03  0.00000000000E+00 0. -1.
          2    1    1    2  501    0  0.51595895290E+01 -0.35835128338E+02  0.67586676135E+02  0.76672919457E+02  0.00000000000E+00 0. -1.
          1    1    1    2  502    0  0.10235384852E+02  0.55400728915E+02 -0.49692673727E+02  0.75122338152E+02  0.00000000000E+00 0. -1.
         22    1    1    2    0    0  0.11523694702E+02 -0.18896632986E+02  0.32663522548E+02  0.39456101975E+02  0.00000000000E+00 0. -1.
         22    1    1    2    0    0 -0.26918669083E+02 -0.66896759147E+00 -0.94131065748E+02  0.97906689259E+02  0.00000000000E+00 0. -1.
</event>
<event>
 6    1  0.8017648E-006  0.2856950E+02  0.7818608E-02  0.1647810E+00
          2   -1    0    0  502    0  0.00000000000E+00  0.00000000000E+00  0.16062089467E+03  0.16062089467E+03  0.00000000000E+00 0. -1.
          1   -1    0    0  501    0 -0.00000000000E+00 -0.00000000000E+00 -0.11639659396E+03  0.11639659396E+03  0.00000000000E+00 0. -1.
          2    1    1    2  501    0  0.26741039985E+02 -0.99162317811E+01  0.10628783636E+03  0.11004780339E+03  0.00000000000E+00 0. -1.
          1    1    1    2  502    0 -0.21295871722E+02  0.21260532595E+02 -0.18728359561E+02  0.35443981865E+02  0.00000000000E+00 0. -1.
         22    1    1    2    0    0  0.46308541685E+01 -0.21084867773E+02  0.40838644166E+02  0.46193195566E+02  0.00000000000E+00 0. -1.
         22    1    1    2    0    0 -0.10076022431E+02  0.97405669594E+01 -0.84173820256E+02  0.85332507810E+02  0.00000000000E+00 0. -1.
</event>
<event>
 6    1  0.8017648E-006  0.7049033E+02  0.7818608E-02  0.1397693E+00
          2   -1    0    0  502    0  0.00000000000E+00  0.00000000000E+00  0.21290195185E+03  0.21290195185E+03  0.00000000000E+00 0.  1.
          1   -1    0    0  501    0 -0.00000000000E+00 -0.00000000000E+00 -0.36500240000E+03  0.36500240000E+03  0.00000000000E+00 0. -1.
          2    1    1    2  501    0 -0.16763623411E+02  0.72937494085E+02  0.12948052447E+03  0.14955301178E+03  0.00000000000E+00 0.  1.
          1    1    1    2  502    0 -0.65578974500E+02 -0.91579948603E+02 -0.24750172404E+03  0.27192754970E+03  0.00000000000E+00 0. -1.
         22    1    1    2    0    0  0.26525632052E+02  0.14489454171E+02  0.48211276247E+02  0.56902377765E+02  0.00000000000E+00 0. -1.
         22    1    1    2    0    0  0.55816965859E+02  0.41530003462E+01 -0.82290524837E+02  0.99521412608E+02  0.00000000000E+00 0. -1.
</event>
<event>
 6    1  0.8017648E-006  0.4801992E+02  0.7818608E-02  0.1457125E+00
          2   -1    0    0  502    0  0.00000000000E+00  0.00000000000E+00  0.13708887974E+03  0.13708887974E+03  0.00000000000E+00 0.  1.
          1   -1    0    0  501    0 -0.00000000000E+00 -0.00000000000E+00 -0.16857735253E+03  0.16857735253E+03  0.00000000000E+00 0.  1.
          2    1    1    2  501    0  0.16517881109E+01  0.28703507402E+02  0.63058052298E+02  0.69303230089E+02  0.00000000000E+00 0.  1.
          1    1    1    2  502    0  0.80345690754E+01 -0.35630787375E+02 -0.10735572126E+03  0.11339911021E+03  0.00000000000E+00 0.  1.
         22    1    1    2    0    0 -0.54871950355E+01  0.16267736399E+02  0.66307591748E+02  0.68494125882E+02  0.00000000000E+00 0.  1.
         22    1    1    2    0    0 -0.41991621507E+01 -0.93404564248E+01 -0.53498395573E+02  0.54469766090E+02  0.00000000000E+00 0.  1.
</event>
<event>
 6    1  0.8017648E-006  0.8479065E+02  0.7818608E-02  0.1413469E+00
          2   -1    0    0  502    0  0.00000000000E+00  0.00000000000E+00  0.16076106395E+03  0.16076106395E+03  0.00000000000E+00 0.  1.
          1   -1    0    0  501    0 -0.00000000000E+00 -0.00000000000E+00 -0.25996922989E+03  0.25996922989E+03  0.00000000000E+00 0. -1.
          2    1    1    2  501    0  0.69320570366E+02 -0.89904697770E+01  0.65803099589E+02  0.96001135088E+02  0.00000000000E+00 0.  1.
          1    1    1    2  502    0 -0.11663792032E+03 -0.46050155163E+02 -0.12481911329E+03  0.17693171646E+03  0.00000000000E+00 0. -1.
         22    1    1    2    0    0  0.12906816706E+02 -0.37368381226E+01 -0.71560997834E+02  0.72811580725E+02  0.00000000000E+00 0.  1.
         22    1    1    2    0    0  0.34410533246E+02  0.58777463063E+02  0.31368845588E+02  0.74985861573E+02  0.00000000000E+00 0. -1.
</event>
<event>
 6    1  0.8017648E-006  0.2616840E+03  0.7818608E-02  0.1187149E+00
          2   -1    0    0  502    0  0.00000000000E+00  0.00000000000E+00  0.10198616224E+04  0.10198616224E+04  0.00000000000E+00 0.  1.
          1   -1    0    0  501    0 -0.00000000000E+00 -0.00000000000E+00 -0.27095709360E+03  0.27095709360E+03  0.00000000000E+00 0.  1.
          2    1    1    2  501    0  0.22810257477E+03 -0.88963965035E+02  0.82072185958E+03  0.85646350914E+03  0.00000000000E+00 0.  1.
          1    1    1    2  502    0 -0.27871262924E+03  0.80568316883E+02 -0.37051103953E+02  0.29248037145E+03  0.00000000000E+00 0.  1.
         22    1    1    2    0    0  0.13445373852E+02  0.12328134780E+01  0.48535159065E+02  0.50378165633E+02  0.00000000000E+00 0. -1.
         22    1    1    2    0    0  0.37164680612E+02  0.71628346745E+01 -0.83301385899E+02  0.91496669766E+02  0.00000000000E+00 0.  1.
</event>
<event>
 6    1  0.8017648E-006  0.6189432E+02  0.7818608E-02  0.1433066E+00
          2   -1    0    0  502    0  0.00000000000E+00  0.00000000000E+00  0.41440915243E+03  0.41440915243E+03  0.00000000000E+00 0.  1.
          1   -1    0    0  501    0 -0.00000000000E+00 -0.00000000000E+00 -0.42693465632E+02  0.42693465632E+02  0.00000000000E+00 0.  1.
          2    1    1    2  501    0  0.39735597025E+02  0.71919168940E-01  0.24969880940E+03  0.25284069740E+03  0.00000000000E+00 0.  1.
          1    1    1    2  502    0 -0.34068320888E+02  0.13766137692E+01  0.37890187467E+02  0.50972657964E+02  0.00000000000E+00 0.  1.
         22    1    1    2    0    0  0.18099361619E+02 -0.22385372515E+02  0.10917614880E+03  0.11290758726E+03  0.00000000000E+00 0.  1.
         22    1    1    2    0    0 -0.23766637756E+02  0.20936839577E+02 -0.25049458872E+02  0.40381675442E+02  0.00000000000E+00 0.  1.
</event>
<event>
 6    1  0.8017648E-006  0.3569293E+02  0.7818608E-02  0.1569311E+00
          2   -1    0    0  502    0  0.00000000000E+00  0.00000000000E+00  0.10366640907E+03  0.10366640907E+03  0.00000000000E+00 0.  1.
          1   -1    0    0  501    0 -0.00000000000E+00 -0.00000000000E+00 -0.10904869980E+03  0.10904869980E+03  0.00000000000E+00 0. -1.
          2    1    1    2  501    0  0.35919638771E+02 -0.42304861219E+01  0.87171084848E+01  0.37203567606E+02  0.00000000000E+00 0.  1.
          1    1    1    2  502    0 -0.46100872281E+02  0.21292518305E+01 -0.26607753781E+02  0.53270974270E+02  0.00000000000E+00 0. -1.
         22    1    1    2    0    0 -0.15882105583E+02 -0.13061901857E+02 -0.49328853955E+02  0.53443338129E+02  0.00000000000E+00 0. -1.
         22    1    1    2    0    0  0.26063339093E+02  0.15163136148E+02  0.61837208522E+02  0.68797228871E+02  0.00000000000E+00 0.  1.
</event>
<event>
 6    1  0.8017648E-006  0.2412113E+03  0.7818608E-02  0.1194996E+00
          2   -1    0    0  502    0  0.00000000000E+00  0.00000000000E+00  0.11661125141E+04  0.11661125141E+04  0.00000000000E+00 0. -1.
          1   -1    0    0  501    0 -0.00000000000E+00 -0.00000000000E+00 -0.20824915292E+03  0.20824915292E+03  0.00000000000E+00 0.  1.
          2    1    1    2  501    0  0.21864463363E+03 -0.26366966505E+02  0.95366944999E+03  0.97876764994E+03  0.00000000000E+00 0. -1.
          1    1    1    2  502    0 -0.22667523423E+03  0.56058577101E+02 -0.75857028135E+02  0.24551683159E+03  0.00000000000E+00 0.  1.
         22    1    1    2    0    0 -0.11408166247E+02 -0.39013384272E+02 -0.21693515512E+02  0.46073843173E+02  0.00000000000E+00 0. -1.
         22    1    1    2    0    0  0.19438766838E+02  0.93217736757E+01  0.10174445483E+03  0.10400334230E+03  0.00000000000E+00 0.  1.
</event>
<event>
 6    1  0.8017648E-006  0.1041218E+03  0.7818608E-02  0.1300243E+00
          2   -1    0    0  502    0  0.00000000000E+00  0.00000000000E+00  0.44998896551E+03  0.44998896551E+03  0.00000000000E+00 0. -1.
          1   -1    0    0  501    0 -0.00000000000E+00 -0.00000000000E+00 -0.15690131555E+03  0.15690131555E+03  0.00000000000E+00 0.  1.
          2    1    1    2  501    0  0.80922614260E+01  0.22893004342E+02  0.28374268810E+03  0.28477971731E+03  0.00000000000E+00 0. -1.
          1    1    1    2  502    0 -0.11154498473E+03 -0.67212073840E+02 -0.51652034576E+02  0.14009881928E+03  0.00000000000E+00 0.  1.
         22    1    1    2    0    0  0.79290870913E+02  0.33209357991E+02 -0.26983401375E+02  0.90099986782E+02  0.00000000000E+00 0.  1.
         22    1    1    2    0    0  0.24161852389E+02  0.11109711506E+02  0.87980397818E+02  0.91911757686E+02  0.00000000000E+00 0.  1.
</event>
<event>
 6    1  0.8017648E-006  0.1636529E+03  0.7818608E-02  0.1321073E+00
          2   -1    0    0  502    0  0.00000000000E+00  0.00000000000E+00  0.84837562390E+03  0.84837562390E+03  0.00000000000E+00 0. -1.
          1   -1    0    0  501    0 -0.00000000000E+00 -0.00000000000E+00 -0.71871371459E+02  0.71871371459E+02  0.00000000000E+00 0. -1.
          2    1    1    2  501    0 -0.34699701603E+02  0.12466439156E+02  0.54515930876E+02  0.65813889991E+02  0.00000000000E+00 0. -1.
          1    1    1    2  502    0  0.15235524757E+03  0.11200916163E+02  0.65362158473E+03  0.67123673768E+03  0.00000000000E+00 0. -1.
         22    1    1    2    0    0  0.10268147077E+02  0.32329298418E+01 -0.21855350814E+02  0.24362738741E+02  0.00000000000E+00 0. -1.
         22    1    1    2    0    0 -0.12792369305E+03 -0.26900285160E+02  0.90222087650E+02  0.15883362895E+03  0.00000000000E+00 0. -1.
</event>
<event>
 6    1  0.8017648E-006  0.5382664E+02  0.7818608E-02  0.1491363E+00
          2   -1    0    0  502    0  0.00000000000E+00  0.00000000000E+00  0.16347823726E+03  0.16347823726E+03  0.00000000000E+00 0.  1.
          1   -1    0    0  501    0 -0.00000000000E+00 -0.00000000000E+00 -0.21774607292E+03  0.21774607292E+03  0.00000000000E+00 0. -1.
          2    1    1    2  501    0 -0.25266697693E+02  0.33753387300E+02  0.11375905268E+03  0.12132114091E+03  0.00000000000E+00 0.  1.
          1    1    1    2  502    0  0.31622405277E+02 -0.25499954506E+02 -0.11940651153E+03  0.12612747200E+03  0.00000000000E+00 0. -1.
         22    1    1    2    0    0 -0.48060791658E+01 -0.20127693915E+02 -0.89146806332E+02  0.91517077851E+02  0.00000000000E+00 0.  1.
         22    1    1    2    0    0 -0.15496284175E+01  0.11874261120E+02  0.40526429530E+02  0.42258619427E+02  0.00000000000E+00 0.  1.
</event>
<event>
 6    1  0.8017648E-006  0.2830727E+02  0.7818608E-02  0.1637710E+00
          2   -1    0    0  502    0  0.00000000000E+00  0.00000000000E+00  0.77478820396E+02  0.77478820396E+02  0.00000000000E+00 0. -1.
          1   -1    0    0  501    0 -0.00000000000E+00 -0.00000000000E+00 -0.15047773773E+03  0.15047773773E+03  0.00000000000E+00 0. -1.
          2    1    1    2  501    0 -0.21068378443E+01  0.29653663654E+02  0.21689033332E+02  0.36799357341E+02  0.00000000000E+00 0. -1.
          1    1    1    2  502    0 -0.69845013043E+01 -0.31037382670E+02 -0.48515540105E+02  0.58016032381E+02  0.00000000000E+00 0. -1.
         22    1    1    2    0    0  0.11613616872E+02  0.17091512231E+02  0.40261866830E+02  0.45254986552E+02  0.00000000000E+00 0. -1.
         22    1    1    2    0    0 -0.25222777229E+01 -0.15707793215E+02 -0.86434277390E+02  0.87886181852E+02  0.00000000000E+00 0. -1.
</event>
<event>
 6    1  0.9640400E-006  0.1761944E+03  0.7818608E-02  0.1171559E+00
          2   -1    0    0  502    0  0.00000000000E+00  0.00000000000E+00  0.67240339878E+03  0.67240339878E+03  0.00000000000E+00 0.  1.
          1   -1    0    0  501    0 -0.00000000000E+00 -0.00000000000E+00 -0.59401865055E+03  0.59401865055E+03  0.00000000000E+00 0. -1.
          2    1    1    2  501    0  0.10593568684E+03  0.12311503167E+03  0.60232856693E+03  0.62384243468E+03  0.00000000000E+00 0.  1.
          1    1    1    2  502    0 -0.10242243268E+03 -0.11988850644E+03 -0.48297167169E+03  0.50806027629E+03  0.00000000000E+00 0. -1.
         22    1    1    2    0    0 -0.38380161962E+01  0.13141623993E+02  0.44982361068E+02  0.47019628420E+02  0.00000000000E+00 0. -1.
         22    1    1    2    0    0  0.32476203479E+00 -0.16368149224E+02 -0.85954508081E+02  0.87499709936E+02  0.00000000000E+00 0. -1.
</event>
<event>
 6    1  0.8017648E-006  0.1500192E+03  0.7818608E-02  0.1212108E+00
          2   -1    0    0  502    0  0.00000000000E+00  0.00000000000E+00  0.18955158568E+03  0.18955158568E+03  0.00000000000E+00 0. -1.
          1   -1    0    0  501    0 -0.00000000000E+00 -0.00000000000E+00 -0.28454616901E+03  0.28454616901E+03  0.00000000000E+00 0. -1.
          2    1    1    2  501    0  0.70784256269E+02  0.39645339159E+02 -0.44081502178E+02  0.92332782298E+02  0.00000000000E+00 0. -1.
          1    1    1    2  502    0 -0.82283335540E+02 -0.14738971424E+03  0.65612512509E+02  0.18110570661E+03  0.00000000000E+00 0. -1.
         22    1    1    2    0    0 -0.34670710931E+02  0.11150767820E+03 -0.78224493692E+02  0.14055280825E+03  0.00000000000E+00 0. -1.
         22    1    1    2    0    0  0.46169790202E+02 -0.37633031259E+01 -0.38301099971E+02  0.60106457529E+02  0.00000000000E+00 0. -1.
</event>
<event>
 6    1  0.8017648E-006  0.3258752E+02  0.7818608E-02  0.1612235E+00
          2   -1    0    0  502    0  0.00000000000E+00  0.00000000000E+00  0.14985710746E+03  0.14985710746E+03  0.00000000000E+00 0.  1.
          1   -1    0    0  501    0 -0.00000000000E+00 -0.00000000000E+00 -0.22408192397E+03  0.22408192397E+03  0.00000000000E+00 0.  1.
          2    1    1    2  501    0  0.26294979688E+01  0.29087279526E+02  0.96187708984E+02  0.10052392476E+03  0.00000000000E+00 0.  1.
          1    1    1    2  502    0 -0.43737804579E+02 -0.17808973865E+02 -0.12117745518E+03  0.13005433765E+03  0.00000000000E+00 0.  1.
         22    1    1    2    0    0  0.24148266297E+02 -0.14694314090E+02 -0.92522353640E+02  0.96744237838E+02  0.00000000000E+00 0.  1.
         22    1    1    2    0    0  0.16960040313E+02  0.34160084298E+01  0.43287283323E+02  0.46616531172E+02  0.00000000000E+00 0.  1.
</event>
<event>
 6    1  0.8017648E-006  0.7236619E+02  0.7818608E-02  0.1354975E+00
          2   -1    0    0  502    0  0.00000000000E+00  0.00000000000E+00  0.79793069131E+02  0.79793069131E+02  0.00000000000E+00 0.  1.
          1   -1    0    0  501    0 -0.00000000000E+00 -0.00000000000E+00 -0.55568223190E+03  0.55568223190E+03  0.00000000000E+00 0.  1.
          2    1    1    2  501    0 -0.19654257187E+02 -0.26703970719E+02  0.37402071141E+02  0.49983065166E+02  0.00000000000E+00 0.  1.
          1    1    1    2  502    0  0.39401476573E+02  0.28102976017E+02 -0.43839725814E+03  0.44106055090E+03  0.00000000000E+00 0.  1.
         22    1    1    2    0    0  0.17007770675E+02  0.77599089412E+01 -0.98195709770E+02  0.99959381088E+02  0.00000000000E+00 0.  1.
         22    1    1    2    0    0 -0.36754990061E+02 -0.91589142390E+01  0.23301734002E+02  0.44472303874E+02  0.00000000000E+00 0.  1.
</event>
<event>
 6    1  0.8017648E-006  0.5326172E+02  0.7818608E-02  0.1537689E+00
          2   -1    0    0  502    0  0.00000000000E+00  0.00000000000E+00  0.43550622780E+03  0.43550622780E+03  0.00000000000E+00 0. -1.
          1   -1    0    0  501    0 -0.00000000000E+00 -0.00000000000E+00 -0.77612286110E+02  0.77612286110E+02  0.00000000000E+00 0.  1.
          2    1    1    2  501    0 -0.38379736811E+02  0.42155249338E+01  0.34180961945E+03  0.34398341645E+03  0.00000000000E+00 0. -1.
          1    1    1    2  502    0  0.43320356610E+02 -0.11667522839E+02 -0.91951061875E+01  0.45796663239E+02  0.00000000000E+00 0.  1.
         22    1    1    2    0    0  0.88522703913E+01  0.72478195279E+01 -0.47707104175E+02  0.49059773417E+02  0.00000000000E+00 0.  1.
         22    1    1    2    0    0 -0.13792890190E+02  0.20417837690E+00  0.72986532605E+02  0.74278660801E+02  0.00000000000E+00 0.  1.
</event>
<event>
 6    1  0.8017648E-006  0.7855202E+02  0.7818608E-02  0.1333568E+00
          2   -1    0    0  502    0  0.00000000000E+00  0.00000000000E+00  0.46561606970E+03  0.46561606970E+03  0.00000000000E+00 0.  1.
          1   -1    0    0  501    0 -0.00000000000E+00 -0.00000000000E+00 -0.96071628995E+02  0.96071628995E+02  0.00000000000E+00 0. -1.
          2    1    1    2  501    0  0.36730691642E+02 -0.38160128714E+02  0.34697705401E+03  0.35099631785E+03  0.00000000000E+00 0.  1.
          1    1    1    2  502    0 -0.39018628319E+02  0.27265389512E+02 -0.44440783331E+02  0.65121717148E+02  0.00000000000E+00 0. -1.
         22    1    1    2    0    0  0.16932769973E+02 -0.16329879746E+02  0.98600992399E+02  0.10136833516E+03  0.00000000000E+00 0. -1.
         22    1    1    2    0    0 -0.14644833296E+02  0.27224618948E+02 -0.31592822374E+02  0.44201328539E+02  0.00000000000E+00 0. -1.
</event>
<event>
 6    1  0.8017648E-006  0.7426196E+02  0.7818608E-02  0.1474144E+00
          2   -1    0    0  502    0  0.00000000000E+00  0.00000000000E+00  0.50339703068E+03  0.50339703068E+03  0.00000000000E+00 0. -1.
          1   -1    0    0  501    0 -0.00000000000E+00 -0.00000000000E+00 -0.83170442796E+02  0.83170442796E+02  0.00000000000E+00 0.  1.
          2    1    1    2  501    0 -0.29020641592E+02 -0.34908728809E+02  0.34636560932E+03  0.34932785790E+03  0.00000000000E+00 0. -1.
          1    1    1    2  502    0  0.34217890333E+02  0.52767532894E+02 -0.30840103214E+02  0.70045617371E+02  0.00000000000E+00 0.  1.
         22    1    1    2    0    0 -0.12675918016E+02 -0.24558837214E+02  0.13368926598E+03  0.13651606214E+03  0.00000000000E+00 0. -1.
         22    1    1    2    0    0  0.74786692742E+01  0.67000331281E+01 -0.28988184204E+02  0.30677936069E+02  0.00000000000E+00 0.  1.
</event>
<event>
 6    1  0.8017648E-006  0.3315795E+02  0.7818608E-02  0.1612189E+00
          2   -1    0    0  502    0  0.00000000000E+00  0.00000000000E+00  0.31151960667E+03  0.31151960667E+03  0.00000000000E+00 0. -1.
          1   -1    0    0  501    0 -0.00000000000E+00 -0.00000000000E+00 -0.53161043157E+02  0.53161043157E+02  0.00000000000E+00 0. -1.
          2    1    1    2  501    0  0.25534456965E+02 -0.30920542127E+02  0.15062313194E+03  0.15586986975E+03  0.00000000000E+00 0. -1.
          1    1    1    2  502    0 -0.42426788164E+02  0.11783301311E+02  0.48897194700E+02  0.65801323643E+02  0.00000000000E+00 0. -1.
         22    1    1    2    0    0 -0.69154961068E+01  0.12031203969E+02 -0.39350651221E+02  0.41725863764E+02  0.00000000000E+00 0. -1.
         22    1    1    2    0    0  0.23807827306E+02  0.71060368476E+01  0.98188888092E+02  0.10128359268E+03  0.00000000000E+00 0. -1.
</event>
<event>
 6    1  0.8017648E-006  0.7944666E+02  0.7818608E-02  0.1447073E+00
          2   -1    0    0  502    0  0.00000000000E+00  0.00000000000E+00  0.27996602170E+03  0.27996602170E+03  0.00000000000E+00 0. -1.
          1   -1    0    0  501    0 -0.00000000000E+00 -0.00000000000E+00 -0.99227003100E+02  0.99227003100E+02  0.00000000000E+00 0. -1.
          2    1    1    2  501    0 -0.19909342760E+02  0.31041075639E+01  0.47538917673E+02  0.51632994358E+02  0.00000000000E+00 0. -1.
          1    1    1    2  502    0  0.35217990759E+02 -0.59920541561E+02 -0.57896844242E+02  0.90458956147E+02  0.00000000000E+00 0. -1.
         22    1    1    2    0    0 -0.26479008154E+02  0.52041032842E+02  0.20813798320E+03  0.21617314131E+03  0.00000000000E+00 0. -1.
         22    1    1    2    0    0  0.11170360154E+02  0.47754011552E+01 -0.17041038029E+02  0.20927932991E+02  0.00000000000E+00 0.  1.
</event>
<event>
 6    1  0.8017648E-006  0.1549557E+03  0.7818608E-02  0.1311676E+00
          2   -1    0    0  502    0  0.00000000000E+00  0.00000000000E+00  0.88196554042E+03  0.88196554042E+03  0.00000000000E+00 0.  1.
          1   -1    0    0  501    0 -0.00000000000E+00 -0.00000000000E+00 -0.11583304536E+03  0.11583304536E+03  0.00000000000E+00 0. -1.
          2    1    1    2  501    0  0.12974553115E+03  0.14445113445E+02  0.62788133489E+03  0.64130923497E+03  0.00000000000E+00 0.  1.
          1    1    1    2  502    0 -0.13121929925E+03 -0.21258221095E+02  0.17856656204E+03  0.22261274343E+03  0.00000000000E+00 0. -1.
         22    1    1    2    0    0 -0.11576362635E+02  0.14237262694E+02  0.44294490393E+02  0.47944902754E+02  0.00000000000E+00 0. -1.
         22    1    1    2    0    0  0.13050130742E+02 -0.74241550444E+01 -0.84609892261E+02  0.85931704620E+02  0.00000000000E+00 0. -1.
</event>
<event>
 6    1  0.8017648E-006  0.6590444E+02  0.7818608E-02  0.1489337E+00
          2   -1    0    0  502    0  0.00000000000E+00  0.00000000000E+00  0.24120026669E+03  0.24120026669E+03  0.00000000000E+00 0.  1.
          1   -1    0    0  501    0 -0.00000000000E+00 -0.00000000000E+00 -0.90404485885E+02  0.90404485885E+02  0.00000000000E+00 0. -1.
          2    1    1    2  501    0 -0.24964763960E+02 -0.37241692725E+02  0.12791148341E+03  0.13554161983E+03  0.00000000000E+00 0.  1.
          1    1    1    2  502    0  0.39891729364E+02  0.56886702112E+02  0.62347732196E+01  0.69759009067E+02  0.00000000000E+00 0. -1.
         22    1    1    2    0    0 -0.11594690754E+02  0.21809466601E+00 -0.52766226925E+02  0.54025541393E+02  0.00000000000E+00 0. -1.
         22    1    1    2    0    0 -0.33322746508E+01 -0.19863104053E+02  0.69415751098E+02  0.72278582287E+02  0.00000000000E+00 0. -1.
</event>
<event>
 6    1  0.8017648E-006  0.8541442E+02  0.7818608E-02  0.1326549E+00
          2   -1    0    0  502    0  0.00000000000E+00  0.00000000000E+00  0.85750689773E+03  0.85750689773E+03  0.00000000000E+00 0. -1.
          1   -1    0    0  501    0 -0.00000000000E+00 -0.00000000000E+00 -0.96389023417E+02  0.96389023417E+02  0.00000000000E+00 0. -1.
          2    1    1    2  501    0  0.20220966281E+03 -0.74374329537E+02  0.39125248742E+03  0.44665288260E+03  0.00000000000E+00 0. -1.
          1    1    1    2  502    0 -0.21256277500E+03  0.58419770575E+02  0.22982708455E+03  0.31845924654E+03  0.00000000000E+00 0. -1.
         22    1    1    2    0    0  0.33253497942E+02  0.27791232594E+01  0.15491160955E+03  0.15846490282E+03  0.00000000000E+00 0.  1.
         22    1    1    2    0    0 -0.22900385755E+02  0.13175435703E+02 -0.14873307216E+02  0.30318889182E+02  0.00000000000E+00 0.  1.
</event>
<event>
 6    1  0.8017648E-006  0.7174761E+02  0.7818608E-02  0.1374076E+00
          2   -1    0    0  502    0  0.00000000000E+00  0.00000000000E+00  0.22910885019E+04  0.22910885019E+04  0.00000000000E+00 0. -1.
          1   -1    0    0  501    0 -0.00000000000E+00 -0.00000000000E+00 -0.20097789299E+03  0.20097789299E+03  0.00000000000E+00 0. -1.
          2    1    1    2  501    0 -0.15085066784E+03  0.10929733345E+03  0.20740864790E+04  0.20824352459E+04  0.00000000000E+00 0. -1.
          1    1    1    2  502    0  0.13870536522E+03 -0.14410672040E+03 -0.11102744678E+03  0.22876411244E+03  0.00000000000E+00 0. -1.
         22    1    1    2    0    0 -0.31511511341E+01  0.25034582177E+02  0.14971697144E+03  0.15182829643E+03  0.00000000000E+00 0. -1.
         22    1    1    2    0    0  0.15296453755E+02  0.97748047632E+01 -0.22665394760E+02  0.29038740077E+02  0.00000000000E+00 0.  1.
</event>
<event>
 6    1  0.8017648E-006  0.9993856E+02  0.7818608E-02  0.1402334E+00
          2   -1    0    0  502    0  0.00000000000E+00  0.00000000000E+00  0.20143719720E+03  0.20143719720E+03  0.00000000000E+00 0.  1.
          1   -1    0    0  501    0 -0.00000000000E+00 -0.00000000000E+00 -0.42590583658E+03  0.42590583658E+03  0.00000000000E+00 0.  1.
          2    1    1    2  501    0 -0.57442941853E+02 -0.57976953187E+01  0.12466564402E+03  0.13738568935E+03  0.00000000000E+00 0.  1.
          1    1    1    2  502    0  0.90007574642E+02  0.41350821015E+02 -0.33808249387E+03  0.35229394908E+03  0.00000000000E+00 0.  1.
         22    1    1    2    0    0  0.29526584554E+00 -0.12086980905E+02 -0.67325118182E+02  0.68402147828E+02  0.00000000000E+00 0. -1.
         22    1    1    2    0    0 -0.32859898635E+02 -0.23466144792E+02  0.56273328663E+02  0.69261247523E+02  0.00000000000E+00 0. -1.
</event>
<event>
 6    1  0.8017648E-006  0.6004308E+02  0.7818608E-02  0.1465158E+00
          2   -1    0    0  502    0  0.00000000000E+00  0.00000000000E+00  0.39844315335E+03  0.39844315335E+03  0.00000000000E+00 0. -1.
          1   -1    0    0  501    0 -0.00000000000E+00 -0.00000000000E+00 -0.12982778746E+03  0.12982778746E+03  0.00000000000E+00 0.  1.
          2    1    1    2  501    0 -0.45871499125E+02  0.15664274774E+02  0.32852009920E+03  0.33207682773E+03  0.00000000000E+00 0. -1.
          1    1    1    2  502    0  0.54237482655E+02  0.84664096138E+01 -0.81796395145E+01  0.55500370441E+02  0.00000000000E+00 0.  1.
         22    1    1    2    0    0  0.20837725619E+01 -0.21507421065E+02 -0.94316849789E+02  0.96760422814E+02  0.00000000000E+00 0. -1.
         22    1    1    2    0    0 -0.10449756092E+02 -0.26232633228E+01  0.42591755991E+02  0.43933319829E+02  0.00000000000E+00 0.  1.
</event>
<event>
 6    1  0.8017648E-006  0.8029483E+02  0.7818608E-02  0.1442599E+00
          2   -1    0    0  502    0  0.00000000000E+00  0.00000000000E+00  0.22702607750E+03  0.22702607750E+03  0.00000000000E+00 0. -1.
          1   -1    0    0  501    0 -0.00000000000E+00 -0.00000000000E+00 -0.58870809538E+02  0.58870809538E+02  0.00000000000E+00 0.  1.
          2    1    1    2  501    0  0.31179944303E+01  0.30707839487E+02  0.41527816169E+02  0.51742176327E+02  0.00000000000E+00 0. -1.
          1    1    1    2  502    0  0.23131629972E+02 -0.61218876322E+02  0.52766776731E+02  0.84066377642E+02  0.00000000000E+00 0.  1.
         22    1    1    2    0    0 -0.35579166429E+02  0.38943085797E+02  0.10445061669E+03  0.11701441083E+03  0.00000000000E+00 0.  1.
         22    1    1    2    0    0  0.93295420270E+01 -0.84320489617E+01 -0.30589941622E+02  0.33073922244E+02  0.00000000000E+00 0.  1.
</event>
<event>
 6    1  0.8017648E-006  0.9183568E+02  0.7818608E-02  0.1341632E+00
          2   -1    0    0  502    0  0.00000000000E+00  0.00000000000E+00  0.62825382822E+03  0.62825382822E+03  0.00000000000E+00 0. -1.
          1   -1    0    0  501    0 -0.00000000000E+00 -0.00000000000E+00 -0.26131578432E+02  0.26131578432E+02  0.00000000000E+00 0. -1.
          2    1    1    2  501    0 -0.38351570390E+00 -0.60216745403E+02  0.13638341404E+03  0.14908601254E+03  0.00000000000E+00 0. -1.
          1    1    1    2  502    0  0.29756210616E+01  0.69388127453E+02  0.22464786282E+03  0.23513874377E+03  0.00000000000E+00 0. -1.
         22    1    1    2    0    0 -0.18060571658E+02 -0.48714070932E+02  0.21301010618E+03  0.21925453312E+03  0.00000000000E+00 0. -1.
         22    1    1    2    0    0  0.15468466300E+02  0.39542688881E+02  0.28080866749E+02  0.50906117226E+02  0.00000000000E+00 0. -1.
</event>
<event>
 6    1  0.8017648E-006  0.1035171E+03  0.7818608E-02  0.1399530E+00
          2   -1    0    0  502    0  0.00000000000E+00  0.00000000000E+00  0.21738725976E+03  0.21738725976E+03  0.00000000000E+00 0. -1.
          1   -1    0    0  501    0 -0.00000000000E+00 -0.00000000000E+00 -0.98885296834E+02  0.98885296834E+02  0.00000000000E+00 0. -1.
          2    1    1    2  501    0 -0.21509953247E+02  0.71676340070E+01  0.42964787940E+02  0.48580099513E+02  0.00000000000E+00 0. -1.
          1    1    1    2  502    0  0.77891146397E+02  0.40660081928E+02 -0.28574403706E+02  0.92394639978E+02  0.00000000000E+00 0. -1.
         22    1    1    2    0    0 -0.56226878470E+02 -0.59199464364E+02  0.12628419309E+03  0.15037864166E+03  0.00000000000E+00 0. -1.
         22    1    1    2    0    0 -0.15431468087E+00  0.11371748429E+02 -0.22172614400E+02  0.24919175441E+02  0.00000000000E+00 0.  1.
</event>
<event>
 6    1  0.8017648E-006  0.1352331E+03  0.7818608E-02  0.1255305E+00
          2   -1    0    0  502    0  0.00000000000E+00  0.00000000000E+00  0.45581607761E+02  0.45581607761E+02  0.00000000000E+00 0.  1.
          1   -1    0    0  501    0 -0.00000000000E+00 -0.00000000000E+00 -0.13088568297E+04  0.13088568297E+04  0.00000000000E+00 0.  1.
          2    1    1    2  501    0 -0.45334886506E+02  0.14512665379E+02 -0.20538913402E+03  0.21083302816E+03  0.00000000000E+00 0.  1.
          1    1    1    2  502    0  0.86573282615E+02 -0.11102514231E+03 -0.91480692482E+03  0.92557723890E+03  0.00000000000E+00 0.  1.
         22    1    1    2    0    0 -0.24969975238E+02  0.10280656789E+03 -0.39403339290E+02  0.11289514256E+03  0.00000000000E+00 0.  1.
         22    1    1    2    0    0 -0.16268420871E+02 -0.62940909621E+01 -0.10367582381E+03  0.10513302783E+03  0.00000000000E+00 0.  1.
</event>
<event>
 6    1  0.8017648E-006  0.9863754E+02  0.7818608E-02  0.1342261E+00
          2   -1    0    0  502    0  0.00000000000E+00  0.00000000000E+00  0.13890042491E+03  0.13890042491E+03  0.00000000000E+00 0. -1.
          1   -1    0    0  501    0 -0.00000000000E+00 -0.00000000000E+00 -0.54137583975E+03  0.54137583975E+03  0.00000000000E+00 0.  1.
          2    1    1    2  501    0 -0.85294181675E+01  0.39340475633E+02  0.95844090144E+02  0.10395438236E+03  0.00000000000E+00 0. -1.
          1    1    1    2  502    0  0.69450694762E+02 -0.69069123212E+02 -0.38246889202E+03  0.39481184905E+03  0.00000000000E+00 0.  1.
         22    1    1    2    0    0 -0.33813861771E+02 -0.23857485409E+01 -0.13215452585E+03  0.13643272242E+03  0.00000000000E+00 0.  1.
         22    1    1    2    0    0 -0.27107414824E+02  0.32114396121E+02  0.16303912887E+02  0.45077310834E+02  0.00000000000E+00 0. -1.
</event>
<event>
 6    1  0.8017648E-006  0.5854205E+02  0.7818608E-02  0.1506524E+00
          2   -1    0    0  502    0  0.00000000000E+00  0.00000000000E+00  0.88847470990E+02  0.88847470990E+02  0.00000000000E+00 0.  1.
          1   -1    0    0  501    0 -0.00000000000E+00 -0.00000000000E+00 -0.16922327546E+03  0.16922327546E+03  0.00000000000E+00 0. -1.
          2    1    1    2  501    0  0.17120370329E+02 -0.25768823477E+02  0.25954873294E+02  0.40383100318E+02  0.00000000000E+00 0.  1.
          1    1    1    2  502    0 -0.27490128608E+02  0.36786232545E+02 -0.81525421568E+02  0.93569912031E+02  0.00000000000E+00 0. -1.
         22    1    1    2    0    0  0.23316304456E+02 -0.12703014955E+02  0.45461938406E+02  0.52647929551E+02  0.00000000000E+00 0.  1.
         22    1    1    2    0    0 -0.12946546177E+02  0.16856058861E+01 -0.70267194602E+02  0.71469804550E+02  0.00000000000E+00 0. -1.
</event>
<event>
 6    1  0.8017648E-006  0.1354716E+03  0.7818608E-02  0.1221312E+00
          2   -1    0    0  502    0  0.00000000000E+00  0.00000000000E+00  0.45710538249E+03  0.45710538249E+03  0.00000000000E+00 0. -1.
          1   -1    0    0  501    0 -0.00000000000E+00 -0.00000000000E+00 -0.16424915586E+03  0.16424915586E+03  0.00000000000E+00 0. -1.
          2    1    1    2  501    0 -0.97539242398E+02  0.26683134726E+02  0.34977375592E+03  0.36409830241E+03  0.00000000000E+00 0. -1.
          1    1    1    2  502    0  0.97039437910E+02 -0.20485328831E+02 -0.83430354492E+02  0.12960295235E+03  0.00000000000E+00 0. -1.
         22    1    1    2    0    0 -0.27191297339E+02 -0.16774150954E+02  0.68889974879E+02  0.75937918262E+02  0.00000000000E+00 0. -1.
         22    1    1    2    0    0  0.27691101827E+02  0.10576345058E+02 -0.42377149679E+02  0.51715365320E+02  0.00000000000E+00 0. -1.
</event>
<event>
 6    1  0.8017648E-006  0.5777572E+02  0.7818608E-02  0.1466525E+00
          2   -1    0    0  502    0  0.00000000000E+00  0.00000000000E+00  0.45474664092E+02  0.45474664092E+02  0.00000000000E+00 0.  1.
          1   -1    0    0  501    0 -0.00000000000E+00 -0.00000000000E+00 -0.11797614672E+04  0.11797614672E+04  0.00000000000E+00 0.  1.
          2    1    1    2  501    0 -0.31725753377E+02  0.68450503884E+02 -0.15293137796E+03  0.17052859371E+03  0.00000000000E+00 0.  1.
          1    1    1    2  502    0  0.40180521947E+02 -0.20453851372E+02 -0.88620584567E+03  0.88735203571E+03  0.00000000000E+00 0.  1.
         22    1    1    2    0    0  0.22174260960E+02 -0.28856191753E+01 -0.10885899059E+03  0.11113192376E+03  0.00000000000E+00 0.  1.
         22    1    1    2    0    0 -0.30629029529E+02 -0.45111033336E+02  0.13709411135E+02  0.56223578081E+02  0.00000000000E+00 0.  1.
</event>
<event>
 6    1  0.8017648E-006  0.9951419E+02  0.7818608E-02  0.1321368E+00
          2   -1    0    0  502    0  0.00000000000E+00  0.00000000000E+00  0.79951772597E+03  0.79951772597E+03  0.00000000000E+00 0.  1.
          1   -1    0    0  501    0 -0.00000000000E+00 -0.00000000000E+00 -0.19305977209E+02  0.19305977209E+02  0.00000000000E+00 0.  1.
          2    1    1    2  501    0 -0.18905482666E+02  0.15078142128E+02  0.60589238391E+02  0.65236672613E+02  0.00000000000E+00 0.  1.
          1    1    1    2  502    0  0.63498618320E+02 -0.59965051551E+02  0.28903041726E+03  0.30193784797E+03  0.00000000000E+00 0.  1.
         22    1    1    2    0    0 -0.18658536380E+02  0.84832526667E+02  0.31159842366E+03  0.32347840142E+03  0.00000000000E+00 0.  1.
         22    1    1    2    0    0 -0.25934599273E+02 -0.39945617244E+02  0.11899366945E+03  0.12817078117E+03  0.00000000000E+00 0.  1.
</event>
<event>
 6    1  0.8017648E-006  0.2658244E+02  0.7818608E-02  0.1647227E+00
          2   -1    0    0  502    0  0.00000000000E+00  0.00000000000E+00  0.43012961759E+02  0.43012961759E+02  0.00000000000E+00 0.  1.
          1   -1    0    0  501    0 -0.00000000000E+00 -0.00000000000E+00 -0.35478312926E+03  0.35478312926E+03  0.00000000000E+00 0.  1.
          2    1    1    2  501    0  0.18332534504E+02 -0.21832829736E+02 -0.74813186560E+02  0.80061021470E+02  0.00000000000E+00 0.  1.
          1    1    1    2  502    0 -0.26515058359E+02  0.24728732932E+02 -0.17641341729E+03  0.18010067283E+03  0.00000000000E+00 0.  1.
         22    1    1    2    0    0  0.60370521820E+01  0.18282361896E+02 -0.95110073773E+02  0.97039254370E+02  0.00000000000E+00 0. -1.
         22    1    1    2    0    0  0.21454716729E+01 -0.21178265092E+02  0.34566510120E+02  0.40595142355E+02  0.00000000000E+00 0.  1.
</event>
<event>
 6    1  0.8017648E-006  0.8709949E+02  0.7818608E-02  0.1435018E+00
          2   -1    0    0  502    0  0.00000000000E+00  0.00000000000E+00  0.17365203168E+03  0.17365203168E+03  0.00000000000E+00 0. -1.
          1   -1    0    0  501    0 -0.00000000000E+00 -0.00000000000E+00 -0.21829934533E+03  0.21829934533E+03  0.00000000000E+00 0. -1.
          2    1    1    2  501    0  0.25357658681E+02  0.34458743901E+02  0.87904983707E+02  0.97763500579E+02  0.00000000000E+00 0. -1.
          1    1    1    2  502    0 -0.61130172789E+02 -0.44613972324E+02 -0.14690178628E+03  0.16524962743E+03  0.00000000000E+00 0. -1.
         22    1    1    2    0    0 -0.30006069686E+01 -0.10620607303E+02 -0.49881783975E+02  0.51088093664E+02  0.00000000000E+00 0. -1.
         22    1    1    2    0    0  0.38773121077E+02  0.20775835726E+02  0.64231272903E+02  0.77850155343E+02  0.00000000000E+00 0.  1.
</event>
<event>
 6    1  0.8017648E-006  0.5056083E+02  0.7818608E-02  0.1444503E+00
          2   -1    0    0  502    0  0.00000000000E+00  0.00000000000E+00  0.24877729644E+03  0.24877729644E+03  0.00000000000E+00 0.  1.
          1   -1    0    0  501    0 -0.00000000000E+00 -0.00000000000E+00 -0.65641125288E+02  0.65641125288E+02  0.00000000000E+00 0. -1.
          2    1    1    2  501    0  0.20793066319E+02 -0.18865758286E+02  0.12328946181E+03  0.12644587710E+03  0.00000000000E+00 0.  1.
          1    1    1    2  502    0 -0.28041129257E+02  0.75527218744E+01 -0.24041063622E+02  0.37700414823E+02  0.00000000000E+00 0. -1.
         22    1    1    2    0    0  0.22357071579E+02  0.50811889354E+00  0.11329981261E+03  0.11548568903E+03  0.00000000000E+00 0.  1.
         22    1    1    2    0    0 -0.15109008640E+02  0.10804917518E+02 -0.29412039650E+02  0.34786440764E+02  0.00000000000E+00 0. -1.
</event>
<event>
 6    1  0.8017648E-006  0.3117438E+02  0.7818608E-02  0.1649990E+00
          2   -1    0    0  502    0  0.00000000000E+00  0.00000000000E+00  0.49855789685E+03  0.49855789685E+03  0.00000000000E+00 0.  1.
          1   -1    0    0  501    0 -0.00000000000E+00 -0.00000000000E+00 -0.11665374348E+03  0.11665374348E+03  0.00000000000E+00 0. -1.
          2    1    1    2  501    0  0.14094394004E+02  0.33514678529E+02  0.30578410703E+03  0.30793799008E+03  0.00000000000E+00 0.  1.
          1    1    1    2  502    0  0.26754409027E+00 -0.37112230365E+02  0.15575444543E+03  0.16011507266E+03  0.00000000000E+00 0. -1.
         22    1    1    2    0    0 -0.25934608904E+02  0.91935690594E+01 -0.11042012420E+03  0.11379687816E+03  0.00000000000E+00 0. -1.
         22    1    1    2    0    0  0.11572670810E+02 -0.55960172234E+01  0.30785725110E+02  0.33361699432E+02  0.00000000000E+00 0. -1.
</event>
<event>
 6    1  0.8017648E-006  0.3007095E+02  0.7818608E-02  0.1598162E+00
          2   -1    0    0  502    0  0.00000000000E+00  0.00000000000E+00  0.19482882784E+03  0.19482882784E+03  0.00000000000E+00 0. -1.
          1   -1    0    0  501    0 -0.00000000000E+00 -0.00000000000E+00 -0.62577932886E+02  0.62577932886E+02  0.00000000000E+00 0.  1.
          2    1    1    2  501    0 -0.34796866324E+02  0.68801364698E+01  0.45484999589E+02  0.57680528529E+02  0.00000000000E+00 0. -1.
          1    1    1    2  502    0  0.46992510720E+02  0.96547506702E+01  0.42677514318E+02  0.64209660508E+02  0.00000000000E+00 0.  1.
         22    1    1    2    0    0 -0.24639117353E+02  0.49821886288E+01 -0.40325647035E+02  0.47519113168E+02  0.00000000000E+00 0.  1.
         22    1    1    2    0    0  0.12443472958E+02 -0.21517075769E+02  0.84414028084E+02  0.87997458522E+02  0.00000000000E+00 0.  1.
</event>
<event>
 6    1  0.8017648E-006  0.1442056E+03  0.7818608E-02  0.1318700E+00
          2   -1    0    0  502    0  0.00000000000E+00  0.00000000000E+00  0.42070482191E+03  0.42070482191E+03  0.00000000000E+00 0.  1.
          1   -1    0    0  501    0 -0.00000000000E+00 -0.00000000000E+00 -0.14532838200E+03  0.14532838200E+03  0.00000000000E+00 0. -1.
          2    1    1    2  501    0 -0.11668719180E+03  0.21379819576E+02  0.25191584162E+03  0.27845033431E+03  0.00000000000E+00 0.  1.
          1    1    1    2  502    0  0.13920854063E+03 -0.14547359612E+02 -0.43389499931E+02  0.14653768171E+03  0.00000000000E+00 0. -1.
         22    1    1    2    0    0 -0.62624584370E+01 -0.15174118838E+02 -0.34422901993E+02  0.38136707380E+02  0.00000000000E+00 0. -1.
         22    1    1    2    0    0 -0.16258890395E+02  0.83416588735E+01  0.10127300021E+03  0.10290848052E+03  0.00000000000E+00 0.  1.
</event>
<event>
 6    1  0.8017648E-006  0.4230801E+02  0.7818608E-02  0.1555423E+00
          2   -1    0    0  502    0  0.00000000000E+00  0.00000000000E+00  0.20369457250E+03  0.20369457250E+03  0.00000000000E+00 0. -1.
          1   -1    0    0  501    0 -0.00000000000E+00 -0.00000000000E+00 -0.25555582024E+03  0.25555582024E+03  0.00000000000E+00 0. -1.
          2    1    1    2  501    0  0.27128281057E+02  0.30878839685E+02  0.15114137937E+03  0.15663065770E+03  0.00000000000E+00 0. -1.
          1    1    1    2  502    0 -0.44406321116E+02  0.22776912918E+02 -0.14902279059E+03  0.15715756817E+03  0.00000000000E+00 0. -1.
         22    1    1    2    0    0  0.12626137288E+02 -0.12649702033E+02  0.39457614661E+02  0.43316713392E+02  0.00000000000E+00 0.  1.
         22    1    1    2    0    0  0.46519027704E+01 -0.41006050569E+02 -0.93437451187E+02  0.10214545348E+03  0.00000000000E+00 0. -1.
</event>
<event>
 6    1  0.8017648E-006  0.8525044E+02  0.7818608E-02  0.1438927E+00
          2   -1    0    0  502    0  0.00000000000E+00  0.00000000000E+00  0.26530890099E+03  0.26530890099E+03  0.00000000000E+00 0.  1.
          1   -1    0    0  501    0 -0.00000000000E+00 -0.00000000000E+00 -0.70212351037E+02  0.70212351037E+02  0.00000000000E+00 0. -1.
          2    1    1    2  501    0  0.34323085179E+02 -0.18728442058E+02  0.70406534261E+02  0.80535140062E+02  0.00000000000E+00 0.  1.
          1    1    1    2  502    0 -0.59337882158E+02 -0.88524395381E+01 -0.19242379197E+02  0.63004913316E+02  0.00000000000E+00 0. -1.
         22    1    1    2    0    0 -0.10183977244E+02  0.44139457174E+01 -0.19916474719E+02  0.22800488471E+02  0.00000000000E+00 0. -1.
         22    1    1    2    0    0  0.35198774223E+02  0.23166935879E+02  0.16384886961E+03  0.16918071018E+03  0.00000000000E+00 0.  1.
</event>
<event>
 6    1  0.8017648E-006  0.4713888E+02  0.7818608E-02  0.1462752E+00
          2   -1    0    0  502    0  0.00000000000E+00  0.00000000000E+00  0.14683279085E+03  0.14683279085E+03  0.00000000000E+00 0.  1.
          1   -1    0    0  501    0 -0.00000000000E+00 -0.00000000000E+00 -0.11544932705E+03  0.11544932705E+03  0.00000000000E+00 0.  1.
          2    1    1    2  501    0 -0.52831478489E+02  0.75053908634E+01  0.71614240497E+01  0.53840338091E+02  0.00000000000E+00 0.  1.
          1    1    1    2  502    0  0.78223432670E+02 -0.97892001502E+01 -0.43030968145E+01  0.78950937299E+02  0.00000000000E+00 0.  1.
         22    1    1    2    0    0 -0.12742835169E+02  0.33279985763E+02  0.68580992603E+02  0.77287061317E+02  0.00000000000E+00 0.  1.
         22    1    1    2    0    0 -0.12649119012E+02 -0.30996176476E+02 -0.40055856036E+02  0.52203781192E+02  0.00000000000E+00 0.  1.
</event>
<event>
 6    1  0.1621656E-005  0.7082508E+02  0.7818608E-02  0.1381814E+00
          2   -1    0    0  502    0  0.00000000000E+00  0.00000000000E+00  0.33629576753E+03  0.33629576753E+03  0.00000000000E+00 0.  1.
          1   -1    0    0  501    0 -0.00000000000E+00 -0.00000000000E+00 -0.28415482312E+03  0.28415482312E+03  0.00000000000E+00 0.  1.
          2    1    1    2  501    0 -0.15410954608E+03 -0.55420403274E+01  0.19355460076E+03  0.24747494798E+03  0.00000000000E+00 0.  1.
          1    1    1    2  502    0  0.16503547727E+03  0.35510143224E+02 -0.16991440105E+03  0.23951739543E+03  0.00000000000E+00 0.  1.
         22    1    1    2    0    0 -0.19601932054E+02 -0.16761585877E+01  0.75443551946E+02  0.77966497793E+02  0.00000000000E+00 0. -1.
         22    1    1    2    0    0  0.86760008675E+01 -0.28291944309E+02 -0.46942807242E+02  0.55491749437E+02  0.00000000000E+00 0. -1.
</event>
<event>
 6    1  0.8017648E-006  0.5769163E+02  0.7818608E-02  0.1454913E+00
          2   -1    0    0  502    0  0.00000000000E+00  0.00000000000E+00  0.10286650082E+04  0.10286650082E+04  0.00000000000E+00 0. -1.
          1   -1    0    0  501    0 -0.00000000000E+00 -0.00000000000E+00 -0.19590244552E+02  0.19590244552E+02  0.00000000000E+00 0. -1.
          2    1    1    2  501    0 -0.45802461812E+02 -0.26146149747E+02  0.30422039623E+03  0.30875805436E+03  0.00000000000E+00 0. -1.
          1    1    1    2  502    0 -0.30538857187E+02 -0.14872706231E+02  0.37361481489E+03  0.37515576644E+03  0.00000000000E+00 0. -1.
         22    1    1    2    0    0  0.64578120785E+02  0.15313936760E+02  0.32939273344E+03  0.33601253427E+03  0.00000000000E+00 0. -1.
         22    1    1    2    0    0  0.11763198214E+02  0.25704919218E+02  0.18468191188E+01  0.28328897703E+02  0.00000000000E+00 0. -1.
</event>
<event>
 6    1  0.8527709E-006  0.2465052E+03  0.7818608E-02  0.1116691E+00
          2   -1    0    0  502    0  0.00000000000E+00  0.00000000000E+00  0.17484671960E+04  0.17484671960E+04  0.00000000000E+00 0. -1.
          1   -1    0    0  501    0 -0.00000000000E+00 -0.00000000000E+00 -0.51222815097E+02  0.51222815097E+02  0.00000000000E+00 0. -1.
          2    1    1    2  501    0  0.19321931666E+03  0.24270103695E+02  0.11005432786E+04  0.11176395888E+04  0.00000000000E+00 0. -1.
          1    1    1    2  502    0 -0.19111512544E+03 -0.53218860419E+02  0.30291569335E+03  0.36209826781E+03  0.00000000000E+00 0. -1.
         22    1    1    2    0    0 -0.26618856605E+02 -0.16614236488E+02  0.12222077452E+02  0.33674553572E+02  0.00000000000E+00 0.  1.
         22    1    1    2    0    0  0.24514665377E+02  0.45562993213E+02  0.28156333143E+03  0.28627760090E+03  0.00000000000E+00 0. -1.
</event>
<event>
 6    1  0.8017648E-006  0.4034157E+02  0.7818608E-02  0.1542362E+00
          2   -1    0    0  502    0  0.00000000000E+00  0.00000000000E+00  0.71280833916E+02  0.71280833916E+02  0.00000000000E+00 0. -1.
          1   -1    0    0  501    0 -0.00000000000E+00 -0.00000000000E+00 -0.18807803248E+03  0.18807803248E+03  0.00000000000E+00 0.  1.
          2    1    1    2  501    0 -0.10250281008E+02 -0.19565552838E+02  0.33385652315E+02  0.40030999227E+02  0.00000000000E+00 0. -1.
          1    1    1    2  502    0  0.28691962285E+02  0.97180871840E+01 -0.25854212957E+02  0.39825999622E+02  0.00000000000E+00 0.  1.
         22    1    1    2    0    0 -0.14916484235E+02 -0.14676312583E+02  0.22424674724E+02  0.30671838703E+02  0.00000000000E+00 0. -1.
         22    1    1    2    0    0 -0.35251970415E+01  0.24523778237E+02 -0.14675331265E+03  0.14883002884E+03  0.00000000000E+00 0. -1.
</event>
<event>
 6    1  0.8017648E-006  0.1040394E+03  0.7818608E-02  0.1272743E+00
          2   -1    0    0  502    0  0.00000000000E+00  0.00000000000E+00  0.10276764039E+04  0.10276764039E+04  0.00000000000E+00 0. -1.
          1   -1    0    0  501    0 -0.00000000000E+00 -0.00000000000E+00 -0.90443018270E+02  0.90443018270E+02  0.00000000000E+00 0. -1.
          2    1    1    2  501    0  0.57384260297E+02 -0.59361451760E+02  0.89457803032E+03  0.89837997953E+03  0.00000000000E+00 0. -1.
          1    1    1    2  502    0 -0.32137947867E+02  0.43907432820E+02 -0.40406940499E+02  0.67774856624E+02  0.00000000000E+00 0. -1.
         22    1    1    2    0    0  0.17901498118E+02 -0.28227465142E+01  0.10038376903E+03  0.10200653222E+03  0.00000000000E+00 0. -1.
         22    1    1    2    0    0 -0.43147810548E+02  0.18276765454E+02 -0.17321473171E+02  0.49958053838E+02  0.00000000000E+00 0. -1.
</event>
<event>
 6    1  0.8017648E-006  0.4722427E+02  0.7818608E-02  0.1526042E+00
          2   -1    0    0  502    0  0.00000000000E+00  0.00000000000E+00  0.22590289437E+03  0.22590289437E+03  0.00000000000E+00 0. -1.
          1   -1    0    0  501    0 -0.00000000000E+00 -0.00000000000E+00 -0.45312579047E+02  0.45312579047E+02  0.00000000000E+00 0. -1.
          2    1    1    2  501    0  0.15665435378E+02 -0.21828055199E+02  0.72085342524E+02  0.76929620214E+02  0.00000000000E+00 0. -1.
          1    1    1    2  502    0 -0.27910866411E+02  0.20910480953E+02  0.41887046745E+02  0.54504948056E+02  0.00000000000E+00 0. -1.
         22    1    1    2    0    0  0.22005082823E+02 -0.15538816619E+02  0.98763999200E+02  0.10237190059E+03  0.00000000000E+00 0.  1.
         22    1    1    2    0    0 -0.97596517904E+01  0.16456390865E+02 -0.32146073147E+02  0.37409004560E+02  0.00000000000E+00 0. -1.
</event>
<event>
 6    1  0.8017648E-006  0.1278091E+03  0.7818608E-02  0.1329343E+00
          2   -1    0    0  502    0  0.00000000000E+00  0.00000000000E+00  0.20313532851E+04  0.20313532851E+04  0.00000000000E+00 0. -1.
          1   -1    0    0  501    0 -0.00000000000E+00 -0.00000000000E+00 -0.55305735262E+02  0.55305735262E+02  0.00000000000E+00 0. -1.
          2    1    1    2  501    0  0.20468459653E+02  0.93630048190E+02  0.33598319861E+03  0.34938553707E+03  0.00000000000E+00 0. -1.
          1    1    1    2  502    0 -0.29815039334E+02 -0.11701363742E+03  0.15997032514E+04  0.16042542256E+04  0.00000000000E+00 0. -1.
         22    1    1    2    0    0  0.24700713798E+02  0.11332992756E+02  0.82348449570E+02  0.86716948364E+02  0.00000000000E+00 0.  1.
         22    1    1    2    0    0 -0.15354134117E+02  0.12050596474E+02 -0.41987349732E+02  0.46302309309E+02  0.00000000000E+00 0. -1.
</event>
<event>
 6    1  0.8017648E-006  0.4282739E+03  0.7818608E-02  0.1083865E+00
          2   -1    0    0  502    0  0.00000000000E+00  0.00000000000E+00  0.41216384245E+03  0.41216384245E+03  0.00000000000E+00 0. -1.
          1   -1    0    0  501    0 -0.00000000000E+00 -0.00000000000E+00 -0.14078594181E+04  0.14078594181E+04  0.00000000000E+00 0. -1.
          2    1    1    2  501    0 -0.42557712460E+03  0.11681255435E+03 -0.56188049121E+03  0.71447235653E+03  0.00000000000E+00 0. -1.
          1    1    1    2  502    0  0.36992735404E+03 -0.19937651768E+03  0.18978659387E+03  0.46110323604E+03  0.00000000000E+00 0. -1.
         22    1    1    2    0    0  0.75368289535E+02  0.75914855902E+02 -0.61062334379E+03  0.61992282777E+03  0.00000000000E+00 0. -1.
         22    1    1    2    0    0 -0.19718518981E+02  0.66491074315E+01 -0.12978334522E+02  0.24524840211E+02  0.00000000000E+00 0.  1.
</event>
<event>
 6    1  0.8017648E-006  0.8321573E+02  0.7818608E-02  0.1441646E+00
          2   -1    0    0  502    0  0.00000000000E+00  0.00000000000E+00  0.13747075176E+03  0.13747075176E+03  0.00000000000E+00 0.  1.
          1   -1    0    0  501    0 -0.00000000000E+00 -0.00000000000E+00 -0.28211661142E+03  0.28211661142E+03  0.00000000000E+00 0.  1.
          2    1    1    2  501    0  0.62715782819E+02 -0.63301980574E+02 -0.10452810927E+03  0.13735550876E+03  0.00000000000E+00 0.  1.
          1    1    1    2  502    0 -0.12893244800E+03  0.47589032404E+02 -0.12645536540E+02  0.13801522288E+03  0.00000000000E+00 0.  1.
         22    1    1    2    0    0  0.75197064341E+02  0.10606509746E+02  0.33048246786E+02  0.82820789359E+02  0.00000000000E+00 0.  1.
         22    1    1    2    0    0 -0.89803991587E+01  0.51064384243E+01 -0.60520460629E+02  0.61395842182E+02  0.00000000000E+00 0. -1.
</event>
<event>
 6    1  0.8017648E-006  0.1723225E+03  0.7818608E-02  0.1298188E+00
          2   -1    0    0  502    0  0.00000000000E+00  0.00000000000E+00  0.25847890858E+03  0.25847890858E+03  0.00000000000E+00 0. -1.
          1   -1    0    0  501    0 -0.00000000000E+00 -0.00000000000E+00 -0.10111617254E+03  0.10111617254E+03  0.00000000000E+00 0. -1.
          2    1    1    2  501    0  0.27241961827E+02  0.43547887409E+02  0.24109496643E+02  0.56743376797E+02  0.00000000000E+00 0. -1.
          1    1    1    2  502    0  0.88517794179E+02  0.53875263793E+01  0.23086874291E+02  0.91637487369E+02  0.00000000000E+00 0. -1.
         22    1    1    2    0    0 -0.10399026240E+03 -0.41406133361E+02  0.13942229458E+03  0.17879322912E+03  0.00000000000E+00 0. -1.
         22    1    1    2    0    0 -0.11769493606E+02 -0.75292804273E+01 -0.29255929466E+02  0.32420987838E+02  0.00000000000E+00 0. -1.
</event>
<event>
 6    1  0.8017648E-006  0.7212785E+02  0.7818608E-02  0.1426179E+00
          2   -1    0    0  502    0  0.00000000000E+00  0.00000000000E+00  0.93890241569E+02  0.93890241569E+02  0.00000000000E+00 0. -1.
          1   -1    0    0  501    0 -0.00000000000E+00 -0.00000000000E+00 -0.16375553814E+04  0.16375553814E+04  0.00000000000E+00 0. -1.
          2    1    1    2  501    0  0.21611928965E+02  0.35620714270E+01 -0.11903753933E+01  0.21935834154E+02  0.00000000000E+00 0. -1.
          1    1    1    2  502    0  0.22597192307E+02  0.64747245477E+00 -0.15694732066E+04  0.15696360083E+04  0.00000000000E+00 0. -1.
         22    1    1    2    0    0 -0.27452715023E+02  0.10380682598E+02  0.78487454809E+02  0.83795529092E+02  0.00000000000E+00 0. -1.
         22    1    1    2    0    0 -0.16756406249E+02 -0.14590226480E+02 -0.51489012634E+02  0.56078251409E+02  0.00000000000E+00 0. -1.
</event>
<event>
 6    1  0.8017648E-006  0.9538825E+02  0.7818608E-02  0.1316202E+00
          2   -1    0    0  502    0  0.00000000000E+00  0.00000000000E+00  0.10651832385E+03  0.10651832385E+03  0.00000000000E+00 0. -1.
          1   -1    0    0  501    0 -0.00000000000E+00 -0.00000000000E+00 -0.13633586710E+03  0.13633586710E+03  0.00000000000E+00 0. -1.
          2    1    1    2  501    0 -0.11380280671E+02  0.21242643394E+02 -0.29415400241E+02  0.38026654571E+02  0.00000000000E+00 0. -1.
          1    1    1    2  502    0 -0.52612393371E+02 -0.31300178544E+02  0.53899645295E+01  0.61455812018E+02  0.00000000000E+00 0. -1.
         22    1    1    2    0    0  0.11779581900E+02  0.38206129017E+02  0.48572146203E+02  0.62910414328E+02  0.00000000000E+00 0. -1.
         22    1    1    2    0    0  0.52213092142E+02 -0.28148593867E+02 -0.54364253746E+02  0.80461310038E+02  0.00000000000E+00 0. -1.
</event>
<event>
 6    1  0.8017648E-006  0.1247406E+03  0.7818608E-02  0.1348753E+00
          2   -1    0    0  502    0  0.00000000000E+00  0.00000000000E+00  0.18086189829E+03  0.18086189829E+03  0.00000000000E+00 0. -1.
          1   -1    0    0  501    0 -0.00000000000E+00 -0.00000000000E+00 -0.14953743685E+03  0.14953743685E+03  0.00000000000E+00 0. -1.
          2    1    1    2  501    0 -0.75989145877E+02 -0.74328643444E+01  0.28379411772E+00  0.76352330040E+02  0.00000000000E+00 0. -1.
          1    1    1    2  502    0  0.10638516741E+03 -0.15748406758E+02  0.59324659312E+02  0.12282194984E+03  0.00000000000E+00 0. -1.
         22    1    1    2    0    0 -0.43419707042E+02  0.15756652311E+02  0.40129940974E+02  0.61187868195E+02  0.00000000000E+00 0. -1.
         22    1    1    2    0    0  0.13023685510E+02  0.74246187917E+01 -0.68413932967E+02  0.70037187068E+02  0.00000000000E+00 0.  1.
</event>
<event>
 6    1  0.8017648E-006  0.5917844E+02  0.7818608E-02  0.1407045E+00
          2   -1    0    0  502    0  0.00000000000E+00  0.00000000000E+00  0.10464513375E+04  0.10464513375E+04  0.00000000000E+00 0.  1.
          1   -1    0    0  501    0 -0.00000000000E+00 -0.00000000000E+00 -0.16146373041E+03  0.16146373041E+03  0.00000000000E+00 0.  1.
          2    1    1    2  501    0 -0.18889626903E+03  0.72280089039E+02  0.84885005599E+03  0.87261253101E+03  0.00000000000E+00 0.  1.
          1    1    1    2  502    0  0.19489623787E+03 -0.71154120849E+02  0.34060267723E+02  0.21025592569E+03  0.00000000000E+00 0.  1.
         22    1    1    2    0    0 -0.39665978653E+01 -0.16330603377E+02 -0.59375599838E+02  0.61708057508E+02  0.00000000000E+00 0. -1.
         22    1    1    2    0    0 -0.20333709724E+01  0.15204635186E+02  0.61452883186E+02  0.63338553667E+02  0.00000000000E+00 0.  1.
</event>
<event>
 6    1  0.8017648E-006  0.1457261E+03  0.7818608E-02  0.1285096E+00
          2   -1    0    0  502    0  0.00000000000E+00  0.00000000000E+00  0.26134192633E+03  0.26134192633E+03  0.00000000000E+00 0.  1.
          1   -1    0    0  501    0 -0.00000000000E+00 -0.00000000000E+00 -0.48188295462E+03  0.48188295462E+03  0.00000000000E+00 0.  1.
          2    1    1    2  501    0  0.24654679860E+03  0.16153865135E+03 -0.10584669443E+03  0.31318298565E+03  0.00000000000E+00 0.  1.
          1    1    1    2  502    0 -0.15023493370E+03 -0.18065649933E+03 -0.13708780640E+03  0.27203009524E+03  0.00000000000E+00 0.  1.
         22    1    1    2    0    0 -0.16625057483E+02  0.13121611109E+01 -0.47618240316E+02  0.50454049529E+02  0.00000000000E+00 0. -1.
         22    1    1    2    0    0 -0.79686807418E+02  0.17805686864E+02  0.70011712857E+02  0.10755775053E+03  0.00000000000E+00 0.  1.
</event>
<event>
 6    1  0.8017648E-006  0.4755959E+02  0.7818608E-02  0.1524422E+00
          2   -1    0    0  502    0  0.00000000000E+00  0.00000000000E+00  0.18205902028E+03  0.18205902028E+03  0.00000000000E+00 0.  1.
          1   -1    0    0  501    0 -0.00000000000E+00 -0.00000000000E+00 -0.12409522563E+03  0.12409522563E+03  0.00000000000E+00 0. -1.
          2    1    1    2  501    0 -0.31604139535E+02 -0.26701621619E+02  0.19105476412E+02  0.45572112764E+02  0.00000000000E+00 0.  1.
          1    1    1    2  502    0  0.59889787860E+02  0.38729172317E+02 -0.64135836386E+02  0.95917365409E+02  0.00000000000E+00 0. -1.
         22    1    1    2    0    0  0.88415231663E+01 -0.11923959851E+02 -0.26270254274E+02  0.30174154670E+02  0.00000000000E+00 0. -1.
         22    1    1    2    0    0 -0.37127171491E+02 -0.10359084649E+00  0.12926440890E+03  0.13449061307E+03  0.00000000000E+00 0.  1.
</event>
<event>
 6    1  0.8017648E-006  0.1845971E+03  0.7818608E-02  0.1263208E+00
          2   -1    0    0  502    0  0.00000000000E+00  0.00000000000E+00  0.56512778766E+02  0.56512778766E+02  0.00000000000E+00 0.  1.
          1   -1    0    0  501    0 -0.00000000000E+00 -0.00000000000E+00 -0.68907023054E+03  0.68907023054E+03  0.00000000000E+00 0.  1.
          2    1    1    2  501    0 -0.50642366588E+01 -0.27137101725E+02 -0.21528301449E+02  0.35007664107E+02  0.00000000000E+00 0.  1.
          1    1    1    2  502    0  0.12837323688E+03  0.98858733566E+02 -0.19951604835E+03  0.25702021457E+03  0.00000000000E+00 0.  1.
         22    1    1    2    0    0  0.13298693074E+02  0.17654553571E+02 -0.93642531060E+02  0.96215706216E+02  0.00000000000E+00 0.  1.
         22    1    1    2    0    0 -0.13660769329E+03 -0.89376185412E+02 -0.31787057091E+03  0.35733942441E+03  0.00000000000E+00 0.  1.
</event>
<event>
 6    1  0.8017648E-006  0.6571674E+02  0.7818608E-02  0.1377486E+00
          2   -1    0    0  502    0  0.00000000000E+00  0.00000000000E+00  0.64749195022E+02  0.64749195022E+02  0.00000000000E+00 0. -1.
          1   -1    0    0  501    0 -0.00000000000E+00 -0.00000000000E+00 -0.15468798804E+03  0.15468798804E+03  0.00000000000E+00 0. -1.
          2    1    1    2  501    0  0.14310340940E+02 -0.35928008633E+02 -0.31586741052E+02  0.49933254175E+02  0.00000000000E+00 0. -1.
          1    1    1    2  502    0  0.15076317366E+02  0.30884298532E+02 -0.20056393700E+02  0.39791885723E+02  0.00000000000E+00 0. -1.
         22    1    1    2    0    0 -0.53512695377E+02  0.40162562658E+02 -0.52234184809E+02  0.84882566340E+02  0.00000000000E+00 0. -1.
         22    1    1    2    0    0  0.24126037071E+02 -0.35118852557E+02  0.13938526548E+02  0.44829476820E+02  0.00000000000E+00 0. -1.
</event>
<event>
 6    1  0.8017648E-006  0.8498587E+02  0.7818608E-02  0.1358976E+00
          2   -1    0    0  502    0  0.00000000000E+00  0.00000000000E+00  0.35819322827E+02  0.35819322827E+02  0.00000000000E+00 0.  1.
          1   -1    0    0  501    0 -0.00000000000E+00 -0.00000000000E+00 -0.37746955144E+03  0.37746955144E+03  0.00000000000E+00 0.  1.
          2    1    1    2  501    0  0.27458305040E+02 -0.31935604854E+02 -0.11312103175E+03  0.12070712157E+03  0.00000000000E+00 0.  1.
          1    1    1    2  502    0 -0.33233848623E+02  0.36803941642E+02 -0.25882216012E+02  0.55936642019E+02  0.00000000000E+00 0.  1.
         22    1    1    2    0    0  0.12090874614E+02 -0.44222708390E+02 -0.20556612297E+02  0.50243521925E+02  0.00000000000E+00 0. -1.
         22    1    1    2    0    0 -0.63153310301E+01  0.39354371602E+02 -0.18209036855E+03  0.18640158875E+03  0.00000000000E+00 0.  1.
</event>
<event>
 6    1  0.8017648E-006  0.5569777E+02  0.7818608E-02  0.1468720E+00
          2   -1    0    0  502    0  0.00000000000E+00  0.00000000000E+00  0.19237738454E+04  0.19237738454E+04  0.00000000000E+00 0.  1.
          1   -1    0    0  501    0 -0.00000000000E+00 -0.00000000000E+00 -0.14818971322E+03  0.14818971322E+03  0.00000000000E+00 0. -1.
          2    1    1    2  501    0 -0.85236181603E+02  0.60391140069E+02  0.17983134036E+04  0.18013448848E+04  0.00000000000E+00 0.  1.
          1    1    1    2  502    0  0.10343055003E+03 -0.73789049112E+02 -0.56252404587E+02  0.13894975880E+03  0.00000000000E+00 0. -1.
         22    1    1    2    0    0  0.12173252620E+02  0.74555221889E+01  0.76995912243E+02  0.78308003375E+02  0.00000000000E+00 0. -1.
         22    1    1    2    0    0 -0.30367621043E+02  0.59423868541E+01 -0.43472779088E+02  0.53360911639E+02  0.00000000000E+00 0. -1.
</event>
<event>
 6    1  0.8017648E-006  0.2563320E+02  0.7818608E-02  0.1687540E+00
          2   -1    0    0  502    0  0.00000000000E+00  0.00000000000E+00  0.79860471838E+02  0.79860471838E+02  0.00000000000E+00 0.  1.
          1   -1    0    0  501    0 -0.00000000000E+00 -0.00000000000E+00 -0.21566579014E+03  0.21566579014E+03  0.00000000000E+00 0. -1.
          2    1    1    2  501    0  0.41106733700E+02 -0.19517160519E+02  0.32952698350E+02  0.56183302135E+02  0.00000000000E+00 0.  1.
          1    1    1    2  502    0 -0.33004101845E+02  0.36140836275E+00 -0.85473749749E+02  0.91625123469E+02  0.00000000000E+00 0. -1.
         22    1    1    2    0    0  0.48320088551E+01  0.18565945707E+02 -0.11336076491E+03  0.11497263009E+03  0.00000000000E+00 0. -1.
         22    1    1    2    0    0 -0.12934640710E+02  0.58980644911E+00  0.30076498007E+02  0.32745206280E+02  0.00000000000E+00 0.  1.
</event>
<event>
 6    1  0.8017648E-006  0.1625875E+03  0.7818608E-02  0.1203319E+00
          2   -1    0    0  502    0  0.00000000000E+00  0.00000000000E+00  0.33621439133E+04  0.33621439133E+04  0.00000000000E+00 0. -1.
          1   -1    0    0  501    0 -0.00000000000E+00 -0.00000000000E+00 -0.18822721683E+03  0.18822721683E+03  0.00000000000E+00 0. -1.
          2    1    1    2  501    0 -0.65483644951E+03 -0.88218148954E+02  0.20369222163E+04  0.21414119951E+04  0.00000000000E+00 0. -1.
          1    1    1    2  502    0  0.64707468115E+03  0.99071776360E+02  0.10921811976E+04  0.12733344526E+04  0.00000000000E+00 0. -1.
         22    1    1    2    0    0  0.15582546506E+02 -0.37010295120E+02 -0.33748074649E+02  0.52454840034E+02  0.00000000000E+00 0.  1.
         22    1    1    2    0    0 -0.78207781474E+01  0.26156667714E+02  0.78561357188E+02  0.83169842370E+02  0.00000000000E+00 0.  1.
</event>
<event>
 6    1  0.8017648E-006  0.7482521E+02  0.7818608E-02  0.1456058E+00
          2   -1    0    0  502    0  0.00000000000E+00  0.00000000000E+00  0.19653202690E+03  0.19653202690E+03  0.00000000000E+00 0.  1.
          1   -1    0    0  501    0 -0.00000000000E+00 -0.00000000000E+00 -0.12961294251E+03  0.12961294251E+03  0.00000000000E+00 0. -1.
          2    1    1    2  501    0  0.80996017261E+01 -0.28627268880E+02  0.46731959915E+02  0.55398557284E+02  0.00000000000E+00 0.  1.
          1    1    1    2  502    0 -0.37406165520E+02  0.70027037700E+02 -0.73356276197E+02  0.10809324903E+03  0.00000000000E+00 0. -1.
         22    1    1    2    0    0  0.12274860301E+02 -0.34178028911E+01 -0.29835038842E+02  0.32441996158E+02  0.00000000000E+00 0.  1.
         22    1    1    2    0    0  0.17031703493E+02 -0.37981965929E+02  0.12337843951E+03  0.13021116694E+03  0.00000000000E+00 0.  1.
</event>
<event>
 6    1  0.8017648E-006  0.7008445E+02  0.7818608E-02  0.1373683E+00
          2   -1    0    0  502    0  0.00000000000E+00  0.00000000000E+00  0.13826401973E+03  0.13826401973E+03  0.00000000000E+00 0. -1.
          1   -1    0    0  501    0 -0.00000000000E+00 -0.00000000000E+00 -0.13293179192E+03  0.13293179192E+03  0.00000000000E+00 0. -1.
          2    1    1    2  501    0  0.42165013588E+02 -0.32048294736E+02  0.47002401672E+02  0.70811067844E+02  0.00000000000E+00 0. -1.
          1    1    1    2  502    0 -0.59708900696E+02 -0.38486838295E+01 -0.74729295250E+01  0.60297677113E+02  0.00000000000E+00 0. -1.
         22    1    1    2    0    0  0.14724262321E+02 -0.19667727644E+02  0.40244826201E+02  0.47151558273E+02  0.00000000000E+00 0. -1.
         22    1    1    2    0    0  0.28196247872E+01  0.55564706209E+02 -0.74442070542E+02  0.92935508427E+02  0.00000000000E+00 0. -1.
</event>
<event>
 6    1  0.8017648E-006  0.5606556E+02  0.7818608E-02  0.1515865E+00
          2   -1    0    0  502    0  0.00000000000E+00  0.00000000000E+00  0.15333305308E+03  0.15333305308E+03  0.00000000000E+00 0. -1.
          1   -1    0    0  501    0 -0.00000000000E+00 -0.00000000000E+00 -0.13388841835E+03  0.13388841835E+03  0.00000000000E+00 0.  1.
          2    1    1    2  501    0 -0.22969633799E+02  0.89285789227E+01  0.55128804538E+02  0.60386328653E+02  0.00000000000E+00 0. -1.
          1    1    1    2  502    0  0.42348317288E+02  0.20871704198E+02 -0.77826620539E+02  0.91027418275E+02  0.00000000000E+00 0.  1.
         22    1    1    2    0    0 -0.13095180081E+02  0.29373993808E+00 -0.43176140241E+02  0.45119276486E+02  0.00000000000E+00 0.  1.
         22    1    1    2    0    0 -0.62835034089E+01 -0.30094023059E+02  0.85318590974E+02  0.90688448023E+02  0.00000000000E+00 0. -1.
</event>
<event>
 6    1  0.8017648E-006  0.9927297E+02  0.7818608E-02  0.1359673E+00
          2   -1    0    0  502    0  0.00000000000E+00  0.00000000000E+00  0.11774082860E+03  0.11774082860E+03  0.00000000000E+00 0.  1.
          1   -1    0    0  501    0 -0.00000000000E+00 -0.00000000000E+00 -0.40623987182E+03  0.40623987182E+03  0.00000000000E+00 0.  1.
          2    1    1    2  501    0 -0.70367765744E+01  0.86625505019E+02 -0.13096356702E+03  0.15717808445E+03  0.00000000000E+00 0.  1.
          1    1    1    2  502    0  0.44968943640E+02 -0.16502261179E+03 -0.11644916278E+03  0.20691804127E+03  0.00000000000E+00 0.  1.
         22    1    1    2    0    0  0.20636776325E+02  0.88822865597E+01 -0.62569876730E+02  0.66481283273E+02  0.00000000000E+00 0. -1.
         22    1    1    2    0    0 -0.58568943391E+02  0.69514820207E+02  0.21483563306E+02  0.93403291433E+02  0.00000000000E+00 0.  1.
</event>
<event>
 6    1  0.8017648E-006  0.1084183E+03  0.7818608E-02  0.1336900E+00
          2   -1    0    0  502    0  0.00000000000E+00  0.00000000000E+00  0.37944187684E+02  0.37944187684E+02  0.00000000000E+00 0.  1.
          1   -1    0    0  501    0 -0.00000000000E+00 -0.00000000000E+00 -0.43169152887E+03  0.43169152887E+03  0.00000000000E+00 0.  1.
          2    1    1    2  501    0  0.93745266783E+01  0.25508802665E+02 -0.67951736657E+02  0.73184829566E+02  0.00000000000E+00 0.  1.
          1    1    1    2  502    0 -0.61372990471E+01  0.42246725432E+02 -0.20197853973E+03  0.20644074878E+03  0.00000000000E+00 0.  1.
         22    1    1    2    0    0 -0.72386935021E+01 -0.27061663914E+02 -0.14237579385E+03  0.14510547547E+03  0.00000000000E+00 0.  1.
         22    1    1    2    0    0  0.40014658709E+01 -0.40693864182E+02  0.18558729047E+02  0.44904662731E+02  0.00000000000E+00 0.  1.
</event>
<event>
 6    1  0.8017648E-006  0.5233974E+02  0.7818608E-02  0.1552049E+00
          2   -1    0    0  502    0  0.00000000000E+00  0.00000000000E+00  0.16310620783E+03  0.16310620783E+03  0.00000000000E+00 0. -1.
          1   -1    0    0  501    0 -0.00000000000E+00 -0.00000000000E+00 -0.57987422115E+02  0.57987422115E+02  0.00000000000E+00 0. -1.
          2    1    1    2  501    0 -0.13150191117E+02 -0.15324023468E+02  0.18725425669E+02  0.27538968538E+02  0.00000000000E+00 0. -1.
          1    1    1    2  502    0  0.10526973787E+02  0.38447921071E+02  0.31356810103E+02  0.50717939150E+02  0.00000000000E+00 0. -1.
         22    1    1    2    0    0  0.10002967750E+02  0.43902715052E+00 -0.41758450009E+02  0.42942056959E+02  0.00000000000E+00 0. -1.
         22    1    1    2    0    0 -0.73797504190E+01 -0.23562924754E+02  0.96794999952E+02  0.99894665297E+02  0.00000000000E+00 0. -1.
</event>
<event>
 6    1  0.8017648E-006  0.2095806E+03  0.7818608E-02  0.1224717E+00
          2   -1    0    0  502    0  0.00000000000E+00  0.00000000000E+00  0.64007192258E+03  0.64007192258E+03  0.00000000000E+00 0.  1.
          1   -1    0    0  501    0 -0.00000000000E+00 -0.00000000000E+00 -0.68285104863E+03  0.68285104863E+03  0.00000000000E+00 0. -1.
          2    1    1    2  501    0  0.63639676720E+02 -0.13264240548E+03  0.40533898456E+03  0.43121190682E+03  0.00000000000E+00 0.  1.
          1    1    1    2  502    0 -0.34272669242E+02  0.17388682955E+03 -0.63601177142E+03  0.66024405998E+03  0.00000000000E+00 0. -1.
         22    1    1    2    0    0 -0.46697348346E+01 -0.62894066009E+02  0.18834226934E+03  0.19862094648E+03  0.00000000000E+00 0. -1.
         22    1    1    2    0    0 -0.24697272644E+02  0.21649641937E+02 -0.44860852493E+00  0.32846057932E+02  0.00000000000E+00 0.  1.
</event>
<event>
 6    1  0.8017648E-006  0.3172601E+02  0.7818608E-02  0.1606040E+00
          2   -1    0    0  502    0  0.00000000000E+00  0.00000000000E+00  0.11071107214E+03  0.11071107214E+03  0.00000000000E+00 0.  1.
          1   -1    0    0  501    0 -0.00000000000E+00 -0.00000000000E+00 -0.13774779190E+03  0.13774779190E+03  0.00000000000E+00 0. -1.
          2    1    1    2  501    0 -0.26139992993E+02  0.33958485581E+01  0.10766395759E+02  0.28473607056E+02  0.00000000000E+00 0.  1.
          1    1    1    2  502    0  0.33325711331E+02 -0.24326494485E+02 -0.79114476418E+02  0.89227135718E+02  0.00000000000E+00 0. -1.
         22    1    1    2    0    0 -0.21989708512E+02  0.11087853511E+02  0.82393125685E+02  0.85994854126E+02  0.00000000000E+00 0.  1.
         22    1    1    2    0    0  0.14803990174E+02  0.98427924157E+01 -0.41081764788E+02  0.44763267147E+02  0.00000000000E+00 0. -1.
</event>
<event>
 6    1  0.8017648E-006  0.2167224E+03  0.7818608E-02  0.1248758E+00
          2   -1    0    0  502    0  0.00000000000E+00  0.00000000000E+00  0.39668261972E+03  0.39668261972E+03  0.00000000000E+00 0. -1.
          1   -1    0    0  501    0 -0.00000000000E+00 -0.00000000000E+00 -0.81814018498E+02  0.81814018498E+02  0.00000000000E+00 0. -1.
          2    1    1    2  501    0 -0.25868952012E+01  0.31954377855E+02 -0.28875988753E+02  0.43146228309E+02  0.00000000000E+00 0. -1.
          1    1    1    2  502    0 -0.78863845162E+02 -0.71478023564E+02  0.99992134992E+02  0.14603780670E+03  0.00000000000E+00 0. -1.
         22    1    1    2    0    0 -0.45416386429E+01 -0.17602584776E+02 -0.59354848984E+01  0.19123479112E+02  0.00000000000E+00 0.  1.
         22    1    1    2    0    0  0.85992379006E+02  0.57126230485E+02  0.24968793988E+03  0.27018912409E+03  0.00000000000E+00 0. -1.
</event>
<event>
 6    1  0.8017648E-006  0.1539292E+03  0.7818608E-02  0.1239079E+00
          2   -1    0    0  502    0  0.00000000000E+00  0.00000000000E+00  0.15113018286E+03  0.15113018286E+03  0.00000000000E+00 0. -1.
          1   -1    0    0  501    0 -0.00000000000E+00 -0.00000000000E+00 -0.25575549011E+03  0.25575549011E+03  0.00000000000E+00 0. -1.
          2    1    1    2  501    0  0.45179088557E+02  0.50460488266E+02 -0.15687482483E+02  0.69523435081E+02  0.00000000000E+00 0. -1.
          1    1    1    2  502    0 -0.13794106174E+03 -0.72791388346E+02 -0.86018094446E+02  0.17811635327E+03  0.00000000000E+00 0. -1.
         22    1    1    2    0    0  0.44369602717E+02  0.60572874254E+02  0.39059481895E+02  0.84636740642E+02  0.00000000000E+00 0.  1.
         22    1    1    2    0    0  0.48392370464E+02 -0.38241974174E+02 -0.41979212215E+02  0.74609143984E+02  0.00000000000E+00 0. -1.
</event>
<event>
 6    1  0.8017648E-006  0.2210335E+02  0.7818608E-02  0.1759541E+00
          2   -1    0    0  502    0  0.00000000000E+00  0.00000000000E+00  0.21186789256E+03  0.21186789256E+03  0.00000000000E+00 0.  1.
          1   -1    0    0  501    0 -0.00000000000E+00 -0.00000000000E+00 -0.12109084167E+03  0.12109084167E+03  0.00000000000E+00 0.  1.
          2    1    1    2  501    0  0.16756624607E+02  0.13467498998E+02  0.12388004508E+03  0.12573155358E+03  0.00000000000E+00 0.  1.
          1    1    1    2  502    0 -0.19260061310E+02  0.21074521041E+02 -0.68924534826E+02  0.74603464395E+02  0.00000000000E+00 0.  1.
         22    1    1    2    0    0 -0.71037383215E+01 -0.25995706406E+02  0.81149527447E+02  0.85507225745E+02  0.00000000000E+00 0.  1.
         22    1    1    2    0    0  0.96071750241E+01 -0.85463136327E+01 -0.45327986814E+02  0.47116490502E+02  0.00000000000E+00 0.  1.
</event>
<event>
 6    1  0.8017648E-006  0.1958493E+03  0.7818608E-02  0.1234338E+00
          2   -1    0    0  502    0  0.00000000000E+00  0.00000000000E+00  0.18148815619E+03  0.18148815619E+03  0.00000000000E+00 0.  1.
          1   -1    0    0  501    0 -0.00000000000E+00 -0.00000000000E+00 -0.42723656316E+03  0.42723656316E+03  0.00000000000E+00 0.  1.
          2    1    1    2  501    0 -0.74878431663E+01 -0.12235115926E+03  0.32447029559E+02  0.12680174957E+03  0.00000000000E+00 0.  1.
          1    1    1    2  502    0  0.77507175292E+02  0.18997548315E+03 -0.24957615585E+03  0.32308869368E+03  0.00000000000E+00 0.  1.
         22    1    1    2    0    0 -0.29615487555E+02 -0.14534629423E+02 -0.72039097800E+02  0.79233605039E+02  0.00000000000E+00 0.  1.
         22    1    1    2    0    0 -0.40403844570E+02 -0.53089694463E+02  0.43419817119E+02  0.79600671058E+02  0.00000000000E+00 0.  1.
</event>
<event>
 6    1  0.8017648E-006  0.1205517E+03  0.7818608E-02  0.1338928E+00
          2   -1    0    0  502    0  0.00000000000E+00  0.00000000000E+00  0.61790441599E+03  0.61790441599E+03  0.00000000000E+00 0.  1.
          1   -1    0    0  501    0 -0.00000000000E+00 -0.00000000000E+00 -0.38084778366E+02  0.38084778366E+02  0.00000000000E+00 0. -1.
          2    1    1    2  501    0 -0.19471874712E+02  0.30868445862E+02  0.19475705122E+03  0.19814722773E+03  0.00000000000E+00 0.  1.
          1    1    1    2  502    0  0.89337367080E+02 -0.24605958199E+02  0.89774559409E+02  0.12901972660E+03  0.00000000000E+00 0. -1.
         22    1    1    2    0    0  0.11233155299E+02  0.16148923832E+02 -0.20789798077E+01  0.19781144455E+02  0.00000000000E+00 0. -1.
         22    1    1    2    0    0 -0.81098647668E+02 -0.22411411494E+02  0.29736700680E+03  0.30904109557E+03  0.00000000000E+00 0.  1.
</event>
<event>
 6    1  0.8017648E-006  0.1668881E+03  0.7818608E-02  0.1241172E+00
          2   -1    0    0  502    0  0.00000000000E+00  0.00000000000E+00  0.10029057547E+03  0.10029057547E+03  0.00000000000E+00 0.  1.
          1   -1    0    0  501    0 -0.00000000000E+00 -0.00000000000E+00 -0.52695656924E+03  0.52695656924E+03  0.00000000000E+00 0. -1.
          2    1    1    2  501    0  0.11057359013E+02 -0.53010459608E+02 -0.23445241597E+02  0.59008926187E+02  0.00000000000E+00 0.  1.
          1    1    1    2  502    0 -0.49717651151E+02  0.18233305145E+03 -0.31083082200E+03  0.36377601130E+03  0.00000000000E+00 0. -1.
         22    1    1    2    0    0  0.56411304755E+02 -0.86469505536E+02 -0.24575601049E+01  0.10327269868E+03  0.00000000000E+00 0. -1.
         22    1    1    2    0    0 -0.17751012618E+02 -0.42853086309E+02 -0.89932370060E+02  0.10118950855E+03  0.00000000000E+00 0.  1.
</event>
<event>
 6    1  0.8017648E-006  0.7079263E+02  0.7818608E-02  0.1383588E+00
          2   -1    0    0  502    0  0.00000000000E+00  0.00000000000E+00  0.16276273160E+03  0.16276273160E+03  0.00000000000E+00 0.  1.
          1   -1    0    0  501    0 -0.00000000000E+00 -0.00000000000E+00 -0.87638068939E+02  0.87638068939E+02  0.00000000000E+00 0.  1.
          2    1    1    2  501    0  0.37629057339E-01 -0.45544910935E+02 -0.54335994087E+01  0.45867900874E+02  0.00000000000E+00 0.  1.
          1    1    1    2  502    0 -0.40843515358E+02  0.62666942794E+01  0.49224263603E+02  0.64268906411E+02  0.00000000000E+00 0.  1.
         22    1    1    2    0    0  0.42239786204E+02  0.77090241230E+02 -0.46766366737E+01  0.88028266835E+02  0.00000000000E+00 0.  1.
         22    1    1    2    0    0 -0.14338999030E+01 -0.37812024575E+02  0.36010635143E+02  0.52235726421E+02  0.00000000000E+00 0. -1.
</event>
<event>
 6    1  0.8017648E-006  0.1142166E+03  0.7818608E-02  0.1381383E+00
          2   -1    0    0  502    0  0.00000000000E+00  0.00000000000E+00  0.41489131146E+03  0.41489131146E+03  0.00000000000E+00 0. -1.
          1   -1    0    0  501    0 -0.00000000000E+00 -0.00000000000E+00 -0.12335272535E+03  0.12335272535E+03  0.00000000000E+00 0. -1.
          2    1    1    2  501    0  0.15111173689E+02  0.13289994653E+03  0.27195606033E+02  0.13649301941E+03  0.00000000000E+00 0. -1.
          1    1    1    2  502    0  0.79404076635E+02 -0.79985627737E+02  0.18149518623E+03  0.21364271730E+03  0.00000000000E+00 0. -1.
         22    1    1    2    0    0 -0.56702673585E+01  0.91211961620E+01 -0.29876216689E+02  0.31748015292E+02  0.00000000000E+00 0.  1.
         22    1    1    2    0    0 -0.88844982966E+02 -0.62035514959E+02  0.11272401054E+03  0.15636028481E+03  0.00000000000E+00 0.  1.
</event>
<event>
 6    1  0.8017648E-006  0.1718382E+03  0.7818608E-02  0.1283330E+00
          2   -1    0    0  502    0  0.00000000000E+00  0.00000000000E+00  0.61768262897E+03  0.61768262897E+03  0.00000000000E+00 0.  1.
          1   -1    0    0  501    0 -0.00000000000E+00 -0.00000000000E+00 -0.92428609954E+02  0.92428609954E+02  0.00000000000E+00 0.  1.
          2    1    1    2  501    0 -0.11031804473E+02  0.98343735333E+02  0.24432023529E+03  0.26360115395E+03  0.00000000000E+00 0.  1.
          1    1    1    2  502    0  0.14767153917E+02 -0.16536444367E+03  0.48312554167E+02  0.17290914075E+03  0.00000000000E+00 0.  1.
         22    1    1    2    0    0  0.14601412770E+02  0.70170870176E+02  0.24226483260E+03  0.25264481271E+03  0.00000000000E+00 0. -1.
         22    1    1    2    0    0 -0.18336762215E+02 -0.31501618352E+01 -0.96436030448E+01  0.20956131508E+02  0.00000000000E+00 0.  1.
</event>
<event>
 6    1  0.8017648E-006  0.1911030E+03  0.7818608E-02  0.1257568E+00
          2   -1    0    0  502    0  0.00000000000E+00  0.00000000000E+00  0.14511610401E+04  0.14511610401E+04  0.00000000000E+00 0. -1.
          1   -1    0    0  501    0 -0.00000000000E+00 -0.00000000000E+00 -0.14648825238E+03  0.14648825238E+03  0.00000000000E+00 0. -1.
          2    1    1    2  501    0  0.15786589149E+03 -0.32263863177E+02  0.82456665310E+03  0.84016234262E+03  0.00000000000E+00 0. -1.
          1    1    1    2  502    0 -0.15489074933E+03  0.31123406721E+02  0.57827742515E+03  0.59947025874E+03  0.00000000000E+00 0. -1.
         22    1    1    2    0    0 -0.88075334310E+01  0.20438231907E+02 -0.12358782368E+03  0.12557565102E+03  0.00000000000E+00 0. -1.
         22    1    1    2    0    0  0.58323912690E+01 -0.19297775450E+02  0.25416533156E+02  0.32441040102E+02  0.00000000000E+00 0. -1.
</event>
<event>
 6    1  0.8017648E-006  0.8505556E+02  0.7818608E-02  0.1356682E+00
          2   -1    0    0  502    0  0.00000000000E+00  0.00000000000E+00  0.12427438489E+03  0.12427438489E+03  0.00000000000E+00 0. -1.
          1   -1    0    0  501    0 -0.00000000000E+00 -0.00000000000E+00 -0.32246910916E+03  0.32246910916E+03  0.00000000000E+00 0.  1.
          2    1    1    2  501    0 -0.44291361525E+02  0.98134495888E+02  0.29230294887E+02  0.11156394636E+03  0.00000000000E+00 0. -1.
          1    1    1    2  502    0  0.54199029965E+01 -0.61549515985E+02 -0.17623241045E+03  0.18675004889E+03  0.00000000000E+00 0.  1.
         22    1    1    2    0    0  0.90856675555E+00 -0.20251101671E+02 -0.89688109357E+02  0.91950473476E+02  0.00000000000E+00 0.  1.
         22    1    1    2    0    0  0.37962891773E+02 -0.16333878233E+02  0.38495500662E+02  0.56479025320E+02  0.00000000000E+00 0. -1.
</event>
<event>
 6    1  0.8017648E-006  0.6537106E+02  0.7818608E-02  0.1434326E+00
          2   -1    0    0  502    0  0.00000000000E+00  0.00000000000E+00  0.32387718692E+03  0.32387718692E+03  0.00000000000E+00 0.  1.
          1   -1    0    0  501    0 -0.00000000000E+00 -0.00000000000E+00 -0.51954119160E+02  0.51954119160E+02  0.00000000000E+00 0.  1.
          2    1    1    2  501    0  0.25707714983E+02  0.45317212656E+02  0.15440844785E+03  0.16296166770E+03  0.00000000000E+00 0.  1.
          1    1    1    2  502    0 -0.17992211029E+02 -0.43934459209E+02  0.61218368025E+02  0.77470284286E+02  0.00000000000E+00 0.  1.
         22    1    1    2    0    0 -0.92663102376E+01 -0.24696733159E+02 -0.33485428506E+02  0.42627069525E+02  0.00000000000E+00 0.  1.
         22    1    1    2    0    0  0.15508062836E+01  0.23313979712E+02  0.89781680389E+02  0.92772284566E+02  0.00000000000E+00 0. -1.
</event>
<event>
 6    1  0.8017648E-006  0.2998374E+02  0.7818608E-02  0.1652201E+00
          2   -1    0    0  502    0  0.00000000000E+00  0.00000000000E+00  0.24814106249E+03  0.24814106249E+03  0.00000000000E+00 0. -1.
          1   -1    0    0  501    0 -0.00000000000E+00 -0.00000000000E+00 -0.89316975811E+02  0.89316975811E+02  0.00000000000E+00 0. -1.
          2    1    1    2  501    0 -0.87625104666E+01 -0.47750973740E+02  0.14433774174E+03  0.15228368519E+03  0.00000000000E+00 0. -1.
          1    1    1    2  502    0  0.34841557561E+02  0.42738078060E+02 -0.66893513455E+01  0.55544800575E+02  0.00000000000E+00 0. -1.
         22    1    1    2    0    0 -0.94624064328E+01 -0.33773410370E+01 -0.52595261199E+02  0.53546289027E+02  0.00000000000E+00 0. -1.
         22    1    1    2    0    0 -0.16616640662E+02  0.83902367172E+01  0.73770957484E+02  0.76083263515E+02  0.00000000000E+00 0. -1.
</event>
<event>
 6    1  0.8017648E-006  0.2182033E+03  0.7818608E-02  0.1261390E+00
          2   -1    0    0  502    0  0.00000000000E+00  0.00000000000E+00  0.12664862585E+04  0.12664862585E+04  0.00000000000E+00 0. -1.
          1   -1    0    0  501    0 -0.00000000000E+00 -0.00000000000E+00 -0.53680656764E+02  0.53680656764E+02  0.00000000000E+00 0. -1.
          2    1    1    2  501    0  0.32783321906E+02  0.31201583656E+02  0.87226642690E+03  0.87343975437E+03  0.00000000000E+00 0. -1.
          1    1    1    2  502    0  0.18846960612E+02 -0.10920147021E+03  0.61073332850E+02  0.12653110687E+03  0.00000000000E+00 0. -1.
         22    1    1    2    0    0  0.85597361460E+01 -0.10910541789E+02 -0.60723293831E+01  0.15138764453E+02  0.00000000000E+00 0. -1.
         22    1    1    2    0    0 -0.60190018664E+02  0.88910428341E+02  0.28553817142E+03  0.30505728962E+03  0.00000000000E+00 0. -1.
</event>
<event>
 6    1  0.8017648E-006  0.9550302E+02  0.7818608E-02  0.1419056E+00
          2   -1    0    0  502    0  0.00000000000E+00  0.00000000000E+00  0.43485722360E+03  0.43485722360E+03  0.00000000000E+00 0. -1.
          1   -1    0    0  501    0 -0.00000000000E+00 -0.00000000000E+00 -0.10981949217E+03  0.10981949217E+03  0.00000000000E+00 0.  1.
          2    1    1    2  501    0  0.87201768202E+01  0.33095747033E+02  0.86437048871E+02  0.92966302352E+02  0.00000000000E+00 0. -1.
          1    1    1    2  502    0 -0.54113128043E+01 -0.92569968026E+02 -0.68971667365E+02  0.11556631077E+03  0.00000000000E+00 0.  1.
         22    1    1    2    0    0 -0.11479971034E+02  0.52604689769E+02  0.31721903326E+03  0.32175605384E+03  0.00000000000E+00 0. -1.
         22    1    1    2    0    0  0.81711070177E+01  0.68695312236E+01 -0.96466833281E+01  0.14388048803E+02  0.00000000000E+00 0. -1.
</event>
<event>
 6    1  0.8017648E-006  0.2743459E+03  0.7818608E-02  0.1197903E+00
          2   -1    0    0  502    0  0.00000000000E+00  0.00000000000E+00  0.10833558637E+04  0.10833558637E+04  0.00000000000E+00 0. -1.
          1   -1    0    0  501    0 -0.00000000000E+00 -0.00000000000E+00 -0.12287107112E+03  0.12287107112E+03  0.00000000000E+00 0. -1.
          2    1    1    2  501    0 -0.10032569668E+03 -0.18877539280E+03  0.58683424025E+03  0.62456050137E+03  0.00000000000E+00 0. -1.
          1    1    1    2  502    0  0.12514563005E+03  0.23650262748E+03  0.12256540211E+03  0.29430800077E+03  0.00000000000E+00 0. -1.
         22    1    1    2    0    0  0.43677184134E+00 -0.53582682049E+02  0.25550012801E+03  0.26105863325E+03  0.00000000000E+00 0. -1.
         22    1    1    2    0    0 -0.25256705213E+02  0.58554473697E+01 -0.44149777728E+01  0.26299799445E+02  0.00000000000E+00 0.  1.
</event>
<event>
 6    1  0.8017648E-006  0.8467758E+02  0.7818608E-02  0.1362190E+00
          2   -1    0    0  502    0  0.00000000000E+00  0.00000000000E+00  0.80948292588E+03  0.80948292588E+03  0.00000000000E+00 0. -1.
          1   -1    0    0  501    0 -0.00000000000E+00 -0.00000000000E+00 -0.64776572098E+02  0.64776572098E+02  0.00000000000E+00 0. -1.
          2    1    1    2  501    0  0.46687298375E+02  0.14247550882E+03  0.36040119169E+03  0.39034343010E+03  0.00000000000E+00 0. -1.
          1    1    1    2  502    0 -0.76989089322E+02 -0.14764600259E+03  0.23518430888E+03  0.28816370538E+03  0.00000000000E+00 0. -1.
         22    1    1    2    0    0 -0.15600486826E+02  0.13198994049E+02 -0.14867853364E+02  0.25271361197E+02  0.00000000000E+00 0.  1.
         22    1    1    2    0    0  0.45902277773E+02 -0.80285002788E+01  0.16398870658E+03  0.17048100131E+03  0.00000000000E+00 0. -1.
</event>
<event>
 6    1  0.8017648E-006  0.8077717E+02  0.7818608E-02  0.1328325E+00
          2   -1    0    0  502    0  0.00000000000E+00  0.00000000000E+00  0.26545780820E+03  0.26545780820E+03  0.00000000000E+00 0.  1.
          1   -1    0    0  501    0 -0.00000000000E+00 -0.00000000000E+00 -0.14969499925E+03  0.14969499925E+03  0.00000000000E+00 0.  1.
          2    1    1    2  501    0  0.44289789201E+02  0.19254529188E+02  0.17402415718E+03  0.18060102326E+03  0.00000000000E+00 0.  1.
          1    1    1    2  502    0 -0.39886109201E+02 -0.13058007828E+02 -0.96542753751E+02  0.10527068242E+03  0.00000000000E+00 0.  1.
         22    1    1    2    0    0 -0.33739913609E+02 -0.75013099014E+01 -0.35696589883E+02  0.49688006096E+02  0.00000000000E+00 0. -1.
         22    1    1    2    0    0  0.29336233609E+02  0.13047885415E+01  0.73977995399E+02  0.79593095672E+02  0.00000000000E+00 0. -1.
</event>
<event>
 6    1  0.8017648E-006  0.6715779E+02  0.7818608E-02  0.1409073E+00
          2   -1    0    0  502    0  0.00000000000E+00  0.00000000000E+00  0.42398082840E+03  0.42398082840E+03  0.00000000000E+00 0.  1.
          1   -1    0    0  501    0 -0.00000000000E+00 -0.00000000000E+00 -0.26146066702E+02  0.26146066702E+02  0.00000000000E+00 0. -1.
          2    1    1    2  501    0  0.55297909971E+01  0.20809452784E+02  0.19096498818E+02  0.28779996191E+02  0.00000000000E+00 0.  1.
          1    1    1    2  502    0 -0.13608291401E+02 -0.33285780471E+02  0.18797611653E+03  0.19138481957E+03  0.00000000000E+00 0. -1.
         22    1    1    2    0    0 -0.35822753492E+02  0.11793140471E+01  0.20708723710E+01  0.35901935348E+02  0.00000000000E+00 0. -1.
         22    1    1    2    0    0  0.43901253896E+02  0.11297013640E+02  0.18869127399E+03  0.19406014400E+03  0.00000000000E+00 0.  1.
</event>
<event>
 6    1  0.8017648E-006  0.5348519E+02  0.7818608E-02  0.1475359E+00
          2   -1    0    0  502    0  0.00000000000E+00  0.00000000000E+00  0.11382344711E+03  0.11382344711E+03  0.00000000000E+00 0.  1.
          1   -1    0    0  501    0 -0.00000000000E+00 -0.00000000000E+00 -0.33495932657E+03  0.33495932657E+03  0.00000000000E+00 0. -1.
          2    1    1    2  501    0  0.18853918976E+02 -0.28973268764E+02  0.67737703496E+02  0.76048123175E+02  0.00000000000E+00 0.  1.
          1    1    1    2  502    0 -0.22396636966E+02  0.15831815435E+02 -0.23970821680E+03  0.24127222163E+03  0.00000000000E+00 0. -1.
         22    1    1    2    0    0  0.17104507350E+02 -0.95271570690E+01  0.36716164820E+02  0.41610186885E+02  0.00000000000E+00 0. -1.
         22    1    1    2    0    0 -0.13561789360E+02  0.22668610398E+02 -0.85881530979E+02  0.89852241993E+02  0.00000000000E+00 0. -1.
</event>
<event>
 6    1  0.8017648E-006  0.8033821E+02  0.7818608E-02  0.1448824E+00
          2   -1    0    0  502    0  0.00000000000E+00  0.00000000000E+00  0.47423322779E+03  0.47423322779E+03  0.00000000000E+00 0.  1.
          1   -1    0    0  501    0 -0.00000000000E+00 -0.00000000000E+00 -0.23799103082E+02  0.23799103082E+02  0.00000000000E+00 0.  1.
          2    1    1    2  501    0 -0.15074643968E+02 -0.26358171712E+02  0.17146659833E+03  0.17413440915E+03  0.00000000000E+00 0.  1.
          1    1    1    2  502    0  0.24419648682E+02 -0.13182784438E+02  0.21033028945E+02  0.34820875260E+02  0.00000000000E+00 0.  1.
         22    1    1    2    0    0  0.61057240546E+01 -0.96839887462E+01 -0.10617665639E+02  0.15613914560E+02  0.00000000000E+00 0.  1.
         22    1    1    2    0    0 -0.15450728768E+02  0.49224944896E+02  0.26855216307E+03  0.27346313190E+03  0.00000000000E+00 0.  1.
</event>
<event>
 6    1  0.8017648E-006  0.1177636E+03  0.7818608E-02  0.1340145E+00
          2   -1    0    0  502    0  0.00000000000E+00  0.00000000000E+00  0.48467253835E+02  0.48467253835E+02  0.00000000000E+00 0. -1.
          1   -1    0    0  501    0 -0.00000000000E+00 -0.00000000000E+00 -0.27128774165E+03  0.27128774165E+03  0.00000000000E+00 0. -1.
          2    1    1    2  501    0 -0.36016664239E+02  0.30484601456E+01 -0.58982744818E+02  0.69177000502E+02  0.00000000000E+00 0. -1.
          1    1    1    2  502    0 -0.21485815405E+02  0.27580050425E+02 -0.68604425199E+02  0.76999133774E+02  0.00000000000E+00 0. -1.
         22    1    1    2    0    0  0.20658220839E+02  0.37712989509E+00 -0.11836635788E+03  0.12015614421E+03  0.00000000000E+00 0. -1.
         22    1    1    2    0    0  0.36844258805E+02 -0.31005640465E+02  0.23133040082E+02  0.53422716994E+02  0.00000000000E+00 0. -1.
</event>
<event>
 6    1  0.8017648E-006  0.5134917E+02  0.7818608E-02  0.1513478E+00
          2   -1    0    0  502    0  0.00000000000E+00  0.00000000000E+00  0.77760870406E+02  0.77760870406E+02  0.00000000000E+00 0. -1.
          1   -1    0    0  501    0 -0.00000000000E+00 -0.00000000000E+00 -0.47826896277E+03  0.47826896277E+03  0.00000000000E+00 0. -1.
          2    1    1    2  501    0 -0.36831949308E+02  0.21414015479E+02 -0.44625117393E+01  0.42837676872E+02  0.00000000000E+00 0. -1.
          1    1    1    2  502    0  0.51186682971E+02 -0.46543448914E+02 -0.38150199735E+03  0.38772431331E+03  0.00000000000E+00 0. -1.
         22    1    1    2    0    0 -0.46056506914E+01 -0.12409509119E+02 -0.62445716192E+02  0.63833184204E+02  0.00000000000E+00 0.  1.
         22    1    1    2    0    0 -0.97490829707E+01  0.37538942554E+02  0.47902132913E+02  0.61634658793E+02  0.00000000000E+00 0. -1.
</event>
<event>
 6    1  0.8017648E-006  0.4087344E+02  0.7818608E-02  0.1508174E+00
          2   -1    0    0  502    0  0.00000000000E+00  0.00000000000E+00  0.27585212740E+03  0.27585212740E+03  0.00000000000E+00 0.  1.
          1   -1    0    0  501    0 -0.00000000000E+00 -0.00000000000E+00 -0.11710059812E+03  0.11710059812E+03  0.00000000000E+00 0. -1.
          2    1    1    2  501    0 -0.65376392102E+01 -0.23150823154E+02  0.19386933906E+03  0.19535614136E+03  0.00000000000E+00 0.  1.
          1    1    1    2  502    0  0.39099618050E+01  0.27356441097E+02 -0.63874327260E+02  0.69595921962E+02  0.00000000000E+00 0. -1.
         22    1    1    2    0    0  0.10292869859E+02  0.63581921817E+01 -0.48327833416E+02  0.49819165594E+02  0.00000000000E+00 0. -1.
         22    1    1    2    0    0 -0.76651924539E+01 -0.10563810125E+02  0.77084350893E+02  0.78181496611E+02  0.00000000000E+00 0.  1.
</event>
<event>
 6    1  0.1993287E-005  0.5651298E+02  0.7818608E-02  0.1463423E+00
          2   -1    0    0  502    0  0.00000000000E+00  0.00000000000E+00  0.32658637041E+03  0.32658637041E+03  0.00000000000E+00 0.  1.
          1   -1    0    0  501    0 -0.00000000000E+00 -0.00000000000E+00 -0.12053124345E+04  0.12053124345E+04  0.00000000000E+00 0.  1.
          2    1    1    2  501    0 -0.12338590994E+03 -0.44239984588E+02  0.20624190740E+03  0.24437058615E+03  0.00000000000E+00 0.  1.
          1    1    1    2  502    0  0.85939036523E+02  0.62628434522E+02 -0.11386924579E+04  0.11436469527E+04  0.00000000000E+00 0.  1.
         22    1    1    2    0    0  0.11371584472E+02 -0.70517522179E+01 -0.41970358733E+02  0.44051687311E+02  0.00000000000E+00 0.  1.
         22    1    1    2    0    0  0.26075288941E+02 -0.11336697716E+02  0.95694845120E+02  0.99829578738E+02  0.00000000000E+00 0. -1.
</event>
<event>
 6    1  0.8017648E-006  0.1460612E+03  0.7818608E-02  0.1289128E+00
          2   -1    0    0  502    0  0.00000000000E+00  0.00000000000E+00  0.35544719799E+03  0.35544719799E+03  0.00000000000E+00 0. -1.
          1   -1    0    0  501    0 -0.00000000000E+00 -0.00000000000E+00 -0.97315212572E+02  0.97315212572E+02  0.00000000000E+00 0.  1.
          2    1    1    2  501    0 -0.59403069803E+02 -0.40010931334E+01  0.26205786124E+03  0.26873603422E+03  0.00000000000E+00 0. -1.
          1    1    1    2  502    0  0.44478303084E+02  0.34532481306E+02  0.37886268895E+01  0.56437269637E+02  0.00000000000E+00 0.  1.
         22    1    1    2    0    0  0.71146845135E+01 -0.56545060922E+02  0.42097679520E+02  0.70853209323E+02  0.00000000000E+00 0. -1.
         22    1    1    2    0    0  0.78100822055E+01  0.26013672750E+02 -0.49812182230E+02  0.56735897388E+02  0.00000000000E+00 0.  1.
</event>
<event>
 6    1  0.8017648E-006  0.8137817E+02  0.7818608E-02  0.1326137E+00
          2   -1    0    0  502    0  0.00000000000E+00  0.00000000000E+00  0.69912332955E+02  0.69912332955E+02  0.00000000000E+00 0. -1.
          1   -1    0    0  501    0 -0.00000000000E+00 -0.00000000000E+00 -0.38101796912E+03  0.38101796912E+03  0.00000000000E+00 0.  1.
          2    1    1    2  501    0  0.74429808584E+01 -0.58968832233E+02  0.19351090787E+02  0.62507486381E+02  0.00000000000E+00 0. -1.
          1    1    1    2  502    0 -0.27751029400E+01  0.52168827580E+02 -0.20975083852E+03  0.21615897397E+03  0.00000000000E+00 0.  1.
         22    1    1    2    0    0  0.68032133957E+01 -0.17866282785E+02  0.20750954559E+02  0.28215064915E+02  0.00000000000E+00 0.  1.
         22    1    1    2    0    0 -0.11471091314E+02  0.24666287438E+02 -0.14145684299E+03  0.14404877681E+03  0.00000000000E+00 0.  1.
</event>
<event>
 6    1  0.8017648E-006  0.1531918E+03  0.7818608E-02  0.1332246E+00
          2   -1    0    0  502    0  0.00000000000E+00  0.00000000000E+00  0.16223521440E+03  0.16223521440E+03  0.00000000000E+00 0.  1.
          1   -1    0    0  501    0 -0.00000000000E+00 -0.00000000000E+00 -0.20734075190E+03  0.20734075190E+03  0.00000000000E+00 0.  1.
          2    1    1    2  501    0 -0.24705812983E+02 -0.13062611548E+01  0.43890987699E+01  0.25126633308E+02  0.00000000000E+00 0.  1.
          1    1    1    2  502    0  0.45146794624E+02  0.11777126042E+03 -0.10349907790E+03  0.16315747599E+03  0.00000000000E+00 0.  1.
         22    1    1    2    0    0  0.10561644527E+01  0.10719474757E+02 -0.26936990402E+02  0.29010757908E+02  0.00000000000E+00 0. -1.
         22    1    1    2    0    0 -0.21497146094E+02 -0.12718447402E+03  0.80941432029E+02  0.15228109909E+03  0.00000000000E+00 0.  1.
</event>
<event>
 6    1  0.8017648E-006  0.2738261E+02  0.7818608E-02  0.1646000E+00
          2   -1    0    0  502    0  0.00000000000E+00  0.00000000000E+00  0.10425668911E+03  0.10425668911E+03  0.00000000000E+00 0. -1.
          1   -1    0    0  501    0 -0.00000000000E+00 -0.00000000000E+00 -0.17192486402E+03  0.17192486402E+03  0.00000000000E+00 0.  1.
          2    1    1    2  501    0  0.20690785045E+02  0.30074840393E+02  0.42561011258E+02  0.56071778015E+02  0.00000000000E+00 0. -1.
          1    1    1    2  502    0 -0.44103906747E+02 -0.99228278275E+01 -0.78372582830E+02  0.90475846732E+02  0.00000000000E+00 0.  1.
         22    1    1    2    0    0  0.73832731548E+01 -0.12718361271E+02 -0.78442765762E+02  0.79809378749E+02  0.00000000000E+00 0.  1.
         22    1    1    2    0    0  0.16029848547E+02 -0.74336512950E+01  0.46586162432E+02  0.49824549633E+02  0.00000000000E+00 0. -1.
</event>
<event>
 6    1  0.8017648E-006  0.7644069E+02  0.7818608E-02  0.1349086E+00
          2   -1    0    0  502    0  0.00000000000E+00  0.00000000000E+00  0.27802771275E+03  0.27802771275E+03  0.00000000000E+00 0. -1.
          1   -1    0    0  501    0 -0.00000000000E+00 -0.00000000000E+00 -0.14757659648E+03  0.14757659648E+03  0.00000000000E+00 0.  1.
          2    1    1    2  501    0  0.10696344278E+03 -0.22598046425E+02  0.62184254099E+01  0.10950122651E+03  0.00000000000E+00 0. -1.
          1    1    1    2  502    0 -0.13562519408E+03 -0.38202672559E+02  0.94956344485E+02  0.16991275649E+03  0.00000000000E+00 0.  1.
         22    1    1    2    0    0 -0.20950166581E+02  0.40215922195E+02 -0.38657584438E+02  0.59587236153E+02  0.00000000000E+00 0.  1.
         22    1    1    2    0    0  0.49611917878E+02  0.20584796789E+02  0.67933930818E+02  0.86603090077E+02  0.00000000000E+00 0. -1.
</event>
<event>
 6    1  0.8017648E-006  0.1088641E+03  0.7818608E-02  0.1272687E+00
          2   -1    0    0  502    0  0.00000000000E+00  0.00000000000E+00  0.12916937974E+04  0.12916937974E+04  0.00000000000E+00 0. -1.
          1   -1    0    0  501    0 -0.00000000000E+00 -0.00000000000E+00 -0.54950692201E+02  0.54950692201E+02  0.00000000000E+00 0. -1.
          2    1    1    2  501    0 -0.71487255964E+02 -0.71737862571E+02  0.97764743887E+03  0.98287906856E+03  0.00000000000E+00 0. -1.
          1    1    1    2  502    0 -0.51492655207E+01  0.59664865256E+02 -0.48774208986E+01  0.60084942507E+02  0.00000000000E+00 0. -1.
         22    1    1    2    0    0  0.83848137692E+02 -0.31751515937E+02  0.23266053079E+03  0.24933830742E+03  0.00000000000E+00 0.  1.
         22    1    1    2    0    0 -0.72116162067E+01  0.43824513251E+02  0.31312556426E+02  0.54342171101E+02  0.00000000000E+00 0. -1.
</event>
<event>
 6    1  0.8017648E-006  0.3897530E+02  0.7818608E-02  0.1560748E+00
          2   -1    0    0  502    0  0.00000000000E+00  0.00000000000E+00  0.20840142105E+03  0.20840142105E+03  0.00000000000E+00 0. -1.
          1   -1    0    0  501    0 -0.00000000000E+00 -0.00000000000E+00 -0.29428725054E+03  0.29428725054E+03  0.00000000000E+00 0.  1.
          2    1    1    2  501    0  0.10747834411E+02  0.50409465340E+02  0.16125131873E+03  0.16928856409E+03  0.00000000000E+00 0. -1.
          1    1    1    2  502    0 -0.21830191779E+02 -0.45995431716E+02 -0.18826674225E+03  0.19502949328E+03  0.00000000000E+00 0.  1.
         22    1    1    2    0    0  0.23201470949E+02 -0.12576313996E+02 -0.95423345387E+02  0.99005488599E+02  0.00000000000E+00 0. -1.
         22    1    1    2    0    0 -0.12119113581E+02  0.81622803708E+01  0.36552939415E+02  0.39365125615E+02  0.00000000000E+00 0.  1.
</event>
<event>
 6    1  0.8017648E-006  0.1098881E+03  0.7818608E-02  0.1280592E+00
          2   -1    0    0  502    0  0.00000000000E+00  0.00000000000E+00  0.36116669196E+03  0.36116669196E+03  0.00000000000E+00 0. -1.
          1   -1    0    0  501    0 -0.00000000000E+00 -0.00000000000E+00 -0.79228493558E+02  0.79228493558E+02  0.00000000000E+00 0.  1.
          2    1    1    2  501    0  0.71894736962E+02  0.94782068249E+02  0.10282827833E+03  0.15724550387E+03  0.00000000000E+00 0. -1.
          1    1    1    2  502    0 -0.62794220981E+02 -0.47078740960E+02  0.11073897896E+03  0.13573003905E+03  0.00000000000E+00 0.  1.
         22    1    1    2    0    0 -0.41528522599E+02 -0.62378736987E+02  0.54592925963E+01  0.75136734644E+02  0.00000000000E+00 0.  1.
         22    1    1    2    0    0  0.32428006618E+02  0.14675409697E+02  0.62911648516E+02  0.72282907952E+02  0.00000000000E+00 0.  1.
</event>
<event>
 6    1  0.8017648E-006  0.2613677E+03  0.7818608E-02  0.1165474E+00
          2   -1    0    0  502    0  0.00000000000E+00  0.00000000000E+00  0.11113640014E+04  0.11113640014E+04  0.00000000000E+00 0. -1.
          1   -1    0    0  501    0 -0.00000000000E+00 -0.00000000000E+00 -0.10913958008E+03  0.10913958008E+03  0.00000000000E+00 0. -1.
          2    1    1    2  501    0 -0.87140199761E+01 -0.29609718043E+02 -0.50493363128E+00  0.30869475291E+02  0.00000000000E+00 0. -1.
          1    1    1    2  502    0 -0.20373714861E+03  0.17540159946E+03  0.78514341075E+03  0.82989440428E+03  0.00000000000E+00 0. -1.
         22    1    1    2    0    0  0.22819575477E+03 -0.12539295729E+03  0.19282876274E+03  0.32400559868E+03  0.00000000000E+00 0. -1.
         22    1    1    2    0    0 -0.15744586187E+02 -0.20398924131E+02  0.24757181483E+02  0.35734103247E+02  0.00000000000E+00 0.  1.
</event>
<event>
 6    1  0.8017648E-006  0.1364877E+03  0.7818608E-02  0.1332086E+00
          2   -1    0    0  502    0  0.00000000000E+00  0.00000000000E+00  0.55540712839E+03  0.55540712839E+03  0.00000000000E+00 0. -1.
          1   -1    0    0  501    0 -0.00000000000E+00 -0.00000000000E+00 -0.56278533706E+02  0.56278533706E+02  0.00000000000E+00 0. -1.
          2    1    1    2  501    0  0.41883838352E+02  0.50529534655E+02  0.83474324326E+02  0.10618593414E+03  0.00000000000E+00 0. -1.
          1    1    1    2  502    0 -0.95430840656E+02 -0.93057365196E+02  0.26512803839E+03  0.29674837035E+03  0.00000000000E+00 0. -1.
         22    1    1    2    0    0  0.15230633218E+02  0.11322917011E+01 -0.22257431266E+02  0.26993471790E+02  0.00000000000E+00 0.  1.
         22    1    1    2    0    0  0.38316369085E+02  0.41395538840E+02  0.17278366324E+03  0.18175788582E+03  0.00000000000E+00 0. -1.
</event>
<event>
 6    1  0.8017648E-006  0.9180599E+02  0.7818608E-02  0.1346331E+00
          2   -1    0    0  502    0  0.00000000000E+00  0.00000000000E+00  0.24185326599E+03  0.24185326599E+03  0.00000000000E+00 0. -1.
          1   -1    0    0  501    0 -0.00000000000E+00 -0.00000000000E+00 -0.11723431186E+03  0.11723431186E+03  0.00000000000E+00 0. -1.
          2    1    1    2  501    0  0.55329581714E+01 -0.38277659202E+02  0.57107331207E+02  0.68971299086E+02  0.00000000000E+00 0. -1.
          1    1    1    2  502    0  0.14220811374E+02  0.34615515273E+02 -0.83047010033E+02  0.91089358595E+02  0.00000000000E+00 0. -1.
         22    1    1    2    0    0  0.23601317894E+01 -0.39127429927E+02 -0.17961855125E+01  0.39239677332E+02  0.00000000000E+00 0. -1.
         22    1    1    2    0    0 -0.22113901335E+02  0.42789573856E+02  0.15235481847E+03  0.15978724284E+03  0.00000000000E+00 0. -1.
</event>
<event>
 6    1  0.8017648E-006  0.1307525E+03  0.7818608E-02  0.1311107E+00
          2   -1    0    0  502    0  0.00000000000E+00  0.00000000000E+00  0.58721438084E+02  0.58721438084E+02  0.00000000000E+00 0. -1.
          1   -1    0    0  501    0 -0.00000000000E+00 -0.00000000000E+00 -0.39882320799E+03  0.39882320799E+03  0.00000000000E+00 0.  1.
          2    1    1    2  501    0  0.29617928369E+02  0.12078093272E+02 -0.48632848814E+02  0.58208727883E+02  0.00000000000E+00 0. -1.
          1    1    1    2  502    0  0.19706532066E+01 -0.11246246107E+03 -0.12845461216E+03  0.17074037604E+03  0.00000000000E+00 0.  1.
         22    1    1    2    0    0 -0.44504732570E+01  0.24853803939E+02 -0.14389265125E+03  0.14609111323E+03  0.00000000000E+00 0. -1.
         22    1    1    2    0    0 -0.27138108319E+02  0.75530563856E+02 -0.19121657684E+02  0.82504428924E+02  0.00000000000E+00 0. -1.
</event>
<event>
 6    1  0.8017648E-006  0.4152513E+02  0.7818608E-02  0.1589430E+00
          2   -1    0    0  502    0  0.00000000000E+00  0.00000000000E+00  0.15934562078E+03  0.15934562078E+03  0.00000000000E+00 0.  1.
          1   -1    0    0  501    0 -0.00000000000E+00 -0.00000000000E+00 -0.13876534500E+03  0.13876534500E+03  0.00000000000E+00 0. -1.
          2    1    1    2  501    0  0.15789025728E+02 -0.12612113811E+02  0.75243786014E+02  0.77910115402E+02  0.00000000000E+00 0.  1.
          1    1    1    2  502    0 -0.20123992022E+01  0.22807084772E+02 -0.90450830537E+02  0.93303620568E+02  0.00000000000E+00 0. -1.
         22    1    1    2    0    0 -0.66594477116E+01 -0.20550097810E+02  0.78997157130E+02  0.81897531089E+02  0.00000000000E+00 0.  1.
         22    1    1    2    0    0 -0.71171788146E+01  0.10355126849E+02 -0.43209836830E+02  0.44999698724E+02  0.00000000000E+00 0.  1.
</event>
<event>
 6    1  0.1151071E-005  0.5349462E+02  0.7818608E-02  0.1481238E+00
          2   -1    0    0  502    0  0.00000000000E+00  0.00000000000E+00  0.50552098847E+02  0.50552098847E+02  0.00000000000E+00 0. -1.
          1   -1    0    0  501    0 -0.00000000000E+00 -0.00000000000E+00 -0.22617904247E+04  0.22617904247E+04  0.00000000000E+00 0.  1.
          2    1    1    2  501    0 -0.74051376789E+01  0.78073865034E+02 -0.58749398915E+03  0.59270528237E+03  0.00000000000E+00 0. -1.
          1    1    1    2  502    0  0.29843888507E+02 -0.65320216836E+02 -0.15896049352E+04  0.15912263316E+04  0.00000000000E+00 0.  1.
         22    1    1    2    0    0 -0.36651707598E+02 -0.39469310773E+01  0.38835204968E+02  0.53545299324E+02  0.00000000000E+00 0. -1.
         22    1    1    2    0    0  0.14212956770E+02 -0.88067171207E+01 -0.72974606519E+02  0.74865610284E+02  0.00000000000E+00 0.  1.
</event>
<event>
 6    1  0.8017648E-006  0.4232090E+02  0.7818608E-02  0.1572346E+00
          2   -1    0    0  502    0  0.00000000000E+00  0.00000000000E+00  0.15126730224E+03  0.15126730224E+03  0.00000000000E+00 0.  1.
          1   -1    0    0  501    0 -0.00000000000E+00 -0.00000000000E+00 -0.11322903072E+03  0.11322903072E+03  0.00000000000E+00 0. -1.
          2    1    1    2  501    0 -0.19321156736E+02  0.80153515691E+01  0.84289485763E+02  0.86846245564E+02  0.00000000000E+00 0.  1.
          1    1    1    2  502    0  0.12237608785E+02 -0.37198098863E+02 -0.21600288022E+02  0.44721695747E+02  0.00000000000E+00 0. -1.
         22    1    1    2    0    0  0.11358965079E+02  0.92579578852E+01 -0.76148358572E+02  0.77545524597E+02  0.00000000000E+00 0. -1.
         22    1    1    2    0    0 -0.42754171274E+01  0.19924789409E+02  0.51497432346E+02  0.55382867052E+02  0.00000000000E+00 0.  1.
</event>
<event>
 6    1  0.8017648E-006  0.5366712E+02  0.7818608E-02  0.1487644E+00
          2   -1    0    0  502    0  0.00000000000E+00  0.00000000000E+00  0.92250421495E+03  0.92250421495E+03  0.00000000000E+00 0. -1.
          1   -1    0    0  501    0 -0.00000000000E+00 -0.00000000000E+00 -0.29920224684E+02  0.29920224684E+02  0.00000000000E+00 0. -1.
          2    1    1    2  501    0  0.38609425778E+02 -0.53656961780E+02  0.48626487689E+03  0.49073749378E+03  0.00000000000E+00 0. -1.
          1    1    1    2  502    0 -0.72915253813E+02  0.15784163038E+02  0.19485536106E+03  0.20864895345E+03  0.00000000000E+00 0. -1.
         22    1    1    2    0    0  0.33288057393E+02  0.21099659459E+02  0.22685351497E+03  0.23025161812E+03  0.00000000000E+00 0. -1.
         22    1    1    2    0    0  0.10177706420E+01  0.16773139283E+02 -0.15389762652E+02  0.22786374283E+02  0.00000000000E+00 0. -1.
</event>
<event>
 6    1  0.8017648E-006  0.1754109E+03  0.7818608E-02  0.1227696E+00
          2   -1    0    0  502    0  0.00000000000E+00  0.00000000000E+00  0.68659299264E+03  0.68659299264E+03  0.00000000000E+00 0.  1.
          1   -1    0    0  501    0 -0.00000000000E+00 -0.00000000000E+00 -0.63929526859E+02  0.63929526859E+02  0.00000000000E+00 0. -1.
          2    1    1    2  501    0 -0.70120429633E+02 -0.68654736808E+02  0.42658274269E+03  0.43772500945E+03  0.00000000000E+00 0.  1.
          1    1    1    2  502    0  0.16219834117E+02  0.66789034786E+02  0.15644641985E+03  0.17087814509E+03  0.00000000000E+00 0. -1.
         22    1    1    2    0    0  0.39317290181E+02 -0.48729744807E+02  0.58790276814E+02  0.85887915238E+02  0.00000000000E+00 0. -1.
         22    1    1    2    0    0  0.14583305335E+02  0.50595446829E+02 -0.19155973570E+02  0.56031449720E+02  0.00000000000E+00 0. -1.
</event>
<event>
 6    1  0.8017648E-006  0.6898333E+02  0.7818608E-02  0.1481906E+00
          2   -1    0    0  502    0  0.00000000000E+00  0.00000000000E+00  0.32900313605E+03  0.32900313605E+03  0.00000000000E+00 0. -1.
          1   -1    0    0  501    0 -0.00000000000E+00 -0.00000000000E+00 -0.15425950491E+03  0.15425950491E+03  0.00000000000E+00 0.  1.
          2    1    1    2  501    0  0.46773124449E+02 -0.38213460200E+02  0.27866121979E+03  0.28513166980E+03  0.00000000000E+00 0. -1.
          1    1    1    2  502    0 -0.23720265684E+02  0.27195181028E+02 -0.53741901830E+02  0.64733460340E+02  0.00000000000E+00 0.  1.
         22    1    1    2    0    0 -0.26693320481E+01 -0.10900298551E+02  0.38344893333E+02  0.39953381419E+02  0.00000000000E+00 0. -1.
         22    1    1    2    0    0 -0.20383526717E+02  0.21918577723E+02 -0.88520580140E+02  0.93444129399E+02  0.00000000000E+00 0.  1.
</event>
<event>
 6    1  0.8017648E-006  0.9031524E+02  0.7818608E-02  0.1360919E+00
          2   -1    0    0  502    0  0.00000000000E+00  0.00000000000E+00  0.11136991446E+03  0.11136991446E+03  0.00000000000E+00 0. -1.
          1   -1    0    0  501    0 -0.00000000000E+00 -0.00000000000E+00 -0.19223541930E+03  0.19223541930E+03  0.00000000000E+00 0.  1.
          2    1    1    2  501    0  0.46203107711E+02  0.51299184118E+02  0.32756391951E+02  0.76415408571E+02  0.00000000000E+00 0. -1.
          1    1    1    2  502    0 -0.58264865481E+02 -0.38253725635E+02 -0.56815149997E+02  0.89922763212E+02  0.00000000000E+00 0.  1.
         22    1    1    2    0    0  0.10049817864E+02  0.19034554576E+02  0.34390507131E+02  0.40571173113E+02  0.00000000000E+00 0. -1.
         22    1    1    2    0    0  0.20119399057E+01 -0.32080013059E+02 -0.91197253918E+02  0.96695988863E+02  0.00000000000E+00 0.  1.
</event>
<event>
 6    1  0.8017648E-006  0.1012058E+03  0.7818608E-02  0.1385447E+00
          2   -1    0    0  502    0  0.00000000000E+00  0.00000000000E+00  0.13087715125E+03  0.13087715125E+03  0.00000000000E+00 0. -1.
          1   -1    0    0  501    0 -0.00000000000E+00 -0.00000000000E+00 -0.10621524526E+03  0.10621524526E+03  0.00000000000E+00 0. -1.
          2    1    1    2  501    0 -0.14309771966E+02  0.19414495041E+02  0.16780162458E+02  0.29381389408E+02  0.00000000000E+00 0. -1.
          1    1    1    2  502    0 -0.60850340618E+02 -0.96849565180E+01  0.19550109000E+02  0.64643399493E+02  0.00000000000E+00 0. -1.
         22    1    1    2    0    0 -0.49214977580E+01 -0.14432136562E+02 -0.51352804260E+02  0.53568817527E+02  0.00000000000E+00 0. -1.
         22    1    1    2    0    0  0.80081610342E+02  0.47025980395E+01  0.39684438788E+02  0.89498790077E+02  0.00000000000E+00 0. -1.
</event>
<event>
 6    1  0.8017648E-006  0.2843250E+02  0.7818608E-02  0.1640099E+00
          2   -1    0    0  502    0  0.00000000000E+00  0.00000000000E+00  0.19066620588E+03  0.19066620588E+03  0.00000000000E+00 0.  1.
          1   -1    0    0  501    0 -0.00000000000E+00 -0.00000000000E+00 -0.65156311809E+02  0.65156311809E+02  0.00000000000E+00 0.  1.
          2    1    1    2  501    0 -0.32554196129E+02  0.39173372661E+02  0.64015091167E+02  0.81806238811E+02  0.00000000000E+00 0.  1.
          1    1    1    2  502    0 -0.71415012893E+01 -0.24538930362E+02  0.28191527912E+02  0.38051575394E+02  0.00000000000E+00 0.  1.
         22    1    1    2    0    0  0.22724673992E+02 -0.56046488278E+01  0.81119608360E+02  0.84428749588E+02  0.00000000000E+00 0.  1.
         22    1    1    2    0    0  0.16971023426E+02 -0.90297934715E+01 -0.47816333373E+02  0.51535953891E+02  0.00000000000E+00 0.  1.
</event>
<event>
 6    1  0.8017648E-006  0.4510836E+02  0.7818608E-02  0.1511457E+00
          2   -1    0    0  502    0  0.00000000000E+00  0.00000000000E+00  0.19201807962E+03  0.19201807962E+03  0.00000000000E+00 0.  1.
          1   -1    0    0  501    0 -0.00000000000E+00 -0.00000000000E+00 -0.10159293290E+03  0.10159293290E+03  0.00000000000E+00 0.  1.
          2    1    1    2  501    0  0.25673878630E+02  0.36652575896E+02  0.81047299862E+02  0.92580906123E+02  0.00000000000E+00 0.  1.
          1    1    1    2  502    0 -0.24549692170E+01 -0.21166931870E+02  0.56926059398E+02  0.60783567823E+02  0.00000000000E+00 0.  1.
         22    1    1    2    0    0 -0.40023842729E+02 -0.42859734368E+02 -0.76918079882E+02  0.96722571459E+02  0.00000000000E+00 0.  1.
         22    1    1    2    0    0  0.16804933315E+02  0.27374090342E+02  0.29369867341E+02  0.43523967115E+02  0.00000000000E+00 0.  1.
</event>
<event>
 6    1  0.8017648E-006  0.2051525E+03  0.7818608E-02  0.1200935E+00
          2   -1    0    0  502    0  0.00000000000E+00  0.00000000000E+00  0.65982851276E+02  0.65982851276E+02  0.00000000000E+00 0. -1.
          1   -1    0    0  501    0 -0.00000000000E+00 -0.00000000000E+00 -0.12150071809E+04  0.12150071809E+04  0.00000000000E+00 0. -1.
          2    1    1    2  501    0  0.17812958249E+03 -0.32736859557E+02 -0.63107673543E+03  0.65655136595E+03  0.00000000000E+00 0. -1.
          1    1    1    2  502    0 -0.17581407385E+03  0.18919988983E+02 -0.13973137269E+03  0.22537393607E+03  0.00000000000E+00 0. -1.
         22    1    1    2    0    0  0.54950128785E+02  0.23314230057E+02 -0.11550861053E+03  0.13002041795E+03  0.00000000000E+00 0. -1.
         22    1    1    2    0    0 -0.57265637418E+02 -0.94973594827E+01 -0.26270761095E+03  0.26904431218E+03  0.00000000000E+00 0. -1.
</event>
<event>
 6    1  0.8017648E-006  0.1304961E+03  0.7818608E-02  0.1258910E+00
          2   -1    0    0  502    0  0.00000000000E+00  0.00000000000E+00  0.55158513752E+02  0.55158513752E+02  0.00000000000E+00 0. -1.
          1   -1    0    0  501    0 -0.00000000000E+00 -0.00000000000E+00 -0.74533428404E+03  0.74533428404E+03  0.00000000000E+00 0. -1.
          2    1    1    2  501    0 -0.13495486393E+03 -0.87822376524E+01 -0.20386359733E+03  0.24464322863E+03  0.00000000000E+00 0. -1.
          1    1    1    2  502    0  0.10170921947E+03  0.31551398141E+02 -0.98201811512E+02  0.14485804028E+03  0.00000000000E+00 0. -1.
         22    1    1    2    0    0  0.66655959540E+02 -0.13799404134E+02 -0.36010794958E+03  0.36648489170E+03  0.00000000000E+00 0. -1.
         22    1    1    2    0    0 -0.33410315079E+02 -0.89697563543E+01 -0.28002411872E+02  0.44506637183E+02  0.00000000000E+00 0. -1.
</event>
<event>
 6    1  0.8017648E-006  0.1384106E+03  0.7818608E-02  0.1296337E+00
          2   -1    0    0  502    0  0.00000000000E+00  0.00000000000E+00  0.27977392226E+03  0.27977392226E+03  0.00000000000E+00 0. -1.
          1   -1    0    0  501    0 -0.00000000000E+00 -0.00000000000E+00 -0.17528197432E+03  0.17528197432E+03  0.00000000000E+00 0. -1.
          2    1    1    2  501    0  0.10278409244E+03 -0.45264462908E+02  0.14160779928E+03  0.18073795971E+03  0.00000000000E+00 0. -1.
          1    1    1    2  502    0 -0.13596736203E+03  0.23825805956E+02 -0.18099724050E+02  0.13922066147E+03  0.00000000000E+00 0. -1.
         22    1    1    2    0    0  0.23203981987E+02 -0.46193522304E+01  0.52904235327E+02  0.57953613439E+02  0.00000000000E+00 0. -1.
         22    1    1    2    0    0  0.99792876044E+01  0.26058009182E+02 -0.71920362619E+02  0.77143661974E+02  0.00000000000E+00 0. -1.
</event>
<event>
 6    1  0.8017648E-006  0.4258286E+02  0.7818608E-02  0.1541887E+00
          2   -1    0    0  502    0  0.00000000000E+00  0.00000000000E+00  0.45155216407E+03  0.45155216407E+03  0.00000000000E+00 0.  1.
          1   -1    0    0  501    0 -0.00000000000E+00 -0.00000000000E+00 -0.87117686491E+02  0.87117686491E+02  0.00000000000E+00 0.  1.
          2    1    1    2  501    0  0.37330948169E+02 -0.88297541906E+02  0.28118026343E+03  0.29707304849E+03  0.00000000000E+00 0.  1.
          1    1    1    2  502    0 -0.41998383569E+02  0.71616958567E+02  0.77636913292E+02  0.11366768794E+03  0.00000000000E+00 0.  1.
         22    1    1    2    0    0  0.14603333453E+02  0.14657986763E+02  0.64728234030E+02  0.67954824733E+02  0.00000000000E+00 0. -1.
         22    1    1    2    0    0 -0.99358980526E+01  0.20225965753E+01 -0.59110933175E+02  0.59974289390E+02  0.00000000000E+00 0.  1.
</event>
<event>
 6    1  0.8017648E-006  0.1516111E+03  0.7818608E-02  0.1302014E+00
          2   -1    0    0  502    0  0.00000000000E+00  0.00000000000E+00  0.20674009549E+03  0.20674009549E+03  0.00000000000E+00 0. -1.
          1   -1    0    0  501    0 -0.00000000000E+00 -0.00000000000E+00 -0.37840186867E+03  0.37840186867E+03  0.00000000000E+00 0. -1.
          2    1    1    2  501    0 -0.31770605192E+02 -0.84325899137E+02  0.10722546356E+03  0.14006258835E+03  0.00000000000E+00 0. -1.
          1    1    1    2  502    0  0.43739106157E+02  0.13092636353E+03 -0.27386797778E+03  0.30668956834E+03  0.00000000000E+00 0. -1.
         22    1    1    2    0    0  0.14540659085E+00 -0.61391829192E+02  0.50612091427E+02  0.79564826609E+02  0.00000000000E+00 0. -1.
         22    1    1    2    0    0 -0.12113907556E+02  0.14791364801E+02 -0.55631350383E+02  0.58824980870E+02  0.00000000000E+00 0. -1.
</event>
<event>
 6    1  0.8017648E-006  0.1534258E+03  0.7818608E-02  0.1196479E+00
          2   -1    0    0  502    0  0.00000000000E+00  0.00000000000E+00  0.19888465191E+03  0.19888465191E+03  0.00000000000E+00 0.  1.
          1   -1    0    0  501    0 -0.00000000000E+00 -0.00000000000E+00 -0.46566925902E+03  0.46566925902E+03  0.00000000000E+00 0.  1.
          2    1    1    2  501    0  0.61062949354E+02  0.11215478421E+03  0.12513063273E+03  0.17878773630E+03  0.00000000000E+00 0.  1.
          1    1    1    2  502    0 -0.59661803399E+02 -0.10355309385E+03 -0.30974387089E+03  0.33200005961E+03  0.00000000000E+00 0.  1.
         22    1    1    2    0    0 -0.69960624951E+01  0.24084986787E+02  0.28657291374E+02  0.38082434637E+02  0.00000000000E+00 0. -1.
         22    1    1    2    0    0  0.55949165405E+01 -0.32686677141E+02 -0.11082866034E+03  0.11568368038E+03  0.00000000000E+00 0.  1.
</event>
<event>
 6    1  0.8017648E-006  0.9795540E+02  0.7818608E-02  0.1416761E+00
          2   -1    0    0  502    0  0.00000000000E+00  0.00000000000E+00  0.34402353008E+03  0.34402353008E+03  0.00000000000E+00 0.  1.
          1   -1    0    0  501    0 -0.00000000000E+00 -0.00000000000E+00 -0.11625444603E+03  0.11625444603E+03  0.00000000000E+00 0.  1.
          2    1    1    2  501    0  0.46387266423E+02 -0.48347638910E+02  0.17864617727E+03  0.19079761353E+03  0.00000000000E+00 0.  1.
          1    1    1    2  502    0 -0.66505625114E+02  0.59913804980E+02 -0.56104126866E+02  0.10564248790E+03  0.00000000000E+00 0.  1.
         22    1    1    2    0    0  0.18790657898E+02 -0.21729616093E+02  0.13204191434E+03  0.13513079658E+03  0.00000000000E+00 0.  1.
         22    1    1    2    0    0  0.13277007926E+01  0.10163450023E+02 -0.26814880700E+02  0.28707078095E+02  0.00000000000E+00 0.  1.
</event>
<event>
 6    1  0.8017648E-006  0.2054026E+03  0.7818608E-02  0.1226751E+00
          2   -1    0    0  502    0  0.00000000000E+00  0.00000000000E+00  0.54343438052E+03  0.54343438052E+03  0.00000000000E+00 0.  1.
          1   -1    0    0  501    0 -0.00000000000E+00 -0.00000000000E+00 -0.96720085132E+02  0.96720085132E+02  0.00000000000E+00 0. -1.
          2    1    1    2  501    0  0.23071658261E+02  0.62566763242E+02  0.11021211687E+03  0.12881619456E+03  0.00000000000E+00 0.  1.
          1    1    1    2  502    0 -0.17119518432E+03 -0.76249663034E+02  0.12142028716E+03  0.22330402679E+03  0.00000000000E+00 0. -1.
         22    1    1    2    0    0  0.13266126634E+03  0.43337025135E+02  0.21284103187E+03  0.25451603915E+03  0.00000000000E+00 0.  1.
         22    1    1    2    0    0  0.15462259715E+02 -0.29654125343E+02  0.22408594860E+01  0.33518205152E+02  0.00000000000E+00 0.  1.
</event>
<event>
 6    1  0.8017648E-006  0.1711429E+03  0.7818608E-02  0.1315678E+00
          2   -1    0    0  502    0  0.00000000000E+00  0.00000000000E+00  0.53814927152E+03  0.53814927152E+03  0.00000000000E+00 0. -1.
          1   -1    0    0  501    0 -0.00000000000E+00 -0.00000000000E+00 -0.18010073585E+03  0.18010073585E+03  0.00000000000E+00 0.  1.
          2    1    1    2  501    0 -0.11010509917E+03 -0.43783148639E+02  0.36378308190E+03  0.38259407685E+03  0.00000000000E+00 0. -1.
          1    1    1    2  502    0  0.15464640494E+03  0.42827924451E+02 -0.82043918614E+02  0.18022471045E+03  0.00000000000E+00 0.  1.
         22    1    1    2    0    0 -0.50908581562E+02 -0.72268522594E+01  0.10933181008E+03  0.12081951732E+03  0.00000000000E+00 0.  1.
         22    1    1    2    0    0  0.63672757904E+01  0.81820764473E+01 -0.33022437691E+02  0.34611702747E+02  0.00000000000E+00 0.  1.
</event>
<event>
 6    1  0.8017648E-006  0.6997630E+02  0.7818608E-02  0.1400484E+00
          2   -1    0    0  502    0  0.00000000000E+00  0.00000000000E+00  0.36555547009E+03  0.36555547009E+03  0.00000000000E+00 0.  1.
          1   -1    0    0  501    0 -0.00000000000E+00 -0.00000000000E+00 -0.16331492551E+03  0.16331492551E+03  0.00000000000E+00 0. -1.
          2    1    1    2  501    0 -0.34229200139E+02 -0.22164088694E+02  0.21475752772E+03  0.21859478650E+03  0.00000000000E+00 0.  1.
          1    1    1    2  502    0  0.32691375621E+02  0.46831699793E+02 -0.12799169694E+03  0.14015637206E+03  0.00000000000E+00 0. -1.
         22    1    1    2    0    0 -0.28977157738E+02 -0.50713608128E+01  0.12831794401E+03  0.13164683485E+03  0.00000000000E+00 0. -1.
         22    1    1    2    0    0  0.30514982256E+02 -0.19596250287E+02 -0.12843230214E+02  0.38472402183E+02  0.00000000000E+00 0. -1.
</event>
<event>
 6    1  0.8017648E-006  0.2837439E+03  0.7818608E-02  0.1224575E+00
          2   -1    0    0  502    0  0.00000000000E+00  0.00000000000E+00  0.11504104671E+04  0.11504104671E+04  0.00000000000E+00 0. -1.
          1   -1    0    0  501    0 -0.00000000000E+00 -0.00000000000E+00 -0.89018971336E+02  0.89018971336E+02  0.00000000000E+00 0.  1.
          2    1    1    2  501    0 -0.20723766880E+03 -0.32959384223E+02  0.52482593422E+03  0.56522210997E+03  0.00000000000E+00 0. -1.
          1    1    1    2  502    0  0.26678012768E+03  0.72473807871E+01  0.35747966308E+03  0.44611194847E+03  0.00000000000E+00 0.  1.
         22    1    1    2    0    0 -0.70009334604E+02  0.33875264539E+02  0.19347311717E+03  0.20852023294E+03  0.00000000000E+00 0. -1.
         22    1    1    2    0    0  0.10466875725E+02 -0.81632611028E+01 -0.14387218714E+02  0.19575147039E+02  0.00000000000E+00 0.  1.
</event>
<event>
 6    1  0.8017648E-006  0.1372348E+03  0.7818608E-02  0.1316050E+00
          2   -1    0    0  502    0  0.00000000000E+00  0.00000000000E+00  0.69612603507E+03  0.69612603507E+03  0.00000000000E+00 0.  1.
          1   -1    0    0  501    0 -0.00000000000E+00 -0.00000000000E+00 -0.22846784768E+03  0.22846784768E+03  0.00000000000E+00 0. -1.
          2    1    1    2  501    0 -0.30374851119E+02 -0.24268520854E+02  0.59849443799E+03  0.59975593786E+03  0.00000000000E+00 0.  1.
          1    1    1    2  502    0  0.74939065368E+02  0.57402413935E+02 -0.16290955867E+03  0.18828283233E+03  0.00000000000E+00 0. -1.
         22    1    1    2    0    0 -0.25130290507E+02 -0.37746476680E+02  0.75886956074E+02  0.88403382881E+02  0.00000000000E+00 0.  1.
         22    1    1    2    0    0 -0.19433923742E+02  0.46125835991E+01 -0.43813648010E+02  0.48151729682E+02  0.00000000000E+00 0. -1.
</event>
<event>
 6    1  0.8017648E-006  0.7719229E+02  0.7818608E-02  0.1434350E+00
          2   -1    0    0  502    0  0.00000000000E+00  0.00000000000E+00  0.27994554386E+03  0.27994554386E+03  0.00000000000E+00 0.  1.
          1   -1    0    0  501    0 -0.00000000000E+00 -0.00000000000E+00 -0.54280953015E+02  0.54280953015E+02  0.00000000000E+00 0. -1.
          2    1    1    2  501    0  0.22474746257E+02  0.12343170709E+02  0.40401385528E+02  0.47851228146E+02  0.00000000000E+00 0.  1.
          1    1    1    2  502    0 -0.44579030480E+02 -0.42922391058E+02  0.17460923466E+01  0.61908565249E+02  0.00000000000E+00 0. -1.
         22    1    1    2    0    0  0.11899119446E+02  0.42921102789E+02  0.19795548647E+03  0.20290437337E+03  0.00000000000E+00 0.  1.
         22    1    1    2    0    0  0.10205164777E+02 -0.12341882440E+02 -0.14438373503E+02  0.21562330109E+02  0.00000000000E+00 0. -1.
</event>
<event>
 6    1  0.8017648E-006  0.4862541E+02  0.7818608E-02  0.1499075E+00
          2   -1    0    0  502    0  0.00000000000E+00  0.00000000000E+00  0.45141316465E+03  0.45141316465E+03  0.00000000000E+00 0.  1.
          1   -1    0    0  501    0 -0.00000000000E+00 -0.00000000000E+00 -0.36497470094E+03  0.36497470094E+03  0.00000000000E+00 0.  1.
          2    1    1    2  501    0 -0.23688094047E+02  0.27577805240E+02  0.38015581419E+03  0.38189017296E+03  0.00000000000E+00 0.  1.
          1    1    1    2  502    0  0.25498853257E+02 -0.61192608221E+02 -0.29914302332E+03  0.30640051439E+03  0.00000000000E+00 0.  1.
         22    1    1    2    0    0 -0.63198953298E+01  0.87915126169E+01  0.63690629894E+02  0.64604396966E+02  0.00000000000E+00 0.  1.
         22    1    1    2    0    0  0.45091361203E+01  0.24823290363E+02 -0.58264957061E+02  0.63492781277E+02  0.00000000000E+00 0.  1.
</event>
<event>
 6    1  0.8017648E-006  0.2470146E+02  0.7818608E-02  0.1665562E+00
          2   -1    0    0  502    0  0.00000000000E+00  0.00000000000E+00  0.48678507295E+02  0.48678507295E+02  0.00000000000E+00 0. -1.
          1   -1    0    0  501    0 -0.00000000000E+00 -0.00000000000E+00 -0.30423430403E+03  0.30423430403E+03  0.00000000000E+00 0. -1.
          2    1    1    2  501    0 -0.78684556014E+01 -0.18970199277E+02  0.59150253746E+01  0.21372144940E+02  0.00000000000E+00 0. -1.
          1    1    1    2  502    0  0.22667355258E+02  0.14959534101E+02 -0.18411812625E+03  0.18611040022E+03  0.00000000000E+00 0. -1.
         22    1    1    2    0    0 -0.10996514717E+02 -0.14048155065E+02  0.30865144838E+02  0.35650121494E+02  0.00000000000E+00 0. -1.
         22    1    1    2    0    0 -0.38023849397E+01  0.18058820241E+02 -0.10821784070E+03  0.10978014467E+03  0.00000000000E+00 0. -1.
</event>
<event>
 6    1  0.8017648E-006  0.3546331E+02  0.7818608E-02  0.1561034E+00
          2   -1    0    0  502    0  0.00000000000E+00  0.00000000000E+00  0.34578008135E+03  0.34578008135E+03  0.00000000000E+00 0.  1.
          1   -1    0    0  501    0 -0.00000000000E+00 -0.00000000000E+00 -0.15451100086E+03  0.15451100086E+03  0.00000000000E+00 0. -1.
          2    1    1    2  501    0  0.16065021632E+02 -0.45654002256E+02  0.27281958357E+03  0.27707922697E+03  0.00000000000E+00 0.  1.
          1    1    1    2  502    0 -0.32164904083E+02  0.72047934404E+02 -0.24687991168E+02  0.82673954874E+02  0.00000000000E+00 0. -1.
         22    1    1    2    0    0  0.32998720686E+00 -0.20690869239E+02 -0.95870319902E+02  0.98078229998E+02  0.00000000000E+00 0. -1.
         22    1    1    2    0    0  0.15769895245E+02 -0.57030629091E+01  0.39007808002E+02  0.42459670368E+02  0.00000000000E+00 0.  1.
</event>
<event>
 6    1  0.8017648E-006  0.6584593E+02  0.7818608E-02  0.1377360E+00
          2   -1    0    0  502    0  0.00000000000E+00  0.00000000000E+00  0.48626529719E+03  0.48626529719E+03  0.00000000000E+00 0.  1.
          1   -1    0    0  501    0 -0.00000000000E+00 -0.00000000000E+00 -0.44635916971E+03  0.44635916971E+03  0.00000000000E+00 0. -1.
          2    1    1    2  501    0  0.16216951344E+03  0.80581512241E+02  0.39200024700E+03  0.43180611951E+03  0.00000000000E+00 0.  1.
          1    1    1    2  502    0 -0.19548410540E+03 -0.52107987219E+02 -0.29391443761E+03  0.35681223974E+03  0.00000000000E+00 0. -1.
         22    1    1    2    0    0  0.15403400907E+02 -0.16369726682E+02 -0.97001318548E+02  0.99571524600E+02  0.00000000000E+00 0. -1.
         22    1    1    2    0    0  0.17911191053E+02 -0.12103798340E+02  0.38821636632E+02  0.44434583041E+02  0.00000000000E+00 0.  1.
</event>
<event>
 6    1  0.8017648E-006  0.2270351E+02  0.7818608E-02  0.1750738E+00
          2   -1    0    0  502    0  0.00000000000E+00  0.00000000000E+00  0.30250229834E+03  0.30250229834E+03  0.00000000000E+00 0.  1.
          1   -1    0    0  501    0 -0.00000000000E+00 -0.00000000000E+00 -0.94598199107E+02  0.94598199107E+02  0.00000000000E+00 0.  1.
          2    1    1    2  501    0  0.23212507248E+02 -0.11184046907E+02  0.22455605645E+03  0.22602948013E+03  0.00000000000E+00 0.  1.
          1    1    1    2  502    0 -0.46723369887E+01  0.38694778619E+02  0.60588801942E+01  0.39443968544E+02  0.00000000000E+00 0.  1.
         22    1    1    2    0    0 -0.10257384159E+02 -0.72161669802E+01  0.52142883996E+02  0.53629910937E+02  0.00000000000E+00 0.  1.
         22    1    1    2    0    0 -0.82827860995E+01 -0.20294564732E+02 -0.74853721405E+02  0.77997137841E+02  0.00000000000E+00 0.  1.
</event>
<event>
 6    1  0.8017648E-006  0.1381258E+03  0.7818608E-02  0.1285982E+00
          2   -1    0    0  502    0  0.00000000000E+00  0.00000000000E+00  0.16657217635E+03  0.16657217635E+03  0.00000000000E+00 0.  1.
          1   -1    0    0  501    0 -0.00000000000E+00 -0.00000000000E+00 -0.11306989056E+04  0.11306989056E+04  0.00000000000E+00 0.  1.
          2    1    1    2  501    0  0.20690012189E+02 -0.17800222116E+03  0.58641105563E+02  0.18855144286E+03  0.00000000000E+00 0.  1.
          1    1    1    2  502    0 -0.99940426428E+02  0.24790785687E+03 -0.63870867643E+03  0.69238368531E+03  0.00000000000E+00 0.  1.
         22    1    1    2    0    0  0.18029739234E+02  0.19688295011E+02 -0.12919674766E+02  0.29658362283E+02  0.00000000000E+00 0. -1.
         22    1    1    2    0    0  0.61220675006E+02 -0.89593930719E+02 -0.37113948357E+03  0.38667759145E+03  0.00000000000E+00 0. -1.
</event>
<event>
 6    1  0.8017648E-006  0.6632955E+02  0.7818608E-02  0.1473466E+00
          2   -1    0    0  502    0  0.00000000000E+00  0.00000000000E+00  0.94348664755E+02  0.94348664755E+02  0.00000000000E+00 0.  1.
          1   -1    0    0  501    0 -0.00000000000E+00 -0.00000000000E+00 -0.15207532007E+03  0.15207532007E+03  0.00000000000E+00 0.  1.
          2    1    1    2  501    0 -0.61716466244E+01  0.27853118038E+02  0.26253075183E+02  0.38769954385E+02  0.00000000000E+00 0.  1.
          1    1    1    2  502    0  0.19594959500E+02 -0.50230723047E+02 -0.54439653010E+02  0.76620909650E+02  0.00000000000E+00 0.  1.
         22    1    1    2    0    0 -0.23197336350E+02  0.32717146487E+02  0.42010819920E+02  0.58081297148E+02  0.00000000000E+00 0.  1.
         22    1    1    2    0    0  0.97740234740E+01 -0.10339541478E+02 -0.71550897406E+02  0.72951823640E+02  0.00000000000E+00 0.  1.
</event>
<event>
 6    1  0.8017648E-006  0.7088157E+02  0.7818608E-02  0.1424499E+00
          2   -1    0    0  502    0  0.00000000000E+00  0.00000000000E+00  0.15110360479E+04  0.15110360479E+04  0.00000000000E+00 0.  1.
          1   -1    0    0  501    0 -0.00000000000E+00 -0.00000000000E+00 -0.39353630317E+02  0.39353630317E+02  0.00000000000E+00 0.  1.
          2    1    1    2  501    0 -0.90660042167E+01  0.81854554553E+02  0.78604130099E+03  0.79034377798E+03  0.00000000000E+00 0.  1.
          1    1    1    2  502    0  0.77640885591E+02 -0.28727906398E+02  0.54413723375E+03  0.55039869992E+03  0.00000000000E+00 0.  1.
         22    1    1    2    0    0 -0.23734295612E+02  0.14973784314E+00  0.13789059449E+03  0.13991838785E+03  0.00000000000E+00 0.  1.
         22    1    1    2    0    0 -0.44840585763E+02 -0.53276385999E+02  0.36132883654E+01  0.69728812477E+02  0.00000000000E+00 0.  1.
</event>
<event>
 6    1  0.8017648E-006  0.9719011E+02  0.7818608E-02  0.1368513E+00
          2   -1    0    0  502    0  0.00000000000E+00  0.00000000000E+00  0.40215702482E+03  0.40215702482E+03  0.00000000000E+00 0.  1.
          1   -1    0    0  501    0 -0.00000000000E+00 -0.00000000000E+00 -0.28309812989E+03  0.28309812989E+03  0.00000000000E+00 0. -1.
          2    1    1    2  501    0  0.75694260333E+02 -0.41555577889E+02  0.33280692342E+03  0.34382689740E+03  0.00000000000E+00 0.  1.
          1    1    1    2  502    0 -0.84489138046E+02  0.27733625975E+02 -0.19717549280E+03  0.21630012348E+03  0.00000000000E+00 0. -1.
         22    1    1    2    0    0  0.23178983708E+01  0.22604346879E+02 -0.68446026065E+02  0.72119259805E+02  0.00000000000E+00 0. -1.
         22    1    1    2    0    0  0.64769793417E+01 -0.87823949657E+01  0.51873490370E+02  0.53008874030E+02  0.00000000000E+00 0. -1.
</event>
<event>
 6    1  0.8017648E-006  0.6756964E+02  0.7818608E-02  0.1388956E+00
          2   -1    0    0  502    0  0.00000000000E+00  0.00000000000E+00  0.56486335649E+02  0.56486335649E+02  0.00000000000E+00 0. -1.
          1   -1    0    0  501    0 -0.00000000000E+00 -0.00000000000E+00 -0.10762074792E+04  0.10762074792E+04  0.00000000000E+00 0. -1.
          2    1    1    2  501    0  0.35561954223E+02  0.13703916839E+02  0.22984143862E+02  0.44505289505E+02  0.00000000000E+00 0. -1.
          1    1    1    2  502    0 -0.37600855703E+02  0.10870881155E+02 -0.87998103206E+03  0.88085107549E+03  0.00000000000E+00 0. -1.
         22    1    1    2    0    0 -0.20204031522E+02 -0.43998829285E+02 -0.17013631215E+03  0.17689110939E+03  0.00000000000E+00 0. -1.
         22    1    1    2    0    0  0.22242933002E+02  0.19424031291E+02  0.74120568195E+01  0.30446340444E+02  0.00000000000E+00 0. -1.
</event>
<event>
 6    1  0.8017648E-006  0.1283169E+03  0.7818608E-02  0.1343740E+00
          2   -1    0    0  502    0  0.00000000000E+00  0.00000000000E+00  0.30714219457E+03  0.30714219457E+03  0.00000000000E+00 0. -1.
          1   -1    0    0  501    0 -0.00000000000E+00 -0.00000000000E+00 -0.42452612254E+03  0.42452612254E+03  0.00000000000E+00 0.  1.
          2    1    1    2  501    0 -0.54395235176E+02  0.54949895269E+02  0.15796825225E+03  0.17587581221E+03  0.00000000000E+00 0. -1.
          1    1    1    2  502    0  0.52874436732E+02 -0.91503840547E+02 -0.37778759389E+03  0.39229086784E+03  0.00000000000E+00 0.  1.
         22    1    1    2    0    0  0.76348699683E+01  0.50262090446E+02  0.12582654097E+03  0.13570883312E+03  0.00000000000E+00 0. -1.
         22    1    1    2    0    0 -0.61140715242E+01 -0.13708145168E+02 -0.23391127294E+02  0.27792803936E+02  0.00000000000E+00 0.  1.
</event>
<event>
 6    1  0.8017648E-006  0.5089910E+03  0.7818608E-02  0.1097534E+00
          2   -1    0    0  502    0  0.00000000000E+00  0.00000000000E+00  0.12310388695E+03  0.12310388695E+03  0.00000000000E+00 0.  1.
          1   -1    0    0  501    0 -0.00000000000E+00 -0.00000000000E+00 -0.25235561758E+04  0.25235561758E+04  0.00000000000E+00 0.  1.
          2    1    1    2  501    0 -0.27695918975E+03  0.27778762706E+03 -0.14180950243E+04  0.14713483124E+04  0.00000000000E+00 0.  1.
          1    1    1    2  502    0  0.36185439024E+03 -0.29504448491E+03 -0.57372775202E+03  0.73969816902E+03  0.00000000000E+00 0.  1.
         22    1    1    2    0    0 -0.10281244081E+03 -0.23389134336E+02 -0.26259307188E+03  0.28297097199E+03  0.00000000000E+00 0.  1.
         22    1    1    2    0    0  0.17917240318E+02  0.40645992184E+02 -0.14603644065E+03  0.15264260932E+03  0.00000000000E+00 0. -1.
</event>
<event>
 6    1  0.8017648E-006  0.6710050E+02  0.7818608E-02  0.1483923E+00
          2   -1    0    0  502    0  0.00000000000E+00  0.00000000000E+00  0.19984908428E+03  0.19984908428E+03  0.00000000000E+00 0. -1.
          1   -1    0    0  501    0 -0.00000000000E+00 -0.00000000000E+00 -0.11959762511E+03  0.11959762511E+03  0.00000000000E+00 0.  1.
          2    1    1    2  501    0  0.20070877037E+02  0.26226847431E+01  0.87541597111E+02  0.89851264906E+02  0.00000000000E+00 0. -1.
          1    1    1    2  502    0 -0.54135512586E+02 -0.28683586111E+02 -0.57379881134E+02  0.83939577043E+02  0.00000000000E+00 0.  1.
         22    1    1    2    0    0 -0.66521522229E+01  0.98098681374E+01 -0.42012302396E+02  0.43652241577E+02  0.00000000000E+00 0.  1.
         22    1    1    2    0    0  0.40716787772E+02  0.16251033231E+02  0.92102045592E+02  0.10200362587E+03  0.00000000000E+00 0. -1.
</event>
<event>
 6    1  0.8017648E-006  0.8405343E+02  0.7818608E-02  0.1318834E+00
          2   -1    0    0  502    0  0.00000000000E+00  0.00000000000E+00  0.22464547881E+02  0.22464547881E+02  0.00000000000E+00 0. -1.
          1   -1    0    0  501    0 -0.00000000000E+00 -0.00000000000E+00 -0.53209476255E+03  0.53209476255E+03  0.00000000000E+00 0.  1.
          2    1    1    2  501    0  0.29081658354E+02  0.15713300649E+02 -0.16830259936E+02  0.37093238190E+02  0.00000000000E+00 0. -1.
          1    1    1    2  502    0 -0.22241765272E+02 -0.14168294659E+02 -0.18720269432E+03  0.18905101284E+03  0.00000000000E+00 0.  1.
         22    1    1    2    0    0  0.39784762188E+02  0.26751549387E+02 -0.59829086140E+02  0.76668065355E+02  0.00000000000E+00 0. -1.
         22    1    1    2    0    0 -0.46624655270E+02 -0.28296555377E+02 -0.24576817427E+03  0.25174699405E+03  0.00000000000E+00 0.  1.
</event>
<event>
 6    1  0.8017648E-006  0.7169142E+02  0.7818608E-02  0.1357149E+00
          2   -1    0    0  502    0  0.00000000000E+00  0.00000000000E+00  0.10557586529E+03  0.10557586529E+03  0.00000000000E+00 0.  1.
          1   -1    0    0  501    0 -0.00000000000E+00 -0.00000000000E+00 -0.21357647984E+03  0.21357647984E+03  0.00000000000E+00 0. -1.
          2    1    1    2  501    0  0.57402325352E+01  0.45342269516E+02  0.45573170057E+02  0.64542896615E+02  0.00000000000E+00 0.  1.
          1    1    1    2  502    0 -0.11794427747E+02 -0.49084528318E+02 -0.11897921417E+03  0.12924570728E+03  0.00000000000E+00 0. -1.
         22    1    1    2    0    0 -0.55729640815E+01  0.19505179525E+02  0.41819129229E+02  0.46479560308E+02  0.00000000000E+00 0.  1.
         22    1    1    2    0    0  0.11627159293E+02 -0.15762920723E+02 -0.76413699667E+02  0.78884180922E+02  0.00000000000E+00 0. -1.
</event>
<event>
 6    1  0.8017648E-006  0.4234449E+02  0.7818608E-02  0.1512654E+00
          2   -1    0    0  502    0  0.00000000000E+00  0.00000000000E+00  0.25011258086E+03  0.25011258086E+03  0.00000000000E+00 0.  1.
          1   -1    0    0  501    0 -0.00000000000E+00 -0.00000000000E+00 -0.80227426851E+02  0.80227426851E+02  0.00000000000E+00 0. -1.
          2    1    1    2  501    0 -0.37634641564E+01 -0.52383544952E+02  0.41554183907E+02  0.66969766644E+02  0.00000000000E+00 0.  1.
          1    1    1    2  502    0  0.21702112903E+01  0.93647583689E+02  0.72706796046E+02  0.11857848852E+03  0.00000000000E+00 0. -1.
         22    1    1    2    0    0 -0.70577776444E+01 -0.17838737210E+02 -0.40854094740E+02  0.45134131514E+02  0.00000000000E+00 0. -1.
         22    1    1    2    0    0  0.86510305105E+01 -0.23425301527E+02  0.96478268797E+02  0.99657621036E+02  0.00000000000E+00 0.  1.
</event>
<event>
 6    1  0.8017648E-006  0.7433388E+02  0.7818608E-02  0.1470722E+00
          2   -1    0    0  502    0  0.00000000000E+00  0.00000000000E+00  0.13449354357E+03  0.13449354357E+03  0.00000000000E+00 0. -1.
          1   -1    0    0  501    0 -0.00000000000E+00 -0.00000000000E+00 -0.11722424613E+03  0.11722424613E+03  0.00000000000E+00 0. -1.
          2    1    1    2  501    0 -0.25154484289E+02  0.30008837037E+01  0.39676816686E+02  0.47074442802E+02  0.00000000000E+00 0. -1.
          1    1    1    2  502    0  0.67227415989E+02  0.11606851058E+02 -0.32441556194E+02  0.75542696671E+02  0.00000000000E+00 0. -1.
         22    1    1    2    0    0  0.32319861136E+00  0.10508138646E+02 -0.50193653648E+02  0.51282826576E+02  0.00000000000E+00 0. -1.
         22    1    1    2    0    0 -0.42396130312E+02 -0.25115873407E+02  0.60227690602E+02  0.77817823650E+02  0.00000000000E+00 0. -1.
</event>
<event>
 6    1  0.8017648E-006  0.6756227E+02  0.7818608E-02  0.1456656E+00
          2   -1    0    0  502    0  0.00000000000E+00  0.00000000000E+00  0.30910089421E+03  0.30910089421E+03  0.00000000000E+00 0. -1.
          1   -1    0    0  501    0 -0.00000000000E+00 -0.00000000000E+00 -0.24791395746E+03  0.24791395746E+03  0.00000000000E+00 0. -1.
          2    1    1    2  501    0  0.64484111357E+02 -0.55709962971E+02  0.15619014545E+03  0.17792459674E+03  0.00000000000E+00 0. -1.
          1    1    1    2  502    0 -0.24360568105E+02  0.93908327970E+02 -0.19123157230E+03  0.21443349921E+03  0.00000000000E+00 0. -1.
         22    1    1    2    0    0 -0.28297330019E+02 -0.37058521120E+02  0.12506198376E+03  0.13347124281E+03  0.00000000000E+00 0. -1.
         22    1    1    2    0    0 -0.11826213233E+02 -0.11398438788E+01 -0.28833620162E+02  0.31185512905E+02  0.00000000000E+00 0. -1.
</event>
<event>
 6    1  0.8017648E-006  0.8501818E+02  0.7818608E-02  0.1441045E+00
          2   -1    0    0  502    0  0.00000000000E+00  0.00000000000E+00  0.51758282746E+03  0.51758282746E+03  0.00000000000E+00 0.  1.
          1   -1    0    0  501    0 -0.00000000000E+00 -0.00000000000E+00 -0.38605659160E+02  0.38605659160E+02  0.00000000000E+00 0.  1.
          2    1    1    2  501    0  0.88764520552E+01 -0.54504970340E+02  0.19127183844E+03  0.19908415149E+03  0.00000000000E+00 0.  1.
          1    1    1    2  502    0 -0.22519509875E+02  0.73164885143E+02  0.14340692870E+03  0.16256006872E+03  0.00000000000E+00 0.  1.
         22    1    1    2    0    0  0.20158660538E+01  0.10652868387E+02 -0.22401844423E+02  0.24887546170E+02  0.00000000000E+00 0.  1.
         22    1    1    2    0    0  0.11627191766E+02 -0.29312783190E+02  0.16670024558E+03  0.16965672024E+03  0.00000000000E+00 0.  1.
</event>
<event>
 6    1  0.8017648E-006  0.8373552E+02  0.7818608E-02  0.1445170E+00
          2   -1    0    0  502    0  0.00000000000E+00  0.00000000000E+00  0.60151897803E+03  0.60151897803E+03  0.00000000000E+00 0. -1.
          1   -1    0    0  501    0 -0.00000000000E+00 -0.00000000000E+00 -0.54738397614E+02  0.54738397614E+02  0.00000000000E+00 0.  1.
          2    1    1    2  501    0 -0.58277836422E+02  0.51032247480E+01  0.36043343630E+03  0.36515012135E+03  0.00000000000E+00 0. -1.
          1    1    1    2  502    0  0.48116514206E+02  0.22105543155E+02  0.14187020452E+03  0.15142988116E+03  0.00000000000E+00 0.  1.
         22    1    1    2    0    0 -0.38246189802E+00 -0.25557779397E+02  0.89669675256E+02  0.93241605657E+02  0.00000000000E+00 0.  1.
         22    1    1    2    0    0  0.10543784114E+02 -0.16509885062E+01 -0.45192735649E+02  0.46435767485E+02  0.00000000000E+00 0.  1.
</event>
<event>
 6    1  0.8017648E-006  0.4184023E+02  0.7818608E-02  0.1550135E+00
          2   -1    0    0  502    0  0.00000000000E+00  0.00000000000E+00  0.29532116648E+03  0.29532116648E+03  0.00000000000E+00 0. -1.
          1   -1    0    0  501    0 -0.00000000000E+00 -0.00000000000E+00 -0.79010074130E+02  0.79010074130E+02  0.00000000000E+00 0. -1.
          2    1    1    2  501    0  0.10291556144E+02 -0.34249150856E+02  0.59891144211E+02  0.69755785546E+02  0.00000000000E+00 0. -1.
          1    1    1    2  502    0 -0.11852954900E+01  0.31244265581E+02  0.17828126809E+03  0.18100226410E+03  0.00000000000E+00 0. -1.
         22    1    1    2    0    0  0.15725718920E+01  0.20025723988E+02 -0.69247874006E+02  0.72102501052E+02  0.00000000000E+00 0. -1.
         22    1    1    2    0    0 -0.10678832546E+02 -0.17020838714E+02  0.47386554051E+02  0.51470689911E+02  0.00000000000E+00 0. -1.
</event>
<event>
 6    1  0.8017648E-006  0.1817648E+03  0.7818608E-02  0.1251839E+00
          2   -1    0    0  502    0  0.00000000000E+00  0.00000000000E+00  0.70468088040E+03  0.70468088040E+03  0.00000000000E+00 0. -1.
          1   -1    0    0  501    0 -0.00000000000E+00 -0.00000000000E+00 -0.53756056870E+02  0.53756056870E+02  0.00000000000E+00 0. -1.
          2    1    1    2  501    0  0.43351050514E+02 -0.20827130915E+02  0.81106208330E+02  0.94293690099E+02  0.00000000000E+00 0. -1.
          1    1    1    2  502    0 -0.14320179177E+03 -0.66514672513E+02  0.29032362096E+03  0.33048261635E+03  0.00000000000E+00 0. -1.
         22    1    1    2    0    0  0.12319939968E+03  0.70182722128E+02  0.26657069625E+03  0.30193317583E+03  0.00000000000E+00 0. -1.
         22    1    1    2    0    0 -0.23348658429E+02  0.17159081300E+02  0.12924297992E+02  0.31727454989E+02  0.00000000000E+00 0.  1.
</event>
<event>
 6    1  0.8017648E-006  0.4845834E+02  0.7818608E-02  0.1491243E+00
          2   -1    0    0  502    0  0.00000000000E+00  0.00000000000E+00  0.50549654947E+02  0.50549654947E+02  0.00000000000E+00 0. -1.
          1   -1    0    0  501    0 -0.00000000000E+00 -0.00000000000E+00 -0.17431971789E+03  0.17431971789E+03  0.00000000000E+00 0. -1.
          2    1    1    2  501    0  0.21046785147E+02 -0.12574277989E+02  0.43489945564E+00  0.24520782400E+02  0.00000000000E+00 0. -1.
          1    1    1    2  502    0 -0.15485835957E+02  0.22688632106E+02 -0.25165665257E+02  0.37254474227E+02  0.00000000000E+00 0. -1.
         22    1    1    2    0    0  0.19293104324E+02 -0.23873742029E+02  0.22640873316E+02  0.38141690805E+02  0.00000000000E+00 0. -1.
         22    1    1    2    0    0 -0.24854053514E+02  0.13759387912E+02 -0.12168017046E+03  0.12495242540E+03  0.00000000000E+00 0. -1.
</event>
<event>
 6    1  0.8017648E-006  0.3006345E+03  0.7818608E-02  0.1194278E+00
          2   -1    0    0  502    0  0.00000000000E+00  0.00000000000E+00  0.23235142133E+04  0.23235142133E+04  0.00000000000E+00 0. -1.
          1   -1    0    0  501    0 -0.00000000000E+00 -0.00000000000E+00 -0.35931016804E+02  0.35931016804E+02  0.00000000000E+00 0. -1.
          2    1    1    2  501    0 -0.54438725796E+02  0.66320437378E+02  0.89371067092E+02  0.12389173868E+03  0.00000000000E+00 0. -1.
          1    1    1    2  502    0  0.91440320443E+02 -0.19901214405E+03  0.12932258700E+04  0.13116403152E+04  0.00000000000E+00 0. -1.
         22    1    1    2    0    0 -0.20811181402E+02  0.14657520354E+03  0.87302885122E+03  0.88549238880E+03  0.00000000000E+00 0.  1.
         22    1    1    2    0    0 -0.16190413244E+02 -0.13883496874E+02  0.31957408193E+02  0.38420787406E+02  0.00000000000E+00 0. -1.
</event>
<event>
 6    1  0.8017648E-006  0.1195789E+03  0.7818608E-02  0.1267037E+00
          2   -1    0    0  502    0  0.00000000000E+00  0.00000000000E+00  0.54262220640E+03  0.54262220640E+03  0.00000000000E+00 0.  1.
          1   -1    0    0  501    0 -0.00000000000E+00 -0.00000000000E+00 -0.15657830418E+03  0.15657830418E+03  0.00000000000E+00 0.  1.
          2    1    1    2  501    0 -0.12031865596E+03 -0.79085186587E+02  0.16828950540E+03  0.22147777166E+03  0.00000000000E+00 0.  1.
          1    1    1    2  502    0  0.79741976570E+02 -0.52282563337E+02  0.26622594221E+03  0.28278702510E+03  0.00000000000E+00 0.  1.
         22    1    1    2    0    0  0.49918451267E+02  0.14200669181E+03 -0.72477925187E+02  0.16706526250E+03  0.00000000000E+00 0.  1.
         22    1    1    2    0    0 -0.93417718787E+01 -0.10638941887E+02  0.24006379794E+02  0.27870451326E+02  0.00000000000E+00 0. -1.
</event>
<event>
 6    1  0.8017648E-006  0.1168793E+03  0.7818608E-02  0.1284254E+00
          2   -1    0    0  502    0  0.00000000000E+00  0.00000000000E+00  0.54013296645E+02  0.54013296645E+02  0.00000000000E+00 0. -1.
          1   -1    0    0  501    0 -0.00000000000E+00 -0.00000000000E+00 -0.50995734487E+03  0.50995734487E+03  0.00000000000E+00 0. -1.
          2    1    1    2  501    0 -0.44607899536E+02  0.75297652229E+02 -0.19398902237E+03  0.21281762599E+03  0.00000000000E+00 0. -1.
          1    1    1    2  502    0  0.17113052777E+02 -0.93345101713E+02 -0.55545859584E+02  0.10996138916E+03  0.00000000000E+00 0. -1.
         22    1    1    2    0    0 -0.17845802615E+02  0.54381180219E+02 -0.56533489318E+02  0.80447627979E+02  0.00000000000E+00 0. -1.
         22    1    1    2    0    0  0.45340649374E+02 -0.36333730735E+02 -0.14987567696E+03  0.16074399839E+03  0.00000000000E+00 0. -1.
</event>
<event>
 6    1  0.8017648E-006  0.3341708E+02  0.7818608E-02  0.1574772E+00
          2   -1    0    0  502    0  0.00000000000E+00  0.00000000000E+00  0.17071246216E+03  0.17071246216E+03  0.00000000000E+00 0. -1.
          1   -1    0    0  501    0 -0.00000000000E+00 -0.00000000000E+00 -0.16197976526E+03  0.16197976526E+03  0.00000000000E+00 0.  1.
          2    1    1    2  501    0 -0.44921033822E+02 -0.51334830951E+02  0.75389507598E+02  0.10166976937E+03  0.00000000000E+00 0. -1.
          1    1    1    2  502    0  0.68438771998E+02  0.61934592092E+02 -0.52708197073E+02  0.10629164242E+03  0.00000000000E+00 0.  1.
         22    1    1    2    0    0 -0.11201366645E+02 -0.43706602017E+01 -0.67943813191E+02  0.68999529246E+02  0.00000000000E+00 0.  1.
         22    1    1    2    0    0 -0.12316371531E+02 -0.62291009400E+01  0.53995199566E+02  0.55731286387E+02  0.00000000000E+00 0. -1.
</event>
<event>
 6    1  0.8017648E-006  0.1937189E+03  0.7818608E-02  0.1210691E+00
          2   -1    0    0  502    0  0.00000000000E+00  0.00000000000E+00  0.48576372137E+03  0.48576372137E+03  0.00000000000E+00 0. -1.
          1   -1    0    0  501    0 -0.00000000000E+00 -0.00000000000E+00 -0.36079589210E+03  0.36079589210E+03  0.00000000000E+00 0. -1.
          2    1    1    2  501    0  0.67867737161E+02 -0.14753462508E+03 -0.16857639461E+02  0.16326872130E+03  0.00000000000E+00 0. -1.
          1    1    1    2  502    0 -0.13579595782E+03  0.13292742774E+03  0.36879470350E+03  0.41487320538E+03  0.00000000000E+00 0. -1.
         22    1    1    2    0    0  0.50159547877E+02  0.24664356998E+02 -0.23850467499E+03  0.24496691765E+03  0.00000000000E+00 0. -1.
         22    1    1    2    0    0  0.17768672783E+02 -0.10057159658E+02  0.11535440218E+02  0.23450769153E+02  0.00000000000E+00 0.  1.
</event>
<event>
 6    1  0.8017648E-006  0.2533741E+03  0.7818608E-02  0.1248012E+00
          2   -1    0    0  502    0  0.00000000000E+00  0.00000000000E+00  0.54285398940E+03  0.54285398940E+03  0.00000000000E+00 0.  1.
          1   -1    0    0  501    0 -0.00000000000E+00 -0.00000000000E+00 -0.32538932001E+03  0.32538932001E+03  0.00000000000E+00 0.  1.
          2    1    1    2  501    0 -0.88874183693E+02 -0.13158290333E+03  0.23810954216E+03  0.28619719608E+03  0.00000000000E+00 0.  1.
          1    1    1    2  502    0  0.14053374184E+03  0.19706561559E+03 -0.22192888467E+03  0.32838547363E+03  0.00000000000E+00 0.  1.
         22    1    1    2    0    0 -0.63166480663E+02 -0.64517044612E+02  0.21649166582E+03  0.23456575772E+03  0.00000000000E+00 0.  1.
         22    1    1    2    0    0  0.11506922517E+02 -0.96566764074E+00 -0.15207653924E+02  0.19094881976E+02  0.00000000000E+00 0. -1.
</event>
<event>
 6    1  0.8017648E-006  0.1034563E+03  0.7818608E-02  0.1379475E+00
          2   -1    0    0  502    0  0.00000000000E+00  0.00000000000E+00  0.61584490004E+03  0.61584490004E+03  0.00000000000E+00 0.  1.
          1   -1    0    0  501    0 -0.00000000000E+00 -0.00000000000E+00 -0.16745572521E+03  0.16745572521E+03  0.00000000000E+00 0.  1.
          2    1    1    2  501    0 -0.80822230235E+02  0.38571639539E+02  0.51544797838E+03  0.52316978381E+03  0.00000000000E+00 0.  1.
          1    1    1    2  502    0  0.10115517992E+03 -0.37487792121E+02 -0.75445787994E+02  0.13164259155E+03  0.00000000000E+00 0.  1.
         22    1    1    2    0    0 -0.11161326859E+02 -0.11083373277E+02 -0.58325810534E+02  0.60409573371E+02  0.00000000000E+00 0.  1.
         22    1    1    2    0    0 -0.91716228255E+01  0.99995258590E+01  0.66712794980E+02  0.68078676520E+02  0.00000000000E+00 0. -1.
</event>
<event>
 6    1  0.8017648E-006  0.7774195E+02  0.7818608E-02  0.1427494E+00
          2   -1    0    0  502    0  0.00000000000E+00  0.00000000000E+00  0.45475596235E+03  0.45475596235E+03  0.00000000000E+00 0. -1.
          1   -1    0    0  501    0 -0.00000000000E+00 -0.00000000000E+00 -0.70141902282E+02  0.70141902282E+02  0.00000000000E+00 0.  1.
          2    1    1    2  501    0  0.11661916239E+02  0.29293935335E+02  0.15088477594E+03  0.15414392803E+03  0.00000000000E+00 0. -1.
          1    1    1    2  502    0 -0.29593079061E+02 -0.64788575158E+02 -0.30217196688E+02  0.77371756959E+02  0.00000000000E+00 0.  1.
         22    1    1    2    0    0 -0.16693887933E+02  0.48789739717E+01 -0.68330689543E+01  0.18686388433E+02  0.00000000000E+00 0. -1.
         22    1    1    2    0    0  0.34625050754E+02  0.30615665852E+02  0.27077954977E+03  0.27469579121E+03  0.00000000000E+00 0.  1.
</event>
<event>
 6    1  0.8017648E-006  0.4049997E+02  0.7818608E-02  0.1514100E+00
          2   -1    0    0  502    0  0.00000000000E+00  0.00000000000E+00  0.10165167631E+03  0.10165167631E+03  0.00000000000E+00 0.  1.
          1   -1    0    0  501    0 -0.00000000000E+00 -0.00000000000E+00 -0.34683676323E+03  0.34683676323E+03  0.00000000000E+00 0.  1.
          2    1    1    2  501    0  0.10182475870E+02  0.22291005513E+02  0.45623042513E+02  0.51788355349E+02  0.00000000000E+00 0.  1.
          1    1    1    2  502    0  0.22614773393E+02 -0.15819783118E+02 -0.25793616089E+03  0.25940847444E+03  0.00000000000E+00 0.  1.
         22    1    1    2    0    0 -0.42443962108E+01  0.14765535691E+02  0.47216726868E+02  0.49653350738E+02  0.00000000000E+00 0.  1.
         22    1    1    2    0    0 -0.28552853052E+02 -0.21236758086E+02 -0.80088695406E+02  0.87638259016E+02  0.00000000000E+00 0.  1.
</event>
<event>
 6    1  0.8017648E-006  0.1238599E+03  0.7818608E-02  0.1344038E+00
          2   -1    0    0  502    0  0.00000000000E+00  0.00000000000E+00  0.53652427731E+03  0.53652427731E+03  0.00000000000E+00 0. -1.
          1   -1    0    0  501    0 -0.00000000000E+00 -0.00000000000E+00 -0.16516280019E+03  0.16516280019E+03  0.00000000000E+00 0. -1.
          2    1    1    2  501    0 -0.86839857897E+02  0.98169701808E+02  0.19804474965E+02  0.13255439827E+03  0.00000000000E+00 0. -1.
          1    1    1    2  502    0  0.14175896246E+03 -0.23872462591E+01  0.37811974956E+03  0.40382650655E+03  0.00000000000E+00 0. -1.
         22    1    1    2    0    0 -0.48410484753E+02 -0.11046040444E+03 -0.55075397703E+02  0.13258346584E+03  0.00000000000E+00 0. -1.
         22    1    1    2    0    0 -0.65086198124E+01  0.14677948891E+02  0.28512650297E+02  0.32722706832E+02  0.00000000000E+00 0. -1.
</event>
<event>
 6    1  0.8017648E-006  0.9800242E+02  0.7818608E-02  0.1322053E+00
          2   -1    0    0  502    0  0.00000000000E+00  0.00000000000E+00  0.41511184126E+03  0.41511184126E+03  0.00000000000E+00 0.  1.
          1   -1    0    0  501    0 -0.00000000000E+00 -0.00000000000E+00 -0.72719341650E+02  0.72719341650E+02  0.00000000000E+00 0. -1.
          2    1    1    2  501    0  0.16170763041E+02 -0.56008075322E+02  0.10300551089E+03  0.11835765016E+03  0.00000000000E+00 0.  1.
          1    1    1    2  502    0 -0.30121048575E+02  0.87611836319E+02 -0.48319898635E+01  0.92771006012E+02  0.00000000000E+00 0. -1.
         22    1    1    2    0    0 -0.16958982940E+02  0.67517452026E+01 -0.78466975271E+01  0.19868664467E+02  0.00000000000E+00 0. -1.
         22    1    1    2    0    0  0.30909268473E+02 -0.38355506200E+02  0.25206567611E+03  0.25683386227E+03  0.00000000000E+00 0.  1.
</event>
<event>
 6    1  0.8017648E-006  0.2591842E+02  0.7818608E-02  0.1675080E+00
          2   -1    0    0  502    0  0.00000000000E+00  0.00000000000E+00  0.16896660999E+03  0.16896660999E+03  0.00000000000E+00 0. -1.
          1   -1    0    0  501    0 -0.00000000000E+00 -0.00000000000E+00 -0.14731736662E+03  0.14731736662E+03  0.00000000000E+00 0. -1.
          2    1    1    2  501    0 -0.23586600011E+02  0.13409721328E+02  0.13022702854E+03  0.13302340880E+03  0.00000000000E+00 0. -1.
          1    1    1    2  502    0  0.22335216031E+02  0.60084534749E+01 -0.20378233993E+02  0.30825895104E+02  0.00000000000E+00 0. -1.
         22    1    1    2    0    0  0.14357211857E+02 -0.13284263629E+02 -0.11783910757E+03  0.11945148163E+03  0.00000000000E+00 0. -1.
         22    1    1    2    0    0 -0.13105827876E+02 -0.61339111734E+01  0.29639556379E+02  0.32983191066E+02  0.00000000000E+00 0.  1.
</event>
<event>
 6    1  0.8017648E-006  0.1329980E+03  0.7818608E-02  0.1333479E+00
          2   -1    0    0  502    0  0.00000000000E+00  0.00000000000E+00  0.33659302295E+03  0.33659302295E+03  0.00000000000E+00 0.  1.
          1   -1    0    0  501    0 -0.00000000000E+00 -0.00000000000E+00 -0.34223059108E+03  0.34223059108E+03  0.00000000000E+00 0.  1.
          2    1    1    2  501    0 -0.21072794351E+02 -0.11926211246E+03  0.26764096100E+03  0.29376725163E+03  0.00000000000E+00 0.  1.
          1    1    1    2  502    0  0.32074478176E+02  0.12535662972E+03 -0.21210830578E+03  0.24846124475E+03  0.00000000000E+00 0.  1.
         22    1    1    2    0    0 -0.15491801538E+02  0.44153943730E+01 -0.97339350051E+02  0.98663269207E+02  0.00000000000E+00 0.  1.
         22    1    1    2    0    0  0.44901177137E+01 -0.10509911634E+02  0.36169126695E+02  0.37931848432E+02  0.00000000000E+00 0.  1.
</event>
<event>
 6    1  0.8017648E-006  0.2465222E+02  0.7818608E-02  0.1674073E+00
          2   -1    0    0  502    0  0.00000000000E+00  0.00000000000E+00  0.10949270546E+03  0.10949270546E+03  0.00000000000E+00 0. -1.
          1   -1    0    0  501    0 -0.00000000000E+00 -0.00000000000E+00 -0.35704755189E+03  0.35704755189E+03  0.00000000000E+00 0. -1.
          2    1    1    2  501    0 -0.34655064238E+02 -0.11787822208E+02  0.46191689632E+02  0.58937241374E+02  0.00000000000E+00 0. -1.
          1    1    1    2  502    0  0.58579727754E+02  0.50856158036E+01 -0.27268053425E+03  0.27894824206E+03  0.00000000000E+00 0. -1.
         22    1    1    2    0    0 -0.11433659794E+02  0.34148023073E+01  0.52563501474E+02  0.53900938195E+02  0.00000000000E+00 0. -1.
         22    1    1    2    0    0 -0.12491003721E+02  0.32874040971E+01 -0.73629503287E+02  0.74753835714E+02  0.00000000000E+00 0. -1.
</event>
<event>
 6    1  0.8017648E-006  0.1081805E+03  0.7818608E-02  0.1306272E+00
          2   -1    0    0  502    0  0.00000000000E+00  0.00000000000E+00  0.79645785206E+03  0.79645785206E+03  0.00000000000E+00 0. -1.
          1   -1    0    0  501    0 -0.00000000000E+00 -0.00000000000E+00 -0.93140674683E+02  0.93140674683E+02  0.00000000000E+00 0.  1.
          2    1    1    2  501    0  0.44922287738E+02  0.12289041667E+03  0.49819798962E+03  0.51509348987E+03  0.00000000000E+00 0. -1.
          1    1    1    2  502    0 -0.65361792791E+02 -0.64303436325E+02 -0.35608633682E+02  0.98361937113E+02  0.00000000000E+00 0.  1.
         22    1    1    2    0    0  0.19875933299E+02 -0.44435490066E+02  0.25285482335E+03  0.25749781979E+03  0.00000000000E+00 0.  1.
         22    1    1    2    0    0  0.56357175320E+00 -0.14151490276E+02 -0.12127001910E+02  0.18645279979E+02  0.00000000000E+00 0.  1.
</event>
<event>
 6    1  0.8017648E-006  0.6628178E+02  0.7818608E-02  0.1456519E+00
          2   -1    0    0  502    0  0.00000000000E+00  0.00000000000E+00  0.65176212997E+02  0.65176212997E+02  0.00000000000E+00 0.  1.
          1   -1    0    0  501    0 -0.00000000000E+00 -0.00000000000E+00 -0.22688606857E+03  0.22688606857E+03  0.00000000000E+00 0.  1.
          2    1    1    2  501    0 -0.30929329168E+02 -0.55731219596E+01  0.17008002772E+02  0.35734510623E+02  0.00000000000E+00 0.  1.
          1    1    1    2  502    0  0.50367123354E+02 -0.97980820166E+01 -0.89630315652E+02  0.10327847312E+03  0.00000000000E+00 0.  1.
         22    1    1    2    0    0  0.17154203281E+02  0.61050806651E+01 -0.10890480030E+03  0.11041645814E+03  0.00000000000E+00 0.  1.
         22    1    1    2    0    0 -0.36591997467E+02  0.92661233111E+01  0.19817257611E+02  0.42632839679E+02  0.00000000000E+00 0.  1.
</event>
<event>
 6    1  0.8017648E-006  0.5323696E+02  0.7818608E-02  0.1499467E+00
          2   -1    0    0  502    0  0.00000000000E+00  0.00000000000E+00  0.26627040451E+03  0.26627040451E+03  0.00000000000E+00 0.  1.
          1   -1    0    0  501    0 -0.00000000000E+00 -0.00000000000E+00 -0.75283113908E+02  0.75283113908E+02  0.00000000000E+00 0. -1.
          2    1    1    2  501    0 -0.22273049368E+02  0.15718532840E+02  0.11430757025E+03  0.11751332528E+03  0.00000000000E+00 0.  1.
          1    1    1    2  502    0  0.35706503172E+02 -0.19505780376E+02 -0.34853494605E+02  0.53574209496E+02  0.00000000000E+00 0. -1.
         22    1    1    2    0    0 -0.13391380897E+02  0.22908481479E+02  0.13647909557E+03  0.13903478390E+03  0.00000000000E+00 0.  1.
         22    1    1    2    0    0 -0.42072907551E-01 -0.19121233942E+02 -0.24945880613E+02  0.31431199741E+02  0.00000000000E+00 0.  1.
</event>
<event>
 6    1  0.8017648E-006  0.3366035E+02  0.7818608E-02  0.1644404E+00
          2   -1    0    0  502    0  0.00000000000E+00  0.00000000000E+00  0.27770501085E+03  0.27770501085E+03  0.00000000000E+00 0. -1.
          1   -1    0    0  501    0 -0.00000000000E+00 -0.00000000000E+00 -0.95135068363E+02  0.95135068363E+02  0.00000000000E+00 0. -1.
          2    1    1    2  501    0  0.19982527623E+02 -0.18430117492E+01  0.20834188577E+03  0.20930609038E+03  0.00000000000E+00 0. -1.
          1    1    1    2  502    0 -0.22275573843E+02  0.70353954823E+01 -0.30720440166E+02  0.38593308016E+02  0.00000000000E+00 0. -1.
         22    1    1    2    0    0  0.11833330317E+02  0.26444187878E+01  0.63731711852E+02  0.64874893084E+02  0.00000000000E+00 0.  1.
         22    1    1    2    0    0 -0.95402840969E+01 -0.78368025209E+01 -0.58783214969E+02  0.60065787738E+02  0.00000000000E+00 0. -1.
</event>
<event>
 6    1  0.8017648E-006  0.6465189E+02  0.7818608E-02  0.1475925E+00
          2   -1    0    0  502    0  0.00000000000E+00  0.00000000000E+00  0.50440614434E+03  0.50440614434E+03  0.00000000000E+00 0. -1.
          1   -1    0    0  501    0 -0.00000000000E+00 -0.00000000000E+00 -0.42155718841E+02  0.42155718841E+02  0.00000000000E+00 0. -1.
          2    1    1    2  501    0 -0.35098632746E+02 -0.72837199700E+01  0.15821524698E+03  0.16222524765E+03  0.00000000000E+00 0. -1.
          1    1    1    2  502    0  0.63371985228E+02  0.10642298073E+02  0.22331933787E+03  0.23238070851E+03  0.00000000000E+00 0. -1.
         22    1    1    2    0    0 -0.25141851872E+02  0.11143430514E+02  0.11306786808E+03  0.11636421938E+03  0.00000000000E+00 0. -1.
         22    1    1    2    0    0 -0.31315006100E+01 -0.14502008617E+02 -0.32352027436E+02  0.35591687642E+02  0.00000000000E+00 0. -1.
</event>
<event>
 6    1  0.8017648E-006  0.6789796E+02  0.7818608E-02  0.1427297E+00
          2   -1    0    0  502    0  0.00000000000E+00  0.00000000000E+00  0.21944557924E+03  0.21944557924E+03  0.00000000000E+00 0. -1.
          1   -1    0    0  501    0 -0.00000000000E+00 -0.00000000000E+00 -0.46334701870E+02  0.46334701870E+02  0.00000000000E+00 0.  1.
          2    1    1    2  501    0  0.64540300357E+01  0.27362676800E+02  0.38426466149E+02  0.47612644183E+02  0.00000000000E+00 0. -1.
          1    1    1    2  502    0 -0.15552404221E+02 -0.37373466704E+02  0.77086825924E+01  0.41207730802E+02  0.00000000000E+00 0.  1.
         22    1    1    2    0    0  0.35272694974E+02  0.10757058445E+02  0.14204136308E+03  0.14675021684E+03  0.00000000000E+00 0. -1.
         22    1    1    2    0    0 -0.26174320788E+02 -0.74626854103E+00 -0.15065634449E+02  0.30209689287E+02  0.00000000000E+00 0.  1.
</event>
<event>
 6    1  0.8017648E-006  0.1848005E+03  0.7818608E-02  0.1286993E+00
          2   -1    0    0  502    0  0.00000000000E+00  0.00000000000E+00  0.54254021545E+03  0.54254021545E+03  0.00000000000E+00 0. -1.
          1   -1    0    0  501    0 -0.00000000000E+00 -0.00000000000E+00 -0.25469710366E+03  0.25469710366E+03  0.00000000000E+00 0. -1.
          2    1    1    2  501    0  0.11834716354E+02 -0.15778468374E+03  0.40939603534E+03  0.43890908020E+03  0.00000000000E+00 0. -1.
          1    1    1    2  502    0 -0.76624157318E+01  0.17102859795E+03 -0.15516328471E+03  0.23105224270E+03  0.00000000000E+00 0. -1.
         22    1    1    2    0    0  0.87042516168E+01  0.10913061652E+02 -0.43376395551E+02  0.45567209722E+02  0.00000000000E+00 0.  1.
         22    1    1    2    0    0 -0.12876552239E+02 -0.24156975869E+02  0.76986756706E+02  0.81708786484E+02  0.00000000000E+00 0.  1.
</event>
<event>
 6    1  0.8017648E-006  0.9349522E+02  0.7818608E-02  0.1422536E+00
          2   -1    0    0  502    0  0.00000000000E+00  0.00000000000E+00  0.13397620610E+03  0.13397620610E+03  0.00000000000E+00 0. -1.
          1   -1    0    0  501    0 -0.00000000000E+00 -0.00000000000E+00 -0.32128127656E+03  0.32128127656E+03  0.00000000000E+00 0. -1.
          2    1    1    2  501    0  0.40678870675E+02  0.37054924487E+02  0.51781408145E+02  0.75558931819E+02  0.00000000000E+00 0. -1.
          1    1    1    2  502    0 -0.60795391257E+02 -0.12367507984E+03 -0.12618670482E+03  0.18685472818E+03  0.00000000000E+00 0. -1.
         22    1    1    2    0    0 -0.15341785453E+01  0.10675713311E+02  0.28728791729E+02  0.30686609991E+02  0.00000000000E+00 0. -1.
         22    1    1    2    0    0  0.21650699128E+02  0.75944442045E+02 -0.14162856551E+03  0.16215721267E+03  0.00000000000E+00 0. -1.
</event>
<event>
 6    1  0.8017648E-006  0.2930566E+02  0.7818608E-02  0.1625979E+00
          2   -1    0    0  502    0  0.00000000000E+00  0.00000000000E+00  0.68004061020E+03  0.68004061020E+03  0.00000000000E+00 0. -1.
          1   -1    0    0  501    0 -0.00000000000E+00 -0.00000000000E+00 -0.12720960307E+03  0.12720960307E+03  0.00000000000E+00 0.  1.
          2    1    1    2  501    0 -0.44176087294E+02 -0.35458338810E+02  0.60244453916E+03  0.60510184535E+03  0.00000000000E+00 0. -1.
          1    1    1    2  502    0  0.59378759024E+02  0.19761657703E+02 -0.35336625915E+02  0.71868193726E+02  0.00000000000E+00 0.  1.
         22    1    1    2    0    0 -0.48923835732E+01  0.12691844571E+02 -0.71131421272E+02  0.72420283263E+02  0.00000000000E+00 0. -1.
         22    1    1    2    0    0 -0.10310288156E+02  0.30048365370E+01  0.56854515165E+02  0.57859890936E+02  0.00000000000E+00 0.  1.
</event>
<event>
 6    1  0.8017648E-006  0.8274568E+02  0.7818608E-02  0.1431042E+00
          2   -1    0    0  502    0  0.00000000000E+00  0.00000000000E+00  0.27672136056E+03  0.27672136056E+03  0.00000000000E+00 0. -1.
          1   -1    0    0  501    0 -0.00000000000E+00 -0.00000000000E+00 -0.10291394621E+03  0.10291394621E+03  0.00000000000E+00 0.  1.
          2    1    1    2  501    0  0.35004576131E+02 -0.53061922581E+02  0.15709783462E+03  0.16947158352E+03  0.00000000000E+00 0. -1.
          1    1    1    2  502    0 -0.28872384629E+02  0.72692232538E+02 -0.40202140631E+01  0.78319457267E+02  0.00000000000E+00 0.  1.
         22    1    1    2    0    0  0.72069584074E+01 -0.16651032181E+02  0.74338500989E+02  0.76520649837E+02  0.00000000000E+00 0. -1.
         22    1    1    2    0    0 -0.13339149909E+02 -0.29792777755E+01 -0.53608707200E+02  0.55323616151E+02  0.00000000000E+00 0.  1.
</event>
<event>
 6    1  0.8017648E-006  0.7515896E+02  0.7818608E-02  0.1451343E+00
          2   -1    0    0  502    0  0.00000000000E+00  0.00000000000E+00  0.13286042599E+03  0.13286042599E+03  0.00000000000E+00 0.  1.
          1   -1    0    0  501    0 -0.00000000000E+00 -0.00000000000E+00 -0.93607191034E+02  0.93607191034E+02  0.00000000000E+00 0. -1.
          2    1    1    2  501    0  0.87820418907E+01 -0.22219003402E+02  0.39440812586E+01  0.24214957133E+02  0.00000000000E+00 0.  1.
          1    1    1    2  502    0  0.11208152895E+02  0.62360815780E+02  0.20045441757E+02  0.66455351713E+02  0.00000000000E+00 0. -1.
         22    1    1    2    0    0  0.41674797806E+01 -0.12811629646E+02 -0.55001943731E+02  0.56627904395E+02  0.00000000000E+00 0. -1.
         22    1    1    2    0    0 -0.24157674566E+02 -0.27330182732E+02  0.70265655676E+02  0.79169403788E+02  0.00000000000E+00 0.  1.
</event>
<event>
 6    1  0.8017648E-006  0.1012373E+03  0.7818608E-02  0.1354724E+00
          2   -1    0    0  502    0  0.00000000000E+00  0.00000000000E+00  0.40722100434E+03  0.40722100434E+03  0.00000000000E+00 0. -1.
          1   -1    0    0  501    0 -0.00000000000E+00 -0.00000000000E+00 -0.80150438754E+02  0.80150438754E+02  0.00000000000E+00 0. -1.
          2    1    1    2  501    0 -0.72525098894E+02 -0.15915492852E+02  0.19481024266E+03  0.20848075097E+03  0.00000000000E+00 0. -1.
          1    1    1    2  502    0  0.84985690576E+02  0.54749722293E+02  0.99315238621E+02  0.14171667621E+03  0.00000000000E+00 0. -1.
         22    1    1    2    0    0  0.98900536010E+01 -0.23324318109E+02 -0.46635045915E+02  0.53072257187E+02  0.00000000000E+00 0. -1.
         22    1    1    2    0    0 -0.22350645282E+02 -0.15509911332E+02  0.79580130226E+02  0.84101758727E+02  0.00000000000E+00 0. -1.
</event>
<event>
 6    1  0.8423154E-006  0.1945006E+03  0.7818608E-02  0.1246199E+00
          2   -1    0    0  502    0  0.00000000000E+00  0.00000000000E+00  0.76748683983E+03  0.76748683983E+03  0.00000000000E+00 0.  1.
          1   -1    0    0  501    0 -0.00000000000E+00 -0.00000000000E+00 -0.23872705112E+03  0.23872705112E+03  0.00000000000E+00 0.  1.
          2    1    1    2  501    0 -0.17863198875E+03  0.30462711821E+02  0.64554745837E+03  0.67049898227E+03  0.00000000000E+00 0.  1.
          1    1    1    2  502    0  0.16715689740E+03 -0.34261457906E+02 -0.12623357780E+03  0.21225030509E+03  0.00000000000E+00 0.  1.
         22    1    1    2    0    0  0.23542748889E+02  0.12107441548E+02 -0.53042249918E+02  0.59281796890E+02  0.00000000000E+00 0. -1.
         22    1    1    2    0    0 -0.12067657539E+02 -0.83086954625E+01  0.62488158064E+02  0.64182806709E+02  0.00000000000E+00 0. -1.
</event>
<event>
 6    1  0.8017648E-006  0.4300596E+02  0.7818608E-02  0.1580546E+00
          2   -1    0    0  502    0  0.00000000000E+00  0.00000000000E+00  0.14171746291E+03  0.14171746291E+03  0.00000000000E+00 0. -1.
          1   -1    0    0  501    0 -0.00000000000E+00 -0.00000000000E+00 -0.78451849007E+02  0.78451849007E+02  0.00000000000E+00 0.  1.
          2    1    1    2  501    0 -0.95247201594E+00 -0.21427967782E+02  0.48298814255E+02  0.52847331670E+02  0.00000000000E+00 0. -1.
          1    1    1    2  502    0  0.69967240328E+01  0.29344191013E+02 -0.21175855849E+02  0.36857191488E+02  0.00000000000E+00 0.  1.
         22    1    1    2    0    0  0.10633872908E+01  0.12568994719E+02 -0.44865452845E+02  0.46604927634E+02  0.00000000000E+00 0. -1.
         22    1    1    2    0    0 -0.71076393077E+01 -0.20485217950E+02  0.81008108341E+02  0.83859861125E+02  0.00000000000E+00 0. -1.
</event>
<event>
 6    1  0.8017648E-006  0.2493254E+03  0.7818608E-02  0.1237509E+00
          2   -1    0    0  502    0  0.00000000000E+00  0.00000000000E+00  0.96077392466E+03  0.96077392466E+03  0.00000000000E+00 0. -1.
          1   -1    0    0  501    0 -0.00000000000E+00 -0.00000000000E+00 -0.15297644211E+03  0.15297644211E+03  0.00000000000E+00 0. -1.
          2    1    1    2  501    0  0.86282939928E+02  0.48758836933E+02  0.21032446550E+03  0.23250494766E+03  0.00000000000E+00 0. -1.
          1    1    1    2  502    0 -0.14218476861E+03 -0.16607906918E+03 -0.36463074361E+02  0.22164909528E+03  0.00000000000E+00 0. -1.
         22    1    1    2    0    0 -0.14808961773E+02  0.22978865267E+01  0.42214600717E+01  0.15569404498E+02  0.00000000000E+00 0.  1.
         22    1    1    2    0    0  0.70710790458E+02  0.11502234572E+03  0.62971463134E+03  0.64402691934E+03  0.00000000000E+00 0. -1.
</event>
<event>
 6    1  0.8017648E-006  0.3265925E+02  0.7818608E-02  0.1582145E+00
          2   -1    0    0  502    0  0.00000000000E+00  0.00000000000E+00  0.71312841589E+02  0.71312841589E+02  0.00000000000E+00 0. -1.
          1   -1    0    0  501    0 -0.00000000000E+00 -0.00000000000E+00 -0.52119733510E+03  0.52119733510E+03  0.00000000000E+00 0. -1.
          2    1    1    2  501    0  0.50464733705E+02 -0.30948167513E+02 -0.33203078489E+02  0.67874316508E+02  0.00000000000E+00 0. -1.
          1    1    1    2  502    0 -0.65529102323E+02  0.18546212930E+02 -0.39010194123E+03  0.39600195684E+03  0.00000000000E+00 0. -1.
         22    1    1    2    0    0  0.13044844039E+02 -0.29799374523E+01  0.49351975486E+02  0.51133799660E+02  0.00000000000E+00 0. -1.
         22    1    1    2    0    0  0.20195245787E+01  0.15381892035E+02 -0.75931449277E+02  0.77500103686E+02  0.00000000000E+00 0. -1.
</event>
<event>
 6    1  0.8017648E-006  0.1091097E+03  0.7818608E-02  0.1359435E+00
          2   -1    0    0  502    0  0.00000000000E+00  0.00000000000E+00  0.96714280770E+02  0.96714280770E+02  0.00000000000E+00 0.  1.
          1   -1    0    0  501    0 -0.00000000000E+00 -0.00000000000E+00 -0.52096560348E+03  0.52096560348E+03  0.00000000000E+00 0.  1.
          2    1    1    2  501    0  0.12520143691E+03  0.29469174456E+02 -0.36210786059E+02  0.13362280148E+03  0.00000000000E+00 0.  1.
          1    1    1    2  502    0 -0.66108470778E+02 -0.93904461360E+02 -0.82217474823E+02  0.14123771075E+03  0.00000000000E+00 0.  1.
         22    1    1    2    0    0 -0.70465165966E+02  0.78000373700E+02 -0.30756573388E+03  0.32503242695E+03  0.00000000000E+00 0.  1.
         22    1    1    2    0    0  0.11372199835E+02 -0.13565086796E+02  0.17426720595E+01  0.17786945066E+02  0.00000000000E+00 0.  1.
</event>
<event>
 6    1  0.8017648E-006  0.2943526E+02  0.7818608E-02  0.1630442E+00
          2   -1    0    0  502    0  0.00000000000E+00  0.00000000000E+00  0.43441920399E+02  0.43441920399E+02  0.00000000000E+00 0.  1.
          1   -1    0    0  501    0 -0.00000000000E+00 -0.00000000000E+00 -0.65735897333E+03  0.65735897333E+03  0.00000000000E+00 0. -1.
          2    1    1    2  501    0  0.20764019535E+02 -0.11005660937E+02  0.20793896338E+02  0.31379216128E+02  0.00000000000E+00 0.  1.
          1    1    1    2  502    0  0.21905212222E+02 -0.32683777380E+01 -0.38383384436E+03  0.38447228859E+03  0.00000000000E+00 0. -1.
         22    1    1    2    0    0  0.49066138084E+01 -0.94720391576E+01  0.12399627283E+02  0.16356807195E+02  0.00000000000E+00 0. -1.
         22    1    1    2    0    0 -0.47575845565E+02  0.23746077833E+02 -0.26327673219E+03  0.26859258182E+03  0.00000000000E+00 0. -1.
</event>
<event>
 6    1  0.8017648E-006  0.7482298E+02  0.7818608E-02  0.1443358E+00
          2   -1    0    0  502    0  0.00000000000E+00  0.00000000000E+00  0.19859611729E+03  0.19859611729E+03  0.00000000000E+00 0. -1.
          1   -1    0    0  501    0 -0.00000000000E+00 -0.00000000000E+00 -0.95941131426E+02  0.95941131426E+02  0.00000000000E+00 0.  1.
          2    1    1    2  501    0 -0.65791819149E+01 -0.41636668837E+02  0.83529364769E+02  0.93563094247E+02  0.00000000000E+00 0. -1.
          1    1    1    2  502    0 -0.76498727607E+01  0.54401984766E+02 -0.28944552778E+02  0.62095761814E+02  0.00000000000E+00 0.  1.
         22    1    1    2    0    0 -0.77721153161E+01  0.13255775133E+02 -0.40854338826E+02  0.43648577890E+02  0.00000000000E+00 0. -1.
         22    1    1    2    0    0  0.22001169992E+02 -0.26021091062E+02  0.88924512705E+02  0.95229814769E+02  0.00000000000E+00 0.  1.
</event>
<event>
 6    1  0.8017648E-006  0.1322169E+03  0.7818608E-02  0.1360116E+00
          2   -1    0    0  502    0  0.00000000000E+00  0.00000000000E+00  0.55578751959E+03  0.55578751959E+03  0.00000000000E+00 0.  1.
          1   -1    0    0  501    0 -0.00000000000E+00 -0.00000000000E+00 -0.15176060135E+03  0.15176060135E+03  0.00000000000E+00 0. -1.
          2    1    1    2  501    0 -0.11344214703E+03 -0.17432043922E+02  0.42435647942E+03  0.43960370620E+03  0.00000000000E+00 0.  1.
          1    1    1    2  502    0  0.12783462050E+03 -0.49571880577E+01 -0.55273929960E+02  0.13936093874E+03  0.00000000000E+00 0. -1.
         22    1    1    2    0    0 -0.11114845751E+02  0.12536097326E+02  0.80312887517E+02  0.82041778586E+02  0.00000000000E+00 0. -1.
         22    1    1    2    0    0 -0.32776277188E+01  0.98531346533E+01 -0.45368518741E+02  0.46541697420E+02  0.00000000000E+00 0. -1.
</event>
<event>
 6    1  0.8017648E-006  0.5943230E+02  0.7818608E-02  0.1400875E+00
          2   -1    0    0  502    0  0.00000000000E+00  0.00000000000E+00  0.88503889293E+02  0.88503889293E+02  0.00000000000E+00 0. -1.
          1   -1    0    0  501    0 -0.00000000000E+00 -0.00000000000E+00 -0.18247290679E+03  0.18247290679E+03  0.00000000000E+00 0. -1.
          2    1    1    2  501    0 -0.80556231079E+01  0.27382522798E+02  0.11097461921E+02  0.30624324964E+02  0.00000000000E+00 0. -1.
          1    1    1    2  502    0 -0.49155241582E+02 -0.34281791078E+02 -0.76511428211E+02  0.97187847087E+02  0.00000000000E+00 0. -1.
         22    1    1    2    0    0 -0.13425553151E+02  0.22502500810E+02  0.37135638960E+02  0.45449573167E+02  0.00000000000E+00 0. -1.
         22    1    1    2    0    0  0.70636417841E+02 -0.15603232530E+02 -0.65690690163E+02  0.97715050861E+02  0.00000000000E+00 0. -1.
</event>
<event>
 6    1  0.8017648E-006  0.8656480E+02  0.7818608E-02  0.1317861E+00
          2   -1    0    0  502    0  0.00000000000E+00  0.00000000000E+00  0.37088131103E+03  0.37088131103E+03  0.00000000000E+00 0. -1.
          1   -1    0    0  501    0 -0.00000000000E+00 -0.00000000000E+00 -0.66192190591E+02  0.66192190591E+02  0.00000000000E+00 0. -1.
          2    1    1    2  501    0 -0.14737220310E+02 -0.16308601579E+02 -0.96240416484E+01  0.23995381338E+02  0.00000000000E+00 0. -1.
          1    1    1    2  502    0  0.47301035803E+01  0.83088806191E+02  0.23141395111E+03  0.24592385074E+03  0.00000000000E+00 0. -1.
         22    1    1    2    0    0  0.68709069322E+02 -0.34842728647E+02  0.55399882777E+02  0.94889930753E+02  0.00000000000E+00 0. -1.
         22    1    1    2    0    0 -0.58701952592E+02 -0.31937475965E+02  0.27499328199E+02  0.72264338789E+02  0.00000000000E+00 0. -1.
</event>
<event>
 6    1  0.8017648E-006  0.3508744E+02  0.7818608E-02  0.1574461E+00
          2   -1    0    0  502    0  0.00000000000E+00  0.00000000000E+00  0.10823507028E+04  0.10823507028E+04  0.00000000000E+00 0.  1.
          1   -1    0    0  501    0 -0.00000000000E+00 -0.00000000000E+00 -0.10063256194E+03  0.10063256194E+03  0.00000000000E+00 0.  1.
          2    1    1    2  501    0  0.27680976010E+02  0.24865337701E+02  0.97236632518E+03  0.97307799883E+03  0.00000000000E+00 0.  1.
          1    1    1    2  502    0  0.18181183583E+02 -0.30289963363E+02 -0.54392667001E+02  0.64858303559E+02  0.00000000000E+00 0.  1.
         22    1    1    2    0    0 -0.26235628785E+02  0.15536372844E+02  0.98922271020E+02  0.10351474679E+03  0.00000000000E+00 0.  1.
         22    1    1    2    0    0 -0.19626530808E+02 -0.10111747182E+02 -0.35177788308E+02  0.41532215603E+02  0.00000000000E+00 0.  1.
</event>
<event>
 6    1  0.8017648E-006  0.5484806E+02  0.7818608E-02  0.1475767E+00
          2   -1    0    0  502    0  0.00000000000E+00  0.00000000000E+00  0.84002493017E+02  0.84002493017E+02  0.00000000000E+00 0.  1.
          1   -1    0    0  501    0 -0.00000000000E+00 -0.00000000000E+00 -0.27377500187E+03  0.27377500187E+03  0.00000000000E+00 0. -1.
          2    1    1    2  501    0 -0.25127106711E+02  0.42814233358E+02  0.29240482467E+01  0.49729067232E+02  0.00000000000E+00 0.  1.
          1    1    1    2  502    0  0.21902064800E+02 -0.91791549611E+02 -0.12762015989E+03  0.15872080592E+03  0.00000000000E+00 0. -1.
         22    1    1    2    0    0  0.17562641583E+02  0.37363151221E+02  0.30916218792E+02  0.51577747459E+02  0.00000000000E+00 0. -1.
         22    1    1    2    0    0 -0.14337599672E+02  0.11614165032E+02 -0.95992616000E+02  0.97749874273E+02  0.00000000000E+00 0. -1.
</event>
<event>
 6    1  0.8017648E-006  0.6424474E+02  0.7818608E-02  0.1390361E+00
          2   -1    0    0  502    0  0.00000000000E+00  0.00000000000E+00  0.22325266622E+03  0.22325266622E+03  0.00000000000E+00 0.  1.
          1   -1    0    0  501    0 -0.00000000000E+00 -0.00000000000E+00 -0.30152991664E+03  0.30152991664E+03  0.00000000000E+00 0. -1.
          2    1    1    2  501    0  0.55860226975E+01 -0.53226529312E+02  0.16071569143E+03  0.16939244536E+03  0.00000000000E+00 0.  1.
          1    1    1    2  502    0 -0.57103354513E+02  0.57871080437E+02 -0.19241808657E+03  0.20888890609E+03  0.00000000000E+00 0. -1.
         22    1    1    2    0    0  0.54814103269E+02  0.53120083029E+01 -0.87976669510E+02  0.10379160721E+03  0.00000000000E+00 0.  1.
         22    1    1    2    0    0 -0.32967714540E+01 -0.99565594280E+01  0.41401814238E+02  0.42709624206E+02  0.00000000000E+00 0.  1.
</event>
<event>
 6    1  0.8017648E-006  0.8011489E+02  0.7818608E-02  0.1334054E+00
          2   -1    0    0  502    0  0.00000000000E+00  0.00000000000E+00  0.42015101772E+03  0.42015101772E+03  0.00000000000E+00 0.  1.
          1   -1    0    0  501    0 -0.00000000000E+00 -0.00000000000E+00 -0.11343971989E+03  0.11343971989E+03  0.00000000000E+00 0. -1.
          2    1    1    2  501    0  0.11580292139E+03  0.30673245574E+02  0.23724739824E+03  0.26577714832E+03  0.00000000000E+00 0.  1.
          1    1    1    2  502    0 -0.53251405925E+02  0.98134857410E+00 -0.53769523555E+02  0.75682474467E+02  0.00000000000E+00 0. -1.
         22    1    1    2    0    0 -0.50039575270E+02 -0.53096221192E+02  0.14290783251E+03  0.16045502919E+03  0.00000000000E+00 0. -1.
         22    1    1    2    0    0 -0.12511940191E+02  0.21441627044E+02 -0.19674409366E+02  0.31676085641E+02  0.00000000000E+00 0. -1.
</event>
<event>
 6    1  0.8017648E-006  0.5982623E+02  0.7818608E-02  0.1472620E+00
          2   -1    0    0  502    0  0.00000000000E+00  0.00000000000E+00  0.33034498229E+03  0.33034498229E+03  0.00000000000E+00 0. -1.
          1   -1    0    0  501    0 -0.00000000000E+00 -0.00000000000E+00 -0.15608434509E+03  0.15608434509E+03  0.00000000000E+00 0. -1.
          2    1    1    2  501    0  0.42458968431E+02 -0.76654305229E+02  0.24626805205E+03  0.26139357293E+03  0.00000000000E+00 0. -1.
          1    1    1    2  502    0 -0.49724753745E+02  0.50157560342E+02 -0.70099572695E+02  0.99510210966E+02  0.00000000000E+00 0. -1.
         22    1    1    2    0    0  0.14988866209E+02  0.36928946244E+02 -0.56650356277E+02  0.69265258588E+02  0.00000000000E+00 0. -1.
         22    1    1    2    0    0 -0.77230808943E+01 -0.10432201357E+02  0.54742514128E+02  0.56260284897E+02  0.00000000000E+00 0.  1.
</event>
<event>
 6    1  0.8017648E-006  0.8062137E+02  0.7818608E-02  0.1421636E+00
          2   -1    0    0  502    0  0.00000000000E+00  0.00000000000E+00  0.41780846887E+03  0.41780846887E+03  0.00000000000E+00 0. -1.
          1   -1    0    0  501    0 -0.00000000000E+00 -0.00000000000E+00 -0.66986241793E+02  0.66986241793E+02  0.00000000000E+00 0.  1.
          2    1    1    2  501    0  0.26757238711E+02  0.33232818915E+01  0.12565182919E+03  0.12851216364E+03  0.00000000000E+00 0. -1.
          1    1    1    2  502    0 -0.34735521642E+02  0.39272688152E+02 -0.34807080118E+02  0.62931973787E+02  0.00000000000E+00 0.  1.
         22    1    1    2    0    0  0.13000496683E+02  0.11038527344E+02 -0.88255286792E+01  0.19202915310E+02  0.00000000000E+00 0.  1.
         22    1    1    2    0    0 -0.50222137512E+01 -0.53634497388E+02  0.26880300669E+03  0.27414765793E+03  0.00000000000E+00 0. -1.
</event>
<event>
 6    1  0.8017648E-006  0.1163472E+03  0.7818608E-02  0.1250018E+00
          2   -1    0    0  502    0  0.00000000000E+00  0.00000000000E+00  0.23014148561E+03  0.23014148561E+03  0.00000000000E+00 0.  1.
          1   -1    0    0  501    0 -0.00000000000E+00 -0.00000000000E+00 -0.39516510906E+03  0.39516510906E+03  0.00000000000E+00 0.  1.
          2    1    1    2  501    0  0.67425560549E+02 -0.76511206415E+02  0.19110419985E+03  0.21661252531E+03  0.00000000000E+00 0.  1.
          1    1    1    2  502    0 -0.22175352161E+02  0.38622892164E+02 -0.16753483717E+03  0.17335338390E+03  0.00000000000E+00 0.  1.
         22    1    1    2    0    0 -0.55598952498E+02  0.44006203887E+02 -0.20389991759E+03  0.21587720096E+03  0.00000000000E+00 0.  1.
         22    1    1    2    0    0  0.10348744110E+02 -0.61178896366E+01  0.15306931460E+02  0.19463484502E+02  0.00000000000E+00 0.  1.
</event>
<event>
 6    1  0.8017648E-006  0.5408530E+02  0.7818608E-02  0.1498683E+00
          2   -1    0    0  502    0  0.00000000000E+00  0.00000000000E+00  0.26335561024E+03  0.26335561024E+03  0.00000000000E+00 0.  1.
          1   -1    0    0  501    0 -0.00000000000E+00 -0.00000000000E+00 -0.11536289915E+03  0.11536289915E+03  0.00000000000E+00 0. -1.
          2    1    1    2  501    0 -0.59495391981E+02 -0.23167255522E+02  0.41351237507E+02  0.76068050052E+02  0.00000000000E+00 0.  1.
          1    1    1    2  502    0  0.92207170870E+02  0.33994504920E+02 -0.41108565648E+02  0.10652559737E+03  0.00000000000E+00 0. -1.
         22    1    1    2    0    0  0.16660768232E+01 -0.11588398299E+02 -0.20926591958E+02  0.23978929044E+02  0.00000000000E+00 0.  1.
         22    1    1    2    0    0 -0.34377855712E+02  0.76114890131E+00  0.16867663120E+03  0.17214593293E+03  0.00000000000E+00 0.  1.
</event>
<event>
 6    1  0.8017648E-006  0.7157418E+02  0.7818608E-02  0.1416059E+00
          2   -1    0    0  502    0  0.00000000000E+00  0.00000000000E+00  0.21062824654E+03  0.21062824654E+03  0.00000000000E+00 0. -1.
          1   -1    0    0  501    0 -0.00000000000E+00 -0.00000000000E+00 -0.14235914729E+03  0.14235914729E+03  0.00000000000E+00 0. -1.
          2    1    1    2  501    0  0.43128809089E+02  0.17574696002E+02  0.12570489514E+03  0.13405478274E+03  0.00000000000E+00 0. -1.
          1    1    1    2  502    0 -0.52563692302E+02 -0.37442860791E+02  0.21411629926E+02  0.67995348875E+02  0.00000000000E+00 0. -1.
         22    1    1    2    0    0  0.23355204230E+02 -0.27527064781E+01  0.30441397637E+02  0.38467150241E+02  0.00000000000E+00 0. -1.
         22    1    1    2    0    0 -0.13920321018E+02  0.22620871267E+02 -0.10928882346E+03  0.11247011197E+03  0.00000000000E+00 0. -1.
</event>
<event>
 6    1  0.8017648E-006  0.9638608E+02  0.7818608E-02  0.1328168E+00
          2   -1    0    0  502    0  0.00000000000E+00  0.00000000000E+00  0.85338300913E+02  0.85338300913E+02  0.00000000000E+00 0.  1.
          1   -1    0    0  501    0 -0.00000000000E+00 -0.00000000000E+00 -0.47386781054E+03  0.47386781054E+03  0.00000000000E+00 0. -1.
          2    1    1    2  501    0 -0.54007758280E+02 -0.24700398062E+02  0.21962101755E+02  0.63318887643E+02  0.00000000000E+00 0.  1.
          1    1    1    2  502    0  0.11814167989E+03  0.58842448672E+02 -0.19556838579E+03  0.23593830510E+03  0.00000000000E+00 0. -1.
         22    1    1    2    0    0 -0.18519968524E+02 -0.25314709628E+02  0.78902198323E+01  0.32343149609E+02  0.00000000000E+00 0.  1.
         22    1    1    2    0    0 -0.45613953090E+02 -0.88273409817E+01 -0.22281344543E+03  0.22760576910E+03  0.00000000000E+00 0.  1.
</event>
<event>
 6    1  0.8017648E-006  0.1725854E+03  0.7818608E-02  0.1206250E+00
          2   -1    0    0  502    0  0.00000000000E+00  0.00000000000E+00  0.16481423494E+04  0.16481423494E+04  0.00000000000E+00 0. -1.
          1   -1    0    0  501    0 -0.00000000000E+00 -0.00000000000E+00 -0.11848861167E+03  0.11848861167E+03  0.00000000000E+00 0. -1.
          2    1    1    2  501    0 -0.14655901510E+03 -0.35309302219E+02  0.14540050625E+04  0.14617992384E+04  0.00000000000E+00 0. -1.
          1    1    1    2  502    0  0.12890060049E+03 -0.46080946606E+02  0.85015610253E+01  0.13715354530E+03  0.00000000000E+00 0. -1.
         22    1    1    2    0    0 -0.18856629960E+02  0.25008870233E+01  0.77805441652E+02  0.80096901813E+02  0.00000000000E+00 0. -1.
         22    1    1    2    0    0  0.36515044563E+02  0.78889361802E+02 -0.10658327413E+02  0.87581275557E+02  0.00000000000E+00 0. -1.
</event>
<event>
 6    1  0.8017648E-006  0.1636790E+03  0.7818608E-02  0.1231478E+00
          2   -1    0    0  502    0  0.00000000000E+00  0.00000000000E+00  0.98189451997E+02  0.98189451997E+02  0.00000000000E+00 0.  1.
          1   -1    0    0  501    0 -0.00000000000E+00 -0.00000000000E+00 -0.12841003310E+04  0.12841003310E+04  0.00000000000E+00 0. -1.
          2    1    1    2  501    0  0.91756181797E+02  0.11972458096E+03  0.66456257939E+01  0.15098786880E+03  0.00000000000E+00 0.  1.
          1    1    1    2  502    0 -0.12791616877E+03 -0.84457539568E+02 -0.85718634118E+03  0.87078358145E+03  0.00000000000E+00 0. -1.
         22    1    1    2    0    0  0.14999397952E+01  0.13631198667E+02  0.52358709939E+01  0.14679023863E+02  0.00000000000E+00 0. -1.
         22    1    1    2    0    0  0.34660047180E+02 -0.48898240059E+02 -0.34060603463E+03  0.34583930889E+03  0.00000000000E+00 0.  1.
</event>
<event>
 6    1  0.8017648E-006  0.9939831E+02  0.7818608E-02  0.1353063E+00
          2   -1    0    0  502    0  0.00000000000E+00  0.00000000000E+00  0.10175152976E+03  0.10175152976E+03  0.00000000000E+00 0.  1.
          1   -1    0    0  501    0 -0.00000000000E+00 -0.00000000000E+00 -0.10917734402E+03  0.10917734402E+03  0.00000000000E+00 0.  1.
          2    1    1    2  501    0 -0.27614421711E+02 -0.13264381931E+02 -0.17540582364E+02  0.35301163495E+02  0.00000000000E+00 0.  1.
          1    1    1    2  502    0  0.31871120606E+02 -0.20999059588E+02 -0.21194636981E+02  0.43657089562E+02  0.00000000000E+00 0.  1.
         22    1    1    2    0    0 -0.31482058514E+02  0.30167200084E+02  0.71206699451E+02  0.83495952093E+02  0.00000000000E+00 0.  1.
         22    1    1    2    0    0  0.27225359619E+02  0.40962414352E+01 -0.39897294375E+02  0.48474668629E+02  0.00000000000E+00 0.  1.
</event>
<event>
 6    1  0.8017648E-006  0.5602001E+02  0.7818608E-02  0.1484061E+00
          2   -1    0    0  502    0  0.00000000000E+00  0.00000000000E+00  0.91940554498E+02  0.91940554498E+02  0.00000000000E+00 0.  1.
          1   -1    0    0  501    0 -0.00000000000E+00 -0.00000000000E+00 -0.24196786602E+03  0.24196786602E+03  0.00000000000E+00 0.  1.
          2    1    1    2  501    0 -0.35882178296E+02  0.46670775516E+02  0.14254288460E+02  0.60571253462E+02  0.00000000000E+00 0.  1.
          1    1    1    2  502    0  0.68209211385E+01 -0.63225012581E+02 -0.11555063000E+03  0.13189342393E+03  0.00000000000E+00 0.  1.
         22    1    1    2    0    0 -0.17033255748E+02 -0.58851422456E+01 -0.79591097335E+02  0.81605817658E+02  0.00000000000E+00 0. -1.
         22    1    1    2    0    0  0.46094512905E+02  0.22439379311E+02  0.30860127358E+02  0.59837925468E+02  0.00000000000E+00 0.  1.
</event>
<event>
 6    1  0.8017648E-006  0.5134866E+02  0.7818608E-02  0.1526361E+00
          2   -1    0    0  502    0  0.00000000000E+00  0.00000000000E+00  0.88846794530E+03  0.88846794530E+03  0.00000000000E+00 0. -1.
          1   -1    0    0  501    0 -0.00000000000E+00 -0.00000000000E+00 -0.91588352111E+02  0.91588352111E+02  0.00000000000E+00 0.  1.
          2    1    1    2  501    0 -0.24449897588E+02 -0.18428516789E+02  0.80428369572E+03  0.80486624412E+03  0.00000000000E+00 0. -1.
          1    1    1    2  502    0 -0.23588848038E+02 -0.28513519103E+02  0.61307565595E+00  0.37011219720E+02  0.00000000000E+00 0.  1.
         22    1    1    2    0    0  0.14175257433E+02 -0.43243713589E+01  0.50924495881E+02  0.53037179334E+02  0.00000000000E+00 0.  1.
         22    1    1    2    0    0  0.33863488193E+02  0.51266407250E+02 -0.58941674066E+02  0.85141654240E+02  0.00000000000E+00 0.  1.
</event>
<event>
 6    1  0.8017648E-006  0.6064381E+02  0.7818608E-02  0.1458039E+00
          2   -1    0    0  502    0  0.00000000000E+00  0.00000000000E+00  0.19624674195E+03  0.19624674195E+03  0.00000000000E+00 0.  1.
          1   -1    0    0  501    0 -0.00000000000E+00 -0.00000000000E+00 -0.26978093794E+03  0.26978093794E+03  0.00000000000E+00 0.  1.
          2    1    1    2  501    0 -0.14195363179E+02  0.42263545023E+02  0.12680139196E+03  0.13441096896E+03  0.00000000000E+00 0.  1.
          1    1    1    2  502    0  0.47647496494E+02 -0.34776247713E+02 -0.19284934525E+03  0.20166938610E+03  0.00000000000E+00 0.  1.
         22    1    1    2    0    0 -0.18919446686E+02 -0.13517107568E+02 -0.65674592588E+02  0.69669288582E+02  0.00000000000E+00 0. -1.
         22    1    1    2    0    0 -0.14532686629E+02  0.60298102581E+01  0.58188349887E+02  0.60278036257E+02  0.00000000000E+00 0. -1.
</event>
<event>
 6    1  0.8017648E-006  0.5798646E+02  0.7818608E-02  0.1485800E+00
          2   -1    0    0  502    0  0.00000000000E+00  0.00000000000E+00  0.15066511187E+03  0.15066511187E+03  0.00000000000E+00 0.  1.
          1   -1    0    0  501    0 -0.00000000000E+00 -0.00000000000E+00 -0.22716126177E+03  0.22716126177E+03  0.00000000000E+00 0.  1.
          2    1    1    2  501    0  0.49519550253E+02  0.92919885467E+01  0.96050413678E+02  0.10846293780E+03  0.00000000000E+00 0.  1.
          1    1    1    2  502    0 -0.34742749059E+02 -0.20187490445E+02 -0.12877090090E+03  0.13489454511E+03  0.00000000000E+00 0.  1.
         22    1    1    2    0    0  0.59756953373E+00  0.17878613643E+02  0.42733776878E+02  0.46326856157E+02  0.00000000000E+00 0. -1.
         22    1    1    2    0    0 -0.15374370728E+02 -0.69831117445E+01 -0.86509439558E+02  0.88142034567E+02  0.00000000000E+00 0.  1.
</event>
<event>
 6    1  0.8017648E-006  0.1471681E+03  0.7818608E-02  0.1313433E+00
          2   -1    0    0  502    0  0.00000000000E+00  0.00000000000E+00  0.38347130051E+03  0.38347130051E+03  0.00000000000E+00 0. -1.
          1   -1    0    0  501    0 -0.00000000000E+00 -0.00000000000E+00 -0.18834510823E+03  0.18834510823E+03  0.00000000000E+00 0. -1.
          2    1    1    2  501    0 -0.46275932877E+02 -0.16904847060E+03  0.17660771477E+02  0.17615547174E+03  0.00000000000E+00 0. -1.
          1    1    1    2  502    0  0.14683220464E+03  0.91169112599E+02  0.11670542068E+03  0.20854653828E+03  0.00000000000E+00 0. -1.
         22    1    1    2    0    0 -0.11543092129E+03  0.73477237850E+02  0.82970678737E+02  0.16002292211E+03  0.00000000000E+00 0. -1.
         22    1    1    2    0    0  0.14874649528E+02  0.44021201523E+01 -0.22210678619E+02  0.27091476614E+02  0.00000000000E+00 0. -1.
</event>
<event>
 6    1  0.8017648E-006  0.3791325E+03  0.7818608E-02  0.1155597E+00
          2   -1    0    0  502    0  0.00000000000E+00  0.00000000000E+00  0.40616170616E+03  0.40616170616E+03  0.00000000000E+00 0. -1.
          1   -1    0    0  501    0 -0.00000000000E+00 -0.00000000000E+00 -0.36667381942E+03  0.36667381942E+03  0.00000000000E+00 0. -1.
          2    1    1    2  501    0 -0.14171721088E+03  0.13794258127E+02  0.25366489163E+02  0.14462886361E+03  0.00000000000E+00 0. -1.
          1    1    1    2  502    0  0.14355415538E+03 -0.23106759556E+03  0.18004000282E+03  0.32621224971E+03  0.00000000000E+00 0. -1.
         22    1    1    2    0    0  0.25235229093E+02 -0.41321136964E+01 -0.35038163313E+02  0.43376998966E+02  0.00000000000E+00 0. -1.
         22    1    1    2    0    0 -0.27072173595E+02  0.22140545113E+03 -0.13088044193E+03  0.25861741329E+03  0.00000000000E+00 0. -1.
</event>
<event>
 6    1  0.8017648E-006  0.7573546E+02  0.7818608E-02  0.1431810E+00
          2   -1    0    0  502    0  0.00000000000E+00  0.00000000000E+00  0.10455931672E+03  0.10455931672E+03  0.00000000000E+00 0. -1.
          1   -1    0    0  501    0 -0.00000000000E+00 -0.00000000000E+00 -0.21855439072E+03  0.21855439072E+03  0.00000000000E+00 0. -1.
          2    1    1    2  501    0  0.27460981907E+02  0.42943990616E+02  0.50592143048E+02  0.71818220498E+02  0.00000000000E+00 0. -1.
          1    1    1    2  502    0 -0.25261679312E+02 -0.52293224530E+02 -0.92702191676E+02  0.10939117933E+03  0.00000000000E+00 0. -1.
         22    1    1    2    0    0 -0.86080767937E+00  0.26917691293E+02  0.28950917081E+02  0.39540595522E+02  0.00000000000E+00 0.  1.
         22    1    1    2    0    0 -0.13384949155E+01 -0.17568457379E+02 -0.10083594246E+03  0.10236371210E+03  0.00000000000E+00 0.  1.
</event>
<event>
 6    1  0.8017648E-006  0.5007110E+02  0.7818608E-02  0.1505460E+00
          2   -1    0    0  502    0  0.00000000000E+00  0.00000000000E+00  0.11006503888E+03  0.11006503888E+03  0.00000000000E+00 0.  1.
          1   -1    0    0  501    0 -0.00000000000E+00 -0.00000000000E+00 -0.32372286181E+03  0.32372286181E+03  0.00000000000E+00 0. -1.
          2    1    1    2  501    0 -0.27168108837E+01 -0.21551133006E+02  0.35860278540E+02  0.41926029769E+02  0.00000000000E+00 0.  1.
          1    1    1    2  502    0  0.15630138575E+02  0.19231059506E+02 -0.26309876214E+03  0.26426330339E+03  0.00000000000E+00 0. -1.
         22    1    1    2    0    0  0.10104481690E+02  0.18604325834E+02 -0.52037350927E+02  0.56179243333E+02  0.00000000000E+00 0. -1.
         22    1    1    2    0    0 -0.23017809381E+02 -0.16284252334E+02  0.65618011600E+02  0.71419324200E+02  0.00000000000E+00 0.  1.
</event>
<event>
 6    1  0.8017648E-006  0.1225807E+03  0.7818608E-02  0.1293458E+00
          2   -1    0    0  502    0  0.00000000000E+00  0.00000000000E+00  0.38225325580E+03  0.38225325580E+03  0.00000000000E+00 0.  1.
          1   -1    0    0  501    0 -0.00000000000E+00 -0.00000000000E+00 -0.81275917225E+02  0.81275917225E+02  0.00000000000E+00 0.  1.
          2    1    1    2  501    0  0.34256068576E+02  0.19561450606E+02  0.65939903954E+02  0.76838789148E+02  0.00000000000E+00 0.  1.
          1    1    1    2  502    0 -0.25874228618E+02 -0.74992034650E+02 -0.31649966532E+02  0.85410780052E+02  0.00000000000E+00 0.  1.
         22    1    1    2    0    0  0.21513144207E+02  0.85465650076E+02  0.22581466695E+03  0.24240349941E+03  0.00000000000E+00 0.  1.
         22    1    1    2    0    0 -0.29894984165E+02 -0.30035066032E+02  0.40872734196E+02  0.58876104409E+02  0.00000000000E+00 0.  1.
</event>
<event>
 6    1  0.8017648E-006  0.1751957E+03  0.7818608E-02  0.1291223E+00
          2   -1    0    0  502    0  0.00000000000E+00  0.00000000000E+00  0.70046889559E+02  0.70046889559E+02  0.00000000000E+00 0.  1.
          1   -1    0    0  501    0 -0.00000000000E+00 -0.00000000000E+00 -0.53167737503E+03  0.53167737503E+03  0.00000000000E+00 0. -1.
          2    1    1    2  501    0  0.26846603430E+02 -0.85040772204E+01 -0.46611079714E+02  0.54457801986E+02  0.00000000000E+00 0.  1.
          1    1    1    2  502    0  0.72786295472E+01  0.13006060745E+03 -0.31775301283E+03  0.34341770080E+03  0.00000000000E+00 0. -1.
         22    1    1    2    0    0 -0.48061160850E+02 -0.12745697970E+03 -0.36214396479E+02  0.14094906658E+03  0.00000000000E+00 0.  1.
         22    1    1    2    0    0  0.13935927873E+02  0.59004494691E+01 -0.61051996447E+02  0.62899695228E+02  0.00000000000E+00 0.  1.
</event>
<event>
 6    1  0.8017648E-006  0.4786565E+02  0.7818608E-02  0.1480654E+00
          2   -1    0    0  502    0  0.00000000000E+00  0.00000000000E+00  0.57258830419E+03  0.57258830419E+03  0.00000000000E+00 0.  1.
          1   -1    0    0  501    0 -0.00000000000E+00 -0.00000000000E+00 -0.58891257770E+02  0.58891257770E+02  0.00000000000E+00 0. -1.
          2    1    1    2  501    0  0.55705403565E+02  0.18577626366E+02  0.38988618295E+03  0.39428347143E+03  0.00000000000E+00 0.  1.
          1    1    1    2  502    0 -0.62616077696E+01 -0.52156369351E+02  0.63886804137E+02  0.82710448787E+02  0.00000000000E+00 0. -1.
         22    1    1    2    0    0 -0.89098719070E+01  0.28021525150E+02  0.95713275981E+02  0.10012803248E+03  0.00000000000E+00 0. -1.
         22    1    1    2    0    0 -0.40533923889E+02  0.55572178349E+01 -0.35789216652E+02  0.54357609260E+02  0.00000000000E+00 0. -1.
</event>
<event>
 6    1  0.1207264E-005  0.1088738E+03  0.7818608E-02  0.1349802E+00
          2   -1    0    0  502    0  0.00000000000E+00  0.00000000000E+00  0.51305694897E+03  0.51305694897E+03  0.00000000000E+00 0. -1.
          1   -1    0    0  501    0 -0.00000000000E+00 -0.00000000000E+00 -0.47639393983E+03  0.47639393983E+03  0.00000000000E+00 0.  1.
          2    1    1    2  501    0  0.17708032533E+03 -0.17236053682E+02  0.40493860113E+03  0.44230056957E+03  0.00000000000E+00 0. -1.
          1    1    1    2  502    0 -0.12674925456E+03  0.64702846825E+02 -0.37501720030E+03  0.40111062370E+03  0.00000000000E+00 0.  1.
         22    1    1    2    0    0 -0.40830574878E+02 -0.58370397687E+02 -0.50293880898E+02  0.87199275380E+02  0.00000000000E+00 0.  1.
         22    1    1    2    0    0 -0.95004958862E+01  0.10903604545E+02  0.57035489208E+02  0.58840420149E+02  0.00000000000E+00 0. -1.
</event>
<event>
 6    1  0.8017648E-006  0.5997233E+02  0.7818608E-02  0.1489498E+00
          2   -1    0    0  502    0  0.00000000000E+00  0.00000000000E+00  0.74455288330E+02  0.74455288330E+02  0.00000000000E+00 0. -1.
          1   -1    0    0  501    0 -0.00000000000E+00 -0.00000000000E+00 -0.57569826270E+03  0.57569826270E+03  0.00000000000E+00 0. -1.
          2    1    1    2  501    0 -0.29830302811E+01  0.77952048199E+02  0.10465545899E+02  0.78707991583E+02  0.00000000000E+00 0. -1.
          1    1    1    2  502    0 -0.30503875402E+02 -0.11678076703E+03 -0.28311046296E+03  0.30776576840E+03  0.00000000000E+00 0. -1.
         22    1    1    2    0    0  0.24265006031E+02  0.33479481629E+02 -0.24259031179E+03  0.24608885708E+03  0.00000000000E+00 0. -1.
         22    1    1    2    0    0  0.92218996522E+01  0.53492372014E+01  0.13992254485E+02  0.17590933955E+02  0.00000000000E+00 0.  1.
</event>
<event>
 6    1  0.8017648E-006  0.1632609E+03  0.7818608E-02  0.1275787E+00
          2   -1    0    0  502    0  0.00000000000E+00  0.00000000000E+00  0.16378927777E+03  0.16378927777E+03  0.00000000000E+00 0.  1.
          1   -1    0    0  501    0 -0.00000000000E+00 -0.00000000000E+00 -0.37288342639E+03  0.37288342639E+03  0.00000000000E+00 0. -1.
          2    1    1    2  501    0  0.18337856452E+01  0.11832422590E+03  0.45387675896E+02  0.12674394001E+03  0.00000000000E+00 0.  1.
          1    1    1    2  502    0  0.16559235479E+02 -0.17848327477E+03 -0.13522017660E+03  0.22453281233E+03  0.00000000000E+00 0. -1.
         22    1    1    2    0    0 -0.17350775648E+02  0.35134917928E+02  0.19934337090E+02  0.43964641118E+02  0.00000000000E+00 0.  1.
         22    1    1    2    0    0 -0.10422454759E+01  0.25024130935E+02 -0.13919598501E+03  0.14143131070E+03  0.00000000000E+00 0. -1.
</event>
<event>
 6    1  0.8017648E-006  0.4255968E+02  0.7818608E-02  0.1493665E+00
          2   -1    0    0  502    0  0.00000000000E+00  0.00000000000E+00  0.93631740826E+02  0.93631740826E+02  0.00000000000E+00 0. -1.
          1   -1    0    0  501    0 -0.00000000000E+00 -0.00000000000E+00 -0.14899980545E+03  0.14899980545E+03  0.00000000000E+00 0. -1.
          2    1    1    2  501    0 -0.42240412441E+02  0.34952731904E+01  0.23233602039E+02  0.48334973276E+02  0.00000000000E+00 0. -1.
          1    1    1    2  502    0  0.49308779210E+02 -0.77054253258E+01 -0.22615635225E+02  0.54792300949E+02  0.00000000000E+00 0. -1.
         22    1    1    2    0    0  0.12265264731E+02  0.34952814325E+02 -0.85194561491E+02  0.92899134850E+02  0.00000000000E+00 0.  1.
         22    1    1    2    0    0 -0.19333631499E+02 -0.30742662190E+02  0.29208530054E+02  0.46605137200E+02  0.00000000000E+00 0. -1.
</event>
<event>
 6    1  0.8017648E-006  0.6881441E+02  0.7818608E-02  0.1401534E+00
          2   -1    0    0  502    0  0.00000000000E+00  0.00000000000E+00  0.30693944835E+03  0.30693944835E+03  0.00000000000E+00 0.  1.
          1   -1    0    0  501    0 -0.00000000000E+00 -0.00000000000E+00 -0.93817222472E+02  0.93817222472E+02  0.00000000000E+00 0.  1.
          2    1    1    2  501    0 -0.40668366065E+02  0.14206213744E+02  0.25203507070E+02  0.49909410696E+02  0.00000000000E+00 0.  1.
          1    1    1    2  502    0  0.58118305391E+02  0.15965171949E+02  0.20947673190E+03  0.21797505670E+03  0.00000000000E+00 0.  1.
         22    1    1    2    0    0 -0.48785539099E+02 -0.95626332693E+01  0.37941672651E+02  0.62538334674E+02  0.00000000000E+00 0.  1.
         22    1    1    2    0    0  0.31335599773E+02 -0.20608752423E+02 -0.59499685745E+02  0.70333868750E+02  0.00000000000E+00 0.  1.
</event>
<event>
 6    1  0.8017648E-006  0.4652245E+02  0.7818608E-02  0.1517867E+00
          2   -1    0    0  502    0  0.00000000000E+00  0.00000000000E+00  0.10336136926E+03  0.10336136926E+03  0.00000000000E+00 0. -1.
          1   -1    0    0  501    0 -0.00000000000E+00 -0.00000000000E+00 -0.15411682807E+03  0.15411682807E+03  0.00000000000E+00 0.  1.
          2    1    1    2  501    0  0.30188172007E+02  0.13802111389E+02  0.57343636354E+02  0.66257955282E+02  0.00000000000E+00 0. -1.
          1    1    1    2  502    0 -0.32098835267E+02 -0.68943805441E+01 -0.10484055111E+02  0.34464229574E+02  0.00000000000E+00 0.  1.
         22    1    1    2    0    0  0.11947064719E+02  0.13025519622E+02  0.25836362716E+02  0.31303580550E+02  0.00000000000E+00 0. -1.
         22    1    1    2    0    0 -0.10036401460E+02 -0.19933250466E+02 -0.12345140278E+03  0.12545243193E+03  0.00000000000E+00 0.  1.
</event>
<event>
 6    1  0.8017648E-006  0.7964156E+02  0.7818608E-02  0.1446999E+00
          2   -1    0    0  502    0  0.00000000000E+00  0.00000000000E+00  0.18861747998E+03  0.18861747998E+03  0.00000000000E+00 0.  1.
          1   -1    0    0  501    0 -0.00000000000E+00 -0.00000000000E+00 -0.10303788125E+03  0.10303788125E+03  0.00000000000E+00 0. -1.
          2    1    1    2  501    0 -0.14877580564E+01  0.22127110905E+02  0.10779401567E+02  0.24658020179E+02  0.00000000000E+00 0.  1.
          1    1    1    2  502    0 -0.26711860639E+02 -0.48828485978E+02 -0.60159412436E+02  0.81956692505E+02  0.00000000000E+00 0. -1.
         22    1    1    2    0    0 -0.35993146008E+01  0.11523365350E+02 -0.21502693415E+02  0.24659862909E+02  0.00000000000E+00 0. -1.
         22    1    1    2    0    0  0.31798933296E+02  0.15178009723E+02  0.15646230301E+03  0.16038078564E+03  0.00000000000E+00 0.  1.
</event>
<event>
 6    1  0.8017648E-006  0.2470584E+03  0.7818608E-02  0.1188646E+00
          2   -1    0    0  502    0  0.00000000000E+00  0.00000000000E+00  0.35840456090E+03  0.35840456090E+03  0.00000000000E+00 0.  1.
          1   -1    0    0  501    0 -0.00000000000E+00 -0.00000000000E+00 -0.34545368319E+03  0.34545368319E+03  0.00000000000E+00 0.  1.
          2    1    1    2  501    0 -0.13180532304E+03 -0.10849260030E+03 -0.48044221366E+02  0.17734580544E+03  0.00000000000E+00 0.  1.
          1    1    1    2  502    0  0.22298439469E+03  0.57729363000E+02  0.20576880891E+03  0.30886165568E+03  0.00000000000E+00 0.  1.
         22    1    1    2    0    0 -0.18669164366E+02  0.39298568327E+02 -0.13710270373E+03  0.14384042040E+03  0.00000000000E+00 0.  1.
         22    1    1    2    0    0 -0.72509907279E+02  0.11464668973E+02 -0.76710061035E+01  0.73810362572E+02  0.00000000000E+00 0.  1.
</event>
<event>
 6    1  0.8017648E-006  0.9648236E+02  0.7818608E-02  0.1381514E+00
          2   -1    0    0  502    0  0.00000000000E+00  0.00000000000E+00  0.18003200475E+04  0.18003200475E+04  0.00000000000E+00 0.  1.
          1   -1    0    0  501    0 -0.00000000000E+00 -0.00000000000E+00 -0.38251113743E+02  0.38251113743E+02  0.00000000000E+00 0.  1.
          2    1    1    2  501    0 -0.11815344924E+03 -0.82329532867E+02  0.10867955299E+04  0.10962950850E+04  0.00000000000E+00 0.  1.
          1    1    1    2  502    0  0.15917764234E+03  0.55252208273E+02  0.42999649659E+03  0.46183039681E+03  0.00000000000E+00 0.  1.
         22    1    1    2    0    0  0.10989356429E+02  0.11830544984E+01 -0.12218725645E+02  0.16476129068E+02  0.00000000000E+00 0. -1.
         22    1    1    2    0    0 -0.52013549528E+02  0.25894270095E+02  0.25749563294E+03  0.26396955040E+03  0.00000000000E+00 0. -1.
</event>
<event>
 6    1  0.8017648E-006  0.4987980E+02  0.7818608E-02  0.1505604E+00
          2   -1    0    0  502    0  0.00000000000E+00  0.00000000000E+00  0.11191722270E+03  0.11191722270E+03  0.00000000000E+00 0.  1.
          1   -1    0    0  501    0 -0.00000000000E+00 -0.00000000000E+00 -0.14969210931E+04  0.14969210931E+04  0.00000000000E+00 0.  1.
          2    1    1    2  501    0  0.18743894035E+02 -0.11815859710E+02  0.52397925315E+02  0.56890163312E+02  0.00000000000E+00 0.  1.
          1    1    1    2  502    0 -0.84672629684E+01  0.46754834918E+02 -0.14192995296E+04  0.14200946673E+04  0.00000000000E+00 0.  1.
         22    1    1    2    0    0  0.91061601911E+01 -0.25930750649E+02  0.51863715472E+02  0.58695578754E+02  0.00000000000E+00 0. -1.
         22    1    1    2    0    0 -0.19382791258E+02 -0.90082245594E+01 -0.69965981548E+02  0.73157906481E+02  0.00000000000E+00 0.  1.
</event>
<event>
 6    1  0.8017648E-006  0.2373724E+03  0.7818608E-02  0.1246638E+00
          2   -1    0    0  502    0  0.00000000000E+00  0.00000000000E+00  0.51134289543E+03  0.51134289543E+03  0.00000000000E+00 0. -1.
          1   -1    0    0  501    0 -0.00000000000E+00 -0.00000000000E+00 -0.21686338906E+03  0.21686338906E+03  0.00000000000E+00 0.  1.
          2    1    1    2  501    0 -0.28005549315E+02 -0.77123695865E+02  0.76731563058E+02  0.11233925416E+03  0.00000000000E+00 0. -1.
          1    1    1    2  502    0  0.79392456751E+02  0.20656325524E+03 -0.10204700862E+03  0.24369064933E+03  0.00000000000E+00 0.  1.
         22    1    1    2    0    0 -0.38446028401E+02 -0.13583744378E+03  0.32690428557E+03  0.35608470924E+03  0.00000000000E+00 0. -1.
         22    1    1    2    0    0 -0.12940879035E+02  0.63978844090E+01 -0.71093336359E+01  0.16091671754E+02  0.00000000000E+00 0. -1.
</event>
<event>
 6    1  0.8017648E-006  0.4919609E+02  0.7818608E-02  0.1472132E+00
          2   -1    0    0  502    0  0.00000000000E+00  0.00000000000E+00  0.13371027880E+03  0.13371027880E+03  0.00000000000E+00 0. -1.
          1   -1    0    0  501    0 -0.00000000000E+00 -0.00000000000E+00 -0.11511036794E+03  0.11511036794E+03  0.00000000000E+00 0. -1.
          2    1    1    2  501    0 -0.37737139261E+02  0.27558542627E+02  0.37227449812E+02  0.59744857276E+02  0.00000000000E+00 0. -1.
          1    1    1    2  502    0  0.52606639247E+01 -0.45784256298E+02  0.22326748138E+02  0.51208948360E+02  0.00000000000E+00 0. -1.
         22    1    1    2    0    0 -0.24333356664E+02  0.25906400121E+02 -0.66269744051E+02  0.75199287167E+02  0.00000000000E+00 0. -1.
         22    1    1    2    0    0  0.56809832000E+02 -0.76806864503E+01  0.25315456957E+02  0.62667553943E+02  0.00000000000E+00 0. -1.
</event>
<event>
 6    1  0.8017648E-006  0.1966346E+03  0.7818608E-02  0.1267646E+00
          2   -1    0    0  502    0  0.00000000000E+00  0.00000000000E+00  0.11462594267E+04  0.11462594267E+04  0.00000000000E+00 0.  1.
          1   -1    0    0  501    0 -0.00000000000E+00 -0.00000000000E+00 -0.50309290716E+02  0.50309290716E+02  0.00000000000E+00 0. -1.
          2    1    1    2  501    0  0.15472826304E+02 -0.38206846364E+02  0.42638550636E+03  0.42837340195E+03  0.00000000000E+00 0.  1.
          1    1    1    2  502    0  0.10302276533E+03  0.91920763960E+02  0.10019856722E+03  0.17059563270E+03  0.00000000000E+00 0. -1.
         22    1    1    2    0    0  0.65546467941E+01  0.15438480634E+02  0.84749281474E+01  0.18791872870E+02  0.00000000000E+00 0. -1.
         22    1    1    2    0    0 -0.12505023842E+03 -0.69152398231E+02  0.56089113427E+03  0.57880780991E+03  0.00000000000E+00 0.  1.
</event>
<event>
 6    1  0.8017648E-006  0.1059947E+03  0.7818608E-02  0.1397297E+00
          2   -1    0    0  502    0  0.00000000000E+00  0.00000000000E+00  0.40995441719E+03  0.40995441719E+03  0.00000000000E+00 0.  1.
          1   -1    0    0  501    0 -0.00000000000E+00 -0.00000000000E+00 -0.47966547034E+02  0.47966547034E+02  0.00000000000E+00 0. -1.
          2    1    1    2  501    0  0.12650069200E+02  0.17420278882E+02  0.38197133185E+02  0.43846451973E+02  0.00000000000E+00 0.  1.
          1    1    1    2  502    0 -0.89470969165E+02  0.18070417784E+02  0.54034697911E+02  0.10607234748E+03  0.00000000000E+00 0. -1.
         22    1    1    2    0    0 -0.40630679875E+00 -0.10968452596E+02 -0.11148563396E+02  0.15644887451E+02  0.00000000000E+00 0.  1.
         22    1    1    2    0    0  0.77227206764E+02 -0.24522244071E+02  0.28090460245E+03  0.29235727731E+03  0.00000000000E+00 0.  1.
</event>
<event>
 6    1  0.8017648E-006  0.1105909E+03  0.7818608E-02  0.1278089E+00
          2   -1    0    0  502    0  0.00000000000E+00  0.00000000000E+00  0.33349259301E+03  0.33349259301E+03  0.00000000000E+00 0. -1.
          1   -1    0    0  501    0 -0.00000000000E+00 -0.00000000000E+00 -0.48512861384E+03  0.48512861384E+03  0.00000000000E+00 0. -1.
          2    1    1    2  501    0 -0.64568317392E+02 -0.17670751218E+03  0.19847462822E+03  0.27347173623E+03  0.00000000000E+00 0. -1.
          1    1    1    2  502    0  0.11034607371E+03  0.21888273970E+03 -0.31633426349E+03  0.40019154911E+03  0.00000000000E+00 0. -1.
         22    1    1    2    0    0 -0.56654237157E+02 -0.42937214973E+01  0.34248336047E+02  0.66340690033E+02  0.00000000000E+00 0.  1.
         22    1    1    2    0    0  0.10876480844E+02 -0.37881506019E+02 -0.68024721602E+02  0.78617231462E+02  0.00000000000E+00 0.  1.
</event>
<event>
 6    1  0.8017648E-006  0.6831792E+02  0.7818608E-02  0.1474741E+00
          2   -1    0    0  502    0  0.00000000000E+00  0.00000000000E+00  0.12442030265E+03  0.12442030265E+03  0.00000000000E+00 0.  1.
          1   -1    0    0  501    0 -0.00000000000E+00 -0.00000000000E+00 -0.48498041572E+03  0.48498041572E+03  0.00000000000E+00 0.  1.
          2    1    1    2  501    0 -0.52680914188E+02  0.12578383689E+01 -0.21397078505E+02  0.56874386551E+02  0.00000000000E+00 0.  1.
          1    1    1    2  502    0 -0.58669873564E+01  0.62989276539E+02 -0.38749889874E+03  0.39262891771E+03  0.00000000000E+00 0.  1.
         22    1    1    2    0    0 -0.16797409765E-01 -0.12787225830E+02 -0.40049831287E+02  0.42041674713E+02  0.00000000000E+00 0.  1.
         22    1    1    2    0    0  0.58564698954E+02 -0.51459889078E+02  0.88385695455E+02  0.11785573940E+03  0.00000000000E+00 0.  1.
</event>
<event>
 6    1  0.8017648E-006  0.1017002E+03  0.7818608E-02  0.1396915E+00
          2   -1    0    0  502    0  0.00000000000E+00  0.00000000000E+00  0.29544696578E+03  0.29544696578E+03  0.00000000000E+00 0.  1.
          1   -1    0    0  501    0 -0.00000000000E+00 -0.00000000000E+00 -0.32447578872E+03  0.32447578872E+03  0.00000000000E+00 0.  1.
          2    1    1    2  501    0  0.27984264643E+02 -0.42944306710E+02  0.15488937490E+03  0.16315039381E+03  0.00000000000E+00 0.  1.
          1    1    1    2  502    0 -0.69949902919E+02  0.80605640161E+02 -0.27346423306E+03  0.29355228650E+03  0.00000000000E+00 0.  1.
         22    1    1    2    0    0  0.42794397244E+02 -0.25187068201E+02  0.12023338359E+03  0.13008387820E+03  0.00000000000E+00 0.  1.
         22    1    1    2    0    0 -0.82875896779E+00 -0.12474265250E+02 -0.30687348361E+02  0.33136195985E+02  0.00000000000E+00 0.  1.
</event>
<event>
 6    1  0.8017648E-006  0.4198743E+02  0.7818608E-02  0.1567378E+00
          2   -1    0    0  502    0  0.00000000000E+00  0.00000000000E+00  0.16655465549E+03  0.16655465549E+03  0.00000000000E+00 0. -1.
          1   -1    0    0  501    0 -0.00000000000E+00 -0.00000000000E+00 -0.10373105282E+03  0.10373105282E+03  0.00000000000E+00 0. -1.
          2    1    1    2  501    0 -0.30062607494E+02 -0.21310378325E+01  0.75795320044E+02  0.81567347831E+02  0.00000000000E+00 0. -1.
          1    1    1    2  502    0  0.19863282967E+02 -0.48648917554E+02 -0.21517865468E+02  0.56782794257E+02  0.00000000000E+00 0. -1.
         22    1    1    2    0    0  0.10867013936E+02  0.11700089727E+02  0.62951872105E+02  0.64945533280E+02  0.00000000000E+00 0. -1.
         22    1    1    2    0    0 -0.66768940859E+00  0.39079865659E+02 -0.54405724013E+02  0.66990032949E+02  0.00000000000E+00 0. -1.
</event>
<event>
 6    1  0.8017648E-006  0.7931616E+02  0.7818608E-02  0.1339289E+00
          2   -1    0    0  502    0  0.00000000000E+00  0.00000000000E+00  0.28857055511E+03  0.28857055511E+03  0.00000000000E+00 0.  1.
          1   -1    0    0  501    0 -0.00000000000E+00 -0.00000000000E+00 -0.20193486959E+03  0.20193486959E+03  0.00000000000E+00 0.  1.
          2    1    1    2  501    0  0.34004789837E+02 -0.49220075503E+02  0.16007469195E+03  0.17088840969E+03  0.00000000000E+00 0.  1.
          1    1    1    2  502    0 -0.11184123034E+03  0.42880650029E+02 -0.11659750222E+03  0.16715917107E+03  0.00000000000E+00 0.  1.
         22    1    1    2    0    0  0.11715993967E+02 -0.12073772431E+02  0.74950861764E+02  0.76815832838E+02  0.00000000000E+00 0.  1.
         22    1    1    2    0    0  0.66120446540E+02  0.18413197905E+02 -0.31792365984E+02  0.75642011095E+02  0.00000000000E+00 0. -1.
</event>
<event>
 6    1  0.8017648E-006  0.3376511E+02  0.7818608E-02  0.1572831E+00
          2   -1    0    0  502    0  0.00000000000E+00  0.00000000000E+00  0.97081807337E+03  0.97081807337E+03  0.00000000000E+00 0. -1.
          1   -1    0    0  501    0 -0.00000000000E+00 -0.00000000000E+00 -0.64153930060E+02  0.64153930060E+02  0.00000000000E+00 0.  1.
          2    1    1    2  501    0 -0.13802248144E+02  0.64798018536E+02  0.83717940423E+03  0.83979678502E+03  0.00000000000E+00 0. -1.
          1    1    1    2  502    0  0.23485311792E+02 -0.48412140197E+02  0.35040805057E+02  0.64211784023E+02  0.00000000000E+00 0.  1.
         22    1    1    2    0    0 -0.17056569823E+02 -0.37433197134E+01  0.80637567514E+02  0.82506704644E+02  0.00000000000E+00 0. -1.
         22    1    1    2    0    0  0.73735061753E+01 -0.12642558626E+02 -0.46193633494E+02  0.48456729742E+02  0.00000000000E+00 0.  1.
</event>
<event>
 6    1  0.8017648E-006  0.1232319E+03  0.7818608E-02  0.1309643E+00
          2   -1    0    0  502    0  0.00000000000E+00  0.00000000000E+00  0.47573064538E+03  0.47573064538E+03  0.00000000000E+00 0. -1.
          1   -1    0    0  501    0 -0.00000000000E+00 -0.00000000000E+00 -0.10440410663E+03  0.10440410663E+03  0.00000000000E+00 0.  1.
          2    1    1    2  501    0 -0.80251083862E+01  0.82827570761E+02  0.30823829554E+03  0.31927363762E+03  0.00000000000E+00 0. -1.
          1    1    1    2  502    0  0.41166757182E+02 -0.10883710906E+03  0.12165537250E+01  0.11636880255E+03  0.00000000000E+00 0.  1.
         22    1    1    2    0    0 -0.28276370164E+02 -0.12635709178E+02 -0.30977410416E+02  0.43804271620E+02  0.00000000000E+00 0.  1.
         22    1    1    2    0    0 -0.48652786315E+01  0.38645247472E+02  0.92849099914E+02  0.10068804022E+03  0.00000000000E+00 0. -1.
</event>
<event>
 6    1  0.8017648E-006  0.2050029E+03  0.7818608E-02  0.1214237E+00
          2   -1    0    0  502    0  0.00000000000E+00  0.00000000000E+00  0.77519998577E+03  0.77519998577E+03  0.00000000000E+00 0. -1.
          1   -1    0    0  501    0 -0.00000000000E+00 -0.00000000000E+00 -0.16363830612E+03  0.16363830612E+03  0.00000000000E+00 0. -1.
          2    1    1    2  501    0  0.13600483472E+03 -0.13376330076E+03  0.59576535640E+03  0.62556078488E+03  0.00000000000E+00 0. -1.
          1    1    1    2  502    0 -0.10682376218E+03  0.13631762182E+03  0.45637139210E+02  0.17909929832E+03  0.00000000000E+00 0. -1.
         22    1    1    2    0    0 -0.41266091202E+02  0.14498064779E+02 -0.73638717262E+02  0.85648962897E+02  0.00000000000E+00 0. -1.
         22    1    1    2    0    0  0.12085018667E+02 -0.17052385834E+02  0.43797901299E+02  0.48529245790E+02  0.00000000000E+00 0.  1.
</event>
<event>
 6    1  0.8017648E-006  0.6334064E+02  0.7818608E-02  0.1502875E+00
          2   -1    0    0  502    0  0.00000000000E+00  0.00000000000E+00  0.32324721263E+03  0.32324721263E+03  0.00000000000E+00 0. -1.
          1   -1    0    0  501    0 -0.00000000000E+00 -0.00000000000E+00 -0.84375366356E+02  0.84375366356E+02  0.00000000000E+00 0. -1.
          2    1    1    2  501    0  0.13971548662E+02  0.19069644728E+02  0.85193174448E+02  0.88412287011E+02  0.00000000000E+00 0. -1.
          1    1    1    2  502    0 -0.51193705889E+02 -0.26588714130E+02 -0.50331519025E+02  0.76557279530E+02  0.00000000000E+00 0. -1.
         22    1    1    2    0    0  0.32670646693E+01 -0.10329956836E+02 -0.16000290347E+02  0.19323328155E+02  0.00000000000E+00 0.  1.
         22    1    1    2    0    0  0.33955092558E+02  0.17849026237E+02  0.22001048119E+03  0.22332968429E+03  0.00000000000E+00 0. -1.
</event>
<event>
 6    1  0.8017648E-006  0.1640869E+03  0.7818608E-02  0.1275811E+00
          2   -1    0    0  502    0  0.00000000000E+00  0.00000000000E+00  0.31499948963E+03  0.31499948963E+03  0.00000000000E+00 0. -1.
          1   -1    0    0  501    0 -0.00000000000E+00 -0.00000000000E+00 -0.99665044709E+02  0.99665044709E+02  0.00000000000E+00 0. -1.
          2    1    1    2  501    0 -0.58991371062E+02  0.41241083741E+02  0.62861920842E+02  0.95563748042E+02  0.00000000000E+00 0. -1.
          1    1    1    2  502    0  0.12537502073E+03  0.88392743670E+01  0.39491777106E+02  0.13174455987E+03  0.00000000000E+00 0. -1.
         22    1    1    2    0    0 -0.89613250630E+02 -0.41809393057E+02  0.12543909548E+03  0.15972954239E+03  0.00000000000E+00 0. -1.
         22    1    1    2    0    0  0.23229600957E+02 -0.82709650515E+01 -0.12458348510E+02  0.27626684041E+02  0.00000000000E+00 0.  1.
</event>
<event>
 6    1  0.8017648E-006  0.7955981E+02  0.7818608E-02  0.1375969E+00
          2   -1    0    0  502    0  0.00000000000E+00  0.00000000000E+00  0.17304687123E+03  0.17304687123E+03  0.00000000000E+00 0. -1.
          1   -1    0    0  501    0 -0.00000000000E+00 -0.00000000000E+00 -0.12708336824E+03  0.12708336824E+03  0.00000000000E+00 0. -1.
          2    1    1    2  501    0 -0.29832480400E+02 -0.59153699563E+01  0.29371270076E+02  0.42280491890E+02  0.00000000000E+00 0. -1.
          1    1    1    2  502    0  0.60973607189E+02  0.56874507436E+02 -0.57490711223E+02  0.10128016710E+03  0.00000000000E+00 0. -1.
         22    1    1    2    0    0 -0.41491672018E+02 -0.15823528514E+02  0.10151820732E+03  0.11080563758E+03  0.00000000000E+00 0. -1.
         22    1    1    2    0    0  0.10350545229E+02 -0.35135608966E+02 -0.27435263184E+02  0.45763942902E+02  0.00000000000E+00 0. -1.
</event>
<event>
 6    1  0.8017648E-006  0.8420646E+02  0.7818608E-02  0.1361844E+00
          2   -1    0    0  502    0  0.00000000000E+00  0.00000000000E+00  0.42082595165E+03  0.42082595165E+03  0.00000000000E+00 0. -1.
          1   -1    0    0  501    0 -0.00000000000E+00 -0.00000000000E+00 -0.11199951108E+03  0.11199951108E+03  0.00000000000E+00 0. -1.
          2    1    1    2  501    0 -0.25689554356E+02  0.64489613316E+02  0.30930307737E+03  0.31699725093E+03  0.00000000000E+00 0. -1.
          1    1    1    2  502    0 -0.16318917124E+02 -0.78576027660E+02  0.25048074189E+02  0.84070834417E+02  0.00000000000E+00 0. -1.
         22    1    1    2    0    0  0.39033987731E+02 -0.10409664973E+01 -0.72483685873E+02  0.82332378364E+02  0.00000000000E+00 0. -1.
         22    1    1    2    0    0  0.29744837483E+01  0.15127380842E+02  0.46958974891E+02  0.49424999013E+02  0.00000000000E+00 0. -1.
</event>
<event>
 6    1  0.8017648E-006  0.4728148E+02  0.7818608E-02  0.1460808E+00
          2   -1    0    0  502    0  0.00000000000E+00  0.00000000000E+00  0.26474544657E+03  0.26474544657E+03  0.00000000000E+00 0.  1.
          1   -1    0    0  501    0 -0.00000000000E+00 -0.00000000000E+00 -0.50808696979E+02  0.50808696979E+02  0.00000000000E+00 0.  1.
          2    1    1    2  501    0  0.22695289423E+02  0.11777111367E+02  0.13044074900E+03  0.13292315642E+03  0.00000000000E+00 0.  1.
          1    1    1    2  502    0 -0.20748340281E+02 -0.13240496683E+02 -0.13008231080E+02  0.27839153232E+02  0.00000000000E+00 0.  1.
         22    1    1    2    0    0 -0.13463220378E+02 -0.16699881066E+02 -0.24112264911E+02  0.32272986377E+02  0.00000000000E+00 0.  1.
         22    1    1    2    0    0  0.11516271236E+02  0.18163266382E+02  0.12061649659E+03  0.12251884752E+03  0.00000000000E+00 0.  1.
</event>
<event>
 6    1  0.8017648E-006  0.3269088E+03  0.7818608E-02  0.1205757E+00
          2   -1    0    0  502    0  0.00000000000E+00  0.00000000000E+00  0.25761729714E+03  0.25761729714E+03  0.00000000000E+00 0. -1.
          1   -1    0    0  501    0 -0.00000000000E+00 -0.00000000000E+00 -0.45959552889E+03  0.45959552889E+03  0.00000000000E+00 0. -1.
          2    1    1    2  501    0  0.65806771807E+02 -0.66205078336E+02 -0.22383516665E+02  0.95993048870E+02  0.00000000000E+00 0. -1.
          1    1    1    2  502    0 -0.27048656304E+03  0.15989629561E+03 -0.11290409513E+02  0.31441577486E+03  0.00000000000E+00 0. -1.
         22    1    1    2    0    0 -0.10693562662E+02  0.72636013335E+01 -0.27513801061E+02  0.30399365710E+02  0.00000000000E+00 0. -1.
         22    1    1    2    0    0  0.21537335390E+03 -0.10095481860E+03 -0.14079050450E+03  0.27640463659E+03  0.00000000000E+00 0. -1.
</event>
<event>
 6    1  0.8017648E-006  0.8567899E+02  0.7818608E-02  0.1431659E+00
          2   -1    0    0  502    0  0.00000000000E+00  0.00000000000E+00  0.24951569766E+03  0.24951569766E+03  0.00000000000E+00 0. -1.
          1   -1    0    0  501    0 -0.00000000000E+00 -0.00000000000E+00 -0.18483818230E+03  0.18483818230E+03  0.00000000000E+00 0. -1.
          2    1    1    2  501    0 -0.62813604949E+02 -0.21569472374E+02  0.15255141894E+03  0.16638126855E+03  0.00000000000E+00 0. -1.
          1    1    1    2  502    0  0.71986308320E+02  0.20511607902E+02 -0.11624277813E+03  0.13825750653E+03  0.00000000000E+00 0. -1.
         22    1    1    2    0    0  0.36465042641E+01  0.11639255745E+02 -0.49043911318E+02  0.50537852200E+02  0.00000000000E+00 0. -1.
         22    1    1    2    0    0 -0.12819207635E+02 -0.10581391273E+02  0.77412785863E+02  0.79177252672E+02  0.00000000000E+00 0.  1.
</event>
<event>
 6    1  0.8017648E-006  0.3667177E+02  0.7818608E-02  0.1625774E+00
          2   -1    0    0  502    0  0.00000000000E+00  0.00000000000E+00  0.30493298880E+03  0.30493298880E+03  0.00000000000E+00 0. -1.
          1   -1    0    0  501    0 -0.00000000000E+00 -0.00000000000E+00 -0.55860680984E+02  0.55860680984E+02  0.00000000000E+00 0. -1.
          2    1    1    2  501    0 -0.36115432427E+02  0.28671834837E+01  0.14609282716E+03  0.15051797018E+03  0.00000000000E+00 0. -1.
          1    1    1    2  502    0  0.14436644807E+02  0.25711982718E+02  0.67435276198E+02  0.73600538344E+02  0.00000000000E+00 0. -1.
         22    1    1    2    0    0  0.31647958523E+02 -0.34948853960E+02  0.78801287938E+02  0.91829508615E+02  0.00000000000E+00 0. -1.
         22    1    1    2    0    0 -0.99691709039E+01  0.63696877586E+01 -0.43257083474E+02  0.44845652647E+02  0.00000000000E+00 0. -1.
</event>
<event>
 6    1  0.8017648E-006  0.3740279E+03  0.7818608E-02  0.1176231E+00
          2   -1    0    0  502    0  0.00000000000E+00  0.00000000000E+00  0.64384446506E+03  0.64384446506E+03  0.00000000000E+00 0.  1.
          1   -1    0    0  501    0 -0.00000000000E+00 -0.00000000000E+00 -0.33437338505E+03  0.33437338505E+03  0.00000000000E+00 0. -1.
          2    1    1    2  501    0 -0.32990008416E+02  0.33707640974E+03  0.35642462885E+03  0.49167810884E+03  0.00000000000E+00 0.  1.
          1    1    1    2  502    0  0.20537976724E+02 -0.35641260315E+03 -0.47510284932E+02  0.36015132840E+03  0.00000000000E+00 0. -1.
         22    1    1    2    0    0  0.14092750905E+02  0.35810346331E+02  0.56323947101E+02  0.68215640064E+02  0.00000000000E+00 0.  1.
         22    1    1    2    0    0 -0.16407192129E+01 -0.16474152923E+02 -0.55767211005E+02  0.58172772818E+02  0.00000000000E+00 0.  1.
</event>
<event>
 6    1  0.8017648E-006  0.4459984E+02  0.7818608E-02  0.1480739E+00
          2   -1    0    0  502    0  0.00000000000E+00  0.00000000000E+00  0.19822167339E+03  0.19822167339E+03  0.00000000000E+00 0. -1.
          1   -1    0    0  501    0 -0.00000000000E+00 -0.00000000000E+00 -0.13838687127E+03  0.13838687127E+03  0.00000000000E+00 0.  1.
          2    1    1    2  501    0  0.21864376269E+02 -0.17623720925E+02  0.14969495647E+03  0.15230635732E+03  0.00000000000E+00 0. -1.
          1    1    1    2  502    0 -0.13807415055E+02  0.14983270502E+02 -0.40180166841E+02  0.45050959066E+02  0.00000000000E+00 0.  1.
         22    1    1    2    0    0  0.10694612598E+02 -0.75582013509E+01  0.42582985753E+02  0.44551226941E+02  0.00000000000E+00 0.  1.
         22    1    1    2    0    0 -0.18751573812E+02  0.10198651773E+02 -0.92262973253E+02  0.94700001330E+02  0.00000000000E+00 0.  1.
</event>
<event>
 6    1  0.8017648E-006  0.6714532E+02  0.7818608E-02  0.1492277E+00
          2   -1    0    0  502    0  0.00000000000E+00  0.00000000000E+00  0.32085467419E+02  0.32085467419E+02  0.00000000000E+00 0. -1.
          1   -1    0    0  501    0 -0.00000000000E+00 -0.00000000000E+00 -0.48826146051E+03  0.48826146051E+03  0.00000000000E+00 0. -1.
          2    1    1    2  501    0  0.25918535855E+02  0.12791029552E+02 -0.88168029866E+01  0.30217825083E+02  0.00000000000E+00 0. -1.
          1    1    1    2  502    0  0.23828681605E+02  0.44934802591E+02 -0.12306455166E+03  0.13316090427E+03  0.00000000000E+00 0. -1.
         22    1    1    2    0    0 -0.59146696642E+02 -0.62463509760E+02 -0.33260991664E+03  0.34355404003E+03  0.00000000000E+00 0. -1.
         22    1    1    2    0    0  0.93994791815E+01  0.47376776173E+01  0.83152781917E+01  0.13414158546E+02  0.00000000000E+00 0. -1.
</event>
<event>
 6    1  0.8017648E-006  0.2639726E+03  0.7818608E-02  0.1174143E+00
          2   -1    0    0  502    0  0.00000000000E+00  0.00000000000E+00  0.79293282035E+03  0.79293282035E+03  0.00000000000E+00 0.  1.
          1   -1    0    0  501    0 -0.00000000000E+00 -0.00000000000E+00 -0.13367472263E+03  0.13367472263E+03  0.00000000000E+00 0.  1.
          2    1    1    2  501    0 -0.16987078511E+03 -0.16791128808E+03  0.38071343488E+03  0.44943631784E+03  0.00000000000E+00 0.  1.
          1    1    1    2  502    0  0.20833062759E+03  0.13116484571E+03  0.22743533870E+03  0.33516070836E+03  0.00000000000E+00 0.  1.
         22    1    1    2    0    0 -0.32217172108E+02 -0.12236231059E+02  0.78365563214E+02  0.85608603697E+02  0.00000000000E+00 0.  1.
         22    1    1    2    0    0 -0.62426703691E+01  0.48982673430E+02 -0.27256239073E+02  0.56401913071E+02  0.00000000000E+00 0.  1.
</event>
<event>
 6    1  0.8017648E-006  0.7648405E+02  0.7818608E-02  0.1417700E+00
          2   -1    0    0  502    0  0.00000000000E+00  0.00000000000E+00  0.79969493712E+03  0.79969493712E+03  0.00000000000E+00 0.  1.
          1   -1    0    0  501    0 -0.00000000000E+00 -0.00000000000E+00 -0.48107019914E+02  0.48107019914E+02  0.00000000000E+00 0. -1.
          2    1    1    2  501    0  0.73655371878E+02  0.14108350035E+02  0.64258639766E+03  0.64694778600E+03  0.00000000000E+00 0.  1.
          1    1    1    2  502    0 -0.12255821775E+02  0.24028764511E+02  0.27213061023E+02  0.38316280894E+02  0.00000000000E+00 0. -1.
         22    1    1    2    0    0  0.21199604045E+02 -0.97766280461E+00 -0.17961636080E+02  0.27802866883E+02  0.00000000000E+00 0.  1.
         22    1    1    2    0    0 -0.82599154148E+02 -0.37159451741E+02  0.99750094597E+02  0.13473502326E+03  0.00000000000E+00 0. -1.
</event>
<event>
 6    1  0.8017648E-006  0.2673849E+02  0.7818608E-02  0.1688995E+00
          2   -1    0    0  502    0  0.00000000000E+00  0.00000000000E+00  0.11746381815E+03  0.11746381815E+03  0.00000000000E+00 0. -1.
          1   -1    0    0  501    0 -0.00000000000E+00 -0.00000000000E+00 -0.23715812023E+03  0.23715812023E+03  0.00000000000E+00 0. -1.
          2    1    1    2  501    0 -0.24355643430E+02 -0.53016141015E+01  0.70446106595E+02  0.74725888508E+02  0.00000000000E+00 0. -1.
          1    1    1    2  502    0  0.24257186399E+02  0.16733870307E+02 -0.14973323964E+03  0.15260562428E+03  0.00000000000E+00 0. -1.
         22    1    1    2    0    0 -0.81348448677E+01  0.95411920131E+01  0.40973087994E+02  0.42848617082E+02  0.00000000000E+00 0. -1.
         22    1    1    2    0    0  0.82333018990E+01 -0.20973448218E+02 -0.81380257024E+02  0.84441808505E+02  0.00000000000E+00 0. -1.
</event>
<event>
 6    1  0.8017648E-006  0.1275213E+03  0.7818608E-02  0.1283735E+00
          2   -1    0    0  502    0  0.00000000000E+00  0.00000000000E+00  0.21407898382E+03  0.21407898382E+03  0.00000000000E+00 0.  1.
          1   -1    0    0  501    0 -0.00000000000E+00 -0.00000000000E+00 -0.25750112446E+03  0.25750112446E+03  0.00000000000E+00 0. -1.
          2    1    1    2  501    0  0.62322239866E+02 -0.62163922696E+02  0.94060806113E+02  0.12882488158E+03  0.00000000000E+00 0.  1.
          1    1    1    2  502    0 -0.97221570197E+02  0.13351677111E+02 -0.17124219115E+03  0.19736815605E+03  0.00000000000E+00 0. -1.
         22    1    1    2    0    0 -0.36289312952E+01  0.45030839392E+02 -0.41122387148E+02  0.61090067633E+02  0.00000000000E+00 0. -1.
         22    1    1    2    0    0  0.38528261626E+02  0.37814061925E+01  0.74881631543E+02  0.84297003027E+02  0.00000000000E+00 0.  1.
</event>
<event>
 6    1  0.8017648E-006  0.4154737E+02  0.7818608E-02  0.1590549E+00
          2   -1    0    0  502    0  0.00000000000E+00  0.00000000000E+00  0.20458365391E+03  0.20458365391E+03  0.00000000000E+00 0. -1.
          1   -1    0    0  501    0 -0.00000000000E+00 -0.00000000000E+00 -0.10074533292E+03  0.10074533292E+03  0.00000000000E+00 0.  1.
          2    1    1    2  501    0 -0.21710401047E+01 -0.22162310482E+02  0.10218930667E+03  0.10458745536E+03  0.00000000000E+00 0. -1.
          1    1    1    2  502    0  0.28686287932E+02  0.31146309003E+02 -0.50400926231E+02  0.65827418640E+02  0.00000000000E+00 0.  1.
         22    1    1    2    0    0 -0.11885030830E+02  0.34478680877E+01 -0.39489454282E+02  0.41383073250E+02  0.00000000000E+00 0.  1.
         22    1    1    2    0    0 -0.14630216997E+02 -0.12431866608E+02  0.91539394829E+02  0.93531039567E+02  0.00000000000E+00 0. -1.
</event>
<event>
 6    1  0.8017648E-006  0.9788395E+02  0.7818608E-02  0.1394573E+00
          2   -1    0    0  502    0  0.00000000000E+00  0.00000000000E+00  0.21008010076E+03  0.21008010076E+03  0.00000000000E+00 0.  1.
          1   -1    0    0  501    0 -0.00000000000E+00 -0.00000000000E+00 -0.11776389896E+03  0.11776389896E+03  0.00000000000E+00 0.  1.
          2    1    1    2  501    0  0.70264909027E+02  0.20303970228E+02 -0.12579372336E+02  0.74213538226E+02  0.00000000000E+00 0.  1.
          1    1    1    2  502    0  0.37388358352E+02  0.38568348145E+02  0.26699203793E+02  0.59985450754E+02  0.00000000000E+00 0.  1.
         22    1    1    2    0    0 -0.10151195679E+03 -0.45676650152E+02  0.11134338611E+03  0.15744327033E+03  0.00000000000E+00 0.  1.
         22    1    1    2    0    0 -0.61413105862E+01 -0.13195668221E+02 -0.33147015760E+02  0.36201740418E+02  0.00000000000E+00 0.  1.
</event>
<event>
 6    1  0.8017648E-006  0.1391890E+03  0.7818608E-02  0.1331966E+00
          2   -1    0    0  502    0  0.00000000000E+00  0.00000000000E+00  0.16671888717E+03  0.16671888717E+03  0.00000000000E+00 0.  1.
          1   -1    0    0  501    0 -0.00000000000E+00 -0.00000000000E+00 -0.26283331580E+03  0.26283331580E+03  0.00000000000E+00 0.  1.
          2    1    1    2  501    0 -0.70710556235E+02 -0.36941620993E+02  0.68439848609E+02  0.10511269668E+03  0.00000000000E+00 0.  1.
          1    1    1    2  502    0  0.85730266882E+02  0.96723345142E+02 -0.11676906768E+03  0.17418409606E+03  0.00000000000E+00 0.  1.
         22    1    1    2    0    0 -0.27444222525E+02 -0.52441361077E+02  0.33288540951E+02  0.67907353507E+02  0.00000000000E+00 0.  1.
         22    1    1    2    0    0  0.12424511878E+02 -0.73403630721E+01 -0.81073750509E+02  0.82348056729E+02  0.00000000000E+00 0.  1.
</event>
<event>
 6    1  0.8017648E-006  0.3400084E+02  0.7818608E-02  0.1618360E+00
          2   -1    0    0  502    0  0.00000000000E+00  0.00000000000E+00  0.11377857896E+03  0.11377857896E+03  0.00000000000E+00 0.  1.
          1   -1    0    0  501    0 -0.00000000000E+00 -0.00000000000E+00 -0.16089153991E+03  0.16089153991E+03  0.00000000000E+00 0.  1.
          2    1    1    2  501    0 -0.46869106165E+02  0.12761757712E+02  0.35357325206E+02  0.60080912263E+02  0.00000000000E+00 0.  1.
          1    1    1    2  502    0  0.35988602687E+02 -0.45910221474E+02 -0.51669764131E+02  0.77927482216E+02  0.00000000000E+00 0.  1.
         22    1    1    2    0    0  0.42987727638E+01  0.23628441434E+02 -0.81341318543E+02  0.84812692412E+02  0.00000000000E+00 0.  1.
         22    1    1    2    0    0  0.65817307143E+01  0.95200223277E+01  0.50540796519E+02  0.51849031979E+02  0.00000000000E+00 0. -1.
</event>
<event>
 6    1  0.8017648E-006  0.7856960E+02  0.7818608E-02  0.1334879E+00
          2   -1    0    0  502    0  0.00000000000E+00  0.00000000000E+00  0.11565850125E+03  0.11565850125E+03  0.00000000000E+00 0.  1.
          1   -1    0    0  501    0 -0.00000000000E+00 -0.00000000000E+00 -0.21751998768E+03  0.21751998768E+03  0.00000000000E+00 0. -1.
          2    1    1    2  501    0  0.37440932789E+02  0.15793139520E+02  0.48511401832E+02  0.63281931163E+02  0.00000000000E+00 0.  1.
          1    1    1    2  502    0 -0.58681855810E+02 -0.80836349490E+01 -0.12294795067E+03  0.13647382141E+03  0.00000000000E+00 0. -1.
         22    1    1    2    0    0  0.35517980865E+02 -0.18817642719E+01  0.46140658921E+02  0.58258290459E+02  0.00000000000E+00 0.  1.
         22    1    1    2    0    0 -0.14277057844E+02 -0.58277402993E+01 -0.73565596508E+02  0.75164445898E+02  0.00000000000E+00 0. -1.
</event>
<event>
 6    1  0.8017648E-006  0.1893708E+03  0.7818608E-02  0.1279084E+00
          2   -1    0    0  502    0  0.00000000000E+00  0.00000000000E+00  0.51069326860E+03  0.51069326860E+03  0.00000000000E+00 0.  1.
          1   -1    0    0  501    0 -0.00000000000E+00 -0.00000000000E+00 -0.91470731001E+02  0.91470731001E+02  0.00000000000E+00 0.  1.
          2    1    1    2  501    0 -0.33167948138E+01  0.44569691000E+02  0.51634919523E+02  0.68290727026E+02  0.00000000000E+00 0.  1.
          1    1    1    2  502    0 -0.12101131158E+03 -0.63361962937E+02  0.12468725404E+02  0.13716393473E+03  0.00000000000E+00 0.  1.
         22    1    1    2    0    0 -0.13683271404E+02  0.63120933443E+01 -0.46647104117E+00  0.15076207545E+02  0.00000000000E+00 0.  1.
         22    1    1    2    0    0  0.13801137779E+03  0.12480178593E+02  0.35558536372E+03  0.38163313031E+03  0.00000000000E+00 0.  1.
</event>
<event>
 6    1  0.8017648E-006  0.2185811E+03  0.7818608E-02  0.1160622E+00
          2   -1    0    0  502    0  0.00000000000E+00  0.00000000000E+00  0.14006075721E+04  0.14006075721E+04  0.00000000000E+00 0. -1.
          1   -1    0    0  501    0 -0.00000000000E+00 -0.00000000000E+00 -0.13510899078E+03  0.13510899078E+03  0.00000000000E+00 0. -1.
          2    1    1    2  501    0 -0.68199288880E+02 -0.20932387174E+03  0.63173390690E+02  0.22903821423E+03  0.00000000000E+00 0. -1.
          1    1    1    2  502    0  0.14103959657E+03  0.14473395495E+03  0.10968914690E+04  0.11153524018E+04  0.00000000000E+00 0. -1.
         22    1    1    2    0    0 -0.65600944803E+02  0.98879983718E+02  0.57265726111E+02  0.13175772663E+03  0.00000000000E+00 0. -1.
         22    1    1    2    0    0 -0.72393628890E+01 -0.34290066927E+02  0.48167995582E+02  0.59568220246E+02  0.00000000000E+00 0.  1.
</event>
<event>
 6    1  0.8017648E-006  0.2650931E+03  0.7818608E-02  0.1164069E+00
          2   -1    0    0  502    0  0.00000000000E+00  0.00000000000E+00  0.49169941553E+03  0.49169941553E+03  0.00000000000E+00 0.  1.
          1   -1    0    0  501    0 -0.00000000000E+00 -0.00000000000E+00 -0.29844800212E+03  0.29844800212E+03  0.00000000000E+00 0. -1.
          2    1    1    2  501    0  0.77932008996E+01  0.26422006143E+03  0.24677824696E+03  0.36162477517E+03  0.00000000000E+00 0.  1.
          1    1    1    2  502    0  0.44175268934E+02 -0.23979404632E+03  0.62397087638E+02  0.25168638339E+03  0.00000000000E+00 0. -1.
         22    1    1    2    0    0 -0.34497385634E+01  0.13220927428E+02  0.21977576191E+02  0.25878706951E+02  0.00000000000E+00 0.  1.
         22    1    1    2    0    0 -0.48518731270E+02 -0.37646942539E+02 -0.13790149739E+03  0.15095755214E+03  0.00000000000E+00 0. -1.
</event>
<event>
 6    1  0.8017648E-006  0.8934575E+02  0.7818608E-02  0.1404661E+00
          2   -1    0    0  502    0  0.00000000000E+00  0.00000000000E+00  0.33105144940E+03  0.33105144940E+03  0.00000000000E+00 0. -1.
          1   -1    0    0  501    0 -0.00000000000E+00 -0.00000000000E+00 -0.10610242677E+03  0.10610242677E+03  0.00000000000E+00 0. -1.
          2    1    1    2  501    0  0.78644566761E+01 -0.48177257077E+02  0.11062296359E+02  0.50052694023E+02  0.00000000000E+00 0. -1.
          1    1    1    2  502    0 -0.17143281035E+02  0.75928221103E+02  0.23926181120E+03  0.25160524864E+03  0.00000000000E+00 0. -1.
         22    1    1    2    0    0  0.25144787486E+02 -0.31538161337E+02  0.46636878078E+02  0.61659665545E+02  0.00000000000E+00 0. -1.
         22    1    1    2    0    0 -0.15865963127E+02  0.37871973112E+01 -0.72011963007E+02  0.73836267955E+02  0.00000000000E+00 0. -1.
</event>
<event>
 6    1  0.8017648E-006  0.4220322E+02  0.7818608E-02  0.1582853E+00
          2   -1    0    0  502    0  0.00000000000E+00  0.00000000000E+00  0.32173154958E+03  0.32173154958E+03  0.00000000000E+00 0. -1.
          1   -1    0    0  501    0 -0.00000000000E+00 -0.00000000000E+00 -0.26131900346E+03  0.26131900346E+03  0.00000000000E+00 0. -1.
          2    1    1    2  501    0 -0.97035568030E+01 -0.41416601996E+02  0.11813265230E+03  0.12555802434E+03  0.00000000000E+00 0. -1.
          1    1    1    2  502    0 -0.29728904936E+02  0.19235776898E+02 -0.23450124544E+03  0.23715956025E+03  0.00000000000E+00 0. -1.
         22    1    1    2    0    0 -0.69459557280E+00  0.12664536948E+02 -0.17561517579E+02  0.21662868203E+02  0.00000000000E+00 0. -1.
         22    1    1    2    0    0  0.40127057312E+02  0.95162881496E+01  0.19434265684E+03  0.19867010026E+03  0.00000000000E+00 0. -1.
</event>
<event>
 6    1  0.8017648E-006  0.4046227E+02  0.7818608E-02  0.1592737E+00
          2   -1    0    0  502    0  0.00000000000E+00  0.00000000000E+00  0.17749696274E+03  0.17749696274E+03  0.00000000000E+00 0. -1.
          1   -1    0    0  501    0 -0.00000000000E+00 -0.00000000000E+00 -0.89375243349E+02  0.89375243349E+02  0.00000000000E+00 0. -1.
          2    1    1    2  501    0  0.35048114499E+01  0.23028018628E+02  0.10735791800E+03  0.10985579595E+03  0.00000000000E+00 0. -1.
          1    1    1    2  502    0 -0.65019655963E+01 -0.29384948673E+02 -0.20094126934E+02  0.36187355560E+02  0.00000000000E+00 0. -1.
         22    1    1    2    0    0  0.76610026307E+01 -0.10559261112E+02 -0.57980380970E+02  0.59429904374E+02  0.00000000000E+00 0. -1.
         22    1    1    2    0    0 -0.46638484843E+01  0.16916191157E+02  0.58838309297E+02  0.61399150213E+02  0.00000000000E+00 0.  1.
</event>
<event>
 6    1  0.8017648E-006  0.5040118E+02  0.7818608E-02  0.1499148E+00
          2   -1    0    0  502    0  0.00000000000E+00  0.00000000000E+00  0.31457412546E+03  0.31457412546E+03  0.00000000000E+00 0. -1.
          1   -1    0    0  501    0 -0.00000000000E+00 -0.00000000000E+00 -0.10699148256E+03  0.10699148256E+03  0.00000000000E+00 0. -1.
          2    1    1    2  501    0  0.50803866036E+02 -0.12837406215E+02  0.24127547438E+03  0.24690015460E+03  0.00000000000E+00 0. -1.
          1    1    1    2  502    0 -0.38485678645E+02 -0.15694917296E+02 -0.22943625663E+02  0.47475128733E+02  0.00000000000E+00 0. -1.
         22    1    1    2    0    0  0.17854149788E+02 -0.13909746952E+02 -0.54604719967E+02  0.59109450747E+02  0.00000000000E+00 0. -1.
         22    1    1    2    0    0 -0.30172337179E+02  0.42442070463E+02  0.43855514138E+02  0.68080873939E+02  0.00000000000E+00 0. -1.
</event>
<event>
 6    1  0.8017648E-006  0.1386891E+03  0.7818608E-02  0.1326061E+00
          2   -1    0    0  502    0  0.00000000000E+00  0.00000000000E+00  0.71539552519E+03  0.71539552519E+03  0.00000000000E+00 0. -1.
          1   -1    0    0  501    0 -0.00000000000E+00 -0.00000000000E+00 -0.17509399415E+03  0.17509399415E+03  0.00000000000E+00 0. -1.
          2    1    1    2  501    0 -0.10259109155E+03  0.66922874629E+02  0.59926647962E+03  0.61165669849E+03  0.00000000000E+00 0. -1.
          1    1    1    2  502    0  0.10441417186E+03 -0.55573899809E+02 -0.92229248847E+02  0.14999003957E+03  0.00000000000E+00 0. -1.
         22    1    1    2    0    0  0.14632102027E+02 -0.69228382455E+01 -0.45480562900E+02  0.48275311504E+02  0.00000000000E+00 0. -1.
         22    1    1    2    0    0 -0.16455182339E+02 -0.44261365749E+01  0.78744863170E+02  0.80567469779E+02  0.00000000000E+00 0. -1.
</event>
<event>
 6    1  0.8017648E-006  0.2433514E+03  0.7818608E-02  0.1134224E+00
          2   -1    0    0  502    0  0.00000000000E+00  0.00000000000E+00  0.87937919231E+02  0.87937919231E+02  0.00000000000E+00 0. -1.
          1   -1    0    0  501    0 -0.00000000000E+00 -0.00000000000E+00 -0.19846798375E+04  0.19846798375E+04  0.00000000000E+00 0. -1.
          2    1    1    2  501    0  0.11593988859E+02 -0.22717394460E+03 -0.18333282974E+03  0.29215295333E+03  0.00000000000E+00 0. -1.
          1    1    1    2  502    0  0.14132773551E+03  0.24085533687E+03 -0.88558042878E+03  0.92856745472E+03  0.00000000000E+00 0. -1.
         22    1    1    2    0    0  0.82816823397E+01 -0.13967029824E+02 -0.11734089004E+02  0.20033797174E+02  0.00000000000E+00 0. -1.
         22    1    1    2    0    0 -0.16120340671E+03  0.28563754979E+00 -0.81609457078E+03  0.83186355154E+03  0.00000000000E+00 0. -1.
</event>
<event>
 6    1  0.8017648E-006  0.4746811E+02  0.7818608E-02  0.1513173E+00
          2   -1    0    0  502    0  0.00000000000E+00  0.00000000000E+00  0.35412197114E+03  0.35412197114E+03  0.00000000000E+00 0. -1.
          1   -1    0    0  501    0 -0.00000000000E+00 -0.00000000000E+00 -0.12801102814E+03  0.12801102814E+03  0.00000000000E+00 0.  1.
          2    1    1    2  501    0  0.21469531646E+02  0.28460367246E+02  0.27945341333E+03  0.28171819877E+03  0.00000000000E+00 0. -1.
          1    1    1    2  502    0 -0.50402428166E+02 -0.31223435496E+02 -0.41706804504E+02  0.72489759492E+02  0.00000000000E+00 0.  1.
         22    1    1    2    0    0  0.71996898281E+01  0.81024749216E+01  0.55815476771E+02  0.56858183938E+02  0.00000000000E+00 0.  1.
         22    1    1    2    0    0  0.21733206692E+02 -0.53394066707E+01 -0.67451142606E+02  0.71066857082E+02  0.00000000000E+00 0.  1.
</event>
<event>
 6    1  0.8017648E-006  0.6429646E+02  0.7818608E-02  0.1454271E+00
          2   -1    0    0  502    0  0.00000000000E+00  0.00000000000E+00  0.15418651509E+03  0.15418651509E+03  0.00000000000E+00 0.  1.
          1   -1    0    0  501    0 -0.00000000000E+00 -0.00000000000E+00 -0.62606099771E+02  0.62606099771E+02  0.00000000000E+00 0.  1.
          2    1    1    2  501    0  0.17067857749E+02 -0.24824175087E+02  0.32386976950E+02  0.44231976135E+02  0.00000000000E+00 0.  1.
          1    1    1    2  502    0 -0.35249905854E+02  0.36538901932E+01  0.84529498019E+01  0.36432940269E+02  0.00000000000E+00 0.  1.
         22    1    1    2    0    0  0.35038902682E+02  0.93051316703E+01  0.87093054292E+02  0.94337215787E+02  0.00000000000E+00 0.  1.
         22    1    1    2    0    0 -0.16856854576E+02  0.11865153223E+02 -0.36352565724E+02  0.41790482672E+02  0.00000000000E+00 0.  1.
</event>
<event>
 6    1  0.8017648E-006  0.8216320E+02  0.7818608E-02  0.1451143E+00
          2   -1    0    0  502    0  0.00000000000E+00  0.00000000000E+00  0.30746761576E+03  0.30746761576E+03  0.00000000000E+00 0. -1.
          1   -1    0    0  501    0 -0.00000000000E+00 -0.00000000000E+00 -0.96295244828E+02  0.96295244828E+02  0.00000000000E+00 0.  1.
          2    1    1    2  501    0 -0.37529415181E+02  0.31029497386E+02  0.17814661401E+03  0.18468216696E+03  0.00000000000E+00 0. -1.
          1    1    1    2  502    0  0.73622021859E+02 -0.34525386407E+02 -0.34698742372E+01  0.81389461457E+02  0.00000000000E+00 0.  1.
         22    1    1    2    0    0 -0.30051623784E+02  0.11890938276E+02  0.83513702459E+02  0.89549053616E+02  0.00000000000E+00 0.  1.
         22    1    1    2    0    0 -0.60409828938E+01 -0.83950492555E+01 -0.47018071302E+02  0.48142178547E+02  0.00000000000E+00 0.  1.
</event>
<event>
 6    1  0.8017648E-006  0.7884152E+02  0.7818608E-02  0.1401120E+00
          2   -1    0    0  502    0  0.00000000000E+00  0.00000000000E+00  0.26281168609E+03  0.26281168609E+03  0.00000000000E+00 0.  1.
          1   -1    0    0  501    0 -0.00000000000E+00 -0.00000000000E+00 -0.50308411429E+02  0.50308411429E+02  0.00000000000E+00 0. -1.
          2    1    1    2  501    0  0.19260422249E+02  0.91194814613E+01  0.45172024514E+02  0.49946377306E+02  0.00000000000E+00 0.  1.
          1    1    1    2  502    0 -0.54679566968E+02 -0.32708377687E+02  0.28553949922E+02  0.69821351110E+02  0.00000000000E+00 0. -1.
         22    1    1    2    0    0 -0.63486919705E+01 -0.24285913698E+02 -0.13392933443E+02  0.28451399968E+02  0.00000000000E+00 0. -1.
         22    1    1    2    0    0  0.41767836690E+02  0.47874809924E+02  0.15217023367E+03  0.16490096913E+03  0.00000000000E+00 0.  1.
</event>
<event>
 6    1  0.8017648E-006  0.8755711E+02  0.7818608E-02  0.1312251E+00
          2   -1    0    0  502    0  0.00000000000E+00  0.00000000000E+00  0.47137332332E+03  0.47137332332E+03  0.00000000000E+00 0. -1.
          1   -1    0    0  501    0 -0.00000000000E+00 -0.00000000000E+00 -0.14407519107E+03  0.14407519107E+03  0.00000000000E+00 0. -1.
          2    1    1    2  501    0  0.97742942146E+01 -0.66073523010E+02  0.37459855606E+03  0.38050666942E+03  0.00000000000E+00 0. -1.
          1    1    1    2  502    0  0.70282806601E+01  0.47329736353E+02 -0.91315748036E+02  0.10309251433E+03  0.00000000000E+00 0. -1.
         22    1    1    2    0    0 -0.23795509421E+01  0.32542197361E+02 -0.36464157381E+02  0.48931499520E+02  0.00000000000E+00 0. -1.
         22    1    1    2    0    0 -0.14423023933E+02 -0.13798410704E+02  0.80479481606E+02  0.82917831115E+02  0.00000000000E+00 0. -1.
</event>
<event>
 6    1  0.8017648E-006  0.7029924E+02  0.7818608E-02  0.1473856E+00
          2   -1    0    0  502    0  0.00000000000E+00  0.00000000000E+00  0.11105032839E+03  0.11105032839E+03  0.00000000000E+00 0.  1.
          1   -1    0    0  501    0 -0.00000000000E+00 -0.00000000000E+00 -0.16794117026E+03  0.16794117026E+03  0.00000000000E+00 0. -1.
          2    1    1    2  501    0 -0.18023838837E+02 -0.10362493472E+02  0.14409480443E+01  0.20840258363E+02  0.00000000000E+00 0.  1.
          1    1    1    2  502    0  0.18010873808E+02  0.48269266091E+02 -0.10882063892E+03  0.12040035332E+03  0.00000000000E+00 0. -1.
         22    1    1    2    0    0 -0.44725090896E+01 -0.26900523788E+02  0.91278526264E+02  0.95264950924E+02  0.00000000000E+00 0.  1.
         22    1    1    2    0    0  0.44854741185E+01 -0.11006248830E+02 -0.40789677250E+02  0.42485936044E+02  0.00000000000E+00 0.  1.
</event>
<event>
 6    1  0.8517385E-006  0.5179397E+02  0.7818608E-02  0.1437578E+00
          2   -1    0    0  502    0  0.00000000000E+00  0.00000000000E+00  0.19665384261E+03  0.19665384261E+03  0.00000000000E+00 0.  1.
          1   -1    0    0  501    0 -0.00000000000E+00 -0.00000000000E+00 -0.18710237596E+03  0.18710237596E+03  0.00000000000E+00 0.  1.
          2    1    1    2  501    0 -0.13588010490E+02  0.33109087910E+02  0.11019328356E+03  0.11585942117E+03  0.00000000000E+00 0.  1.
          1    1    1    2  502    0  0.13859577934E+02 -0.36912071027E+02 -0.12955002911E+03  0.13541712938E+03  0.00000000000E+00 0.  1.
         22    1    1    2    0    0 -0.36032901505E+00  0.14304029839E+02  0.79516347277E+02  0.80793468739E+02  0.00000000000E+00 0.  1.
         22    1    1    2    0    0  0.88761571076E-01 -0.10501046721E+02 -0.50608135076E+02  0.51686199287E+02  0.00000000000E+00 0. -1.
</event>
<event>
 6    1  0.8017648E-006  0.6536530E+03  0.7818608E-02  0.1123813E+00
          2   -1    0    0  502    0  0.00000000000E+00  0.00000000000E+00  0.62064802612E+03  0.62064802612E+03  0.00000000000E+00 0.  1.
          1   -1    0    0  501    0 -0.00000000000E+00 -0.00000000000E+00 -0.44942183584E+03  0.44942183584E+03  0.00000000000E+00 0.  1.
          2    1    1    2  501    0 -0.24863403094E+03 -0.24438491674E+03  0.35146771999E+03  0.49504790381E+03  0.00000000000E+00 0.  1.
          1    1    1    2  502    0  0.18229897460E+02  0.27940739475E+03 -0.12284314136E+03  0.30576340327E+03  0.00000000000E+00 0.  1.
         22    1    1    2    0    0  0.23082684525E+03 -0.45760922188E+02 -0.26815079285E+02  0.23684202111E+03  0.00000000000E+00 0.  1.
         22    1    1    2    0    0 -0.42271177120E+00  0.10738444179E+02 -0.30583309062E+02  0.32416533772E+02  0.00000000000E+00 0.  1.
</event>
<event>
 6    1  0.8017648E-006  0.5301707E+02  0.7818608E-02  0.1479167E+00
          2   -1    0    0  502    0  0.00000000000E+00  0.00000000000E+00  0.17672739441E+03  0.17672739441E+03  0.00000000000E+00 0. -1.
          1   -1    0    0  501    0 -0.00000000000E+00 -0.00000000000E+00 -0.13506592801E+03  0.13506592801E+03  0.00000000000E+00 0. -1.
          2    1    1    2  501    0 -0.23988379194E+02  0.22790181142E+02  0.11395583923E+03  0.11866241185E+03  0.00000000000E+00 0. -1.
          1    1    1    2  502    0  0.21158580340E+02 -0.42145056665E+02 -0.45634471377E+02  0.65623138458E+02  0.00000000000E+00 0. -1.
         22    1    1    2    0    0 -0.18958858987E+02  0.57336941349E+01  0.46190673094E+02  0.50258251694E+02  0.00000000000E+00 0. -1.
         22    1    1    2    0    0  0.21788657842E+02  0.13621181388E+02 -0.72850574544E+02  0.77249520415E+02  0.00000000000E+00 0.  1.
</event>
<event>
 6    1  0.8017648E-006  0.9927283E+02  0.7818608E-02  0.1366240E+00
          2   -1    0    0  502    0  0.00000000000E+00  0.00000000000E+00  0.13859533517E+03  0.13859533517E+03  0.00000000000E+00 0.  1.
          1   -1    0    0  501    0 -0.00000000000E+00 -0.00000000000E+00 -0.53659972132E+03  0.53659972132E+03  0.00000000000E+00 0.  1.
          2    1    1    2  501    0 -0.29440688351E+02 -0.15965619868E+00  0.10947533247E+02  0.31410636811E+02  0.00000000000E+00 0.  1.
          1    1    1    2  502    0  0.39382804168E+02 -0.50419343341E+02 -0.48550794313E+03  0.48970509318E+03  0.00000000000E+00 0.  1.
         22    1    1    2    0    0 -0.19888924284E+02 -0.97351159973E+01 -0.26330009422E+02  0.34403650807E+02  0.00000000000E+00 0.  1.
         22    1    1    2    0    0  0.99468084674E+01  0.60314115537E+02  0.10288603316E+03  0.11967567569E+03  0.00000000000E+00 0.  1.
</event>
<event>
 6    1  0.8017648E-006  0.1541875E+03  0.7818608E-02  0.1219082E+00
          2   -1    0    0  502    0  0.00000000000E+00  0.00000000000E+00  0.16318276488E+03  0.16318276488E+03  0.00000000000E+00 0. -1.
          1   -1    0    0  501    0 -0.00000000000E+00 -0.00000000000E+00 -0.50505065565E+03  0.50505065565E+03  0.00000000000E+00 0. -1.
          2    1    1    2  501    0 -0.17520010351E+03  0.55981364884E+02  0.58394052197E+01  0.18401926024E+03  0.00000000000E+00 0. -1.
          1    1    1    2  502    0  0.94739979646E+02 -0.79943873195E+02 -0.20606448990E+02  0.12566348851E+03  0.00000000000E+00 0. -1.
         22    1    1    2    0    0 -0.10015343474E+02  0.32993631057E+01  0.64289046890E+01  0.12350049283E+02  0.00000000000E+00 0. -1.
         22    1    1    2    0    0  0.90475467338E+02  0.20663145206E+02 -0.33352975169E+03  0.34620062251E+03  0.00000000000E+00 0. -1.
</event>
<event>
 6    1  0.8017648E-006  0.4476998E+02  0.7818608E-02  0.1490117E+00
          2   -1    0    0  502    0  0.00000000000E+00  0.00000000000E+00  0.39250674800E+03  0.39250674800E+03  0.00000000000E+00 0. -1.
          1   -1    0    0  501    0 -0.00000000000E+00 -0.00000000000E+00 -0.43555764603E+02  0.43555764603E+02  0.00000000000E+00 0. -1.
          2    1    1    2  501    0 -0.42321778941E+02 -0.30596268591E+02  0.11169009284E+03  0.12329615348E+03  0.00000000000E+00 0. -1.
          1    1    1    2  502    0  0.65313295106E+02  0.40255855792E+02  0.64811735523E+02  0.10043366719E+03  0.00000000000E+00 0. -1.
         22    1    1    2    0    0 -0.86512094529E+01 -0.29757486795E+02  0.18291138215E+03  0.18551799149E+03  0.00000000000E+00 0. -1.
         22    1    1    2    0    0 -0.14340306712E+02  0.20097899594E+02 -0.10462227106E+02  0.26814700459E+02  0.00000000000E+00 0. -1.
</event>
<event>
 6    1  0.8017648E-006  0.4373947E+02  0.7818608E-02  0.1514456E+00
          2   -1    0    0  502    0  0.00000000000E+00  0.00000000000E+00  0.12555051394E+03  0.12555051394E+03  0.00000000000E+00 0. -1.
          1   -1    0    0  501    0 -0.00000000000E+00 -0.00000000000E+00 -0.27634543822E+03  0.27634543822E+03  0.00000000000E+00 0. -1.
          2    1    1    2  501    0 -0.24387476722E+02  0.73433623603E+01  0.81847007753E+02  0.85718181675E+02  0.00000000000E+00 0. -1.
          1    1    1    2  502    0  0.45360119554E+02  0.18234859681E+02 -0.16833782398E+03  0.17529310750E+03  0.00000000000E+00 0. -1.
         22    1    1    2    0    0 -0.38388930086E+01 -0.27850688904E+02 -0.98573015590E+02  0.10250384078E+03  0.00000000000E+00 0.  1.
         22    1    1    2    0    0 -0.17133749824E+02  0.22724668635E+01  0.34268907546E+02  0.38380822204E+02  0.00000000000E+00 0. -1.
</event>
<event>
 6    1  0.8017648E-006  0.9581629E+02  0.7818608E-02  0.1400734E+00
          2   -1    0    0  502    0  0.00000000000E+00  0.00000000000E+00  0.39562904561E+03  0.39562904561E+03  0.00000000000E+00 0. -1.
          1   -1    0    0  501    0 -0.00000000000E+00 -0.00000000000E+00 -0.11060027606E+03  0.11060027606E+03  0.00000000000E+00 0. -1.
          2    1    1    2  501    0 -0.24325044290E+02 -0.51407106744E+02  0.18108957035E+03  0.18980998629E+03  0.00000000000E+00 0. -1.
          1    1    1    2  502    0  0.37543526066E+02  0.77230178951E+02 -0.63370807414E+02  0.10672336259E+03  0.00000000000E+00 0. -1.
         22    1    1    2    0    0  0.14069190188E+02 -0.18795498520E+00 -0.16744886194E+02  0.21871640388E+02  0.00000000000E+00 0.  1.
         22    1    1    2    0    0 -0.27287671964E+02 -0.25635117222E+02  0.18405489281E+03  0.18782433240E+03  0.00000000000E+00 0. -1.
</event>
<event>
 6    1  0.8017648E-006  0.9190987E+02  0.7818608E-02  0.1322366E+00
          2   -1    0    0  502    0  0.00000000000E+00  0.00000000000E+00  0.41660501996E+02  0.41660501996E+02  0.00000000000E+00 0. -1.
          1   -1    0    0  501    0 -0.00000000000E+00 -0.00000000000E+00 -0.70706046955E+03  0.70706046955E+03  0.00000000000E+00 0.  1.
          2    1    1    2  501    0  0.33326564282E+01 -0.59577658535E+02 -0.25374114155E+02  0.64841727803E+02  0.00000000000E+00 0. -1.
          1    1    1    2  502    0  0.29869565152E+02  0.65249827074E+02 -0.45264298077E+03  0.45829619123E+03  0.00000000000E+00 0.  1.
         22    1    1    2    0    0 -0.54292391212E+02 -0.24066500377E+02 -0.31531424320E+02  0.67239057872E+02  0.00000000000E+00 0.  1.
         22    1    1    2    0    0  0.21090169631E+02  0.18394331838E+02 -0.15585144830E+03  0.15834399464E+03  0.00000000000E+00 0.  1.
</event>
<event>
 6    1  0.8017648E-006  0.1049634E+03  0.7818608E-02  0.1400251E+00
          2   -1    0    0  502    0  0.00000000000E+00  0.00000000000E+00  0.23187573813E+03  0.23187573813E+03  0.00000000000E+00 0.  1.
          1   -1    0    0  501    0 -0.00000000000E+00 -0.00000000000E+00 -0.76105871821E+02  0.76105871821E+02  0.00000000000E+00 0. -1.
          2    1    1    2  501    0  0.55934936389E+01  0.36449691048E+02  0.93093045367E+02  0.10013082564E+03  0.00000000000E+00 0.  1.
          1    1    1    2  502    0  0.34929161057E+02  0.27460208491E+02 -0.11458852683E+02  0.45884797562E+02  0.00000000000E+00 0. -1.
         22    1    1    2    0    0 -0.25688448804E+01 -0.10474760988E+02 -0.33916085262E+02  0.35589611143E+02  0.00000000000E+00 0. -1.
         22    1    1    2    0    0 -0.37953809815E+02 -0.53435138551E+02  0.10805175888E+03  0.12637637560E+03  0.00000000000E+00 0. -1.
</event>
<event>
 6    1  0.8017648E-006  0.3337828E+02  0.7818608E-02  0.1572545E+00
          2   -1    0    0  502    0  0.00000000000E+00  0.00000000000E+00  0.14112731750E+03  0.14112731750E+03  0.00000000000E+00 0.  1.
          1   -1    0    0  501    0 -0.00000000000E+00 -0.00000000000E+00 -0.10720172577E+03  0.10720172577E+03  0.00000000000E+00 0.  1.
          2    1    1    2  501    0  0.38194178713E+02  0.28793143989E+02  0.60570055143E+02  0.77178831349E+02  0.00000000000E+00 0.  1.
          1    1    1    2  502    0  0.68085041853E+01 -0.29149021526E+02  0.12784400603E+02  0.32549379164E+02  0.00000000000E+00 0.  1.
         22    1    1    2    0    0 -0.23867024380E+02  0.20684233000E+02  0.41714053304E+02  0.52321454401E+02  0.00000000000E+00 0.  1.
         22    1    1    2    0    0 -0.21135658519E+02 -0.20328355463E+02 -0.81142917320E+02  0.86279378348E+02  0.00000000000E+00 0.  1.
</event>
<event>
 6    1  0.8017648E-006  0.5825845E+02  0.7818608E-02  0.1486358E+00
          2   -1    0    0  502    0  0.00000000000E+00  0.00000000000E+00  0.10150413270E+03  0.10150413270E+03  0.00000000000E+00 0. -1.
          1   -1    0    0  501    0 -0.00000000000E+00 -0.00000000000E+00 -0.95520487491E+02  0.95520487491E+02  0.00000000000E+00 0. -1.
          2    1    1    2  501    0 -0.12628775301E+02 -0.17733846073E+02  0.20927143053E+02  0.30198022758E+02  0.00000000000E+00 0. -1.
          1    1    1    2  502    0  0.30404883456E+02  0.48140085865E+01 -0.29510631225E+02  0.42643979316E+02  0.00000000000E+00 0. -1.
         22    1    1    2    0    0 -0.18652970869E+02  0.30399590050E+02  0.63159735808E+02  0.72534272070E+02  0.00000000000E+00 0. -1.
         22    1    1    2    0    0  0.87686271492E+00 -0.17479752563E+02 -0.48592602431E+02  0.51648346043E+02  0.00000000000E+00 0. -1.
</event>
<event>
 6    1  0.8017648E-006  0.9035004E+02  0.7818608E-02  0.1303126E+00
          2   -1    0    0  502    0  0.00000000000E+00  0.00000000000E+00  0.43998501779E+03  0.43998501779E+03  0.00000000000E+00 0. -1.
          1   -1    0    0  501    0 -0.00000000000E+00 -0.00000000000E+00 -0.20914680928E+03  0.20914680928E+03  0.00000000000E+00 0. -1.
          2    1    1    2  501    0  0.28167224072E+02  0.21267769645E+02  0.21862315269E+03  0.22145381783E+03  0.00000000000E+00 0. -1.
          1    1    1    2  502    0 -0.66485576280E+02 -0.37312757872E+02 -0.17846754493E+03  0.19407018923E+03  0.00000000000E+00 0. -1.
         22    1    1    2    0    0 -0.10584260141E+02 -0.41396167485E+01 -0.16355942463E+02  0.19916823125E+02  0.00000000000E+00 0. -1.
         22    1    1    2    0    0  0.48902612349E+02  0.20184604975E+02  0.20703854322E+03  0.21369099689E+03  0.00000000000E+00 0.  1.
</event>
<event>
 6    1  0.8017648E-006  0.1773917E+03  0.7818608E-02  0.1276973E+00
          2   -1    0    0  502    0  0.00000000000E+00  0.00000000000E+00  0.92797050964E+03  0.92797050964E+03  0.00000000000E+00 0.  1.
          1   -1    0    0  501    0 -0.00000000000E+00 -0.00000000000E+00 -0.96410450647E+02  0.96410450647E+02  0.00000000000E+00 0. -1.
          2    1    1    2  501    0 -0.13743726553E+03 -0.78355463950E+02  0.67527328387E+03  0.69355792015E+03  0.00000000000E+00 0.  1.
          1    1    1    2  502    0  0.15033604470E+03  0.77145466810E+02  0.74599816992E+02  0.18470918244E+03  0.00000000000E+00 0. -1.
         22    1    1    2    0    0 -0.88307626106E+01 -0.17438010964E+02  0.11013505316E+03  0.11185614212E+03  0.00000000000E+00 0. -1.
         22    1    1    2    0    0 -0.40680165506E+01  0.18648008105E+02 -0.28448095037E+02  0.34257715572E+02  0.00000000000E+00 0. -1.
</event>
<event>
 6    1  0.8017648E-006  0.1049534E+03  0.7818608E-02  0.1399130E+00
          2   -1    0    0  502    0  0.00000000000E+00  0.00000000000E+00  0.10972396563E+04  0.10972396563E+04  0.00000000000E+00 0. -1.
          1   -1    0    0  501    0 -0.00000000000E+00 -0.00000000000E+00 -0.23753627804E+02  0.23753627804E+02  0.00000000000E+00 0. -1.
          2    1    1    2  501    0  0.17542987591E+02 -0.13934269317E+02  0.43749178007E+02  0.49151916049E+02  0.00000000000E+00 0. -1.
          1    1    1    2  502    0 -0.88147071768E+02  0.48193227952E+02  0.75231343114E+03  0.75899143088E+03  0.00000000000E+00 0. -1.
         22    1    1    2    0    0  0.77885320913E+02 -0.26038273122E+02  0.28685206848E+03  0.29837597771E+03  0.00000000000E+00 0.  1.
         22    1    1    2    0    0 -0.72812367361E+01 -0.82206855132E+01 -0.94286491196E+01  0.14473959477E+02  0.00000000000E+00 0. -1.
</event>
<event>
 6    1  0.8017648E-006  0.1208237E+03  0.7818608E-02  0.1285546E+00
          2   -1    0    0  502    0  0.00000000000E+00  0.00000000000E+00  0.43759843718E+03  0.43759843718E+03  0.00000000000E+00 0. -1.
          1   -1    0    0  501    0 -0.00000000000E+00 -0.00000000000E+00 -0.96960448239E+02  0.96960448239E+02  0.00000000000E+00 0. -1.
          2    1    1    2  501    0 -0.10525043473E+03  0.79721826723E+01  0.20362358616E+03  0.22935512759E+03  0.00000000000E+00 0. -1.
          1    1    1    2  502    0 -0.39118326202E+02 -0.89305476753E+01 -0.31911665864E+02  0.51267460878E+02  0.00000000000E+00 0. -1.
         22    1    1    2    0    0  0.15519918905E+03 -0.13005487873E+01  0.18041431289E+03  0.23798698285E+03  0.00000000000E+00 0. -1.
         22    1    1    2    0    0 -0.10830428115E+02  0.22589137903E+01 -0.11488244245E+02  0.15949314108E+02  0.00000000000E+00 0.  1.
</event>
