<event>
 6    1  0.3240171E-005  0.1322711E+03  0.7818608E-02  0.1226767E+00
          2   -1    0    0  502    0  0.00000000000E+00  0.00000000000E+00  0.19710016690E+03  0.19710016690E+03  0.00000000000E+00 0. -1.
          1   -1    0    0  501    0 -0.00000000000E+00 -0.00000000000E+00 -0.23414187289E+03  0.23414187289E+03  0.00000000000E+00 0. -1.
          2    1    1    2  501    0  0.49607250601E+02  0.11339295139E+03 -0.55156593798E+02  0.13550310172E+03  0.00000000000E+00 0. -1.
          1    1    1    2  502    0 -0.12538711731E+03 -0.54239339633E+02  0.24795043447E+02  0.13884750387E+03  0.00000000000E+00 0. -1.
         22    1    1    2    0    0 -0.29103848547E+02  0.76849871959E+01  0.92842213402E+01  0.31500631650E+02  0.00000000000E+00 0. -1.
         22    1    1    2    0    0  0.10488371525E+03 -0.66838598949E+02 -0.15964376976E+02  0.12539080256E+03  0.00000000000E+00 0. -1.
</event>
<event>
 6    1  0.3240171E-005  0.5349589E+03  0.7818608E-02  0.1098810E+00
          2   -1    0    0  502    0  0.00000000000E+00  0.00000000000E+00  0.81087230993E+03  0.81087230993E+03  0.00000000000E+00 0. -1.
          1   -1    0    0  501    0 -0.00000000000E+00 -0.00000000000E+00 -0.52340757986E+03  0.52340757986E+03  0.00000000000E+00 0. -1.
          2    1    1    2  501    0 -0.67076587614E+02 -0.24173446483E+03  0.43748261599E+01  0.25090627572E+03  0.00000000000E+00 0. -1.
          1    1    1    2  502    0  0.12625606329E+03  0.45139375829E+03 -0.22247062851E+03  0.51883532945E+03  0.00000000000E+00 0. -1.
         22    1    1    2    0    0 -0.25911089039E+02 -0.26426396663E+02  0.22351170713E+03  0.22655511956E+03  0.00000000000E+00 0. -1.
         22    1    1    2    0    0 -0.33268386633E+02 -0.18323289679E+03  0.28204882529E+03  0.33798316506E+03  0.00000000000E+00 0. -1.
</event>
<event>
 6    1  0.3240171E-005  0.2061159E+03  0.7818608E-02  0.1174722E+00
          2   -1    0    0  502    0  0.00000000000E+00  0.00000000000E+00  0.12702959979E+03  0.12702959979E+03  0.00000000000E+00 0.  1.
          1   -1    0    0  501    0 -0.00000000000E+00 -0.00000000000E+00 -0.81817704799E+03  0.81817704799E+03  0.00000000000E+00 0. -1.
          2    1    1    2  501    0  0.37792100793E+02  0.34546228192E+02 -0.51045528759E+01  0.51456206863E+02  0.00000000000E+00 0.  1.
          1    1    1    2  502    0 -0.20312426648E+03 -0.85180588658E+02 -0.63562402794E+03  0.67270580881E+03  0.00000000000E+00 0. -1.
         22    1    1    2    0    0  0.62987428552E+02  0.52980855569E+02  0.33311489868E+02  0.88792131237E+02  0.00000000000E+00 0.  1.
         22    1    1    2    0    0  0.10234473713E+03 -0.23464951028E+01 -0.83730357258E+02  0.13225250086E+03  0.00000000000E+00 0.  1.
</event>
<event>
 6    1  0.3240171E-005  0.4671605E+02  0.7818608E-02  0.1505634E+00
          2   -1    0    0  502    0  0.00000000000E+00  0.00000000000E+00  0.50354423205E+02  0.50354423205E+02  0.00000000000E+00 0.  1.
          1   -1    0    0  501    0 -0.00000000000E+00 -0.00000000000E+00 -0.30492377494E+03  0.30492377494E+03  0.00000000000E+00 0.  1.
          2    1    1    2  501    0 -0.16962587961E+02 -0.14722892172E+02 -0.12788879028E+03  0.12984619988E+03  0.00000000000E+00 0.  1.
          1    1    1    2  502    0  0.45253423823E+02  0.46601113319E+01 -0.73111210978E+02  0.86109454626E+02  0.00000000000E+00 0.  1.
         22    1    1    2    0    0 -0.79228442870E+01  0.24770019486E+02  0.37060659624E+02  0.45274913790E+02  0.00000000000E+00 0.  1.
         22    1    1    2    0    0 -0.20367991575E+02 -0.14707238646E+02 -0.90630010106E+02  0.94047629854E+02  0.00000000000E+00 0.  1.
</event>
<event>
 6    1  0.3240171E-005  0.1511782E+03  0.7818608E-02  0.1255572E+00
          2   -1    0    0  502    0  0.00000000000E+00  0.00000000000E+00  0.18640347415E+03  0.18640347415E+03  0.00000000000E+00 0.  1.
          1   -1    0    0  501    0 -0.00000000000E+00 -0.00000000000E+00 -0.64629149511E+03  0.64629149511E+03  0.00000000000E+00 0.  1.
          2    1    1    2  501    0 -0.24156485856E+02  0.43040870713E+02 -0.97812814845E+01  0.50316258090E+02  0.00000000000E+00 0.  1.
          1    1    1    2  502    0  0.21903562650E+02  0.13120877086E+02 -0.58795687995E+03  0.58851101617E+03  0.00000000000E+00 0.  1.
         22    1    1    2    0    0  0.38321561550E+02 -0.85935924019E+01 -0.44774919251E+01  0.39527709824E+02  0.00000000000E+00 0.  1.
         22    1    1    2    0    0 -0.36068638344E+02 -0.47568155397E+02  0.14232763240E+03  0.15433998518E+03  0.00000000000E+00 0.  1.
</event>
<event>
 6    1  0.3240171E-005  0.1680193E+03  0.7818608E-02  0.1244797E+00
          2   -1    0    0  502    0  0.00000000000E+00  0.00000000000E+00  0.28705287400E+03  0.28705287400E+03  0.00000000000E+00 0.  1.
          1   -1    0    0  501    0 -0.00000000000E+00 -0.00000000000E+00 -0.61912602479E+03  0.61912602479E+03  0.00000000000E+00 0.  1.
          2    1    1    2  501    0 -0.63021282613E+02  0.38605918981E+02  0.12613006927E+03  0.14618787028E+03  0.00000000000E+00 0.  1.
          1    1    1    2  502    0  0.15244604190E+03 -0.65488042889E+02 -0.55445985340E+03  0.57875228594E+03  0.00000000000E+00 0.  1.
         22    1    1    2    0    0 -0.33554353679E+02  0.25662251264E+02 -0.24033689667E+02  0.48601070253E+02  0.00000000000E+00 0. -1.
         22    1    1    2    0    0 -0.55870405604E+02  0.12198726438E+01  0.12029032300E+03  0.13263767232E+03  0.00000000000E+00 0. -1.
</event>
<event>
 6    1  0.3240171E-005  0.2503790E+03  0.7818608E-02  0.1163231E+00
          2   -1    0    0  502    0  0.00000000000E+00  0.00000000000E+00  0.95975366706E+02  0.95975366706E+02  0.00000000000E+00 0.  1.
          1   -1    0    0  501    0 -0.00000000000E+00 -0.00000000000E+00 -0.16894963533E+04  0.16894963533E+04  0.00000000000E+00 0.  1.
          2    1    1    2  501    0 -0.83199631923E+02 -0.46513644793E+02 -0.11844140256E+03  0.15203310082E+03  0.00000000000E+00 0.  1.
          1    1    1    2  502    0  0.25253937828E+03  0.81870694948E+02 -0.13721969016E+04  0.13976420446E+04  0.00000000000E+00 0.  1.
         22    1    1    2    0    0 -0.67154763764E+02 -0.31823692832E+02  0.19002452179E+02  0.76704647255E+02  0.00000000000E+00 0.  1.
         22    1    1    2    0    0 -0.10218498260E+03 -0.35333573231E+01 -0.12188513465E+03  0.15909192730E+03  0.00000000000E+00 0. -1.
</event>
<event>
 6    1  0.3240171E-005  0.1236683E+03  0.7818608E-02  0.1272443E+00
          2   -1    0    0  502    0  0.00000000000E+00  0.00000000000E+00  0.13241098546E+03  0.13241098546E+03  0.00000000000E+00 0. -1.
          1   -1    0    0  501    0 -0.00000000000E+00 -0.00000000000E+00 -0.71949213663E+03  0.71949213663E+03  0.00000000000E+00 0.  1.
          2    1    1    2  501    0 -0.63396622312E+01  0.19076006087E+02 -0.27721940579E+02  0.34243120694E+02  0.00000000000E+00 0. -1.
          1    1    1    2  502    0  0.69885232394E+02 -0.41366196190E+02 -0.64568168027E+03  0.65076873014E+03  0.00000000000E+00 0.  1.
         22    1    1    2    0    0 -0.42843345197E+02 -0.44048695011E+02  0.76521851843E+01  0.61922497511E+02  0.00000000000E+00 0.  1.
         22    1    1    2    0    0 -0.20702224965E+02  0.66338885114E+02  0.78670284504E+02  0.10496877374E+03  0.00000000000E+00 0. -1.
</event>
<event>
 6    1  0.3240171E-005  0.1257551E+03  0.7818608E-02  0.1246844E+00
          2   -1    0    0  502    0  0.00000000000E+00  0.00000000000E+00  0.27423593309E+03  0.27423593309E+03  0.00000000000E+00 0.  1.
          1   -1    0    0  501    0 -0.00000000000E+00 -0.00000000000E+00 -0.72477077988E+02  0.72477077988E+02  0.00000000000E+00 0.  1.
          2    1    1    2  501    0  0.43813100154E+02  0.20738980282E+01 -0.23242930177E+02  0.49639929506E+02  0.00000000000E+00 0.  1.
          1    1    1    2  502    0  0.17319136847E+02  0.13423596594E+02 -0.90021289063E+01  0.23689317666E+02  0.00000000000E+00 0.  1.
         22    1    1    2    0    0  0.34767009069E+02  0.18404956369E+02  0.57492481234E+02  0.69662563383E+02  0.00000000000E+00 0.  1.
         22    1    1    2    0    0 -0.95899246071E+02 -0.33902450990E+02  0.17651143295E+03  0.20372120052E+03  0.00000000000E+00 0.  1.
</event>
<event>
 6    1  0.3240171E-005  0.1086043E+03  0.7818608E-02  0.1307904E+00
          2   -1    0    0  502    0  0.00000000000E+00  0.00000000000E+00  0.23427560529E+03  0.23427560529E+03  0.00000000000E+00 0.  1.
          1   -1    0    0  501    0 -0.00000000000E+00 -0.00000000000E+00 -0.35814291260E+03  0.35814291260E+03  0.00000000000E+00 0. -1.
          2    1    1    2  501    0 -0.72763895759E+02  0.66161494192E+02  0.14606567056E+02  0.99424743605E+02  0.00000000000E+00 0.  1.
          1    1    1    2  502    0  0.84177356826E+02 -0.56518043600E+02 -0.28327030877E+03  0.30086904873E+03  0.00000000000E+00 0. -1.
         22    1    1    2    0    0 -0.14590428010E+02  0.36948678865E+02 -0.27057806353E+00  0.39726045258E+02  0.00000000000E+00 0.  1.
         22    1    1    2    0    0  0.31769669421E+01 -0.46592129457E+02  0.14506701248E+03  0.15239868029E+03  0.00000000000E+00 0.  1.
</event>
<event>
 6    1  0.3240171E-005  0.6196944E+02  0.7818608E-02  0.1415797E+00
          2   -1    0    0  502    0  0.00000000000E+00  0.00000000000E+00  0.22254133068E+03  0.22254133068E+03  0.00000000000E+00 0. -1.
          1   -1    0    0  501    0 -0.00000000000E+00 -0.00000000000E+00 -0.26346083469E+03  0.26346083469E+03  0.00000000000E+00 0.  1.
          2    1    1    2  501    0 -0.23176065129E+01  0.24192328457E+02  0.11754746599E+03  0.12003352372E+03  0.00000000000E+00 0. -1.
          1    1    1    2  502    0  0.14745469577E+02  0.16042844365E+02 -0.22067258977E+03  0.22174578599E+03  0.00000000000E+00 0.  1.
         22    1    1    2    0    0 -0.34792235112E+02 -0.52510924151E+01  0.88388905819E+02  0.95135021246E+02  0.00000000000E+00 0. -1.
         22    1    1    2    0    0  0.22364372047E+02 -0.34984080407E+02 -0.26183286054E+02  0.49087834415E+02  0.00000000000E+00 0.  1.
</event>
<event>
 6    1  0.3240171E-005  0.4728404E+02  0.7818608E-02  0.1484201E+00
          2   -1    0    0  502    0  0.00000000000E+00  0.00000000000E+00  0.11913392622E+03  0.11913392622E+03  0.00000000000E+00 0.  1.
          1   -1    0    0  501    0 -0.00000000000E+00 -0.00000000000E+00 -0.13056483837E+04  0.13056483837E+04  0.00000000000E+00 0.  1.
          2    1    1    2  501    0  0.22642196665E+02 -0.28227612984E+01  0.63815735310E+01  0.23693069280E+02  0.00000000000E+00 0.  1.
          1    1    1    2  502    0 -0.40127837107E+02 -0.10201365022E+02 -0.12598408546E+04  0.12605210391E+04  0.00000000000E+00 0.  1.
         22    1    1    2    0    0 -0.26373186213E+02  0.21045106846E+02  0.85772055162E+02  0.92169880763E+02  0.00000000000E+00 0.  1.
         22    1    1    2    0    0  0.43858826654E+02 -0.80209805255E+01 -0.18827231580E+02  0.48398320766E+02  0.00000000000E+00 0.  1.
</event>
<event>
 6    1  0.3240171E-005  0.1386849E+03  0.7818608E-02  0.1257596E+00
          2   -1    0    0  502    0  0.00000000000E+00  0.00000000000E+00  0.28321050319E+03  0.28321050319E+03  0.00000000000E+00 0. -1.
          1   -1    0    0  501    0 -0.00000000000E+00 -0.00000000000E+00 -0.81686276554E+03  0.81686276554E+03  0.00000000000E+00 0.  1.
          2    1    1    2  501    0  0.13821135185E+03 -0.31483849347E+01  0.96356757068E+02  0.16851384139E+03  0.00000000000E+00 0. -1.
          1    1    1    2  502    0 -0.12623018497E+03  0.21216251346E+02 -0.74682063808E+03  0.75771053470E+03  0.00000000000E+00 0.  1.
         22    1    1    2    0    0 -0.57132991153E+02 -0.11081304001E+02  0.11409311145E+03  0.12807892901E+03  0.00000000000E+00 0. -1.
         22    1    1    2    0    0  0.45151824276E+02 -0.69865624096E+01  0.27185072183E+01  0.45769963637E+02  0.00000000000E+00 0.  1.
</event>
<event>
 6    1  0.3240171E-005  0.9404700E+02  0.7818608E-02  0.1308675E+00
          2   -1    0    0  502    0  0.00000000000E+00  0.00000000000E+00  0.79421810421E+02  0.79421810421E+02  0.00000000000E+00 0. -1.
          1   -1    0    0  501    0 -0.00000000000E+00 -0.00000000000E+00 -0.23356749710E+03  0.23356749710E+03  0.00000000000E+00 0.  1.
          2    1    1    2  501    0 -0.25987130065E+02 -0.21219874026E+02 -0.26913709501E+02  0.43011181590E+02  0.00000000000E+00 0. -1.
          1    1    1    2  502    0 -0.14267667477E+01  0.22327101992E+02 -0.14330528931E+03  0.14504117033E+03  0.00000000000E+00 0.  1.
         22    1    1    2    0    0 -0.34745069864E+00 -0.58257271016E+02  0.19154313207E+02  0.61326324386E+02  0.00000000000E+00 0. -1.
         22    1    1    2    0    0  0.27761347511E+02  0.57150043050E+02 -0.30810010793E+01  0.63610631218E+02  0.00000000000E+00 0. -1.
</event>
<event>
 6    1  0.3240171E-005  0.1028899E+03  0.7818608E-02  0.1274994E+00
          2   -1    0    0  502    0  0.00000000000E+00  0.00000000000E+00  0.25613091487E+02  0.25613091487E+02  0.00000000000E+00 0.  1.
          1   -1    0    0  501    0 -0.00000000000E+00 -0.00000000000E+00 -0.18023365547E+04  0.18023365547E+04  0.00000000000E+00 0. -1.
          2    1    1    2  501    0 -0.45304709499E+02  0.29621515915E+02 -0.97443643027E+02  0.11146844609E+03  0.00000000000E+00 0.  1.
          1    1    1    2  502    0 -0.39292459228E+02  0.44353041370E+02 -0.13154099514E+04  0.13167438740E+04  0.00000000000E+00 0. -1.
         22    1    1    2    0    0  0.10395610611E+03 -0.91597524256E+02 -0.29082868676E+03  0.32214640071E+03  0.00000000000E+00 0. -1.
         22    1    1    2    0    0 -0.19358937384E+02  0.17622966972E+02 -0.73041182090E+02  0.77590925389E+02  0.00000000000E+00 0. -1.
</event>
<event>
 6    1  0.3240171E-005  0.1569113E+03  0.7818608E-02  0.1194549E+00
          2   -1    0    0  502    0  0.00000000000E+00  0.00000000000E+00  0.57452520349E+03  0.57452520349E+03  0.00000000000E+00 0. -1.
          1   -1    0    0  501    0 -0.00000000000E+00 -0.00000000000E+00 -0.47540499313E+03  0.47540499313E+03  0.00000000000E+00 0.  1.
          2    1    1    2  501    0  0.11377184656E+03 -0.42731201487E+02  0.20751864885E+03  0.24048696071E+03  0.00000000000E+00 0. -1.
          1    1    1    2  502    0 -0.15967954619E+02 -0.72143776433E+02 -0.42860627321E+03  0.43492877289E+03  0.00000000000E+00 0.  1.
         22    1    1    2    0    0 -0.10411298616E+03  0.13590606655E+03  0.29505046700E+03  0.34112277979E+03  0.00000000000E+00 0. -1.
         22    1    1    2    0    0  0.63090942223E+01 -0.21031088634E+02  0.25157367710E+02  0.33391683233E+02  0.00000000000E+00 0.  1.
</event>
<event>
 6    1  0.4970300E-005  0.1628699E+03  0.7818608E-02  0.1258651E+00
          2   -1    0    0  502    0  0.00000000000E+00  0.00000000000E+00  0.43889598085E+03  0.43889598085E+03  0.00000000000E+00 0.  1.
          1   -1    0    0  501    0 -0.00000000000E+00 -0.00000000000E+00 -0.53443919567E+03  0.53443919567E+03  0.00000000000E+00 0. -1.
          2    1    1    2  501    0 -0.19086843359E+02 -0.49560099437E+02  0.34938989171E+02  0.63570779528E+02  0.00000000000E+00 0.  1.
          1    1    1    2  502    0  0.26842901787E+02  0.12068740392E+02 -0.50939809942E+03  0.51024760613E+03  0.00000000000E+00 0. -1.
         22    1    1    2    0    0 -0.32308502236E+02  0.53970198958E+02  0.35753700342E+03  0.36302800237E+03  0.00000000000E+00 0.  1.
         22    1    1    2    0    0  0.24552443808E+02 -0.16478839913E+02  0.21378892006E+02  0.36488788487E+02  0.00000000000E+00 0. -1.
</event>
<event>
 6    1  0.3240171E-005  0.4577564E+02  0.7818608E-02  0.1496821E+00
          2   -1    0    0  502    0  0.00000000000E+00  0.00000000000E+00  0.57850935430E+02  0.57850935430E+02  0.00000000000E+00 0. -1.
          1   -1    0    0  501    0 -0.00000000000E+00 -0.00000000000E+00 -0.40755538358E+03  0.40755538358E+03  0.00000000000E+00 0. -1.
          2    1    1    2  501    0  0.25207305972E+02 -0.37527719360E+02 -0.18073133840E+03  0.18629963681E+03  0.00000000000E+00 0. -1.
          1    1    1    2  502    0 -0.22031431802E+02  0.17952826124E+02 -0.14946476347E+03  0.15214270759E+03  0.00000000000E+00 0. -1.
         22    1    1    2    0    0  0.22059199657E+02  0.21006944061E+01 -0.66914623778E+02  0.70488212361E+02  0.00000000000E+00 0.  1.
         22    1    1    2    0    0 -0.25235073826E+02  0.17474198830E+02  0.47406277499E+02  0.56475762253E+02  0.00000000000E+00 0. -1.
</event>
<event>
 6    1  0.3240171E-005  0.9244727E+02  0.7818608E-02  0.1306170E+00
          2   -1    0    0  502    0  0.00000000000E+00  0.00000000000E+00  0.12928049547E+03  0.12928049547E+03  0.00000000000E+00 0. -1.
          1   -1    0    0  501    0 -0.00000000000E+00 -0.00000000000E+00 -0.23320213902E+03  0.23320213902E+03  0.00000000000E+00 0. -1.
          2    1    1    2  501    0  0.37825615579E+02 -0.25912508146E+02 -0.91783102309E+02  0.10259811471E+03  0.00000000000E+00 0. -1.
          1    1    1    2  502    0 -0.20431638887E+02 -0.18669168854E+02 -0.95000640684E+02  0.98950045294E+02  0.00000000000E+00 0. -1.
         22    1    1    2    0    0 -0.50728187262E+02  0.59502974491E+02  0.94452297001E+02  0.12261806296E+03  0.00000000000E+00 0. -1.
         22    1    1    2    0    0  0.33334210570E+02 -0.14921297492E+02 -0.11590197556E+02  0.38316411531E+02  0.00000000000E+00 0. -1.
</event>
<event>
 6    1  0.3240171E-005  0.8688161E+02  0.7818608E-02  0.1313073E+00
          2   -1    0    0  502    0  0.00000000000E+00  0.00000000000E+00  0.78106947217E+02  0.78106947217E+02  0.00000000000E+00 0.  1.
          1   -1    0    0  501    0 -0.00000000000E+00 -0.00000000000E+00 -0.35396805117E+03  0.35396805117E+03  0.00000000000E+00 0. -1.
          2    1    1    2  501    0 -0.43499672429E+02 -0.26085489796E+02 -0.67143162704E+02  0.84147956465E+02  0.00000000000E+00 0.  1.
          1    1    1    2  502    0 -0.14416245521E+01 -0.28984895271E+02 -0.20421524310E+03  0.20626698221E+03  0.00000000000E+00 0. -1.
         22    1    1    2    0    0  0.50932873472E+02  0.71427567586E+02  0.38092485053E+02  0.95640433023E+02  0.00000000000E+00 0.  1.
         22    1    1    2    0    0 -0.59915764914E+01 -0.16357182518E+02 -0.42595183207E+02  0.46019626696E+02  0.00000000000E+00 0.  1.
</event>
<event>
 6    1  0.3240171E-005  0.6718465E+02  0.7818608E-02  0.1377331E+00
          2   -1    0    0  502    0  0.00000000000E+00  0.00000000000E+00  0.23326087497E+03  0.23326087497E+03  0.00000000000E+00 0.  1.
          1   -1    0    0  501    0 -0.00000000000E+00 -0.00000000000E+00 -0.31342879911E+03  0.31342879911E+03  0.00000000000E+00 0. -1.
          2    1    1    2  501    0  0.38694074408E+02  0.31979403937E+02  0.12674471023E+03  0.13632364154E+03  0.00000000000E+00 0.  1.
          1    1    1    2  502    0 -0.14536428745E+02  0.21121986620E+02 -0.26091242974E+03  0.26216930040E+03  0.00000000000E+00 0. -1.
         22    1    1    2    0    0  0.13263281773E+02 -0.26580868130E+01  0.79328687241E+02  0.80473726695E+02  0.00000000000E+00 0. -1.
         22    1    1    2    0    0 -0.37420927436E+02 -0.50443303744E+02 -0.25328891867E+02  0.67723005441E+02  0.00000000000E+00 0. -1.
</event>
<event>
 6    1  0.3240171E-005  0.1400956E+03  0.7818608E-02  0.1214625E+00
          2   -1    0    0  502    0  0.00000000000E+00  0.00000000000E+00  0.48335867660E+03  0.48335867660E+03  0.00000000000E+00 0. -1.
          1   -1    0    0  501    0 -0.00000000000E+00 -0.00000000000E+00 -0.53925171660E+03  0.53925171660E+03  0.00000000000E+00 0. -1.
          2    1    1    2  501    0 -0.37650610911E+02  0.10375966893E+03  0.31286670745E+03  0.33176680670E+03  0.00000000000E+00 0. -1.
          1    1    1    2  502    0 -0.19698842378E+02 -0.41043397192E+01 -0.48374748111E+03  0.48416579338E+03  0.00000000000E+00 0. -1.
         22    1    1    2    0    0  0.56727808285E+02 -0.12623625107E+03  0.71675516393E+02  0.15585575051E+03  0.00000000000E+00 0. -1.
         22    1    1    2    0    0  0.62164500472E+00  0.26580921862E+02  0.43312217269E+02  0.50822042602E+02  0.00000000000E+00 0. -1.
</event>
<event>
 6    1  0.3240171E-005  0.1419147E+03  0.7818608E-02  0.1242240E+00
          2   -1    0    0  502    0  0.00000000000E+00  0.00000000000E+00  0.10466842035E+03  0.10466842035E+03  0.00000000000E+00 0. -1.
          1   -1    0    0  501    0 -0.00000000000E+00 -0.00000000000E+00 -0.82550773750E+03  0.82550773750E+03  0.00000000000E+00 0. -1.
          2    1    1    2  501    0  0.54848326018E+02 -0.47673365892E+02 -0.53851480772E+03  0.54339606809E+03  0.00000000000E+00 0. -1.
          1    1    1    2  502    0 -0.10574800578E+03 -0.19950701791E+02 -0.21108679636E+03  0.23693523762E+03  0.00000000000E+00 0. -1.
         22    1    1    2    0    0  0.33714214716E+02 -0.41660694147E+01 -0.37535373205E+02  0.50625178023E+02  0.00000000000E+00 0. -1.
         22    1    1    2    0    0  0.17185465050E+02  0.71790137098E+02  0.66297660128E+02  0.99219674117E+02  0.00000000000E+00 0. -1.
</event>
<event>
 6    1  0.3240171E-005  0.1669511E+03  0.7818608E-02  0.1232013E+00
          2   -1    0    0  502    0  0.00000000000E+00  0.00000000000E+00  0.54349905570E+02  0.54349905570E+02  0.00000000000E+00 0.  1.
          1   -1    0    0  501    0 -0.00000000000E+00 -0.00000000000E+00 -0.11979518822E+04  0.11979518822E+04  0.00000000000E+00 0. -1.
          2    1    1    2  501    0  0.47042333394E+02 -0.42224818337E+02 -0.72265134511E+02  0.96011281007E+02  0.00000000000E+00 0.  1.
          1    1    1    2  502    0 -0.16010541862E+03  0.31511050246E+02 -0.90612493288E+03  0.92070032331E+03  0.00000000000E+00 0. -1.
         22    1    1    2    0    0  0.25934324054E+02  0.49477927757E+02 -0.11492078070E+03  0.12777887281E+03  0.00000000000E+00 0. -1.
         22    1    1    2    0    0  0.87128761173E+02 -0.38764159666E+02 -0.50291128581E+02  0.10781131069E+03  0.00000000000E+00 0.  1.
</event>
<event>
 6    1  0.3240171E-005  0.8584883E+02  0.7818608E-02  0.1375211E+00
          2   -1    0    0  502    0  0.00000000000E+00  0.00000000000E+00  0.31242656476E+03  0.31242656476E+03  0.00000000000E+00 0.  1.
          1   -1    0    0  501    0 -0.00000000000E+00 -0.00000000000E+00 -0.41286414369E+02  0.41286414369E+02  0.00000000000E+00 0.  1.
          2    1    1    2  501    0 -0.24314562532E+02  0.54405814542E+01 -0.32307723605E+01  0.25124405818E+02  0.00000000000E+00 0.  1.
          1    1    1    2  502    0  0.30830484519E+02 -0.44302137148E+02  0.82825450304E+02  0.98859766081E+02  0.00000000000E+00 0.  1.
         22    1    1    2    0    0 -0.21052545289E+02 -0.20692107052E+02  0.15620420860E+03  0.15896895213E+03  0.00000000000E+00 0.  1.
         22    1    1    2    0    0  0.14536623302E+02  0.59553662746E+02  0.35341263850E+02  0.70759855101E+02  0.00000000000E+00 0. -1.
</event>
<event>
 6    1  0.3240171E-005  0.7310057E+02  0.7818608E-02  0.1354653E+00
          2   -1    0    0  502    0  0.00000000000E+00  0.00000000000E+00  0.17916830459E+03  0.17916830459E+03  0.00000000000E+00 0.  1.
          1   -1    0    0  501    0 -0.00000000000E+00 -0.00000000000E+00 -0.50698175636E+03  0.50698175636E+03  0.00000000000E+00 0. -1.
          2    1    1    2  501    0  0.67940339087E+00 -0.45015639044E+02 -0.93452811990E+02  0.10373185343E+03  0.00000000000E+00 0.  1.
          1    1    1    2  502    0 -0.60348812978E+02  0.55067681957E+02 -0.37406010696E+03  0.38287777742E+03  0.00000000000E+00 0. -1.
         22    1    1    2    0    0  0.66857837004E+02  0.83241828526E+01  0.15853759170E+03  0.17225977583E+03  0.00000000000E+00 0.  1.
         22    1    1    2    0    0 -0.71884274164E+01 -0.18376225766E+02 -0.18838124516E+02  0.27280654270E+02  0.00000000000E+00 0. -1.
</event>
<event>
 6    1  0.3240171E-005  0.8209136E+02  0.7818608E-02  0.1336426E+00
          2   -1    0    0  502    0  0.00000000000E+00  0.00000000000E+00  0.35366132933E+03  0.35366132933E+03  0.00000000000E+00 0. -1.
          1   -1    0    0  501    0 -0.00000000000E+00 -0.00000000000E+00 -0.13903801506E+03  0.13903801506E+03  0.00000000000E+00 0. -1.
          2    1    1    2  501    0 -0.20638741071E+02 -0.27399749042E+02 -0.27800381433E+02  0.44153879652E+02  0.00000000000E+00 0. -1.
          1    1    1    2  502    0  0.66890614907E+02 -0.97447282221E+01  0.29376116233E+03  0.30143811070E+03  0.00000000000E+00 0. -1.
         22    1    1    2    0    0 -0.64896682717E+01  0.64742496367E+02  0.13244278847E+02  0.66401186377E+02  0.00000000000E+00 0. -1.
         22    1    1    2    0    0 -0.39762205564E+02 -0.27598019103E+02 -0.64581745470E+02  0.80706167656E+02  0.00000000000E+00 0. -1.
</event>
<event>
 6    1  0.3240171E-005  0.1081424E+03  0.7818608E-02  0.1373454E+00
          2   -1    0    0  502    0  0.00000000000E+00  0.00000000000E+00  0.59835011414E+02  0.59835011414E+02  0.00000000000E+00 0.  1.
          1   -1    0    0  501    0 -0.00000000000E+00 -0.00000000000E+00 -0.36967179466E+03  0.36967179466E+03  0.00000000000E+00 0.  1.
          2    1    1    2  501    0  0.56652247642E+02  0.32634447767E+02 -0.13487764983E+03  0.14988817421E+03  0.00000000000E+00 0.  1.
          1    1    1    2  502    0 -0.43300657837E+02 -0.70503247506E+02 -0.77662659347E+02  0.11347750233E+03  0.00000000000E+00 0.  1.
         22    1    1    2    0    0  0.10839529087E+02  0.10657137361E+02  0.30058558809E+02  0.33683629930E+02  0.00000000000E+00 0. -1.
         22    1    1    2    0    0 -0.24191118892E+02  0.27211662379E+02 -0.12735503288E+03  0.13245749961E+03  0.00000000000E+00 0. -1.
</event>
<event>
 6    1  0.3240171E-005  0.8018310E+02  0.7818608E-02  0.1334774E+00
          2   -1    0    0  502    0  0.00000000000E+00  0.00000000000E+00  0.23516859657E+02  0.23516859657E+02  0.00000000000E+00 0. -1.
          1   -1    0    0  501    0 -0.00000000000E+00 -0.00000000000E+00 -0.48521513094E+03  0.48521513094E+03  0.00000000000E+00 0. -1.
          2    1    1    2  501    0 -0.20294457322E+02  0.89218244202E+01 -0.93593985998E+02  0.96183668904E+02  0.00000000000E+00 0. -1.
          1    1    1    2  502    0  0.29446739850E+02  0.14833012765E+02 -0.18814329697E+03  0.19101054670E+03  0.00000000000E+00 0. -1.
         22    1    1    2    0    0 -0.52331922117E+02  0.29668082970E+02 -0.92224214415E+02  0.11010963148E+03  0.00000000000E+00 0. -1.
         22    1    1    2    0    0  0.43179639589E+02 -0.53422920155E+02 -0.87736773891E+02  0.11142814351E+03  0.00000000000E+00 0. -1.
</event>
<event>
 6    1  0.3240171E-005  0.6094641E+02  0.7818608E-02  0.1419588E+00
          2   -1    0    0  502    0  0.00000000000E+00  0.00000000000E+00  0.13295397215E+03  0.13295397215E+03  0.00000000000E+00 0. -1.
          1   -1    0    0  501    0 -0.00000000000E+00 -0.00000000000E+00 -0.25181643134E+03  0.25181643134E+03  0.00000000000E+00 0. -1.
          2    1    1    2  501    0  0.28266933407E+02  0.42732507678E+02 -0.23371749237E+02  0.56314522098E+02  0.00000000000E+00 0. -1.
          1    1    1    2  502    0 -0.46458427402E+02 -0.18953202672E+02 -0.17363197476E+03  0.18073647122E+03  0.00000000000E+00 0. -1.
         22    1    1    2    0    0  0.36795617846E+02  0.12464692381E+02 -0.18361112707E+02  0.42969948902E+02  0.00000000000E+00 0. -1.
         22    1    1    2    0    0 -0.18604123851E+02 -0.36243997388E+02  0.96502377516E+02  0.10474946127E+03  0.00000000000E+00 0.  1.
</event>
<event>
 6    1  0.3240171E-005  0.8594073E+02  0.7818608E-02  0.1322344E+00
          2   -1    0    0  502    0  0.00000000000E+00  0.00000000000E+00  0.61971716677E+03  0.61971716677E+03  0.00000000000E+00 0. -1.
          1   -1    0    0  501    0 -0.00000000000E+00 -0.00000000000E+00 -0.53904231731E+03  0.53904231731E+03  0.00000000000E+00 0.  1.
          2    1    1    2  501    0 -0.36818544365E+02 -0.11963780227E+02  0.95295495698E+02  0.10285897504E+03  0.00000000000E+00 0. -1.
          1    1    1    2  502    0  0.21875486578E+02  0.38031066052E+01 -0.52687310829E+03  0.52734075584E+03  0.00000000000E+00 0.  1.
         22    1    1    2    0    0  0.61215171877E+02 -0.28347366347E+02  0.33625364384E+03  0.34295390863E+03  0.00000000000E+00 0.  1.
         22    1    1    2    0    0 -0.46272114090E+02  0.36508039969E+02  0.17599881821E+03  0.18560584456E+03  0.00000000000E+00 0. -1.
</event>
<event>
 6    1  0.3240171E-005  0.1936986E+03  0.7818608E-02  0.1239485E+00
          2   -1    0    0  502    0  0.00000000000E+00  0.00000000000E+00  0.33585594711E+03  0.33585594711E+03  0.00000000000E+00 0. -1.
          1   -1    0    0  501    0 -0.00000000000E+00 -0.00000000000E+00 -0.48152825954E+03  0.48152825954E+03  0.00000000000E+00 0.  1.
          2    1    1    2  501    0  0.86129081659E+02 -0.77026868783E+02  0.10357841193E+03  0.15517681734E+03  0.00000000000E+00 0. -1.
          1    1    1    2  502    0 -0.10057209415E+03  0.35827674233E+02 -0.42612944090E+03  0.43930020347E+03  0.00000000000E+00 0.  1.
         22    1    1    2    0    0  0.13909155816E+02  0.71894151632E+02  0.41662264042E+02  0.84249497918E+02  0.00000000000E+00 0. -1.
         22    1    1    2    0    0  0.53385668076E+00 -0.30694957082E+02  0.13521645250E+03  0.13865768792E+03  0.00000000000E+00 0. -1.
</event>
<event>
 6    1  0.3240171E-005  0.1522164E+03  0.7818608E-02  0.1199132E+00
          2   -1    0    0  502    0  0.00000000000E+00  0.00000000000E+00  0.13458770906E+03  0.13458770906E+03  0.00000000000E+00 0.  1.
          1   -1    0    0  501    0 -0.00000000000E+00 -0.00000000000E+00 -0.22191605789E+04  0.22191605789E+04  0.00000000000E+00 0.  1.
          2    1    1    2  501    0  0.56485259536E+02  0.10104442536E+03 -0.11500155190E+02  0.11633062370E+03  0.00000000000E+00 0.  1.
          1    1    1    2  502    0  0.41883259105E+02  0.55965563101E+01 -0.20402280634E+04  0.20406655972E+04  0.00000000000E+00 0.  1.
         22    1    1    2    0    0 -0.11780737369E+03 -0.11844540584E+03 -0.41968806219E+02  0.17224770580E+03  0.00000000000E+00 0. -1.
         22    1    1    2    0    0  0.19438855046E+02  0.11804424171E+02  0.91241550059E+01  0.24504361246E+02  0.00000000000E+00 0. -1.
</event>
<event>
 6    1  0.3240171E-005  0.1526478E+03  0.7818608E-02  0.1259606E+00
          2   -1    0    0  502    0  0.00000000000E+00  0.00000000000E+00  0.29675327344E+03  0.29675327344E+03  0.00000000000E+00 0.  1.
          1   -1    0    0  501    0 -0.00000000000E+00 -0.00000000000E+00 -0.71135430553E+03  0.71135430553E+03  0.00000000000E+00 0. -1.
          2    1    1    2  501    0 -0.37600034158E+02  0.57623865442E+02  0.21538940763E+02  0.72098532623E+02  0.00000000000E+00 0.  1.
          1    1    1    2  502    0  0.15275961422E+02 -0.22661876068E+02 -0.66828459997E+03  0.66884319700E+03  0.00000000000E+00 0. -1.
         22    1    1    2    0    0 -0.43026019013E+02  0.12573654038E+01  0.15031708393E+03  0.15635870619E+03  0.00000000000E+00 0.  1.
         22    1    1    2    0    0  0.65350091749E+02 -0.36219354778E+02  0.81827543180E+02  0.11080714316E+03  0.00000000000E+00 0. -1.
</event>
<event>
 6    1  0.3240171E-005  0.1849592E+03  0.7818608E-02  0.1235446E+00
          2   -1    0    0  502    0  0.00000000000E+00  0.00000000000E+00  0.11151910308E+03  0.11151910308E+03  0.00000000000E+00 0. -1.
          1   -1    0    0  501    0 -0.00000000000E+00 -0.00000000000E+00 -0.36301767088E+03  0.36301767088E+03  0.00000000000E+00 0. -1.
          2    1    1    2  501    0 -0.43583519219E+02  0.97557995231E+02 -0.48206467527E+02  0.11722179444E+03  0.00000000000E+00 0. -1.
          1    1    1    2  502    0  0.10182287532E+02 -0.14551486490E+03 -0.14163684823E+03  0.20332056380E+03  0.00000000000E+00 0. -1.
         22    1    1    2    0    0 -0.18422510808E+02 -0.33564359722E+02  0.19464149797E+01  0.38337236198E+02  0.00000000000E+00 0. -1.
         22    1    1    2    0    0  0.51823742495E+02  0.81521229389E+02 -0.63601667017E+02  0.11565717952E+03  0.00000000000E+00 0. -1.
</event>
<event>
 6    1  0.3240171E-005  0.1886795E+03  0.7818608E-02  0.1270820E+00
          2   -1    0    0  502    0  0.00000000000E+00  0.00000000000E+00  0.33388916053E+03  0.33388916053E+03  0.00000000000E+00 0.  1.
          1   -1    0    0  501    0 -0.00000000000E+00 -0.00000000000E+00 -0.63748785802E+03  0.63748785802E+03  0.00000000000E+00 0.  1.
          2    1    1    2  501    0 -0.10798169605E+02 -0.46308204534E+02  0.37212151967E+02  0.60380415103E+02  0.00000000000E+00 0.  1.
          1    1    1    2  502    0 -0.39940902319E+02  0.17694787006E+03 -0.58030974609E+03  0.60800100806E+03  0.00000000000E+00 0.  1.
         22    1    1    2    0    0  0.46668779466E+02 -0.14802229789E+03  0.16556541189E+03  0.22693717471E+03  0.00000000000E+00 0.  1.
         22    1    1    2    0    0  0.40702924571E+01  0.17382632367E+02  0.73933484744E+02  0.76058420671E+02  0.00000000000E+00 0.  1.
</event>
<event>
 6    1  0.8884708E-005  0.1645989E+03  0.7818608E-02  0.1269365E+00
          2   -1    0    0  502    0  0.00000000000E+00  0.00000000000E+00  0.29395545168E+03  0.29395545168E+03  0.00000000000E+00 0.  1.
          1   -1    0    0  501    0 -0.00000000000E+00 -0.00000000000E+00 -0.41457374123E+03  0.41457374123E+03  0.00000000000E+00 0. -1.
          2    1    1    2  501    0 -0.13465697032E+02  0.23473638178E+02 -0.13613220009E+02  0.30292844780E+02  0.00000000000E+00 0.  1.
          1    1    1    2  502    0 -0.20414570197E+02 -0.60972663021E+02 -0.37342494044E+03  0.37892031676E+03  0.00000000000E+00 0. -1.
         22    1    1    2    0    0 -0.26190384966E+02 -0.88888719420E+01  0.63220878877E+01  0.28371061037E+02  0.00000000000E+00 0. -1.
         22    1    1    2    0    0  0.60070652196E+02  0.46387896785E+02  0.26009778301E+03  0.27094497033E+03  0.00000000000E+00 0.  1.
</event>
<event>
 6    1  0.3240171E-005  0.8017498E+02  0.7818608E-02  0.1353250E+00
          2   -1    0    0  502    0  0.00000000000E+00  0.00000000000E+00  0.16147744323E+03  0.16147744323E+03  0.00000000000E+00 0. -1.
          1   -1    0    0  501    0 -0.00000000000E+00 -0.00000000000E+00 -0.10417659820E+03  0.10417659820E+03  0.00000000000E+00 0. -1.
          2    1    1    2  501    0 -0.31865169961E+02  0.13720377242E+02 -0.33411377765E+02  0.48165942039E+02  0.00000000000E+00 0. -1.
          1    1    1    2  502    0  0.54920377225E+02 -0.20060020183E+02 -0.41058764800E+01  0.58613227738E+02  0.00000000000E+00 0. -1.
         22    1    1    2    0    0  0.15596002775E+02  0.41568169535E+02 -0.64854945153E+01  0.44868804979E+02  0.00000000000E+00 0. -1.
         22    1    1    2    0    0 -0.38651210039E+02 -0.35228526594E+02  0.10130359380E+03  0.11400606668E+03  0.00000000000E+00 0. -1.
</event>
<event>
 6    1  0.3240171E-005  0.1296483E+03  0.7818608E-02  0.1276960E+00
          2   -1    0    0  502    0  0.00000000000E+00  0.00000000000E+00  0.51862085016E+03  0.51862085016E+03  0.00000000000E+00 0.  1.
          1   -1    0    0  501    0 -0.00000000000E+00 -0.00000000000E+00 -0.20088283575E+03  0.20088283575E+03  0.00000000000E+00 0.  1.
          2    1    1    2  501    0  0.11879888913E+02  0.25237646593E+02  0.22751635959E+02  0.35995937339E+02  0.00000000000E+00 0.  1.
          1    1    1    2  502    0  0.29240348540E+02  0.47722156076E+01 -0.18384249736E+03  0.18621448886E+03  0.00000000000E+00 0.  1.
         22    1    1    2    0    0 -0.82264388226E+02 -0.34066013753E+02  0.37741740478E+03  0.38777805545E+03  0.00000000000E+00 0.  1.
         22    1    1    2    0    0  0.41144150773E+02  0.40561515527E+01  0.10141147103E+03  0.10951520427E+03  0.00000000000E+00 0. -1.
</event>
<event>
 6    1  0.3240171E-005  0.1138807E+03  0.7818608E-02  0.1267194E+00
          2   -1    0    0  502    0  0.00000000000E+00  0.00000000000E+00  0.31679248072E+03  0.31679248072E+03  0.00000000000E+00 0.  1.
          1   -1    0    0  501    0 -0.00000000000E+00 -0.00000000000E+00 -0.82561251278E+03  0.82561251278E+03  0.00000000000E+00 0. -1.
          2    1    1    2  501    0 -0.58453955236E+02  0.55924292404E+02  0.23670153216E+02  0.84289189799E+02  0.00000000000E+00 0.  1.
          1    1    1    2  502    0  0.20555441139E+02 -0.64790836705E+02 -0.77762239226E+03  0.78058757588E+03  0.00000000000E+00 0. -1.
         22    1    1    2    0    0  0.82945775376E+02  0.10609042473E+02  0.17800579501E+03  0.19666879898E+03  0.00000000000E+00 0.  1.
         22    1    1    2    0    0 -0.45047261278E+02 -0.17424981724E+01  0.67126411978E+02  0.80859428848E+02  0.00000000000E+00 0.  1.
</event>
<event>
 6    1  0.3240171E-005  0.1986371E+03  0.7818608E-02  0.1173205E+00
          2   -1    0    0  502    0  0.00000000000E+00  0.00000000000E+00  0.15370638847E+03  0.15370638847E+03  0.00000000000E+00 0. -1.
          1   -1    0    0  501    0 -0.00000000000E+00 -0.00000000000E+00 -0.10046773895E+04  0.10046773895E+04  0.00000000000E+00 0.  1.
          2    1    1    2  501    0 -0.57980907752E+02 -0.87574588231E+02 -0.62146699965E+02  0.12203813537E+03  0.00000000000E+00 0. -1.
          1    1    1    2  502    0 -0.13308435984E+02 -0.46410484711E+02 -0.83460234045E+03  0.83599767598E+03  0.00000000000E+00 0.  1.
         22    1    1    2    0    0  0.10846575466E+02  0.13355208171E+03  0.24150310254E+02  0.13615081422E+03  0.00000000000E+00 0. -1.
         22    1    1    2    0    0  0.60442768270E+02  0.43299123292E+00  0.21627729086E+02  0.64197152452E+02  0.00000000000E+00 0. -1.
</event>
<event>
 6    1  0.3240171E-005  0.1511072E+03  0.7818608E-02  0.1297964E+00
          2   -1    0    0  502    0  0.00000000000E+00  0.00000000000E+00  0.11370934522E+03  0.11370934522E+03  0.00000000000E+00 0.  1.
          1   -1    0    0  501    0 -0.00000000000E+00 -0.00000000000E+00 -0.47007071032E+03  0.47007071032E+03  0.00000000000E+00 0. -1.
          2    1    1    2  501    0  0.35206505786E+02  0.62644040387E+02 -0.42198094803E+01  0.71983196912E+02  0.00000000000E+00 0.  1.
          1    1    1    2  502    0  0.27558157872E+02 -0.88478857710E+02 -0.35975697046E+03  0.37150106073E+03  0.00000000000E+00 0. -1.
         22    1    1    2    0    0 -0.61220893578E+02  0.50844930783E+01 -0.49892156095E+02  0.79139605257E+02  0.00000000000E+00 0. -1.
         22    1    1    2    0    0 -0.15437700805E+01  0.20750324244E+02  0.57507570941E+02  0.61156192637E+02  0.00000000000E+00 0.  1.
</event>
<event>
 6    1  0.3240171E-005  0.5784467E+02  0.7818608E-02  0.1408770E+00
          2   -1    0    0  502    0  0.00000000000E+00  0.00000000000E+00  0.11493231461E+03  0.11493231461E+03  0.00000000000E+00 0. -1.
          1   -1    0    0  501    0 -0.00000000000E+00 -0.00000000000E+00 -0.33325731719E+03  0.33325731719E+03  0.00000000000E+00 0.  1.
          2    1    1    2  501    0  0.13701580537E+01 -0.25319020956E+02  0.28855949461E+02  0.38413486884E+02  0.00000000000E+00 0. -1.
          1    1    1    2  502    0 -0.21368702113E+02 -0.11338092553E+02 -0.27574009474E+03  0.27679915755E+03  0.00000000000E+00 0.  1.
         22    1    1    2    0    0  0.95966268477E+01  0.65308249919E+02 -0.25624084403E+02  0.70808590269E+02  0.00000000000E+00 0.  1.
         22    1    1    2    0    0  0.10401917212E+02 -0.28651136410E+02  0.54183227094E+02  0.62168397097E+02  0.00000000000E+00 0.  1.
</event>
<event>
 6    1  0.3240171E-005  0.1578249E+03  0.7818608E-02  0.1266772E+00
          2   -1    0    0  502    0  0.00000000000E+00  0.00000000000E+00  0.35381799704E+02  0.35381799704E+02  0.00000000000E+00 0. -1.
          1   -1    0    0  501    0 -0.00000000000E+00 -0.00000000000E+00 -0.40931947629E+04  0.40931947629E+04  0.00000000000E+00 0.  1.
          2    1    1    2  501    0  0.43209274657E+01 -0.98796035340E+02 -0.32808483213E+03  0.34266453579E+03  0.00000000000E+00 0. -1.
          1    1    1    2  502    0 -0.18235244486E+02  0.14463477206E+03 -0.35956006671E+04  0.35985546958E+04  0.00000000000E+00 0.  1.
         22    1    1    2    0    0 -0.27645758593E+02 -0.18005843989E+02  0.10260395429E+02  0.34551036168E+02  0.00000000000E+00 0. -1.
         22    1    1    2    0    0  0.41560075613E+02 -0.27832892733E+02 -0.14438785934E+03  0.15280629479E+03  0.00000000000E+00 0.  1.
</event>
<event>
 6    1  0.3240171E-005  0.1290912E+03  0.7818608E-02  0.1257886E+00
          2   -1    0    0  502    0  0.00000000000E+00  0.00000000000E+00  0.42407735175E+03  0.42407735175E+03  0.00000000000E+00 0.  1.
          1   -1    0    0  501    0 -0.00000000000E+00 -0.00000000000E+00 -0.69779002185E+03  0.69779002185E+03  0.00000000000E+00 0. -1.
          2    1    1    2  501    0  0.64161420249E+02  0.25590993331E+01  0.83290798345E+02  0.10516935831E+03  0.00000000000E+00 0.  1.
          1    1    1    2  502    0  0.16665870033E+02 -0.18122497811E+02 -0.67053553091E+03  0.67098738764E+03  0.00000000000E+00 0. -1.
         22    1    1    2    0    0 -0.48252080959E+02  0.60029224176E+02  0.25002424960E+03  0.26161784431E+03  0.00000000000E+00 0.  1.
         22    1    1    2    0    0 -0.32575209322E+02 -0.44465825698E+02  0.63507812868E+02  0.84092783356E+02  0.00000000000E+00 0.  1.
</event>
<event>
 6    1  0.3240171E-005  0.1934631E+03  0.7818608E-02  0.1201954E+00
          2   -1    0    0  502    0  0.00000000000E+00  0.00000000000E+00  0.12416381962E+03  0.12416381962E+03  0.00000000000E+00 0.  1.
          1   -1    0    0  501    0 -0.00000000000E+00 -0.00000000000E+00 -0.60050260238E+03  0.60050260238E+03  0.00000000000E+00 0.  1.
          2    1    1    2  501    0 -0.36916371155E+02 -0.48081000345E-01 -0.54451476930E+02  0.65785895988E+02  0.00000000000E+00 0.  1.
          1    1    1    2  502    0  0.42271995581E+02  0.11270955389E+03 -0.46951629172E+03  0.48470188089E+03  0.00000000000E+00 0.  1.
         22    1    1    2    0    0  0.48158842614E+02 -0.71183762561E+02  0.60704523170E+02  0.10522091668E+03  0.00000000000E+00 0.  1.
         22    1    1    2    0    0 -0.53514467040E+02 -0.41477710326E+02 -0.13075537278E+02  0.68957728439E+02  0.00000000000E+00 0.  1.
</event>
<event>
 6    1  0.3240171E-005  0.1039519E+03  0.7818608E-02  0.1281053E+00
          2   -1    0    0  502    0  0.00000000000E+00  0.00000000000E+00  0.32541632121E+03  0.32541632121E+03  0.00000000000E+00 0.  1.
          1   -1    0    0  501    0 -0.00000000000E+00 -0.00000000000E+00 -0.10430003245E+03  0.10430003245E+03  0.00000000000E+00 0.  1.
          2    1    1    2  501    0 -0.43049195420E+01  0.11008512876E+03  0.67422980398E+01  0.11037538897E+03  0.00000000000E+00 0.  1.
          1    1    1    2  502    0  0.10465692790E+02 -0.53192167095E+02 -0.88772045324E+01  0.54933979704E+02  0.00000000000E+00 0.  1.
         22    1    1    2    0    0  0.22193431863E+02 -0.78952675802E+02  0.21111867792E+03  0.22648878471E+03  0.00000000000E+00 0.  1.
         22    1    1    2    0    0 -0.28354205111E+02  0.22059714136E+02  0.12132517335E+02  0.37918200275E+02  0.00000000000E+00 0. -1.
</event>
<event>
 6    1  0.3240171E-005  0.2225260E+03  0.7818608E-02  0.1165996E+00
          2   -1    0    0  502    0  0.00000000000E+00  0.00000000000E+00  0.35737577460E+03  0.35737577460E+03  0.00000000000E+00 0. -1.
          1   -1    0    0  501    0 -0.00000000000E+00 -0.00000000000E+00 -0.22267872640E+03  0.22267872640E+03  0.00000000000E+00 0. -1.
          2    1    1    2  501    0 -0.10270046196E+03 -0.15164508001E+03 -0.81755150083E+00  0.18315098571E+03  0.00000000000E+00 0. -1.
          1    1    1    2  502    0  0.16916982593E+03  0.13078064682E+03  0.30174269814E+02  0.21594558145E+03  0.00000000000E+00 0. -1.
         22    1    1    2    0    0  0.98624895143E+01 -0.42664834281E+02  0.13849128696E+02  0.45927716569E+02  0.00000000000E+00 0. -1.
         22    1    1    2    0    0 -0.76331853481E+02  0.63529267464E+02  0.91491201197E+02  0.13503021727E+03  0.00000000000E+00 0. -1.
</event>
<event>
 6    1  0.3240171E-005  0.1133779E+03  0.7818608E-02  0.1256849E+00
          2   -1    0    0  502    0  0.00000000000E+00  0.00000000000E+00  0.19471550407E+03  0.19471550407E+03  0.00000000000E+00 0. -1.
          1   -1    0    0  501    0 -0.00000000000E+00 -0.00000000000E+00 -0.36344922561E+03  0.36344922561E+03  0.00000000000E+00 0.  1.
          2    1    1    2  501    0  0.72016596450E+02 -0.57544874560E+02  0.58844099120E+02  0.10936375430E+03  0.00000000000E+00 0. -1.
          1    1    1    2  502    0 -0.71823371444E+02 -0.10329094312E+01 -0.28675322318E+03  0.29561304875E+03  0.00000000000E+00 0.  1.
         22    1    1    2    0    0 -0.38824234596E+02  0.74965741559E+02  0.48761160787E+01  0.84563349670E+02  0.00000000000E+00 0. -1.
         22    1    1    2    0    0  0.38631009590E+02 -0.16387957568E+02  0.54299286446E+02  0.68624576966E+02  0.00000000000E+00 0. -1.
</event>
<event>
 6    1  0.3240171E-005  0.8558029E+02  0.7818608E-02  0.1315292E+00
          2   -1    0    0  502    0  0.00000000000E+00  0.00000000000E+00  0.49739938408E+02  0.49739938408E+02  0.00000000000E+00 0.  1.
          1   -1    0    0  501    0 -0.00000000000E+00 -0.00000000000E+00 -0.22131981915E+03  0.22131981915E+03  0.00000000000E+00 0.  1.
          2    1    1    2  501    0 -0.15297029509E+02 -0.36970602538E+02 -0.16695065021E+02  0.43353774460E+02  0.00000000000E+00 0.  1.
          1    1    1    2  502    0 -0.27383014429E+02  0.72268782008E+01 -0.59209883910E+02  0.65634347719E+02  0.00000000000E+00 0.  1.
         22    1    1    2    0    0  0.66851996367E+02  0.61279332944E+02 -0.60606200228E+02  0.10907546732E+03  0.00000000000E+00 0.  1.
         22    1    1    2    0    0 -0.24171952428E+02 -0.31535608607E+02 -0.35068731579E+02  0.52996168059E+02  0.00000000000E+00 0.  1.
</event>
<event>
 6    1  0.3240171E-005  0.9254198E+02  0.7818608E-02  0.1302551E+00
          2   -1    0    0  502    0  0.00000000000E+00  0.00000000000E+00  0.88187880919E+02  0.88187880919E+02  0.00000000000E+00 0.  1.
          1   -1    0    0  501    0 -0.00000000000E+00 -0.00000000000E+00 -0.16000261395E+03  0.16000261395E+03  0.00000000000E+00 0.  1.
          2    1    1    2  501    0 -0.34784761955E+02 -0.22584468245E+02 -0.18476920720E+02  0.45403022691E+02  0.00000000000E+00 0.  1.
          1    1    1    2  502    0  0.16450876664E+02 -0.17344704574E+02 -0.65679746636E+02  0.69894915681E+02  0.00000000000E+00 0.  1.
         22    1    1    2    0    0 -0.51601332051E+02  0.78450816034E+00  0.10839480991E+02  0.52733360130E+02  0.00000000000E+00 0.  1.
         22    1    1    2    0    0  0.69935217341E+02  0.39144664658E+02  0.15024533381E+01  0.80159196365E+02  0.00000000000E+00 0.  1.
</event>
<event>
 6    1  0.3240171E-005  0.5203223E+02  0.7818608E-02  0.1475733E+00
          2   -1    0    0  502    0  0.00000000000E+00  0.00000000000E+00  0.22144158116E+03  0.22144158116E+03  0.00000000000E+00 0.  1.
          1   -1    0    0  501    0 -0.00000000000E+00 -0.00000000000E+00 -0.51978501581E+02  0.51978501581E+02  0.00000000000E+00 0.  1.
          2    1    1    2  501    0 -0.80777619576E+00  0.27481484085E+02 -0.22085568056E+01  0.27581917864E+02  0.00000000000E+00 0.  1.
          1    1    1    2  502    0  0.11996805344E+02 -0.42511960416E+02  0.32346613161E+02  0.54749369858E+02  0.00000000000E+00 0.  1.
         22    1    1    2    0    0  0.17206191002E+02  0.17892582694E+02 -0.18338850128E+02  0.30862776095E+02  0.00000000000E+00 0.  1.
         22    1    1    2    0    0 -0.28395220150E+02 -0.28621063631E+01  0.15766387335E+03  0.16022601892E+03  0.00000000000E+00 0.  1.
</event>
<event>
 6    1  0.3240171E-005  0.7281326E+02  0.7818608E-02  0.1385947E+00
          2   -1    0    0  502    0  0.00000000000E+00  0.00000000000E+00  0.27612435389E+03  0.27612435389E+03  0.00000000000E+00 0. -1.
          1   -1    0    0  501    0 -0.00000000000E+00 -0.00000000000E+00 -0.18655524360E+04  0.18655524360E+04  0.00000000000E+00 0.  1.
          2    1    1    2  501    0 -0.31417562374E+02 -0.14130166149E+02  0.43653364264E+02  0.55608821535E+02  0.00000000000E+00 0. -1.
          1    1    1    2  502    0  0.19444868041E+02  0.33137874935E+02 -0.18420339161E+04  0.18424345768E+04  0.00000000000E+00 0.  1.
         22    1    1    2    0    0 -0.24577736043E+01  0.21214843921E+02 -0.77789589117E+01  0.22729330290E+02  0.00000000000E+00 0. -1.
         22    1    1    2    0    0  0.14430467937E+02 -0.40222552706E+02  0.21673142862E+03  0.22090406131E+03  0.00000000000E+00 0. -1.
</event>
<event>
 6    1  0.3240171E-005  0.9114327E+02  0.7818608E-02  0.1324608E+00
          2   -1    0    0  502    0  0.00000000000E+00  0.00000000000E+00  0.29646113833E+02  0.29646113833E+02  0.00000000000E+00 0. -1.
          1   -1    0    0  501    0 -0.00000000000E+00 -0.00000000000E+00 -0.35014392468E+03  0.35014392468E+03  0.00000000000E+00 0.  1.
          2    1    1    2  501    0  0.14329159921E+02  0.28317731784E+02 -0.58661547113E+02  0.66696295753E+02  0.00000000000E+00 0. -1.
          1    1    1    2  502    0 -0.12175477562E+01 -0.28379013888E+02 -0.11314788560E+03  0.11665888250E+03  0.00000000000E+00 0.  1.
         22    1    1    2    0    0  0.50809056116E+02 -0.22864294439E+02 -0.41209454387E+02  0.69300470954E+02  0.00000000000E+00 0. -1.
         22    1    1    2    0    0 -0.63920668280E+02  0.22925576543E+02 -0.10747892375E+03  0.12713438931E+03  0.00000000000E+00 0. -1.
</event>
<event>
 6    1  0.3240171E-005  0.9581430E+02  0.7818608E-02  0.1354179E+00
          2   -1    0    0  502    0  0.00000000000E+00  0.00000000000E+00  0.20294960306E+02  0.20294960306E+02  0.00000000000E+00 0. -1.
          1   -1    0    0  501    0 -0.00000000000E+00 -0.00000000000E+00 -0.91716221874E+03  0.91716221874E+03  0.00000000000E+00 0.  1.
          2    1    1    2  501    0 -0.22455435686E+02 -0.87089492778E+01 -0.24732253892E+02  0.34522120039E+02  0.00000000000E+00 0. -1.
          1    1    1    2  502    0 -0.74389683889E+01 -0.24523298685E+02 -0.59505078240E+03  0.59560235397E+03  0.00000000000E+00 0.  1.
         22    1    1    2    0    0  0.29661918395E+02  0.61940402989E+02 -0.26882572342E+03  0.27745938892E+03  0.00000000000E+00 0.  1.
         22    1    1    2    0    0  0.23248567927E+00 -0.28708155026E+02 -0.82584987245E+01  0.29873316116E+02  0.00000000000E+00 0. -1.
</event>
<event>
 6    1  0.3240171E-005  0.2104088E+03  0.7818608E-02  0.1238978E+00
          2   -1    0    0  502    0  0.00000000000E+00  0.00000000000E+00  0.39469612409E+03  0.39469612409E+03  0.00000000000E+00 0. -1.
          1   -1    0    0  501    0 -0.00000000000E+00 -0.00000000000E+00 -0.25561337710E+03  0.25561337710E+03  0.00000000000E+00 0. -1.
          2    1    1    2  501    0 -0.13924341623E+02 -0.72413213851E+02  0.14500592800E+03  0.16267845581E+03  0.00000000000E+00 0. -1.
          1    1    1    2  502    0  0.89180460984E+02  0.16194523055E+03 -0.17106790170E+03  0.25188020825E+03  0.00000000000E+00 0. -1.
         22    1    1    2    0    0 -0.61170982899E+02 -0.69854486624E+02  0.28714137813E+02  0.97190741126E+02  0.00000000000E+00 0.  1.
         22    1    1    2    0    0 -0.14085136461E+02 -0.19677530076E+02  0.13643058287E+03  0.13856009599E+03  0.00000000000E+00 0. -1.
</event>
<event>
 6    1  0.3240171E-005  0.9560555E+02  0.7818608E-02  0.1386740E+00
          2   -1    0    0  502    0  0.00000000000E+00  0.00000000000E+00  0.31836956742E+02  0.31836956742E+02  0.00000000000E+00 0.  1.
          1   -1    0    0  501    0 -0.00000000000E+00 -0.00000000000E+00 -0.78300351720E+03  0.78300351720E+03  0.00000000000E+00 0.  1.
          2    1    1    2  501    0  0.12484218465E+02 -0.20832872188E+02 -0.62609619082E+01  0.25081146670E+02  0.00000000000E+00 0.  1.
          1    1    1    2  502    0  0.19788333494E+02  0.75131569290E+01 -0.58730729455E+03  0.58768859432E+03  0.00000000000E+00 0.  1.
         22    1    1    2    0    0 -0.52964042033E+01 -0.16903222085E+02  0.15962515263E+02  0.23844762692E+02  0.00000000000E+00 0.  1.
         22    1    1    2    0    0 -0.26976147756E+02  0.30222937344E+02 -0.17356081926E+03  0.17822597025E+03  0.00000000000E+00 0. -1.
</event>
<event>
 6    1  0.3240171E-005  0.6376051E+02  0.7818608E-02  0.1386131E+00
          2   -1    0    0  502    0  0.00000000000E+00  0.00000000000E+00  0.92057264208E+02  0.92057264208E+02  0.00000000000E+00 0.  1.
          1   -1    0    0  501    0 -0.00000000000E+00 -0.00000000000E+00 -0.45961585477E+03  0.45961585477E+03  0.00000000000E+00 0.  1.
          2    1    1    2  501    0 -0.33344907698E+02  0.70142738775E+02 -0.74254993414E+02  0.10745087584E+03  0.00000000000E+00 0.  1.
          1    1    1    2  502    0  0.71884310758E+01 -0.55455370848E+02 -0.31212115790E+03  0.31709082123E+03  0.00000000000E+00 0.  1.
         22    1    1    2    0    0  0.27627317029E+02 -0.48757382733E+02  0.54219487569E+02  0.77976303127E+02  0.00000000000E+00 0.  1.
         22    1    1    2    0    0 -0.14708404073E+01  0.34070014806E+02 -0.35401926821E+02  0.49155118787E+02  0.00000000000E+00 0.  1.
</event>
<event>
 6    1  0.3240171E-005  0.8018782E+02  0.7818608E-02  0.1371586E+00
          2   -1    0    0  502    0  0.00000000000E+00  0.00000000000E+00  0.27930138852E+03  0.27930138852E+03  0.00000000000E+00 0. -1.
          1   -1    0    0  501    0 -0.00000000000E+00 -0.00000000000E+00 -0.10283564624E+03  0.10283564624E+03  0.00000000000E+00 0. -1.
          2    1    1    2  501    0 -0.71460735382E+02 -0.10482935207E+02  0.19641728196E+02  0.74848688155E+02  0.00000000000E+00 0. -1.
          1    1    1    2  502    0  0.68517858814E+02 -0.89543145287E+01 -0.34762910841E+02  0.77352030971E+02  0.00000000000E+00 0. -1.
         22    1    1    2    0    0 -0.31875244481E+02  0.31212410096E+01 -0.24546646736E+01  0.32121624100E+02  0.00000000000E+00 0. -1.
         22    1    1    2    0    0  0.34818121049E+02  0.16316008726E+02  0.19404158960E+03  0.19781469153E+03  0.00000000000E+00 0. -1.
</event>
<event>
 6    1  0.3240171E-005  0.8066460E+02  0.7818608E-02  0.1333480E+00
          2   -1    0    0  502    0  0.00000000000E+00  0.00000000000E+00  0.50605262348E+03  0.50605262348E+03  0.00000000000E+00 0. -1.
          1   -1    0    0  501    0 -0.00000000000E+00 -0.00000000000E+00 -0.18528774835E+02  0.18528774835E+02  0.00000000000E+00 0. -1.
          2    1    1    2  501    0  0.30896881055E+02  0.15691534707E+02  0.12057334039E+03  0.12545426232E+03  0.00000000000E+00 0. -1.
          1    1    1    2  502    0 -0.23016103187E+02 -0.81214188725E+01  0.13696674217E+03  0.13912435772E+03  0.00000000000E+00 0. -1.
         22    1    1    2    0    0  0.13090321861E+02  0.50721545384E+02  0.14967511212E+03  0.15857701876E+03  0.00000000000E+00 0. -1.
         22    1    1    2    0    0 -0.20971099728E+02 -0.58291661218E+02  0.80308653969E+02  0.10142575952E+03  0.00000000000E+00 0. -1.
</event>
<event>
 6    1  0.3240171E-005  0.8281279E+02  0.7818608E-02  0.1340450E+00
          2   -1    0    0  502    0  0.00000000000E+00  0.00000000000E+00  0.19987907353E+03  0.19987907353E+03  0.00000000000E+00 0.  1.
          1   -1    0    0  501    0 -0.00000000000E+00 -0.00000000000E+00 -0.17836704239E+03  0.17836704239E+03  0.00000000000E+00 0.  1.
          2    1    1    2  501    0  0.15288110286E+02 -0.46457334708E+02 -0.32971060224E+02  0.58983905233E+02  0.00000000000E+00 0.  1.
          1    1    1    2  502    0 -0.36225250542E+02  0.10689246210E+03 -0.70258656353E+02  0.13294565064E+03  0.00000000000E+00 0.  1.
         22    1    1    2    0    0  0.43579491238E+01 -0.58942266205E+02  0.14704944503E+03  0.15848255976E+03  0.00000000000E+00 0.  1.
         22    1    1    2    0    0  0.16579191131E+02 -0.14928611882E+01 -0.22307697305E+02  0.27834000290E+02  0.00000000000E+00 0.  1.
</event>
<event>
 6    1  0.3240171E-005  0.7862441E+02  0.7818608E-02  0.1340803E+00
          2   -1    0    0  502    0  0.00000000000E+00  0.00000000000E+00  0.55370413747E+03  0.55370413747E+03  0.00000000000E+00 0.  1.
          1   -1    0    0  501    0 -0.00000000000E+00 -0.00000000000E+00 -0.83336942689E+03  0.83336942689E+03  0.00000000000E+00 0.  1.
          2    1    1    2  501    0 -0.24320575737E+02  0.17398906500E+02  0.37232243524E+02  0.47754081599E+02  0.00000000000E+00 0.  1.
          1    1    1    2  502    0  0.28326265611E+02 -0.16498301470E+02 -0.81987760947E+03  0.82053267198E+03  0.00000000000E+00 0.  1.
         22    1    1    2    0    0 -0.54224509400E+02  0.33598230713E+02  0.20721132518E+03  0.21680791454E+03  0.00000000000E+00 0.  1.
         22    1    1    2    0    0  0.50218819526E+02 -0.34498835743E+02  0.29576875134E+03  0.30197889624E+03  0.00000000000E+00 0.  1.
</event>
<event>
 6    1  0.3240171E-005  0.1375975E+03  0.7818608E-02  0.1319138E+00
          2   -1    0    0  502    0  0.00000000000E+00  0.00000000000E+00  0.25730862943E+03  0.25730862943E+03  0.00000000000E+00 0.  1.
          1   -1    0    0  501    0 -0.00000000000E+00 -0.00000000000E+00 -0.10704790786E+03  0.10704790786E+03  0.00000000000E+00 0.  1.
          2    1    1    2  501    0  0.16298700617E+02 -0.95520366339E+02 -0.62254661548E+01  0.97100692357E+02  0.00000000000E+00 0.  1.
          1    1    1    2  502    0 -0.23504395824E+02  0.83619235209E+02  0.70841058879E+02  0.11208518521E+03  0.00000000000E+00 0.  1.
         22    1    1    2    0    0  0.15424986689E+02  0.28752049248E+02 -0.26150028478E+02  0.41814286311E+02  0.00000000000E+00 0.  1.
         22    1    1    2    0    0 -0.82192914826E+01 -0.16850918117E+02  0.11179515732E+03  0.11335637341E+03  0.00000000000E+00 0.  1.
</event>
<event>
 6    1  0.3240171E-005  0.7055399E+02  0.7818608E-02  0.1402446E+00
          2   -1    0    0  502    0  0.00000000000E+00  0.00000000000E+00  0.59676882110E+03  0.59676882110E+03  0.00000000000E+00 0. -1.
          1   -1    0    0  501    0 -0.00000000000E+00 -0.00000000000E+00 -0.79724845623E+02  0.79724845623E+02  0.00000000000E+00 0. -1.
          2    1    1    2  501    0  0.77767108309E+01 -0.23110232369E+02  0.21981922094E+03  0.22116747040E+03  0.00000000000E+00 0. -1.
          1    1    1    2  502    0 -0.46627624259E+02  0.47568375368E+02 -0.50388984058E+02  0.83522065309E+02  0.00000000000E+00 0. -1.
         22    1    1    2    0    0  0.12241625948E+02  0.32042398318E+02  0.23144629413E+02  0.41379301184E+02  0.00000000000E+00 0. -1.
         22    1    1    2    0    0  0.26609287480E+02 -0.56500541317E+02  0.32446910919E+03  0.33042482983E+03  0.00000000000E+00 0. -1.
</event>
<event>
 6    1  0.3240171E-005  0.7220314E+02  0.7818608E-02  0.1423777E+00
          2   -1    0    0  502    0  0.00000000000E+00  0.00000000000E+00  0.15565053229E+03  0.15565053229E+03  0.00000000000E+00 0.  1.
          1   -1    0    0  501    0 -0.00000000000E+00 -0.00000000000E+00 -0.15732140189E+03  0.15732140189E+03  0.00000000000E+00 0.  1.
          2    1    1    2  501    0 -0.45853295752E+02  0.12919158261E+02 -0.57072527417E+02  0.74341796906E+02  0.00000000000E+00 0.  1.
          1    1    1    2  502    0  0.61423848177E+02 -0.75130948783E+01 -0.45738572186E+02  0.76950326219E+02  0.00000000000E+00 0.  1.
         22    1    1    2    0    0  0.14427575344E+02 -0.17881859033E+02  0.12129169677E+03  0.12344874045E+03  0.00000000000E+00 0.  1.
         22    1    1    2    0    0 -0.29998127770E+02  0.12475795650E+02 -0.20151466772E+02  0.38231070608E+02  0.00000000000E+00 0. -1.
</event>
<event>
 6    1  0.3240171E-005  0.1855933E+03  0.7818608E-02  0.1214635E+00
          2   -1    0    0  502    0  0.00000000000E+00  0.00000000000E+00  0.48778773707E+03  0.48778773707E+03  0.00000000000E+00 0.  1.
          1   -1    0    0  501    0 -0.00000000000E+00 -0.00000000000E+00 -0.31900961497E+03  0.31900961497E+03  0.00000000000E+00 0. -1.
          2    1    1    2  501    0  0.36409038422E+02  0.51085273685E+02 -0.95797401304E+01  0.63459394003E+02  0.00000000000E+00 0.  1.
          1    1    1    2  502    0 -0.15989691915E+03  0.43079931100E+01 -0.23811148383E+03  0.28684954643E+03  0.00000000000E+00 0. -1.
         22    1    1    2    0    0  0.74925748755E+02 -0.22861708197E+02  0.69787029499E+02  0.10491308314E+03  0.00000000000E+00 0.  1.
         22    1    1    2    0    0  0.48562131978E+02 -0.32531558598E+02  0.34668231656E+03  0.35157532846E+03  0.00000000000E+00 0.  1.
</event>
<event>
 6    1  0.3240171E-005  0.2661447E+03  0.7818608E-02  0.1133727E+00
          2   -1    0    0  502    0  0.00000000000E+00  0.00000000000E+00  0.15925530149E+03  0.15925530149E+03  0.00000000000E+00 0. -1.
          1   -1    0    0  501    0 -0.00000000000E+00 -0.00000000000E+00 -0.92822322663E+03  0.92822322663E+03  0.00000000000E+00 0. -1.
          2    1    1    2  501    0  0.19506144053E+03 -0.66072698436E+01 -0.37798903256E+03  0.42540372628E+03  0.00000000000E+00 0. -1.
          1    1    1    2  502    0 -0.27816613713E+03 -0.12056802602E+03 -0.34128057991E+03  0.45649258808E+03  0.00000000000E+00 0. -1.
         22    1    1    2    0    0 -0.62514871946E+01  0.40142534678E+02 -0.68296756388E+02  0.79466666696E+02  0.00000000000E+00 0. -1.
         22    1    1    2    0    0  0.89356183795E+02  0.87032761190E+02  0.18598443715E+02  0.12611554706E+03  0.00000000000E+00 0. -1.
</event>
<event>
 6    1  0.4667389E-005  0.1766843E+03  0.7818608E-02  0.1240726E+00
          2   -1    0    0  502    0  0.00000000000E+00  0.00000000000E+00  0.65870286370E+03  0.65870286370E+03  0.00000000000E+00 0. -1.
          1   -1    0    0  501    0 -0.00000000000E+00 -0.00000000000E+00 -0.11606272646E+04  0.11606272646E+04  0.00000000000E+00 0. -1.
          2    1    1    2  501    0 -0.21610204890E+02 -0.21702859790E+02  0.67012551530E+01  0.31351585272E+02  0.00000000000E+00 0. -1.
          1    1    1    2  502    0 -0.47229846620E+02  0.55262440829E+01 -0.11402106889E+04  0.11412018282E+04  0.00000000000E+00 0. -1.
         22    1    1    2    0    0 -0.27730164078E+02  0.28050358348E+02  0.13041088121E+03  0.13624530282E+03  0.00000000000E+00 0. -1.
         22    1    1    2    0    0  0.96570215589E+02 -0.11873742641E+02  0.50117415164E+03  0.51053141193E+03  0.00000000000E+00 0. -1.
</event>
<event>
 6    1  0.3240171E-005  0.1561327E+03  0.7818608E-02  0.1263648E+00
          2   -1    0    0  502    0  0.00000000000E+00  0.00000000000E+00  0.37265595548E+03  0.37265595548E+03  0.00000000000E+00 0.  1.
          1   -1    0    0  501    0 -0.00000000000E+00 -0.00000000000E+00 -0.20120188095E+03  0.20120188095E+03  0.00000000000E+00 0. -1.
          2    1    1    2  501    0  0.38782116964E+01 -0.87589243719E+02  0.13477329107E+03  0.16078170333E+03  0.00000000000E+00 0.  1.
          1    1    1    2  502    0 -0.21461313485E+02  0.20915921868E+02 -0.16430308855E+03  0.16701367810E+03  0.00000000000E+00 0. -1.
         22    1    1    2    0    0  0.46711955268E+02  0.47732660778E+02  0.32946866994E+02  0.74470864871E+02  0.00000000000E+00 0.  1.
         22    1    1    2    0    0 -0.29128853479E+02  0.18940661073E+02  0.16803700502E+03  0.17159159013E+03  0.00000000000E+00 0.  1.
</event>
<event>
 6    1  0.3240171E-005  0.1295106E+03  0.7818608E-02  0.1354468E+00
          2   -1    0    0  502    0  0.00000000000E+00  0.00000000000E+00  0.16795672160E+03  0.16795672160E+03  0.00000000000E+00 0. -1.
          1   -1    0    0  501    0 -0.00000000000E+00 -0.00000000000E+00 -0.16837766236E+03  0.16837766236E+03  0.00000000000E+00 0. -1.
          2    1    1    2  501    0 -0.90909839527E+01 -0.21413866936E+02  0.74705127031E+01  0.24433752197E+02  0.00000000000E+00 0. -1.
          1    1    1    2  502    0  0.70856704647E+02  0.10754899220E+03 -0.52822695427E+02  0.13920379114E+03  0.00000000000E+00 0. -1.
         22    1    1    2    0    0 -0.12034186138E+02  0.16993454153E+01  0.68066631542E+02  0.69143153966E+02  0.00000000000E+00 0. -1.
         22    1    1    2    0    0 -0.49731534557E+02 -0.87834470677E+02 -0.23135389582E+02  0.10355368665E+03  0.00000000000E+00 0. -1.
</event>
<event>
 6    1  0.3240171E-005  0.8201456E+02  0.7818608E-02  0.1377999E+00
          2   -1    0    0  502    0  0.00000000000E+00  0.00000000000E+00  0.39541814952E+02  0.39541814952E+02  0.00000000000E+00 0. -1.
          1   -1    0    0  501    0 -0.00000000000E+00 -0.00000000000E+00 -0.90595405461E+03  0.90595405461E+03  0.00000000000E+00 0.  1.
          2    1    1    2  501    0 -0.17959539201E+02  0.34607525389E+02 -0.90997048690E+02  0.98998427928E+02  0.00000000000E+00 0. -1.
          1    1    1    2  502    0  0.42841468153E+02 -0.50678202303E+02 -0.69411755519E+03  0.69728247648E+03  0.00000000000E+00 0.  1.
         22    1    1    2    0    0 -0.32440572176E+02 -0.15377218880E+02 -0.10378726511E+03  0.10982097241E+03  0.00000000000E+00 0. -1.
         22    1    1    2    0    0  0.75586432242E+01  0.31447895794E+02  0.22489629324E+02  0.39393992745E+02  0.00000000000E+00 0. -1.
</event>
<event>
 6    1  0.3240171E-005  0.3643498E+02  0.7818608E-02  0.1556842E+00
          2   -1    0    0  502    0  0.00000000000E+00  0.00000000000E+00  0.17868248212E+03  0.17868248212E+03  0.00000000000E+00 0.  1.
          1   -1    0    0  501    0 -0.00000000000E+00 -0.00000000000E+00 -0.11292007396E+04  0.11292007396E+04  0.00000000000E+00 0.  1.
          2    1    1    2  501    0 -0.14005167363E+02 -0.28188717042E+02 -0.21579829966E+02  0.38163300994E+02  0.00000000000E+00 0.  1.
          1    1    1    2  502    0  0.24433544870E+02  0.20146886653E+02 -0.10773511770E+04  0.10778165214E+04  0.00000000000E+00 0.  1.
         22    1    1    2    0    0  0.13358382321E+02  0.24515994921E+02  0.15874346727E+03  0.16117992675E+03  0.00000000000E+00 0.  1.
         22    1    1    2    0    0 -0.23786759827E+02 -0.16474164532E+02 -0.10330717799E+02  0.30723472628E+02  0.00000000000E+00 0.  1.
</event>
<event>
 6    1  0.3240171E-005  0.9186549E+02  0.7818608E-02  0.1306882E+00
          2   -1    0    0  502    0  0.00000000000E+00  0.00000000000E+00  0.15278523141E+03  0.15278523141E+03  0.00000000000E+00 0.  1.
          1   -1    0    0  501    0 -0.00000000000E+00 -0.00000000000E+00 -0.10066126222E+03  0.10066126222E+03  0.00000000000E+00 0.  1.
          2    1    1    2  501    0 -0.26876947196E+02 -0.24172581759E+02 -0.90692901908E+01  0.37268432004E+02  0.00000000000E+00 0.  1.
          1    1    1    2  502    0  0.19847116846E+02  0.14467972018E+02 -0.42899837314E+02  0.49433048692E+02  0.00000000000E+00 0.  1.
         22    1    1    2    0    0  0.53869720828E+02  0.46133569451E+02  0.56417208514E+02  0.90626455679E+02  0.00000000000E+00 0.  1.
         22    1    1    2    0    0 -0.46839890477E+02 -0.36428959710E+02  0.47675888178E+02  0.76118557258E+02  0.00000000000E+00 0.  1.
</event>
<event>
 6    1  0.3240171E-005  0.1790718E+03  0.7818608E-02  0.1303902E+00
          2   -1    0    0  502    0  0.00000000000E+00  0.00000000000E+00  0.71958051586E+02  0.71958051586E+02  0.00000000000E+00 0. -1.
          1   -1    0    0  501    0 -0.00000000000E+00 -0.00000000000E+00 -0.99326614540E+03  0.99326614540E+03  0.00000000000E+00 0. -1.
          2    1    1    2  501    0  0.81610969101E+01 -0.79425002205E+02 -0.23088290892E+03  0.24429869445E+03  0.00000000000E+00 0. -1.
          1    1    1    2  502    0 -0.36824663388E+02  0.16521857313E+03 -0.63704993609E+03  0.65915540945E+03  0.00000000000E+00 0. -1.
         22    1    1    2    0    0  0.27842508868E+02 -0.74615830603E+02 -0.91923785249E+02  0.12162528426E+03  0.00000000000E+00 0. -1.
         22    1    1    2    0    0  0.82105761050E+00 -0.11177740317E+02  0.38548536441E+02  0.40144808829E+02  0.00000000000E+00 0. -1.
</event>
<event>
 6    1  0.3240171E-005  0.1363482E+03  0.7818608E-02  0.1309279E+00
          2   -1    0    0  502    0  0.00000000000E+00  0.00000000000E+00  0.18073217123E+03  0.18073217123E+03  0.00000000000E+00 0.  1.
          1   -1    0    0  501    0 -0.00000000000E+00 -0.00000000000E+00 -0.22265465355E+03  0.22265465355E+03  0.00000000000E+00 0.  1.
          2    1    1    2  501    0  0.60516238637E+02 -0.35812447972E+02 -0.11964375560E+03  0.13877814966E+03  0.00000000000E+00 0.  1.
          1    1    1    2  502    0 -0.50309603565E+02  0.79714429867E+02  0.86120985700E+02  0.12768034586E+03  0.00000000000E+00 0.  1.
         22    1    1    2    0    0 -0.30770946082E+02 -0.54240611898E+02 -0.56153310546E+02  0.83917157883E+02  0.00000000000E+00 0.  1.
         22    1    1    2    0    0  0.20564311009E+02  0.10338630004E+02  0.47753598123E+02  0.53011171383E+02  0.00000000000E+00 0.  1.
</event>
<event>
 6    1  0.3240171E-005  0.2866597E+03  0.7818608E-02  0.1229528E+00
          2   -1    0    0  502    0  0.00000000000E+00  0.00000000000E+00  0.70257171782E+02  0.70257171782E+02  0.00000000000E+00 0. -1.
          1   -1    0    0  501    0 -0.00000000000E+00 -0.00000000000E+00 -0.15915149409E+04  0.15915149409E+04  0.00000000000E+00 0. -1.
          2    1    1    2  501    0  0.36498456734E+02 -0.23175198531E+03 -0.50990849420E+03  0.56129118334E+03  0.00000000000E+00 0. -1.
          1    1    1    2  502    0 -0.26868732519E+02  0.27010000622E+03 -0.84032882261E+03  0.88307897283E+03  0.00000000000E+00 0. -1.
         22    1    1    2    0    0  0.89899892171E+01 -0.73555244516E+01  0.19925007859E+02  0.23063598684E+02  0.00000000000E+00 0. -1.
         22    1    1    2    0    0 -0.18619713433E+02 -0.30992496458E+02 -0.19094546019E+03  0.19433835785E+03  0.00000000000E+00 0. -1.
</event>
<event>
 6    1  0.3240171E-005  0.5538965E+02  0.7818608E-02  0.1461649E+00
          2   -1    0    0  502    0  0.00000000000E+00  0.00000000000E+00  0.17479571377E+03  0.17479571377E+03  0.00000000000E+00 0. -1.
          1   -1    0    0  501    0 -0.00000000000E+00 -0.00000000000E+00 -0.16060512820E+03  0.16060512820E+03  0.00000000000E+00 0. -1.
          2    1    1    2  501    0 -0.45119339299E+01  0.22967987651E+02 -0.27284985297E+01  0.23565455835E+02  0.00000000000E+00 0. -1.
          1    1    1    2  502    0  0.22480715453E+02 -0.36821282297E+02 -0.11730302210E+03  0.12498475263E+03  0.00000000000E+00 0. -1.
         22    1    1    2    0    0 -0.46174194168E+02  0.20408160506E+02  0.97416548336E+00  0.50492556092E+02  0.00000000000E+00 0. -1.
         22    1    1    2    0    0  0.28205412645E+02 -0.65548658593E+01  0.13324794072E+03  0.13635807741E+03  0.00000000000E+00 0. -1.
</event>
<event>
 6    1  0.3240171E-005  0.1805503E+03  0.7818608E-02  0.1289766E+00
          2   -1    0    0  502    0  0.00000000000E+00  0.00000000000E+00  0.41774075294E+02  0.41774075294E+02  0.00000000000E+00 0. -1.
          1   -1    0    0  501    0 -0.00000000000E+00 -0.00000000000E+00 -0.10184872690E+04  0.10184872690E+04  0.00000000000E+00 0. -1.
          2    1    1    2  501    0 -0.81390858473E+02 -0.16108531877E+02 -0.15222500344E+03  0.17336784106E+03  0.00000000000E+00 0. -1.
          1    1    1    2  502    0  0.31286476164E+02  0.10437500490E+03 -0.61068711999E+03  0.62033196255E+03  0.00000000000E+00 0. -1.
         22    1    1    2    0    0  0.12354114926E+02  0.70194016185E+01  0.11993743494E+02  0.18594247435E+02  0.00000000000E+00 0. -1.
         22    1    1    2    0    0  0.37750267384E+02 -0.95285874639E+02 -0.22579481374E+03  0.24796729322E+03  0.00000000000E+00 0. -1.
</event>
<event>
 6    1  0.3240171E-005  0.8914799E+02  0.7818608E-02  0.1312903E+00
          2   -1    0    0  502    0  0.00000000000E+00  0.00000000000E+00  0.30010396633E+03  0.30010396633E+03  0.00000000000E+00 0. -1.
          1   -1    0    0  501    0 -0.00000000000E+00 -0.00000000000E+00 -0.90588596294E+03  0.90588596294E+03  0.00000000000E+00 0.  1.
          2    1    1    2  501    0 -0.58127620377E+02 -0.41087533220E+02  0.75489359983E+02  0.10375764602E+03  0.00000000000E+00 0. -1.
          1    1    1    2  502    0  0.79667393206E+02  0.10040800545E+01 -0.86793175886E+03  0.87158100011E+03  0.00000000000E+00 0.  1.
         22    1    1    2    0    0 -0.35705060126E+02 -0.35720905713E+02  0.11404025471E+03  0.12472375121E+03  0.00000000000E+00 0. -1.
         22    1    1    2    0    0  0.14165287297E+02  0.75804358879E+02  0.72620147557E+02  0.10592753193E+03  0.00000000000E+00 0. -1.
</event>
<event>
 6    1  0.3240171E-005  0.1154259E+03  0.7818608E-02  0.1307188E+00
          2   -1    0    0  502    0  0.00000000000E+00  0.00000000000E+00  0.52766667507E+02  0.52766667507E+02  0.00000000000E+00 0.  1.
          1   -1    0    0  501    0 -0.00000000000E+00 -0.00000000000E+00 -0.74841278909E+03  0.74841278909E+03  0.00000000000E+00 0.  1.
          2    1    1    2  501    0 -0.42558414984E+02  0.42767121485E+02 -0.32516688798E+03  0.33071702467E+03  0.00000000000E+00 0.  1.
          1    1    1    2  502    0 -0.10550065774E+01 -0.20115136693E+02 -0.33007095601E+03  0.33068499780E+03  0.00000000000E+00 0.  1.
         22    1    1    2    0    0  0.35562136160E+02  0.17456172204E+02  0.35728173952E+02  0.53346845176E+02  0.00000000000E+00 0.  1.
         22    1    1    2    0    0  0.80512854018E+01 -0.40108156996E+02 -0.76136451537E+02  0.86430588954E+02  0.00000000000E+00 0.  1.
</event>
<event>
 6    1  0.3240171E-005  0.1482506E+03  0.7818608E-02  0.1242967E+00
          2   -1    0    0  502    0  0.00000000000E+00  0.00000000000E+00  0.19392156297E+03  0.19392156297E+03  0.00000000000E+00 0. -1.
          1   -1    0    0  501    0 -0.00000000000E+00 -0.00000000000E+00 -0.25455541214E+03  0.25455541214E+03  0.00000000000E+00 0. -1.
          2    1    1    2  501    0 -0.90353550790E+02  0.53892160667E+02 -0.15346756661E+03  0.18606564198E+03  0.00000000000E+00 0. -1.
          1    1    1    2  502    0  0.40021949896E+02 -0.91214196042E+02  0.82598036962E+01  0.99950039470E+02  0.00000000000E+00 0. -1.
         22    1    1    2    0    0 -0.13197036704E+02  0.43288331662E+02 -0.11901147996E+02  0.46794003456E+02  0.00000000000E+00 0. -1.
         22    1    1    2    0    0  0.63528637598E+02 -0.59662962877E+01  0.96475061745E+02  0.11566729021E+03  0.00000000000E+00 0. -1.
</event>
<event>
 6    1  0.3240171E-005  0.8908562E+02  0.7818608E-02  0.1414638E+00
          2   -1    0    0  502    0  0.00000000000E+00  0.00000000000E+00  0.26952650205E+03  0.26952650205E+03  0.00000000000E+00 0. -1.
          1   -1    0    0  501    0 -0.00000000000E+00 -0.00000000000E+00 -0.47555074515E+03  0.47555074515E+03  0.00000000000E+00 0. -1.
          2    1    1    2  501    0 -0.50062592331E+01 -0.39202213739E+02 -0.22449883234E+03  0.22795087610E+03  0.00000000000E+00 0. -1.
          1    1    1    2  502    0  0.39605085433E+02  0.24542443888E+02  0.24893697083E+03  0.25325976741E+03  0.00000000000E+00 0. -1.
         22    1    1    2    0    0 -0.41276215029E+02  0.27057248479E+02 -0.24117525751E+03  0.24617336464E+03  0.00000000000E+00 0. -1.
         22    1    1    2    0    0  0.66773888296E+01 -0.12397478628E+02  0.10712875912E+02  0.17693239054E+02  0.00000000000E+00 0. -1.
</event>
<event>
 6    1  0.3240171E-005  0.2382640E+03  0.7818608E-02  0.1245458E+00
          2   -1    0    0  502    0  0.00000000000E+00  0.00000000000E+00  0.66495112929E+03  0.66495112929E+03  0.00000000000E+00 0. -1.
          1   -1    0    0  501    0 -0.00000000000E+00 -0.00000000000E+00 -0.83178063321E+02  0.83178063321E+02  0.00000000000E+00 0. -1.
          2    1    1    2  501    0  0.24943837561E+02 -0.21959786823E+02  0.45948826982E+02  0.56707336127E+02  0.00000000000E+00 0. -1.
          1    1    1    2  502    0  0.17500517817E+03  0.30748827506E+02  0.12195967179E+03  0.21551441790E+03  0.00000000000E+00 0. -1.
         22    1    1    2    0    0  0.87801031359E+01 -0.11686885129E+02  0.85964367201E+02  0.87198313765E+02  0.00000000000E+00 0.  1.
         22    1    1    2    0    0 -0.20872911886E+03  0.28978444459E+01  0.32790020000E+03  0.38870912483E+03  0.00000000000E+00 0. -1.
</event>
<event>
 6    1  0.3240171E-005  0.1009938E+03  0.7818608E-02  0.1301841E+00
          2   -1    0    0  502    0  0.00000000000E+00  0.00000000000E+00  0.73856878330E+03  0.73856878330E+03  0.00000000000E+00 0. -1.
          1   -1    0    0  501    0 -0.00000000000E+00 -0.00000000000E+00 -0.11710358420E+03  0.11710358420E+03  0.00000000000E+00 0. -1.
          2    1    1    2  501    0 -0.42563652179E+02 -0.13959268615E+02  0.88074640003E+02  0.98811274047E+02  0.00000000000E+00 0. -1.
          1    1    1    2  502    0  0.82397210686E+02 -0.35844124288E+02 -0.84714265543E+02  0.12349335351E+03  0.00000000000E+00 0. -1.
         22    1    1    2    0    0  0.33138707995E+02  0.55785624643E+02  0.30267460098E+03  0.30955148838E+03  0.00000000000E+00 0. -1.
         22    1    1    2    0    0 -0.72972266502E+02 -0.59822317400E+01  0.31543022366E+03  0.32381625156E+03  0.00000000000E+00 0. -1.
</event>
<event>
 6    1  0.3240171E-005  0.1054629E+03  0.7818608E-02  0.1403210E+00
          2   -1    0    0  502    0  0.00000000000E+00  0.00000000000E+00  0.38933040567E+02  0.38933040567E+02  0.00000000000E+00 0. -1.
          1   -1    0    0  501    0 -0.00000000000E+00 -0.00000000000E+00 -0.20293827258E+04  0.20293827258E+04  0.00000000000E+00 0.  1.
          2    1    1    2  501    0 -0.28570078297E+02 -0.18961600435E+02 -0.13233650289E+03  0.13670677255E+03  0.00000000000E+00 0. -1.
          1    1    1    2  502    0  0.84010661902E+02  0.62025927360E+02 -0.17439840786E+04  0.17471077452E+04  0.00000000000E+00 0.  1.
         22    1    1    2    0    0 -0.45658702992E+02 -0.40366432676E+02 -0.14216946630E+03  0.15468136020E+03  0.00000000000E+00 0. -1.
         22    1    1    2    0    0 -0.97818806125E+01 -0.26978942491E+01  0.28040362470E+02  0.29819888483E+02  0.00000000000E+00 0. -1.
</event>
<event>
 6    1  0.3240171E-005  0.1798569E+03  0.7818608E-02  0.1209202E+00
          2   -1    0    0  502    0  0.00000000000E+00  0.00000000000E+00  0.13461072349E+04  0.13461072349E+04  0.00000000000E+00 0. -1.
          1   -1    0    0  501    0 -0.00000000000E+00 -0.00000000000E+00 -0.39868240206E+02  0.39868240206E+02  0.00000000000E+00 0.  1.
          2    1    1    2  501    0  0.54524227327E+02 -0.51864893401E+02  0.22434209266E+03  0.23662678013E+03  0.00000000000E+00 0. -1.
          1    1    1    2  502    0 -0.14839843239E+03 -0.41921122164E+02  0.22330930967E+03  0.27137892882E+03  0.00000000000E+00 0.  1.
         22    1    1    2    0    0 -0.14829891537E+02  0.70555992671E+02  0.35830024823E+03  0.36548206750E+03  0.00000000000E+00 0.  1.
         22    1    1    2    0    0  0.10870409660E+03  0.23230022894E+02  0.50028734412E+03  0.51248769865E+03  0.00000000000E+00 0.  1.
</event>
<event>
 6    1  0.3240171E-005  0.2290015E+03  0.7818608E-02  0.1228529E+00
          2   -1    0    0  502    0  0.00000000000E+00  0.00000000000E+00  0.38396704403E+02  0.38396704403E+02  0.00000000000E+00 0.  1.
          1   -1    0    0  501    0 -0.00000000000E+00 -0.00000000000E+00 -0.10415709620E+04  0.10415709620E+04  0.00000000000E+00 0. -1.
          2    1    1    2  501    0  0.85965348143E+02 -0.25683045213E+02 -0.34511192467E+03  0.35658365139E+03  0.00000000000E+00 0.  1.
          1    1    1    2  502    0  0.11726584174E+02  0.28787209086E+02 -0.48500257107E+03  0.48599764415E+03  0.00000000000E+00 0. -1.
         22    1    1    2    0    0 -0.12088768926E+03 -0.13810723184E+01 -0.17643723088E+03  0.21388276512E+03  0.00000000000E+00 0.  1.
         22    1    1    2    0    0  0.23195756940E+02 -0.17230915550E+01  0.33774690370E+01  0.23503605715E+02  0.00000000000E+00 0.  1.
</event>
<event>
 6    1  0.3240171E-005  0.4489668E+03  0.7818608E-02  0.1145069E+00
          2   -1    0    0  502    0  0.00000000000E+00  0.00000000000E+00  0.43863104311E+03  0.43863104311E+03  0.00000000000E+00 0. -1.
          1   -1    0    0  501    0 -0.00000000000E+00 -0.00000000000E+00 -0.29853492043E+03  0.29853492043E+03  0.00000000000E+00 0.  1.
          2    1    1    2  501    0 -0.22029793953E+03  0.60949293655E+02  0.40669487158E+02  0.23216374769E+03  0.00000000000E+00 0. -1.
          1    1    1    2  502    0  0.12483754177E+03  0.86796772431E+02 -0.12372395535E+03  0.19602476544E+03  0.00000000000E+00 0.  1.
         22    1    1    2    0    0 -0.18527434504E+02  0.68660396006E+01  0.34413225827E+02  0.39682218196E+02  0.00000000000E+00 0.  1.
         22    1    1    2    0    0  0.11398783226E+03 -0.15461210569E+03  0.18873736505E+03  0.26929523221E+03  0.00000000000E+00 0. -1.
</event>
<event>
 6    1  0.3240171E-005  0.1111018E+03  0.7818608E-02  0.1259448E+00
          2   -1    0    0  502    0  0.00000000000E+00  0.00000000000E+00  0.52699610799E+03  0.52699610799E+03  0.00000000000E+00 0. -1.
          1   -1    0    0  501    0 -0.00000000000E+00 -0.00000000000E+00 -0.21458395203E+04  0.21458395203E+04  0.00000000000E+00 0.  1.
          2    1    1    2  501    0  0.31247194842E+02 -0.47059371489E+02  0.75780470039E+02  0.94517994423E+02  0.00000000000E+00 0. -1.
          1    1    1    2  502    0  0.46412685483E+02 -0.10426413671E+02 -0.21213532256E+04  0.21218865086E+04  0.00000000000E+00 0.  1.
         22    1    1    2    0    0  0.25551998138E+02 -0.19432273644E+02  0.65295032767E+02  0.72759598486E+02  0.00000000000E+00 0. -1.
         22    1    1    2    0    0 -0.10321187846E+03  0.76918058803E+02  0.36143431053E+03  0.38367152677E+03  0.00000000000E+00 0. -1.
</event>
<event>
 6    1  0.3240171E-005  0.1097786E+03  0.7818608E-02  0.1311225E+00
          2   -1    0    0  502    0  0.00000000000E+00  0.00000000000E+00  0.78661743736E+02  0.78661743736E+02  0.00000000000E+00 0. -1.
          1   -1    0    0  501    0 -0.00000000000E+00 -0.00000000000E+00 -0.30973357742E+03  0.30973357742E+03  0.00000000000E+00 0. -1.
          2    1    1    2  501    0 -0.29912280859E+02  0.56590489532E+02 -0.11306002139E+03  0.12992227095E+03  0.00000000000E+00 0. -1.
          1    1    1    2  502    0  0.56338501255E+02 -0.86123967266E+02 -0.44427711914E+02  0.11209454067E+03  0.00000000000E+00 0. -1.
         22    1    1    2    0    0  0.12831776766E+02  0.45999360960E+02 -0.89080991868E+02  0.10107432323E+03  0.00000000000E+00 0. -1.
         22    1    1    2    0    0 -0.39257997163E+02 -0.16465883226E+02  0.15496891489E+02  0.45304186313E+02  0.00000000000E+00 0. -1.
</event>
<event>
 6    1  0.3240171E-005  0.8908267E+02  0.7818608E-02  0.1319454E+00
          2   -1    0    0  502    0  0.00000000000E+00  0.00000000000E+00  0.95366550899E+03  0.95366550899E+03  0.00000000000E+00 0.  1.
          1   -1    0    0  501    0 -0.00000000000E+00 -0.00000000000E+00 -0.10946616129E+04  0.10946616129E+04  0.00000000000E+00 0.  1.
          2    1    1    2  501    0 -0.31790347430E+02  0.67775214413E+02  0.50324518123E+03  0.50878268280E+03  0.00000000000E+00 0.  1.
          1    1    1    2  502    0 -0.23824962630E+02 -0.75789236647E+02 -0.10800663546E+04  0.10829842878E+04  0.00000000000E+00 0.  1.
         22    1    1    2    0    0  0.67700782722E+01  0.56326238566E+02  0.28821420785E+03  0.29374463181E+03  0.00000000000E+00 0.  1.
         22    1    1    2    0    0  0.48845231788E+02 -0.48312216332E+02  0.14761086163E+03  0.16281551949E+03  0.00000000000E+00 0.  1.
</event>
<event>
 6    1  0.3240171E-005  0.7747008E+02  0.7818608E-02  0.1340976E+00
          2   -1    0    0  502    0  0.00000000000E+00  0.00000000000E+00  0.38726500987E+03  0.38726500987E+03  0.00000000000E+00 0.  1.
          1   -1    0    0  501    0 -0.00000000000E+00 -0.00000000000E+00 -0.47895462080E+03  0.47895462080E+03  0.00000000000E+00 0.  1.
          2    1    1    2  501    0 -0.10780174655E+02 -0.17641880658E+02  0.11613758622E+03  0.11796349881E+03  0.00000000000E+00 0.  1.
          1    1    1    2  502    0  0.24448385462E+02 -0.95594260158E+00 -0.46350583359E+03  0.46415115550E+03  0.00000000000E+00 0.  1.
         22    1    1    2    0    0 -0.39978641740E+02 -0.41212863366E+02  0.13868411613E+03  0.15010021975E+03  0.00000000000E+00 0.  1.
         22    1    1    2    0    0  0.26310430934E+02  0.59810686625E+02  0.11699452032E+03  0.13400475661E+03  0.00000000000E+00 0.  1.
</event>
<event>
 6    1  0.3240171E-005  0.1197437E+03  0.7818608E-02  0.1290571E+00
          2   -1    0    0  502    0  0.00000000000E+00  0.00000000000E+00  0.19906419455E+03  0.19906419455E+03  0.00000000000E+00 0.  1.
          1   -1    0    0  501    0 -0.00000000000E+00 -0.00000000000E+00 -0.21217268811E+03  0.21217268811E+03  0.00000000000E+00 0.  1.
          2    1    1    2  501    0  0.30190515940E+02 -0.43407251987E+02  0.29499280921E+02  0.60546381829E+02  0.00000000000E+00 0.  1.
          1    1    1    2  502    0 -0.18282312631E+02  0.19399457723E+02 -0.16998452477E+03  0.17206196726E+03  0.00000000000E+00 0.  1.
         22    1    1    2    0    0  0.13303843305E+02  0.65938474940E+02  0.39385230494E+02  0.77949157181E+02  0.00000000000E+00 0.  1.
         22    1    1    2    0    0 -0.25212046614E+02 -0.41930680676E+02  0.87991519795E+02  0.10067937640E+03  0.00000000000E+00 0. -1.
</event>
<event>
 6    1  0.3240171E-005  0.1605081E+03  0.7818608E-02  0.1257380E+00
          2   -1    0    0  502    0  0.00000000000E+00  0.00000000000E+00  0.94989433751E+02  0.94989433751E+02  0.00000000000E+00 0.  1.
          1   -1    0    0  501    0 -0.00000000000E+00 -0.00000000000E+00 -0.65853063861E+03  0.65853063861E+03  0.00000000000E+00 0. -1.
          2    1    1    2  501    0 -0.64593641905E+02  0.25870267459E+02 -0.43389134924E+02  0.82001380125E+02  0.00000000000E+00 0.  1.
          1    1    1    2  502    0 -0.22368921284E+02 -0.30898354459E+02 -0.52152226656E+03  0.52291543433E+03  0.00000000000E+00 0. -1.
         22    1    1    2    0    0  0.79712814137E+02 -0.34174859150E+02 -0.36051336359E+02  0.93924185324E+02  0.00000000000E+00 0.  1.
         22    1    1    2    0    0  0.72497490516E+01  0.39202946151E+02  0.37421532978E+02  0.54679072584E+02  0.00000000000E+00 0.  1.
</event>
<event>
 6    1  0.5021823E-005  0.4523045E+02  0.7818608E-02  0.1480615E+00
          2   -1    0    0  502    0  0.00000000000E+00  0.00000000000E+00  0.27211160511E+03  0.27211160511E+03  0.00000000000E+00 0. -1.
          1   -1    0    0  501    0 -0.00000000000E+00 -0.00000000000E+00 -0.12226989829E+04  0.12226989829E+04  0.00000000000E+00 0.  1.
          2    1    1    2  501    0 -0.31701610297E+02 -0.15902830701E+02 -0.11666279162E+02  0.37336231588E+02  0.00000000000E+00 0. -1.
          1    1    1    2  502    0  0.20282044873E+02  0.38228367455E+02 -0.11827959700E+04  0.11835873758E+04  0.00000000000E+00 0.  1.
         22    1    1    2    0    0  0.38148118887E+02 -0.13732770183E+02  0.24240538604E+03  0.24577273879E+03  0.00000000000E+00 0. -1.
         22    1    1    2    0    0 -0.26728553463E+02 -0.85927665702E+01  0.14694853491E+01  0.28114241849E+02  0.00000000000E+00 0. -1.
</event>
<event>
 6    1  0.3240171E-005  0.7892465E+02  0.7818608E-02  0.1367348E+00
          2   -1    0    0  502    0  0.00000000000E+00  0.00000000000E+00  0.38552597871E+02  0.38552597871E+02  0.00000000000E+00 0.  1.
          1   -1    0    0  501    0 -0.00000000000E+00 -0.00000000000E+00 -0.52777410871E+03  0.52777410871E+03  0.00000000000E+00 0. -1.
          2    1    1    2  501    0 -0.25657246329E+02 -0.98290158050E+01 -0.14808522982E+01  0.27515391409E+02  0.00000000000E+00 0.  1.
          1    1    1    2  502    0  0.28853002740E+02  0.59824896940E+02 -0.30987915349E+03  0.31691734542E+03  0.00000000000E+00 0. -1.
         22    1    1    2    0    0  0.42522853477E+02  0.79576838513E+01 -0.12164543710E+03  0.12910898562E+03  0.00000000000E+00 0. -1.
         22    1    1    2    0    0 -0.45718609889E+02 -0.57953564986E+02 -0.56216067950E+02  0.92784984132E+02  0.00000000000E+00 0.  1.
</event>
<event>
 6    1  0.3240171E-005  0.1961315E+03  0.7818608E-02  0.1243491E+00
          2   -1    0    0  502    0  0.00000000000E+00  0.00000000000E+00  0.32393968072E+03  0.32393968072E+03  0.00000000000E+00 0. -1.
          1   -1    0    0  501    0 -0.00000000000E+00 -0.00000000000E+00 -0.90410185913E+03  0.90410185913E+03  0.00000000000E+00 0.  1.
          2    1    1    2  501    0 -0.43307618398E+02  0.22285853775E+02  0.75060065105E+01  0.49280312737E+02  0.00000000000E+00 0. -1.
          1    1    1    2  502    0  0.18478435232E+02  0.80762386199E+02 -0.85938577594E+03  0.86337009879E+03  0.00000000000E+00 0.  1.
         22    1    1    2    0    0 -0.11978544219E+02  0.24494179663E+02  0.41938433264E+02  0.50022820229E+02  0.00000000000E+00 0. -1.
         22    1    1    2    0    0  0.36807727385E+02 -0.12754241964E+03  0.22977915776E+03  0.26536830810E+03  0.00000000000E+00 0. -1.
</event>
<event>
 6    1  0.3240171E-005  0.1105659E+03  0.7818608E-02  0.1282552E+00
          2   -1    0    0  502    0  0.00000000000E+00  0.00000000000E+00  0.13688759219E+03  0.13688759219E+03  0.00000000000E+00 0.  1.
          1   -1    0    0  501    0 -0.00000000000E+00 -0.00000000000E+00 -0.26443855365E+03  0.26443855365E+03  0.00000000000E+00 0.  1.
          2    1    1    2  501    0 -0.64468002489E+02  0.31873891804E+02 -0.13058198706E+03  0.14907623442E+03  0.00000000000E+00 0.  1.
          1    1    1    2  502    0  0.74249838276E+02  0.26564807655E+02  0.64253265552E+02  0.10172123487E+03  0.00000000000E+00 0.  1.
         22    1    1    2    0    0  0.39530731631E+02 -0.75223112505E+01  0.18123814028E+02  0.44133168307E+02  0.00000000000E+00 0. -1.
         22    1    1    2    0    0 -0.49312567418E+02 -0.50916388209E+02 -0.79346053979E+02  0.10639550825E+03  0.00000000000E+00 0.  1.
</event>
<event>
 6    1  0.3240171E-005  0.5367072E+02  0.7818608E-02  0.1428566E+00
          2   -1    0    0  502    0  0.00000000000E+00  0.00000000000E+00  0.58036151799E+02  0.58036151799E+02  0.00000000000E+00 0.  1.
          1   -1    0    0  501    0 -0.00000000000E+00 -0.00000000000E+00 -0.41963725685E+03  0.41963725685E+03  0.00000000000E+00 0. -1.
          2    1    1    2  501    0 -0.99049689753E+01 -0.34953512263E+02  0.17877992280E+02  0.40490480831E+02  0.00000000000E+00 0.  1.
          1    1    1    2  502    0 -0.22923284006E+02 -0.11408333253E+02 -0.24708451691E+03  0.24840770019E+03  0.00000000000E+00 0. -1.
         22    1    1    2    0    0 -0.34708237729E+01 -0.13856991396E+02  0.17867387103E+02  0.22875890149E+02  0.00000000000E+00 0.  1.
         22    1    1    2    0    0  0.36299076754E+02  0.60218836912E+02 -0.15026196752E+03  0.16589933748E+03  0.00000000000E+00 0. -1.
</event>
<event>
 6    1  0.3240171E-005  0.1299503E+03  0.7818608E-02  0.1260771E+00
          2   -1    0    0  502    0  0.00000000000E+00  0.00000000000E+00  0.35245212924E+03  0.35245212924E+03  0.00000000000E+00 0. -1.
          1   -1    0    0  501    0 -0.00000000000E+00 -0.00000000000E+00 -0.82754845036E+03  0.82754845036E+03  0.00000000000E+00 0.  1.
          2    1    1    2  501    0  0.12711819544E+03 -0.18050349860E+02  0.11882137030E+03  0.17493818560E+03  0.00000000000E+00 0. -1.
          1    1    1    2  502    0 -0.11048889782E+03  0.15165594427E+02 -0.77641484404E+03  0.78438370829E+03  0.00000000000E+00 0.  1.
         22    1    1    2    0    0 -0.47809965835E+02  0.46155970984E+02  0.12914289296E+03  0.14523791961E+03  0.00000000000E+00 0.  1.
         22    1    1    2    0    0  0.31180668224E+02 -0.43271215552E+02  0.53354259646E+02  0.75440766092E+02  0.00000000000E+00 0. -1.
</event>
<event>
 6    1  0.3240171E-005  0.2725581E+03  0.7818608E-02  0.1237662E+00
          2   -1    0    0  502    0  0.00000000000E+00  0.00000000000E+00  0.18174437039E+03  0.18174437039E+03  0.00000000000E+00 0. -1.
          1   -1    0    0  501    0 -0.00000000000E+00 -0.00000000000E+00 -0.64194921748E+03  0.64194921748E+03  0.00000000000E+00 0. -1.
          2    1    1    2  501    0  0.29000342544E+02 -0.11009621470E+02  0.14959576491E+02  0.34438649239E+02  0.00000000000E+00 0. -1.
          1    1    1    2  502    0 -0.26457777102E+03 -0.10079266876E+02 -0.44865806858E+03  0.52095782079E+03  0.00000000000E+00 0. -1.
         22    1    1    2    0    0  0.22579749014E+03  0.27015559111E+02 -0.58087413970E+02  0.23470938338E+03  0.00000000000E+00 0. -1.
         22    1    1    2    0    0  0.97799383388E+01 -0.59266707644E+01  0.31581058973E+02  0.33587734460E+02  0.00000000000E+00 0. -1.
</event>
<event>
 6    1  0.3240171E-005  0.7128675E+02  0.7818608E-02  0.1360813E+00
          2   -1    0    0  502    0  0.00000000000E+00  0.00000000000E+00  0.23428967608E+03  0.23428967608E+03  0.00000000000E+00 0.  1.
          1   -1    0    0  501    0 -0.00000000000E+00 -0.00000000000E+00 -0.18240237053E+04  0.18240237053E+04  0.00000000000E+00 0. -1.
          2    1    1    2  501    0 -0.40021860046E+02  0.43909367360E+02  0.36854413171E+01  0.59526164845E+02  0.00000000000E+00 0.  1.
          1    1    1    2  502    0 -0.10405588131E+02 -0.28890527585E+02 -0.17736685897E+04  0.17739343858E+04  0.00000000000E+00 0. -1.
         22    1    1    2    0    0  0.60101197969E+02 -0.25343517333E+02  0.19427384767E+03  0.20493114882E+03  0.00000000000E+00 0.  1.
         22    1    1    2    0    0 -0.96737497908E+01  0.10324677559E+02 -0.14024728413E+02  0.19921681876E+02  0.00000000000E+00 0.  1.
</event>
<event>
 6    1  0.3240171E-005  0.4871947E+03  0.7818608E-02  0.1112626E+00
          2   -1    0    0  502    0  0.00000000000E+00  0.00000000000E+00  0.65448202434E+03  0.65448202434E+03  0.00000000000E+00 0.  1.
          1   -1    0    0  501    0 -0.00000000000E+00 -0.00000000000E+00 -0.12247218138E+04  0.12247218138E+04  0.00000000000E+00 0. -1.
          2    1    1    2  501    0 -0.20645144376E+03  0.50981061905E+01  0.27227869719E+02  0.20830157514E+03  0.00000000000E+00 0.  1.
          1    1    1    2  502    0  0.10299740337E+02 -0.98558368330E+02 -0.11025074973E+04  0.11069519494E+04  0.00000000000E+00 0. -1.
         22    1    1    2    0    0  0.19415648617E+03  0.59152951939E+02  0.34511651959E+03  0.40037635412E+03  0.00000000000E+00 0.  1.
         22    1    1    2    0    0  0.19952172532E+01  0.34307310200E+02  0.15992331853E+03  0.16357395952E+03  0.00000000000E+00 0.  1.
</event>
<event>
 6    1  0.3240171E-005  0.1701824E+03  0.7818608E-02  0.1259098E+00
          2   -1    0    0  502    0  0.00000000000E+00  0.00000000000E+00  0.52625742488E+02  0.52625742488E+02  0.00000000000E+00 0.  1.
          1   -1    0    0  501    0 -0.00000000000E+00 -0.00000000000E+00 -0.14711557541E+04  0.14711557541E+04  0.00000000000E+00 0. -1.
          2    1    1    2  501    0 -0.33171078687E+02 -0.50523464878E+02 -0.13560435486E+03  0.14846373975E+03  0.00000000000E+00 0.  1.
          1    1    1    2  502    0 -0.61321876071E+01  0.37065418968E+02 -0.12336878834E+04  0.12342597954E+04  0.00000000000E+00 0. -1.
         22    1    1    2    0    0  0.79246595355E+01  0.36312307792E+02  0.33264676220E+02  0.49879079883E+02  0.00000000000E+00 0.  1.
         22    1    1    2    0    0  0.31378606758E+02 -0.22854261882E+02 -0.82502449633E+02  0.91178881567E+02  0.00000000000E+00 0.  1.
</event>
<event>
 6    1  0.3240171E-005  0.1090882E+03  0.7818608E-02  0.1291156E+00
          2   -1    0    0  502    0  0.00000000000E+00  0.00000000000E+00  0.41757510060E+03  0.41757510060E+03  0.00000000000E+00 0. -1.
          1   -1    0    0  501    0 -0.00000000000E+00 -0.00000000000E+00 -0.25682883691E+03  0.25682883691E+03  0.00000000000E+00 0.  1.
          2    1    1    2  501    0 -0.58621173540E+02  0.44310618650E+02  0.10364259047E+03  0.12704983067E+03  0.00000000000E+00 0. -1.
          1    1    1    2  502    0  0.33621078891E+02  0.28342421213E+02 -0.22567417115E+03  0.22991846666E+03  0.00000000000E+00 0.  1.
         22    1    1    2    0    0  0.46489693047E+02 -0.40638307819E+02  0.26976357526E+03  0.27674022143E+03  0.00000000000E+00 0. -1.
         22    1    1    2    0    0 -0.21489598398E+02 -0.32014732044E+02  0.13014269106E+02  0.40695418753E+02  0.00000000000E+00 0. -1.
</event>
<event>
 6    1  0.3240171E-005  0.2286589E+03  0.7818608E-02  0.1244027E+00
          2   -1    0    0  502    0  0.00000000000E+00  0.00000000000E+00  0.31497562080E+03  0.31497562080E+03  0.00000000000E+00 0.  1.
          1   -1    0    0  501    0 -0.00000000000E+00 -0.00000000000E+00 -0.77602412770E+03  0.77602412770E+03  0.00000000000E+00 0. -1.
          2    1    1    2  501    0  0.38979557304E+02  0.29512207781E+02  0.62079870805E-01  0.48891514086E+02  0.00000000000E+00 0.  1.
          1    1    1    2  502    0 -0.22217763075E+02 -0.18762501217E+03 -0.70293996513E+03  0.72788829416E+03  0.00000000000E+00 0. -1.
         22    1    1    2    0    0 -0.19658967240E+02  0.17488638347E+03  0.18691267068E+03  0.25672566794E+03  0.00000000000E+00 0.  1.
         22    1    1    2    0    0  0.28971730115E+01 -0.16773579079E+02  0.54916707683E+02  0.57494272317E+02  0.00000000000E+00 0.  1.
</event>
<event>
 6    1  0.3240171E-005  0.8289230E+02  0.7818608E-02  0.1339730E+00
          2   -1    0    0  502    0  0.00000000000E+00  0.00000000000E+00  0.22685419585E+03  0.22685419585E+03  0.00000000000E+00 0.  1.
          1   -1    0    0  501    0 -0.00000000000E+00 -0.00000000000E+00 -0.89230512286E+02  0.89230512286E+02  0.00000000000E+00 0.  1.
          2    1    1    2  501    0  0.17906858101E+02  0.11781405480E+02  0.19705948915E+02  0.29116687737E+02  0.00000000000E+00 0.  1.
          1    1    1    2  502    0 -0.63632418155E+02 -0.41248603709E+02 -0.34924919155E+02  0.83488214295E+02  0.00000000000E+00 0.  1.
         22    1    1    2    0    0  0.63270685535E+01  0.74283756777E+02  0.80981240223E+02  0.11007301933E+03  0.00000000000E+00 0.  1.
         22    1    1    2    0    0  0.39398491500E+02 -0.44816558548E+02  0.71861413577E+02  0.93406786766E+02  0.00000000000E+00 0.  1.
</event>
<event>
 6    1  0.3240171E-005  0.2940206E+03  0.7818608E-02  0.1196146E+00
          2   -1    0    0  502    0  0.00000000000E+00  0.00000000000E+00  0.30479395766E+03  0.30479395766E+03  0.00000000000E+00 0.  1.
          1   -1    0    0  501    0 -0.00000000000E+00 -0.00000000000E+00 -0.83728042865E+03  0.83728042865E+03  0.00000000000E+00 0. -1.
          2    1    1    2  501    0  0.31766603432E+02  0.32850769662E+02  0.14315332283E+01  0.45720230188E+02  0.00000000000E+00 0.  1.
          1    1    1    2  502    0 -0.28635694976E+02 -0.26950161736E+03 -0.72169389431E+03  0.77090414571E+03  0.00000000000E+00 0. -1.
         22    1    1    2    0    0 -0.24616023881E+02  0.24081943963E+03  0.18186958738E+03  0.30278127081E+03  0.00000000000E+00 0.  1.
         22    1    1    2    0    0  0.21485115425E+02 -0.41685919337E+01  0.59063027117E+01  0.22668739604E+02  0.00000000000E+00 0.  1.
</event>
<event>
 6    1  0.3240171E-005  0.4921970E+02  0.7818608E-02  0.1501119E+00
          2   -1    0    0  502    0  0.00000000000E+00  0.00000000000E+00  0.91867144780E+02  0.91867144780E+02  0.00000000000E+00 0. -1.
          1   -1    0    0  501    0 -0.00000000000E+00 -0.00000000000E+00 -0.32750351263E+03  0.32750351263E+03  0.00000000000E+00 0.  1.
          2    1    1    2  501    0  0.15880345977E+02  0.18831544247E+02 -0.10775094707E+03  0.11053089632E+03  0.00000000000E+00 0. -1.
          1    1    1    2  502    0 -0.37664184540E+02 -0.49037393578E+02 -0.16487164486E+03  0.17608496825E+03  0.00000000000E+00 0.  1.
         22    1    1    2    0    0  0.68591112913E+01  0.22636520284E+02  0.81677401335E+02  0.85033272000E+02  0.00000000000E+00 0. -1.
         22    1    1    2    0    0  0.14924727272E+02  0.75693290464E+01 -0.44691177254E+02  0.47721520834E+02  0.00000000000E+00 0.  1.
</event>
<event>
 6    1  0.3240171E-005  0.1292459E+03  0.7818608E-02  0.1259277E+00
          2   -1    0    0  502    0  0.00000000000E+00  0.00000000000E+00  0.18766435614E+03  0.18766435614E+03  0.00000000000E+00 0. -1.
          1   -1    0    0  501    0 -0.00000000000E+00 -0.00000000000E+00 -0.28124700541E+03  0.28124700541E+03  0.00000000000E+00 0.  1.
          2    1    1    2  501    0  0.57930926064E+02 -0.44739321110E+02  0.34028132635E+02  0.80718726815E+02  0.00000000000E+00 0. -1.
          1    1    1    2  502    0 -0.36140896475E+02  0.82429640119E+01 -0.22424496643E+03  0.22728817793E+03  0.00000000000E+00 0.  1.
         22    1    1    2    0    0  0.32301176010E+02  0.51638674705E+02  0.83264742863E+02  0.10316460682E+03  0.00000000000E+00 0.  1.
         22    1    1    2    0    0 -0.54091205599E+02 -0.15142317607E+02  0.13369441669E+02  0.57739849984E+02  0.00000000000E+00 0.  1.
</event>
<event>
 6    1  0.3240171E-005  0.1414254E+03  0.7818608E-02  0.1257554E+00
          2   -1    0    0  502    0  0.00000000000E+00  0.00000000000E+00  0.37567433942E+03  0.37567433942E+03  0.00000000000E+00 0.  1.
          1   -1    0    0  501    0 -0.00000000000E+00 -0.00000000000E+00 -0.11528795558E+03  0.11528795558E+03  0.00000000000E+00 0. -1.
          2    1    1    2  501    0 -0.23420517674E+02  0.29948698497E+02  0.26888308031E+02  0.46566364454E+02  0.00000000000E+00 0.  1.
          1    1    1    2  502    0  0.58316348588E+02 -0.12179206329E+03 -0.28876642179E+02  0.13808679754E+03  0.00000000000E+00 0. -1.
         22    1    1    2    0    0 -0.81576934704E+02  0.62900451930E+02  0.17696189482E+03  0.20476028753E+03  0.00000000000E+00 0.  1.
         22    1    1    2    0    0  0.46681103789E+02  0.28942912859E+02  0.85412823164E+02  0.10154884547E+03  0.00000000000E+00 0. -1.
</event>
<event>
 6    1  0.3240171E-005  0.1665648E+03  0.7818608E-02  0.1223314E+00
          2   -1    0    0  502    0  0.00000000000E+00  0.00000000000E+00  0.63006229375E+02  0.63006229375E+02  0.00000000000E+00 0. -1.
          1   -1    0    0  501    0 -0.00000000000E+00 -0.00000000000E+00 -0.14753294702E+04  0.14753294702E+04  0.00000000000E+00 0. -1.
          2    1    1    2  501    0  0.14854899741E+02  0.73713273820E+02 -0.22914420242E+03  0.24116670642E+03  0.00000000000E+00 0. -1.
          1    1    1    2  502    0 -0.66956762403E+02 -0.10219514314E+03 -0.11428513259E+04  0.11493633927E+04  0.00000000000E+00 0. -1.
         22    1    1    2    0    0  0.13354196207E+01  0.72767727453E+02 -0.33413271206E+02  0.80083532620E+02  0.00000000000E+00 0. -1.
         22    1    1    2    0    0  0.50766443042E+02 -0.44285858135E+02 -0.69144412451E+01  0.67722067804E+02  0.00000000000E+00 0. -1.
</event>
<event>
 6    1  0.3240171E-005  0.1586990E+03  0.7818608E-02  0.1227693E+00
          2   -1    0    0  502    0  0.00000000000E+00  0.00000000000E+00  0.43397077688E+03  0.43397077688E+03  0.00000000000E+00 0.  1.
          1   -1    0    0  501    0 -0.00000000000E+00 -0.00000000000E+00 -0.93853542434E+02  0.93853542434E+02  0.00000000000E+00 0.  1.
          2    1    1    2  501    0  0.11912192000E+03  0.74373221634E+02  0.81433415154E+02  0.16233548295E+03  0.00000000000E+00 0.  1.
          1    1    1    2  502    0 -0.10296680007E+03 -0.72351488447E+02  0.90750605424E+02  0.15515338276E+03  0.00000000000E+00 0.  1.
         22    1    1    2    0    0  0.53344623159E+02  0.13013520533E+02  0.62886384847E+02  0.83484716780E+02  0.00000000000E+00 0.  1.
         22    1    1    2    0    0 -0.69499743096E+02 -0.15035253720E+02  0.10504682902E+03  0.12685073682E+03  0.00000000000E+00 0.  1.
</event>
<event>
 6    1  0.3240171E-005  0.2257726E+03  0.7818608E-02  0.1220559E+00
          2   -1    0    0  502    0  0.00000000000E+00  0.00000000000E+00  0.66754647714E+02  0.66754647714E+02  0.00000000000E+00 0. -1.
          1   -1    0    0  501    0 -0.00000000000E+00 -0.00000000000E+00 -0.18325355770E+04  0.18325355770E+04  0.00000000000E+00 0. -1.
          2    1    1    2  501    0 -0.11519066888E+03 -0.14656071710E+03 -0.19702446127E+03  0.27123342776E+03  0.00000000000E+00 0. -1.
          1    1    1    2  502    0  0.11616995330E+03  0.14091756524E+03 -0.14216728253E+04  0.14333550992E+04  0.00000000000E+00 0. -1.
         22    1    1    2    0    0  0.23529480962E+02  0.16357836447E+02  0.13661179334E+02  0.31746544826E+02  0.00000000000E+00 0.  1.
         22    1    1    2    0    0 -0.24508765383E+02 -0.10714684587E+02 -0.16074482204E+03  0.16295515291E+03  0.00000000000E+00 0. -1.
</event>
<event>
 6    1  0.3240171E-005  0.7337566E+02  0.7818608E-02  0.1351990E+00
          2   -1    0    0  502    0  0.00000000000E+00  0.00000000000E+00  0.12607780154E+03  0.12607780154E+03  0.00000000000E+00 0.  1.
          1   -1    0    0  501    0 -0.00000000000E+00 -0.00000000000E+00 -0.70576859448E+03  0.70576859448E+03  0.00000000000E+00 0. -1.
          2    1    1    2  501    0 -0.17858582920E+02  0.38773804378E+02  0.18255094273E+02  0.46428281863E+02  0.00000000000E+00 0.  1.
          1    1    1    2  502    0  0.44562403676E+02 -0.38724315412E+02 -0.64393154122E+03  0.64663220629E+03  0.00000000000E+00 0. -1.
         22    1    1    2    0    0 -0.17885605146E+02  0.59978859565E+02 -0.11011828938E+00  0.62588901510E+02  0.00000000000E+00 0.  1.
         22    1    1    2    0    0 -0.88182156098E+01 -0.60028348532E+02  0.46095772299E+02  0.76197006357E+02  0.00000000000E+00 0.  1.
</event>
<event>
 6    1  0.3240171E-005  0.1635466E+03  0.7818608E-02  0.1225936E+00
          2   -1    0    0  502    0  0.00000000000E+00  0.00000000000E+00  0.33335574895E+03  0.33335574895E+03  0.00000000000E+00 0. -1.
          1   -1    0    0  501    0 -0.00000000000E+00 -0.00000000000E+00 -0.15436680536E+03  0.15436680536E+03  0.00000000000E+00 0. -1.
          2    1    1    2  501    0 -0.12280475916E+03  0.87134215474E+01  0.15171595046E+03  0.19538337240E+03  0.00000000000E+00 0. -1.
          1    1    1    2  502    0  0.14473445249E+03 -0.39749473314E+02 -0.14047181101E+02  0.15074947981E+03  0.00000000000E+00 0. -1.
         22    1    1    2    0    0  0.25426095345E+02  0.62402005399E+02 -0.60140575215E+01  0.67651056829E+02  0.00000000000E+00 0. -1.
         22    1    1    2    0    0 -0.47355788674E+02 -0.31365953632E+02  0.47334231752E+02  0.73938645266E+02  0.00000000000E+00 0. -1.
</event>
<event>
 6    1  0.3240171E-005  0.1148077E+03  0.7818608E-02  0.1321335E+00
          2   -1    0    0  502    0  0.00000000000E+00  0.00000000000E+00  0.13871355598E+03  0.13871355598E+03  0.00000000000E+00 0. -1.
          1   -1    0    0  501    0 -0.00000000000E+00 -0.00000000000E+00 -0.30884019624E+03  0.30884019624E+03  0.00000000000E+00 0. -1.
          2    1    1    2  501    0 -0.19502176615E+02 -0.62846648527E+02 -0.12935091508E+03  0.14512648054E+03  0.00000000000E+00 0. -1.
          1    1    1    2  502    0  0.45193589029E+01  0.11448401477E+03  0.60241768159E+02  0.12944529684E+03  0.00000000000E+00 0. -1.
         22    1    1    2    0    0 -0.20947743406E+02 -0.22898021951E+02  0.24344417344E+02  0.39443352024E+02  0.00000000000E+00 0.  1.
         22    1    1    2    0    0  0.35930561118E+02 -0.28739344293E+02 -0.12536191068E+03  0.13353862281E+03  0.00000000000E+00 0. -1.
</event>
<event>
 6    1  0.3240171E-005  0.5492416E+02  0.7818608E-02  0.1489635E+00
          2   -1    0    0  502    0  0.00000000000E+00  0.00000000000E+00  0.14302363434E+03  0.14302363434E+03  0.00000000000E+00 0.  1.
          1   -1    0    0  501    0 -0.00000000000E+00 -0.00000000000E+00 -0.15291612839E+03  0.15291612839E+03  0.00000000000E+00 0.  1.
          2    1    1    2  501    0 -0.44240847565E+01 -0.41995597638E+02 -0.85289970109E+02  0.95171328393E+02  0.00000000000E+00 0.  1.
          1    1    1    2  502    0  0.26565867926E+02  0.35863463313E+02 -0.10414307938E+02  0.45830024540E+02  0.00000000000E+00 0.  1.
         22    1    1    2    0    0 -0.10386598994E+02  0.17035183924E+02  0.11762938739E+03  0.11930947870E+03  0.00000000000E+00 0.  1.
         22    1    1    2    0    0 -0.11755184175E+02 -0.10903049599E+02 -0.31817603397E+02  0.35628931102E+02  0.00000000000E+00 0.  1.
</event>
<event>
 6    1  0.3240171E-005  0.2567659E+03  0.7818608E-02  0.1197677E+00
          2   -1    0    0  502    0  0.00000000000E+00  0.00000000000E+00  0.38001644856E+03  0.38001644856E+03  0.00000000000E+00 0. -1.
          1   -1    0    0  501    0 -0.00000000000E+00 -0.00000000000E+00 -0.31579983158E+03  0.31579983158E+03  0.00000000000E+00 0. -1.
          2    1    1    2  501    0  0.19301933881E+03 -0.64645221655E+01 -0.13843187292E+03  0.23761657905E+03  0.00000000000E+00 0. -1.
          1    1    1    2  502    0 -0.23530159537E+03 -0.74863092085E+02  0.17163019287E+03  0.30071289704E+03  0.00000000000E+00 0. -1.
         22    1    1    2    0    0  0.13154060719E+02  0.28930704809E+02  0.76105870574E+02  0.82474956987E+02  0.00000000000E+00 0. -1.
         22    1    1    2    0    0  0.29128195846E+02  0.52396909442E+02 -0.45087573538E+02  0.75011847063E+02  0.00000000000E+00 0.  1.
</event>
<event>
 6    1  0.3240171E-005  0.1817214E+03  0.7818608E-02  0.1215272E+00
          2   -1    0    0  502    0  0.00000000000E+00  0.00000000000E+00  0.16246550377E+04  0.16246550377E+04  0.00000000000E+00 0. -1.
          1   -1    0    0  501    0 -0.00000000000E+00 -0.00000000000E+00 -0.25865410298E+02  0.25865410298E+02  0.00000000000E+00 0. -1.
          2    1    1    2  501    0  0.98745759883E+02  0.21229181273E+02  0.35090301142E+03  0.36514973183E+03  0.00000000000E+00 0. -1.
          1    1    1    2  502    0 -0.15119824864E+03 -0.67588254072E+02  0.75965554395E+03  0.77749959996E+03  0.00000000000E+00 0. -1.
         22    1    1    2    0    0 -0.50184384231E+01  0.68066975418E+02  0.16013964516E+03  0.17407757989E+03  0.00000000000E+00 0.  1.
         22    1    1    2    0    0  0.57470927177E+02 -0.21707902619E+02  0.32809142691E+03  0.33379353637E+03  0.00000000000E+00 0. -1.
</event>
<event>
 6    1  0.3240171E-005  0.4955697E+02  0.7818608E-02  0.1552642E+00
          2   -1    0    0  502    0  0.00000000000E+00  0.00000000000E+00  0.71486342554E+02  0.71486342554E+02  0.00000000000E+00 0. -1.
          1   -1    0    0  501    0 -0.00000000000E+00 -0.00000000000E+00 -0.24627849468E+03  0.24627849468E+03  0.00000000000E+00 0. -1.
          2    1    1    2  501    0 -0.61937261015E+01 -0.20250811604E+02 -0.25107662980E+02  0.32845887931E+02  0.00000000000E+00 0. -1.
          1    1    1    2  502    0  0.25821681747E+02  0.14257829268E+02 -0.15274340928E+03  0.15556540111E+03  0.00000000000E+00 0. -1.
         22    1    1    2    0    0 -0.48810533068E+01 -0.10640421948E+02  0.63699884491E+02  0.64766646855E+02  0.00000000000E+00 0. -1.
         22    1    1    2    0    0 -0.14746902339E+02  0.16633404284E+02 -0.60640964358E+02  0.64586901342E+02  0.00000000000E+00 0.  1.
</event>
<event>
 6    1  0.3240171E-005  0.2364853E+03  0.7818608E-02  0.1150227E+00
          2   -1    0    0  502    0  0.00000000000E+00  0.00000000000E+00  0.33440217622E+03  0.33440217622E+03  0.00000000000E+00 0. -1.
          1   -1    0    0  501    0 -0.00000000000E+00 -0.00000000000E+00 -0.16612926600E+04  0.16612926600E+04  0.00000000000E+00 0. -1.
          2    1    1    2  501    0  0.21132004225E+02 -0.14103480809E+03 -0.23997268841E+02  0.14461413350E+03  0.00000000000E+00 0. -1.
          1    1    1    2  502    0  0.72305710551E+02  0.12336248064E+03 -0.15506005305E+04  0.15571796373E+04  0.00000000000E+00 0. -1.
         22    1    1    2    0    0  0.25368044637E+02  0.40272853487E+01  0.10310151735E+03  0.10625290394E+03  0.00000000000E+00 0. -1.
         22    1    1    2    0    0 -0.11880575941E+03  0.13645042101E+02  0.14460579824E+03  0.18764816153E+03  0.00000000000E+00 0. -1.
</event>
<event>
 6    1  0.3240171E-005  0.1197916E+03  0.7818608E-02  0.1258593E+00
          2   -1    0    0  502    0  0.00000000000E+00  0.00000000000E+00  0.36517124524E+02  0.36517124524E+02  0.00000000000E+00 0.  1.
          1   -1    0    0  501    0 -0.00000000000E+00 -0.00000000000E+00 -0.98289871514E+03  0.98289871514E+03  0.00000000000E+00 0.  1.
          2    1    1    2  501    0 -0.81489495619E+02 -0.46162145530E+02 -0.13595736024E+03  0.16509356553E+03  0.00000000000E+00 0.  1.
          1    1    1    2  502    0  0.12505046847E+03  0.39689542719E+02 -0.34380866024E+03  0.36799086174E+03  0.00000000000E+00 0.  1.
         22    1    1    2    0    0  0.42787783746E+02 -0.13138366574E+02 -0.10720237671E+03  0.11617125586E+03  0.00000000000E+00 0. -1.
         22    1    1    2    0    0 -0.86348756593E+02  0.19610969385E+02 -0.35941319342E+03  0.37016015654E+03  0.00000000000E+00 0.  1.
</event>
<event>
 6    1  0.3240171E-005  0.1639872E+03  0.7818608E-02  0.1191303E+00
          2   -1    0    0  502    0  0.00000000000E+00  0.00000000000E+00  0.14389259002E+04  0.14389259002E+04  0.00000000000E+00 0. -1.
          1   -1    0    0  501    0 -0.00000000000E+00 -0.00000000000E+00 -0.61201574697E+03  0.61201574697E+03  0.00000000000E+00 0. -1.
          2    1    1    2  501    0  0.15230437949E+03 -0.98081705036E+02  0.64489178867E+03  0.66985227025E+03  0.00000000000E+00 0. -1.
          1    1    1    2  502    0 -0.64811352548E+02  0.83027769039E+02 -0.58720493923E+03  0.59657670295E+03  0.00000000000E+00 0. -1.
         22    1    1    2    0    0  0.31415404552E+02  0.15759222545E+02  0.18571853383E+03  0.18901495853E+03  0.00000000000E+00 0. -1.
         22    1    1    2    0    0 -0.11890843149E+03 -0.70528654784E+00  0.58350477001E+03  0.59549771548E+03  0.00000000000E+00 0. -1.
</event>
<event>
 6    1  0.3240171E-005  0.1119641E+03  0.7818608E-02  0.1288141E+00
          2   -1    0    0  502    0  0.00000000000E+00  0.00000000000E+00  0.16134441116E+03  0.16134441116E+03  0.00000000000E+00 0.  1.
          1   -1    0    0  501    0 -0.00000000000E+00 -0.00000000000E+00 -0.27198323178E+03  0.27198323178E+03  0.00000000000E+00 0.  1.
          2    1    1    2  501    0 -0.11482353539E+02 -0.28026823165E+02 -0.12371969100E+02  0.32717164898E+02  0.00000000000E+00 0.  1.
          1    1    1    2  502    0 -0.17871723854E+02  0.36291753412E+02 -0.21861162652E+03  0.22232303778E+03  0.00000000000E+00 0.  1.
         22    1    1    2    0    0  0.19384002742E+02  0.43967621947E+02  0.14837505215E+01  0.48073827158E+02  0.00000000000E+00 0.  1.
         22    1    1    2    0    0  0.99700746509E+01 -0.52232552194E+02  0.11886102448E+03  0.13021361310E+03  0.00000000000E+00 0.  1.
</event>
<event>
 6    1  0.3240171E-005  0.1338377E+03  0.7818608E-02  0.1282476E+00
          2   -1    0    0  502    0  0.00000000000E+00  0.00000000000E+00  0.41542452751E+03  0.41542452751E+03  0.00000000000E+00 0. -1.
          1   -1    0    0  501    0 -0.00000000000E+00 -0.00000000000E+00 -0.31473263617E+02  0.31473263617E+02  0.00000000000E+00 0.  1.
          2    1    1    2  501    0  0.50923169897E+02 -0.73360919805E+01  0.40948805835E+02  0.65755548642E+02  0.00000000000E+00 0. -1.
          1    1    1    2  502    0 -0.10345716547E+02 -0.24798284909E+02  0.49033221863E+02  0.55912839595E+02  0.00000000000E+00 0.  1.
         22    1    1    2    0    0  0.13182948709E+02 -0.36126337938E+02  0.16703527678E+03  0.17140503528E+03  0.00000000000E+00 0.  1.
         22    1    1    2    0    0 -0.53760402059E+02  0.68260714828E+02  0.12693395941E+03  0.15382436761E+03  0.00000000000E+00 0.  1.
</event>
<event>
 6    1  0.3240171E-005  0.8449100E+02  0.7818608E-02  0.1322681E+00
          2   -1    0    0  502    0  0.00000000000E+00  0.00000000000E+00  0.20524592368E+02  0.20524592368E+02  0.00000000000E+00 0. -1.
          1   -1    0    0  501    0 -0.00000000000E+00 -0.00000000000E+00 -0.23571527013E+04  0.23571527013E+04  0.00000000000E+00 0. -1.
          2    1    1    2  501    0 -0.17358825309E+02  0.26273546297E+02 -0.31709406387E+02  0.44689087086E+02  0.00000000000E+00 0. -1.
          1    1    1    2  502    0  0.43058021568E+02  0.77514473414E+00 -0.20162118124E+04  0.20166716804E+04  0.00000000000E+00 0. -1.
         22    1    1    2    0    0 -0.76853220611E+01 -0.75439279249E+02 -0.14529905961E+03  0.16389620420E+03  0.00000000000E+00 0. -1.
         22    1    1    2    0    0 -0.18013874198E+02  0.48390588217E+02 -0.14340783048E+03  0.15242032192E+03  0.00000000000E+00 0. -1.
</event>
<event>
 6    1  0.3240171E-005  0.1032236E+03  0.7818608E-02  0.1284965E+00
          2   -1    0    0  502    0  0.00000000000E+00  0.00000000000E+00  0.23621611311E+03  0.23621611311E+03  0.00000000000E+00 0. -1.
          1   -1    0    0  501    0 -0.00000000000E+00 -0.00000000000E+00 -0.36631580817E+03  0.36631580817E+03  0.00000000000E+00 0.  1.
          2    1    1    2  501    0 -0.48449328570E+02  0.53286243375E+01  0.64225657350E+02  0.80626712312E+02  0.00000000000E+00 0. -1.
          1    1    1    2  502    0 -0.23905175489E+02 -0.22258865478E+02 -0.32593443035E+03  0.32756704260E+03  0.00000000000E+00 0.  1.
         22    1    1    2    0    0 -0.16384626656E+02  0.30713225303E+02 -0.24032829895E+00  0.34811147020E+02  0.00000000000E+00 0.  1.
         22    1    1    2    0    0  0.88739130715E+02 -0.13782984162E+02  0.13184940624E+03  0.15952701934E+03  0.00000000000E+00 0.  1.
</event>
<event>
 6    1  0.3240171E-005  0.3466241E+03  0.7818608E-02  0.1174374E+00
          2   -1    0    0  502    0  0.00000000000E+00  0.00000000000E+00  0.13249032726E+03  0.13249032726E+03  0.00000000000E+00 0.  1.
          1   -1    0    0  501    0 -0.00000000000E+00 -0.00000000000E+00 -0.56688282953E+03  0.56688282953E+03  0.00000000000E+00 0.  1.
          2    1    1    2  501    0  0.54142880624E+02 -0.12239935692E+03 -0.23408788535E+03  0.26964827491E+03  0.00000000000E+00 0.  1.
          1    1    1    2  502    0 -0.15519458758E+03  0.19910543359E+02 -0.18341910930E+03  0.24108994050E+03  0.00000000000E+00 0.  1.
         22    1    1    2    0    0  0.11979586776E+03  0.11341265676E+03 -0.21774303481E+02  0.16639591623E+03  0.00000000000E+00 0.  1.
         22    1    1    2    0    0 -0.18744160801E+02 -0.10923843196E+02  0.48887958602E+01  0.22239025142E+02  0.00000000000E+00 0. -1.
</event>
<event>
 6    1  0.3240171E-005  0.1662326E+03  0.7818608E-02  0.1186323E+00
          2   -1    0    0  502    0  0.00000000000E+00  0.00000000000E+00  0.16189956700E+03  0.16189956700E+03  0.00000000000E+00 0.  1.
          1   -1    0    0  501    0 -0.00000000000E+00 -0.00000000000E+00 -0.31426429286E+03  0.31426429286E+03  0.00000000000E+00 0.  1.
          2    1    1    2  501    0 -0.11433889849E+03  0.99077919496E+02 -0.13265402874E+03  0.20121359095E+03  0.00000000000E+00 0.  1.
          1    1    1    2  502    0  0.40718063741E+02 -0.97008563421E+01 -0.83061433799E+02  0.93012198734E+02  0.00000000000E+00 0.  1.
         22    1    1    2    0    0 -0.20533590608E+02  0.18182240018E+02  0.71857396286E+01  0.28352372905E+02  0.00000000000E+00 0. -1.
         22    1    1    2    0    0  0.94154425360E+02 -0.10755930317E+03  0.56164997052E+02  0.15358569728E+03  0.00000000000E+00 0.  1.
</event>
<event>
 6    1  0.3240171E-005  0.1824374E+03  0.7818608E-02  0.1215131E+00
          2   -1    0    0  502    0  0.00000000000E+00  0.00000000000E+00  0.22360289431E+03  0.22360289431E+03  0.00000000000E+00 0. -1.
          1   -1    0    0  501    0 -0.00000000000E+00 -0.00000000000E+00 -0.76085372624E+03  0.76085372624E+03  0.00000000000E+00 0. -1.
          2    1    1    2  501    0 -0.72404613375E+01 -0.34697896544E+02 -0.49814357320E+02  0.61137864701E+02  0.00000000000E+00 0. -1.
          1    1    1    2  502    0  0.14118540750E+02  0.22010735820E+02 -0.68734842172E+03  0.68784566476E+03  0.00000000000E+00 0. -1.
         22    1    1    2    0    0  0.56390004351E+02  0.14072836970E+02  0.70119156586E+02  0.91074548868E+02  0.00000000000E+00 0.  1.
         22    1    1    2    0    0 -0.63268083764E+02 -0.13856762460E+01  0.12979279053E+03  0.14439854222E+03  0.00000000000E+00 0. -1.
</event>
<event>
 6    1  0.3240171E-005  0.1141128E+03  0.7818608E-02  0.1259583E+00
          2   -1    0    0  502    0  0.00000000000E+00  0.00000000000E+00  0.37044269765E+02  0.37044269765E+02  0.00000000000E+00 0.  1.
          1   -1    0    0  501    0 -0.00000000000E+00 -0.00000000000E+00 -0.98767532800E+03  0.98767532800E+03  0.00000000000E+00 0.  1.
          2    1    1    2  501    0 -0.37674722129E+02 -0.63735133755E+02 -0.28343352138E+03  0.29294387347E+03  0.00000000000E+00 0.  1.
          1    1    1    2  502    0  0.11270050948E+03 -0.17897531505E+02 -0.15466409924E+03  0.19220486483E+03  0.00000000000E+00 0.  1.
         22    1    1    2    0    0 -0.80891089363E+02  0.10955642132E+03 -0.46065619600E+03  0.48036455812E+03  0.00000000000E+00 0.  1.
         22    1    1    2    0    0  0.58653020125E+01 -0.27923756063E+02 -0.51877241621E+02  0.59206301341E+02  0.00000000000E+00 0.  1.
</event>
<event>
 6    1  0.3240171E-005  0.1450926E+03  0.7818608E-02  0.1234888E+00
          2   -1    0    0  502    0  0.00000000000E+00  0.00000000000E+00  0.72007491789E+03  0.72007491789E+03  0.00000000000E+00 0. -1.
          1   -1    0    0  501    0 -0.00000000000E+00 -0.00000000000E+00 -0.95912533207E+02  0.95912533207E+02  0.00000000000E+00 0. -1.
          2    1    1    2  501    0 -0.26508878184E+02 -0.29840068975E+02 -0.43048450490E+02  0.58705361157E+02  0.00000000000E+00 0. -1.
          1    1    1    2  502    0  0.12395321311E+03  0.48434476291E+02  0.52954268928E+03  0.54600893519E+03  0.00000000000E+00 0. -1.
         22    1    1    2    0    0 -0.63477249136E+02  0.49061296673E+02  0.95107019770E+02  0.12442554882E+03  0.00000000000E+00 0.  1.
         22    1    1    2    0    0 -0.33967085793E+02 -0.67655703989E+02  0.42561126121E+02  0.86847605933E+02  0.00000000000E+00 0. -1.
</event>
<event>
 6    1  0.3240171E-005  0.1526840E+03  0.7818608E-02  0.1248486E+00
          2   -1    0    0  502    0  0.00000000000E+00  0.00000000000E+00  0.88829847053E+03  0.88829847053E+03  0.00000000000E+00 0. -1.
          1   -1    0    0  501    0 -0.00000000000E+00 -0.00000000000E+00 -0.56947406243E+02  0.56947406243E+02  0.00000000000E+00 0.  1.
          2    1    1    2  501    0  0.70370644048E+02  0.91357382380E+02  0.31225329537E+03  0.33286681920E+03  0.00000000000E+00 0. -1.
          1    1    1    2  502    0 -0.78209432170E+02 -0.74753893834E+02  0.35788229928E+02  0.11395462836E+03  0.00000000000E+00 0.  1.
         22    1    1    2    0    0 -0.51853588488E+02  0.65949915875E+01  0.29306131473E+03  0.29768645038E+03  0.00000000000E+00 0.  1.
         22    1    1    2    0    0  0.59692376610E+02 -0.23198480134E+02  0.19024822427E+03  0.20073797883E+03  0.00000000000E+00 0.  1.
</event>
<event>
 6    1  0.3240171E-005  0.4114737E+03  0.7818608E-02  0.1162329E+00
          2   -1    0    0  502    0  0.00000000000E+00  0.00000000000E+00  0.30758582479E+03  0.30758582479E+03  0.00000000000E+00 0.  1.
          1   -1    0    0  501    0 -0.00000000000E+00 -0.00000000000E+00 -0.58785690250E+03  0.58785690250E+03  0.00000000000E+00 0.  1.
          2    1    1    2  501    0 -0.14489198158E+03 -0.18691017144E+03 -0.19874299044E+03  0.30891402487E+03  0.00000000000E+00 0.  1.
          1    1    1    2  502    0  0.25811377377E+03  0.28487850032E+03 -0.72610481954E+02  0.39121702704E+03  0.00000000000E+00 0.  1.
         22    1    1    2    0    0  0.16927394531E+02  0.24017694363E+01  0.22215530064E+02  0.28032747958E+02  0.00000000000E+00 0. -1.
         22    1    1    2    0    0 -0.13014918672E+03 -0.10037009832E+03 -0.31133135385E+02  0.16727892742E+03  0.00000000000E+00 0.  1.
</event>
<event>
 6    1  0.3240171E-005  0.8236050E+02  0.7818608E-02  0.1340134E+00
          2   -1    0    0  502    0  0.00000000000E+00  0.00000000000E+00  0.26870953763E+03  0.26870953763E+03  0.00000000000E+00 0.  1.
          1   -1    0    0  501    0 -0.00000000000E+00 -0.00000000000E+00 -0.66192376988E+03  0.66192376988E+03  0.00000000000E+00 0. -1.
          2    1    1    2  501    0 -0.67412537645E+02 -0.60807629799E+01  0.16753758492E+03  0.18069385234E+03  0.00000000000E+00 0.  1.
          1    1    1    2  502    0  0.56704384128E+02 -0.54108276161E+02 -0.60315645102E+03  0.60822758663E+03  0.00000000000E+00 0. -1.
         22    1    1    2    0    0 -0.13241922275E+02  0.47281681626E+01  0.72757779411E+02  0.74103971179E+02  0.00000000000E+00 0. -1.
         22    1    1    2    0    0  0.23950075792E+02  0.55460870978E+02 -0.30353145566E+02  0.67607897363E+02  0.00000000000E+00 0.  1.
</event>
<event>
 6    1  0.3240171E-005  0.6540441E+02  0.7818608E-02  0.1466647E+00
          2   -1    0    0  502    0  0.00000000000E+00  0.00000000000E+00  0.15771335419E+02  0.15771335419E+02  0.00000000000E+00 0.  1.
          1   -1    0    0  501    0 -0.00000000000E+00 -0.00000000000E+00 -0.15047394319E+04  0.15047394319E+04  0.00000000000E+00 0. -1.
          2    1    1    2  501    0  0.26283834542E+02 -0.20329556525E+01 -0.24865429094E+03  0.25004785396E+03  0.00000000000E+00 0.  1.
          1    1    1    2  502    0 -0.51055072357E+02 -0.15783404344E+02 -0.98488582001E+03  0.98633453489E+03  0.00000000000E+00 0. -1.
         22    1    1    2    0    0  0.31410689452E+02  0.32771911561E+02 -0.26243215498E+03  0.26632924279E+03  0.00000000000E+00 0.  1.
         22    1    1    2    0    0 -0.66394516373E+01 -0.14955551565E+02  0.70041694564E+01  0.17799135665E+02  0.00000000000E+00 0.  1.
</event>
<event>
 6    1  0.3240171E-005  0.3206014E+02  0.7818608E-02  0.1581677E+00
          2   -1    0    0  502    0  0.00000000000E+00  0.00000000000E+00  0.11037399001E+03  0.11037399001E+03  0.00000000000E+00 0.  1.
          1   -1    0    0  501    0 -0.00000000000E+00 -0.00000000000E+00 -0.21482447563E+03  0.21482447563E+03  0.00000000000E+00 0.  1.
          2    1    1    2  501    0 -0.10003212517E+02  0.18772745169E+02 -0.42520171805E+02  0.47544139830E+02  0.00000000000E+00 0.  1.
          1    1    1    2  502    0  0.17054229413E+02 -0.11796260620E+02 -0.12977158280E+03  0.13141789151E+03  0.00000000000E+00 0.  1.
         22    1    1    2    0    0  0.97528315726E+01 -0.27943855663E+02  0.10002411637E+03  0.10431107635E+03  0.00000000000E+00 0.  1.
         22    1    1    2    0    0 -0.16803848468E+02  0.20967371114E+02 -0.32182847378E+02  0.41925357961E+02  0.00000000000E+00 0. -1.
</event>
<event>
 6    1  0.3240171E-005  0.1363191E+03  0.7818608E-02  0.1319647E+00
          2   -1    0    0  502    0  0.00000000000E+00  0.00000000000E+00  0.34623838586E+02  0.34623838586E+02  0.00000000000E+00 0. -1.
          1   -1    0    0  501    0 -0.00000000000E+00 -0.00000000000E+00 -0.12458267182E+04  0.12458267182E+04  0.00000000000E+00 0. -1.
          2    1    1    2  501    0  0.11333841780E+02 -0.48836393189E+02 -0.55095964935E+03  0.55323592118E+03  0.00000000000E+00 0. -1.
          1    1    1    2  502    0 -0.21361291718E+02  0.14133103650E+03 -0.24025730393E+03  0.27956097502E+03  0.00000000000E+00 0. -1.
         22    1    1    2    0    0 -0.62577070234E+01 -0.18052616600E+02  0.16588340452E+01  0.19178310501E+02  0.00000000000E+00 0. -1.
         22    1    1    2    0    0  0.16285156962E+02 -0.74442026712E+02 -0.42164476042E+03  0.42847535013E+03  0.00000000000E+00 0. -1.
</event>
<event>
 6    1  0.3240171E-005  0.6755818E+02  0.7818608E-02  0.1377331E+00
          2   -1    0    0  502    0  0.00000000000E+00  0.00000000000E+00  0.17105176527E+03  0.17105176527E+03  0.00000000000E+00 0. -1.
          1   -1    0    0  501    0 -0.00000000000E+00 -0.00000000000E+00 -0.76148535967E+02  0.76148535967E+02  0.00000000000E+00 0. -1.
          2    1    1    2  501    0 -0.52089981813E+01 -0.29313792122E+02 -0.30721543484E+02  0.42781366326E+02  0.00000000000E+00 0. -1.
          1    1    1    2  502    0 -0.56720071098E-01  0.31219841812E+02  0.11481292491E+01  0.31240997754E+02  0.00000000000E+00 0. -1.
         22    1    1    2    0    0 -0.33828290132E+02  0.22087356337E+02 -0.12575319158E+00  0.40400746739E+02  0.00000000000E+00 0. -1.
         22    1    1    2    0    0  0.39094008384E+02 -0.23993406027E+02  0.12460239674E+03  0.13277719042E+03  0.00000000000E+00 0. -1.
</event>
<event>
 6    1  0.3240171E-005  0.6044400E+02  0.7818608E-02  0.1410403E+00
          2   -1    0    0  502    0  0.00000000000E+00  0.00000000000E+00  0.19907608737E+03  0.19907608737E+03  0.00000000000E+00 0. -1.
          1   -1    0    0  501    0 -0.00000000000E+00 -0.00000000000E+00 -0.15822653917E+03  0.15822653917E+03  0.00000000000E+00 0. -1.
          2    1    1    2  501    0 -0.14888122577E+02  0.62512702985E+02 -0.22857998168E+02  0.68205441928E+02  0.00000000000E+00 0. -1.
          1    1    1    2  502    0  0.26238754251E+01 -0.25690994753E+02 -0.85527734919E+02  0.89341509804E+02  0.00000000000E+00 0. -1.
         22    1    1    2    0    0  0.80895164007E+01  0.99770800348E+01 -0.20193746285E+02  0.23932609357E+02  0.00000000000E+00 0. -1.
         22    1    1    2    0    0  0.41747307514E+01 -0.46798788266E+02  0.16942902757E+03  0.17582306545E+03  0.00000000000E+00 0. -1.
</event>
<event>
 6    1  0.3240171E-005  0.9873386E+02  0.7818608E-02  0.1375426E+00
          2   -1    0    0  502    0  0.00000000000E+00  0.00000000000E+00  0.91336634723E+02  0.91336634723E+02  0.00000000000E+00 0. -1.
          1   -1    0    0  501    0 -0.00000000000E+00 -0.00000000000E+00 -0.41629137457E+03  0.41629137457E+03  0.00000000000E+00 0. -1.
          2    1    1    2  501    0 -0.15027621990E+02 -0.25962681642E+02 -0.37892896392E+02  0.48329720232E+02  0.00000000000E+00 0. -1.
          1    1    1    2  502    0 -0.37712718832E+02  0.94356715427E+01 -0.31575774640E+03  0.31814184804E+03  0.00000000000E+00 0. -1.
         22    1    1    2    0    0  0.57011659609E+02  0.35385733023E+02 -0.34229660636E+02  0.75326948035E+02  0.00000000000E+00 0. -1.
         22    1    1    2    0    0 -0.42713187866E+01 -0.18858722924E+02  0.62925563585E+02  0.65829492988E+02  0.00000000000E+00 0. -1.
</event>
<event>
 6    1  0.3240171E-005  0.7136603E+02  0.7818608E-02  0.1361794E+00
          2   -1    0    0  502    0  0.00000000000E+00  0.00000000000E+00  0.48240087871E+02  0.48240087871E+02  0.00000000000E+00 0. -1.
          1   -1    0    0  501    0 -0.00000000000E+00 -0.00000000000E+00 -0.27407017152E+04  0.27407017152E+04  0.00000000000E+00 0. -1.
          2    1    1    2  501    0  0.57603491676E+01 -0.82734469164E+02 -0.27168841720E+03  0.28406472863E+03  0.00000000000E+00 0. -1.
          1    1    1    2  502    0  0.17383805636E+02  0.53996781386E+02 -0.23638153609E+04  0.23644959102E+04  0.00000000000E+00 0. -1.
         22    1    1    2    0    0  0.17252426269E+02 -0.18544519570E+02 -0.72062283297E+02  0.76384017256E+02  0.00000000000E+00 0.  1.
         22    1    1    2    0    0 -0.40396581072E+02  0.47282207349E+02  0.15104434037E+02  0.63997146981E+02  0.00000000000E+00 0. -1.
</event>
<event>
 6    1  0.3240171E-005  0.7392725E+02  0.7818608E-02  0.1355330E+00
          2   -1    0    0  502    0  0.00000000000E+00  0.00000000000E+00  0.32995774830E+03  0.32995774830E+03  0.00000000000E+00 0. -1.
          1   -1    0    0  501    0 -0.00000000000E+00 -0.00000000000E+00 -0.74720829458E+02  0.74720829458E+02  0.00000000000E+00 0. -1.
          2    1    1    2  501    0 -0.84307780499E+01 -0.21776779816E+02  0.75945281064E+02  0.79454338293E+02  0.00000000000E+00 0. -1.
          1    1    1    2  502    0  0.18829159528E+02  0.30162068155E+02 -0.51003519385E+02  0.62174324231E+02  0.00000000000E+00 0. -1.
         22    1    1    2    0    0 -0.89664113716E+01  0.55747863953E+02  0.15000522442E+03  0.16028034259E+03  0.00000000000E+00 0. -1.
         22    1    1    2    0    0 -0.14319701064E+01 -0.64133152292E+02  0.80289932742E+02  0.10276957264E+03  0.00000000000E+00 0. -1.
</event>
<event>
 6    1  0.3240171E-005  0.1927099E+03  0.7818608E-02  0.1223560E+00
          2   -1    0    0  502    0  0.00000000000E+00  0.00000000000E+00  0.75990525712E+03  0.75990525712E+03  0.00000000000E+00 0.  1.
          1   -1    0    0  501    0 -0.00000000000E+00 -0.00000000000E+00 -0.27910510841E+02  0.27910510841E+02  0.00000000000E+00 0.  1.
          2    1    1    2  501    0  0.73702298168E+02 -0.41498951265E+02  0.14978978431E+03  0.17202084523E+03  0.00000000000E+00 0.  1.
          1    1    1    2  502    0 -0.14482284736E+02  0.32988405318E+02  0.32159633871E+02  0.48292996463E+02  0.00000000000E+00 0.  1.
         22    1    1    2    0    0  0.31684356196E+02  0.25649658277E+02  0.98932884977E+02  0.10700242580E+03  0.00000000000E+00 0. -1.
         22    1    1    2    0    0 -0.90904369628E+02 -0.17139112331E+02  0.45111244311E+03  0.46049950046E+03  0.00000000000E+00 0.  1.
</event>
<event>
 6    1  0.3240171E-005  0.2240465E+03  0.7818608E-02  0.1206666E+00
          2   -1    0    0  502    0  0.00000000000E+00  0.00000000000E+00  0.13957075533E+03  0.13957075533E+03  0.00000000000E+00 0. -1.
          1   -1    0    0  501    0 -0.00000000000E+00 -0.00000000000E+00 -0.24520575434E+04  0.24520575434E+04  0.00000000000E+00 0.  1.
          2    1    1    2  501    0  0.74745246167E+02 -0.10295472155E+03 -0.24141741100E+03  0.27288989143E+03  0.00000000000E+00 0. -1.
          1    1    1    2  502    0 -0.13488479108E+03  0.15958057872E+03 -0.21413259909E+04  0.21514964251E+04  0.00000000000E+00 0.  1.
         22    1    1    2    0    0  0.87313778295E+01 -0.38400708054E+02  0.98312181329E+02  0.10590626202E+03  0.00000000000E+00 0. -1.
         22    1    1    2    0    0  0.51408167088E+02 -0.18225149120E+02 -0.28055567564E+02  0.61335720222E+02  0.00000000000E+00 0. -1.
</event>
<event>
 6    1  0.3240171E-005  0.1622889E+03  0.7818608E-02  0.1239040E+00
          2   -1    0    0  502    0  0.00000000000E+00  0.00000000000E+00  0.27668170863E+03  0.27668170863E+03  0.00000000000E+00 0.  1.
          1   -1    0    0  501    0 -0.00000000000E+00 -0.00000000000E+00 -0.11142464808E+04  0.11142464808E+04  0.00000000000E+00 0. -1.
          2    1    1    2  501    0 -0.66989667640E+02 -0.42014303019E+01  0.49330561954E+02  0.83299291292E+02  0.00000000000E+00 0.  1.
          1    1    1    2  502    0 -0.58806509513E+02  0.43670751737E+01 -0.10600391461E+04  0.10616780436E+04  0.00000000000E+00 0. -1.
         22    1    1    2    0    0  0.70660932767E+02  0.46730937757E+02  0.14570404884E+03  0.16854203574E+03  0.00000000000E+00 0.  1.
         22    1    1    2    0    0  0.55135244386E+02 -0.46896582628E+02  0.27439763131E+02  0.77408818854E+02  0.00000000000E+00 0.  1.
</event>
<event>
 6    1  0.3240171E-005  0.1064579E+03  0.7818608E-02  0.1271696E+00
          2   -1    0    0  502    0  0.00000000000E+00  0.00000000000E+00  0.52286162825E+03  0.52286162825E+03  0.00000000000E+00 0.  1.
          1   -1    0    0  501    0 -0.00000000000E+00 -0.00000000000E+00 -0.35811990646E+03  0.35811990646E+03  0.00000000000E+00 0. -1.
          2    1    1    2  501    0  0.38154423423E+02 -0.55776923741E+02  0.16786150659E+03  0.18095389094E+03  0.00000000000E+00 0.  1.
          1    1    1    2  502    0  0.19638720820E+02 -0.15176311931E+02 -0.33448446423E+03  0.33540401997E+03  0.00000000000E+00 0. -1.
         22    1    1    2    0    0 -0.27075996534E+01 -0.27245325960E+02  0.13949946256E+03  0.14216096137E+03  0.00000000000E+00 0.  1.
         22    1    1    2    0    0 -0.55085544590E+02  0.98198561633E+02  0.19186521688E+03  0.22246266243E+03  0.00000000000E+00 0.  1.
</event>
<event>
 6    1  0.3240171E-005  0.4187912E+03  0.7818608E-02  0.1175500E+00
          2   -1    0    0  502    0  0.00000000000E+00  0.00000000000E+00  0.14231779009E+03  0.14231779009E+03  0.00000000000E+00 0.  1.
          1   -1    0    0  501    0 -0.00000000000E+00 -0.00000000000E+00 -0.12534967856E+04  0.12534967856E+04  0.00000000000E+00 0.  1.
          2    1    1    2  501    0 -0.11897857492E+03  0.16623262464E+03 -0.16178160016E+03  0.26069613142E+03  0.00000000000E+00 0.  1.
          1    1    1    2  502    0  0.31952535784E+03 -0.11947666328E+03 -0.74215018944E+03  0.81679742352E+03  0.00000000000E+00 0.  1.
         22    1    1    2    0    0 -0.20820351056E+03 -0.55984208549E+02 -0.21464689945E+03  0.30423054557E+03  0.00000000000E+00 0.  1.
         22    1    1    2    0    0  0.76567276408E+01  0.92282471922E+01  0.73996935932E+01  0.14090475140E+02  0.00000000000E+00 0.  1.
</event>
<event>
 6    1  0.3240171E-005  0.7123134E+02  0.7818608E-02  0.1357432E+00
          2   -1    0    0  502    0  0.00000000000E+00  0.00000000000E+00  0.16028868263E+03  0.16028868263E+03  0.00000000000E+00 0.  1.
          1   -1    0    0  501    0 -0.00000000000E+00 -0.00000000000E+00 -0.28828730737E+03  0.28828730737E+03  0.00000000000E+00 0. -1.
          2    1    1    2  501    0  0.10596690192E+02  0.24199575778E+02 -0.38388343624E+02  0.46600152757E+02  0.00000000000E+00 0.  1.
          1    1    1    2  502    0 -0.70113307712E+02  0.93809488654E+01 -0.20731184639E+03  0.21904812205E+03  0.00000000000E+00 0. -1.
         22    1    1    2    0    0  0.64906481498E+02 -0.43232043846E+02  0.13874327850E+03  0.15915890891E+03  0.00000000000E+00 0.  1.
         22    1    1    2    0    0 -0.53898639770E+01  0.96515192031E+01 -0.21041713228E+02  0.23768806285E+02  0.00000000000E+00 0.  1.
</event>
<event>
 6    1  0.3240171E-005  0.9575363E+02  0.7818608E-02  0.1292041E+00
          2   -1    0    0  502    0  0.00000000000E+00  0.00000000000E+00  0.98988038786E+02  0.98988038786E+02  0.00000000000E+00 0.  1.
          1   -1    0    0  501    0 -0.00000000000E+00 -0.00000000000E+00 -0.43130581251E+03  0.43130581251E+03  0.00000000000E+00 0.  1.
          2    1    1    2  501    0  0.70153056866E+02  0.18672066633E+01  0.15815229723E+02  0.71937885287E+02  0.00000000000E+00 0.  1.
          1    1    1    2  502    0 -0.42115771885E+02  0.47743861458E+02 -0.30398538861E+03  0.31058063532E+03  0.00000000000E+00 0.  1.
         22    1    1    2    0    0  0.28815076179E+02  0.12639988726E+02  0.23835708024E+02  0.39474281592E+02  0.00000000000E+00 0.  1.
         22    1    1    2    0    0 -0.56852361161E+02 -0.62251056847E+02 -0.67983322866E+02  0.10830104910E+03  0.00000000000E+00 0. -1.
</event>
<event>
 6    1  0.3240171E-005  0.2582585E+03  0.7818608E-02  0.1224392E+00
          2   -1    0    0  502    0  0.00000000000E+00  0.00000000000E+00  0.10354688152E+04  0.10354688152E+04  0.00000000000E+00 0. -1.
          1   -1    0    0  501    0 -0.00000000000E+00 -0.00000000000E+00 -0.49184560465E+03  0.49184560465E+03  0.00000000000E+00 0.  1.
          2    1    1    2  501    0 -0.37004095072E+02  0.12794897931E+03  0.43466030807E+03  0.45460953331E+03  0.00000000000E+00 0. -1.
          1    1    1    2  502    0 -0.97105185445E+02 -0.10713488200E+03 -0.45646638647E+03  0.47882028148E+03  0.00000000000E+00 0.  1.
         22    1    1    2    0    0  0.80300488913E+01 -0.15741646640E+02  0.35669679906E+01  0.18027877989E+02  0.00000000000E+00 0.  1.
         22    1    1    2    0    0  0.12607923163E+03 -0.50724506680E+01  0.56186232094E+03  0.57585672706E+03  0.00000000000E+00 0. -1.
</event>
<event>
 6    1  0.3240171E-005  0.9633560E+02  0.7818608E-02  0.1289848E+00
          2   -1    0    0  502    0  0.00000000000E+00  0.00000000000E+00  0.74582495307E+03  0.74582495307E+03  0.00000000000E+00 0. -1.
          1   -1    0    0  501    0 -0.00000000000E+00 -0.00000000000E+00 -0.58489805998E+02  0.58489805998E+02  0.00000000000E+00 0. -1.
          2    1    1    2  501    0  0.10160836017E+02  0.10352686160E+03  0.18852274265E+03  0.21531808600E+03  0.00000000000E+00 0. -1.
          1    1    1    2  502    0  0.12398555247E+02 -0.47128364669E+02 -0.19979821435E+02  0.52668778162E+02  0.00000000000E+00 0. -1.
         22    1    1    2    0    0 -0.16709058262E+02 -0.84205794237E+02  0.48328281268E+03  0.49084833242E+03  0.00000000000E+00 0. -1.
         22    1    1    2    0    0 -0.58503330016E+01  0.27807297305E+02  0.35509413179E+02  0.45479562487E+02  0.00000000000E+00 0.  1.
</event>
<event>
 6    1  0.3240171E-005  0.3932607E+03  0.7818608E-02  0.1158766E+00
          2   -1    0    0  502    0  0.00000000000E+00  0.00000000000E+00  0.15382734072E+03  0.15382734072E+03  0.00000000000E+00 0. -1.
          1   -1    0    0  501    0 -0.00000000000E+00 -0.00000000000E+00 -0.25410845711E+04  0.25410845711E+04  0.00000000000E+00 0. -1.
          2    1    1    2  501    0 -0.22257722639E+03  0.29796063342E+03 -0.19955958436E+04  0.20299566330E+04  0.00000000000E+00 0. -1.
          1    1    1    2  502    0  0.21063978593E+03 -0.33327578090E+03 -0.34147039161E+03  0.52157827207E+03  0.00000000000E+00 0. -1.
         22    1    1    2    0    0  0.15011922442E+02  0.15076721703E+02  0.42993861885E+02  0.47970173155E+02  0.00000000000E+00 0.  1.
         22    1    1    2    0    0 -0.30744819763E+01  0.20238425778E+02 -0.93184857090E+02  0.95406833656E+02  0.00000000000E+00 0. -1.
</event>
<event>
 6    1  0.3240171E-005  0.1780986E+03  0.7818608E-02  0.1276591E+00
          2   -1    0    0  502    0  0.00000000000E+00  0.00000000000E+00  0.15463679755E+03  0.15463679755E+03  0.00000000000E+00 0.  1.
          1   -1    0    0  501    0 -0.00000000000E+00 -0.00000000000E+00 -0.35064198458E+03  0.35064198458E+03  0.00000000000E+00 0.  1.
          2    1    1    2  501    0 -0.63274862031E+01 -0.42272630136E+02  0.17780133983E+02  0.46294119548E+02  0.00000000000E+00 0.  1.
          1    1    1    2  502    0  0.11706051282E+03 -0.15523134521E+02 -0.25471014245E+03  0.28075147022E+03  0.00000000000E+00 0.  1.
         22    1    1    2    0    0 -0.12261411910E+03  0.72620812443E+02  0.11186896484E+02  0.14294457407E+03  0.00000000000E+00 0.  1.
         22    1    1    2    0    0  0.11881092487E+02 -0.14825047786E+02  0.29737924950E+02  0.35288618290E+02  0.00000000000E+00 0. -1.
</event>
<event>
 6    1  0.3240171E-005  0.1946593E+03  0.7818608E-02  0.1197758E+00
          2   -1    0    0  502    0  0.00000000000E+00  0.00000000000E+00  0.14345306980E+04  0.14345306980E+04  0.00000000000E+00 0. -1.
          1   -1    0    0  501    0 -0.00000000000E+00 -0.00000000000E+00 -0.58503390045E+02  0.58503390045E+02  0.00000000000E+00 0. -1.
          2    1    1    2  501    0  0.84737615652E+02  0.91110574585E+02  0.67730615962E+02  0.14166522737E+03  0.00000000000E+00 0. -1.
          1    1    1    2  502    0 -0.16845108663E+03 -0.67324159482E+02  0.79498449481E+03  0.81541931423E+03  0.00000000000E+00 0. -1.
         22    1    1    2    0    0  0.37553129751E+02 -0.62377493388E+02  0.40983046168E+03  0.41624775862E+03  0.00000000000E+00 0. -1.
         22    1    1    2    0    0  0.46160341228E+02  0.38591078285E+02  0.10348173553E+03  0.11970178785E+03  0.00000000000E+00 0.  1.
</event>
<event>
 6    1  0.3240171E-005  0.2001088E+03  0.7818608E-02  0.1271623E+00
          2   -1    0    0  502    0  0.00000000000E+00  0.00000000000E+00  0.14162988397E+03  0.14162988397E+03  0.00000000000E+00 0.  1.
          1   -1    0    0  501    0 -0.00000000000E+00 -0.00000000000E+00 -0.44904232607E+03  0.44904232607E+03  0.00000000000E+00 0.  1.
          2    1    1    2  501    0 -0.35599720609E+02 -0.12292126879E+03 -0.45015979869E+02  0.13565919383E+03  0.00000000000E+00 0.  1.
          1    1    1    2  502    0  0.96183403082E+02  0.96891404331E+02 -0.28234443027E+03  0.31362010230E+03  0.00000000000E+00 0.  1.
         22    1    1    2    0    0 -0.75190341199E+02  0.24088826152E+02 -0.33635182953E+02  0.85820653034E+02  0.00000000000E+00 0.  1.
         22    1    1    2    0    0  0.14606658725E+02  0.19410383055E+01  0.53583150988E+02  0.55572260874E+02  0.00000000000E+00 0.  1.
</event>
<event>
 6    1  0.3240171E-005  0.8944765E+02  0.7818608E-02  0.1305007E+00
          2   -1    0    0  502    0  0.00000000000E+00  0.00000000000E+00  0.53331092819E+03  0.53331092819E+03  0.00000000000E+00 0.  1.
          1   -1    0    0  501    0 -0.00000000000E+00 -0.00000000000E+00 -0.18497803923E+03  0.18497803923E+03  0.00000000000E+00 0. -1.
          2    1    1    2  501    0 -0.30093644410E+02  0.27203739672E+02  0.52033782142E+02  0.65978673600E+02  0.00000000000E+00 0.  1.
          1    1    1    2  502    0 -0.56060817567E+01  0.28324948456E+02 -0.16575301177E+03  0.16824919544E+03  0.00000000000E+00 0. -1.
         22    1    1    2    0    0 -0.11987628177E+02  0.28086612563E+02  0.35706366465E+02  0.46984099871E+02  0.00000000000E+00 0.  1.
         22    1    1    2    0    0  0.47687354343E+02 -0.83615300691E+02  0.42634575212E+03  0.43707699851E+03  0.00000000000E+00 0.  1.
</event>
<event>
 6    1  0.3240171E-005  0.1183784E+03  0.7818608E-02  0.1351364E+00
          2   -1    0    0  502    0  0.00000000000E+00  0.00000000000E+00  0.35205285187E+02  0.35205285187E+02  0.00000000000E+00 0. -1.
          1   -1    0    0  501    0 -0.00000000000E+00 -0.00000000000E+00 -0.10811904011E+04  0.10811904011E+04  0.00000000000E+00 0. -1.
          2    1    1    2  501    0  0.47379623436E+02 -0.20471396208E+02 -0.72655193864E+02  0.89121736827E+02  0.00000000000E+00 0. -1.
          1    1    1    2  502    0 -0.21625560451E+02 -0.21062427261E+02 -0.84130078380E+03  0.84184220584E+03  0.00000000000E+00 0. -1.
         22    1    1    2    0    0  0.12399075462E+02 -0.11300991417E+02  0.16316238428E+02  0.23402331416E+02  0.00000000000E+00 0. -1.
         22    1    1    2    0    0 -0.38153138447E+02  0.52834814886E+02 -0.14834537663E+03  0.16202941216E+03  0.00000000000E+00 0. -1.
</event>
<event>
 6    1  0.3240171E-005  0.7623681E+02  0.7818608E-02  0.1341580E+00
          2   -1    0    0  502    0  0.00000000000E+00  0.00000000000E+00  0.26998296882E+03  0.26998296882E+03  0.00000000000E+00 0. -1.
          1   -1    0    0  501    0 -0.00000000000E+00 -0.00000000000E+00 -0.49384100229E+02  0.49384100229E+02  0.00000000000E+00 0. -1.
          2    1    1    2  501    0 -0.24472612659E+02 -0.83243677926E+01 -0.13836936154E+02  0.29320038739E+02  0.00000000000E+00 0. -1.
          1    1    1    2  502    0 -0.52433540030E+01 -0.33221128923E+02  0.79476807094E+02  0.86300052340E+02  0.00000000000E+00 0. -1.
         22    1    1    2    0    0 -0.28554878233E+02 -0.12995062317E+02  0.22682382126E+01  0.31454691544E+02  0.00000000000E+00 0. -1.
         22    1    1    2    0    0  0.58270844895E+02  0.54540559033E+02  0.15269075944E+03  0.17229228643E+03  0.00000000000E+00 0. -1.
</event>
<event>
 6    1  0.3240171E-005  0.1850080E+03  0.7818608E-02  0.1200751E+00
          2   -1    0    0  502    0  0.00000000000E+00  0.00000000000E+00  0.42736773241E+03  0.42736773241E+03  0.00000000000E+00 0. -1.
          1   -1    0    0  501    0 -0.00000000000E+00 -0.00000000000E+00 -0.12070686183E+03  0.12070686183E+03  0.00000000000E+00 0.  1.
          2    1    1    2  501    0  0.38021261615E+02  0.92979516250E+02  0.47324109225E+02  0.11104223562E+03  0.00000000000E+00 0. -1.
          1    1    1    2  502    0 -0.42636587286E+02 -0.15072900728E+02 -0.65719733246E+02  0.79775649478E+02  0.00000000000E+00 0.  1.
         22    1    1    2    0    0  0.65300376630E+02 -0.39136904509E+02  0.17299006239E+03  0.18900105336E+03  0.00000000000E+00 0. -1.
         22    1    1    2    0    0 -0.60685050960E+02 -0.38769711013E+02  0.15206643220E+03  0.16825565579E+03  0.00000000000E+00 0.  1.
</event>
<event>
 6    1  0.3240171E-005  0.1753818E+03  0.7818608E-02  0.1296322E+00
          2   -1    0    0  502    0  0.00000000000E+00  0.00000000000E+00  0.49281035732E+02  0.49281035732E+02  0.00000000000E+00 0. -1.
          1   -1    0    0  501    0 -0.00000000000E+00 -0.00000000000E+00 -0.35020906314E+03  0.35020906314E+03  0.00000000000E+00 0. -1.
          2    1    1    2  501    0  0.16692499370E+02 -0.74526883452E+02 -0.82887596944E+02  0.11270869363E+03  0.00000000000E+00 0. -1.
          1    1    1    2  502    0  0.12466115928E+02 -0.18762140063E+02 -0.40391483829E+02  0.46248177391E+02  0.00000000000E+00 0. -1.
         22    1    1    2    0    0  0.10177269288E+02  0.92001004836E+01  0.18788324652E+02  0.23264131239E+02  0.00000000000E+00 0. -1.
         22    1    1    2    0    0 -0.39335884587E+02  0.84088923031E+02 -0.19643727129E+03  0.21726909662E+03  0.00000000000E+00 0. -1.
</event>
<event>
 6    1  0.3240171E-005  0.1024861E+03  0.7818608E-02  0.1325012E+00
          2   -1    0    0  502    0  0.00000000000E+00  0.00000000000E+00  0.30019796858E+03  0.30019796858E+03  0.00000000000E+00 0. -1.
          1   -1    0    0  501    0 -0.00000000000E+00 -0.00000000000E+00 -0.70133639626E+02  0.70133639626E+02  0.00000000000E+00 0. -1.
          2    1    1    2  501    0  0.22711842111E+02 -0.14712588363E+01  0.18739742465E+01  0.22836465447E+02  0.00000000000E+00 0. -1.
          1    1    1    2  502    0 -0.81480856949E+02  0.67945024994E+02  0.70009879542E+02  0.12711034460E+03  0.00000000000E+00 0. -1.
         22    1    1    2    0    0 -0.14882572701E+02 -0.38060656473E+02  0.13046966093E+03  0.13672028732E+03  0.00000000000E+00 0.  1.
         22    1    1    2    0    0  0.73651587539E+02 -0.28413109685E+02  0.27710814237E+02  0.83664510844E+02  0.00000000000E+00 0. -1.
</event>
<event>
 6    1  0.3240171E-005  0.1453691E+03  0.7818608E-02  0.1209860E+00
          2   -1    0    0  502    0  0.00000000000E+00  0.00000000000E+00  0.59198134469E+03  0.59198134469E+03  0.00000000000E+00 0.  1.
          1   -1    0    0  501    0 -0.00000000000E+00 -0.00000000000E+00 -0.71642862691E+02  0.71642862691E+02  0.00000000000E+00 0.  1.
          2    1    1    2  501    0 -0.68575871739E+02  0.93382849525E+02  0.23539744024E+03  0.26236417751E+03  0.00000000000E+00 0.  1.
          1    1    1    2  502    0  0.26361536832E+02  0.22048831886E+01 -0.33017564349E+02  0.42307820666E+02  0.00000000000E+00 0.  1.
         22    1    1    2    0    0  0.67690604697E+01  0.30834865813E+02  0.96109349800E+02  0.10116133772E+03  0.00000000000E+00 0.  1.
         22    1    1    2    0    0  0.35445274438E+02 -0.12642259853E+03  0.22184925631E+03  0.25779087149E+03  0.00000000000E+00 0.  1.
</event>
<event>
 6    1  0.3240171E-005  0.1122680E+03  0.7818608E-02  0.1376659E+00
          2   -1    0    0  502    0  0.00000000000E+00  0.00000000000E+00  0.61730429156E+02  0.61730429156E+02  0.00000000000E+00 0. -1.
          1   -1    0    0  501    0 -0.00000000000E+00 -0.00000000000E+00 -0.50082312260E+03  0.50082312260E+03  0.00000000000E+00 0.  1.
          2    1    1    2  501    0 -0.17496984675E+02  0.75031564845E+02 -0.19040942137E+03  0.20540600756E+03  0.00000000000E+00 0. -1.
          1    1    1    2  502    0  0.85710988773E+01 -0.29846092556E+02 -0.22358380575E+03  0.22572986327E+03  0.00000000000E+00 0.  1.
         22    1    1    2    0    0  0.10544200736E+02 -0.74125763960E+01  0.47686751550E+02  0.49397902095E+02  0.00000000000E+00 0.  1.
         22    1    1    2    0    0 -0.16183149375E+01 -0.37772895893E+02 -0.72786217872E+02  0.82019778831E+02  0.00000000000E+00 0. -1.
</event>
<event>
 6    1  0.4404107E-005  0.3454924E+03  0.7818608E-02  0.1174327E+00
          2   -1    0    0  502    0  0.00000000000E+00  0.00000000000E+00  0.42391558551E+02  0.42391558551E+02  0.00000000000E+00 0. -1.
          1   -1    0    0  501    0 -0.00000000000E+00 -0.00000000000E+00 -0.23690763862E+04  0.23690763862E+04  0.00000000000E+00 0. -1.
          2    1    1    2  501    0  0.15263521166E+02 -0.20507290768E+02 -0.72790528011E+03  0.72835404912E+03  0.00000000000E+00 0. -1.
          1    1    1    2  502    0  0.10232533360E+02  0.19856610848E+02 -0.15454085647E+04  0.15455699989E+04  0.00000000000E+00 0. -1.
         22    1    1    2    0    0 -0.37126898850E+02 -0.17943743800E+02  0.30219882746E+02  0.51123633214E+02  0.00000000000E+00 0. -1.
         22    1    1    2    0    0  0.11630844324E+02  0.18594423720E+02 -0.83590865625E+02  0.86420263533E+02  0.00000000000E+00 0. -1.
</event>
<event>
 6    1  0.3240171E-005  0.1994881E+03  0.7818608E-02  0.1213888E+00
          2   -1    0    0  502    0  0.00000000000E+00  0.00000000000E+00  0.45794766083E+03  0.45794766083E+03  0.00000000000E+00 0.  1.
          1   -1    0    0  501    0 -0.00000000000E+00 -0.00000000000E+00 -0.27230728683E+03  0.27230728683E+03  0.00000000000E+00 0. -1.
          2    1    1    2  501    0  0.38639932769E+02 -0.13002469568E+03  0.75770620042E+02  0.15537262549E+03  0.00000000000E+00 0.  1.
          1    1    1    2  502    0 -0.33760460740E+02  0.19535350608E+03 -0.16977502373E+03  0.26101019086E+03  0.00000000000E+00 0. -1.
         22    1    1    2    0    0  0.13915533167E+02 -0.45750873924E+02  0.28255873276E+03  0.28657672967E+03  0.00000000000E+00 0.  1.
         22    1    1    2    0    0 -0.18795005195E+02 -0.19577936472E+02 -0.29139550653E+01  0.27295401645E+02  0.00000000000E+00 0. -1.
</event>
<event>
 6    1  0.3240171E-005  0.1262785E+03  0.7818608E-02  0.1364126E+00
          2   -1    0    0  502    0  0.00000000000E+00  0.00000000000E+00  0.87515092379E+02  0.87515092379E+02  0.00000000000E+00 0.  1.
          1   -1    0    0  501    0 -0.00000000000E+00 -0.00000000000E+00 -0.24673725234E+03  0.24673725234E+03  0.00000000000E+00 0.  1.
          2    1    1    2  501    0 -0.51649699515E+02  0.15239066136E+02 -0.74239116982E+02  0.91713505477E+02  0.00000000000E+00 0.  1.
          1    1    1    2  502    0  0.29529919934E+02 -0.76682634649E+02 -0.34807771344E+02  0.89240257586E+02  0.00000000000E+00 0.  1.
         22    1    1    2    0    0 -0.10746722379E+02 -0.29509482554E+01  0.37811185266E+02  0.39419359060E+02  0.00000000000E+00 0.  1.
         22    1    1    2    0    0  0.32866501960E+02  0.64394516768E+02 -0.87986456906E+02  0.11387922260E+03  0.00000000000E+00 0. -1.
</event>
<event>
 6    1  0.3240171E-005  0.5392490E+02  0.7818608E-02  0.1430757E+00
          2   -1    0    0  502    0  0.00000000000E+00  0.00000000000E+00  0.11034058105E+03  0.11034058105E+03  0.00000000000E+00 0.  1.
          1   -1    0    0  501    0 -0.00000000000E+00 -0.00000000000E+00 -0.11407777838E+04  0.11407777838E+04  0.00000000000E+00 0. -1.
          2    1    1    2  501    0  0.32711724360E+02 -0.90584248473E+01 -0.10772397119E+01  0.33959864792E+02  0.00000000000E+00 0.  1.
          1    1    1    2  502    0 -0.31956487271E+02  0.61648192253E+00 -0.10830835951E+04  0.10835551075E+04  0.00000000000E+00 0. -1.
         22    1    1    2    0    0  0.33517585136E+02 -0.23334819351E+02 -0.20649527471E+02  0.45764017440E+02  0.00000000000E+00 0. -1.
         22    1    1    2    0    0 -0.34272822225E+02  0.31776762276E+02  0.74373159496E+02  0.87839375096E+02  0.00000000000E+00 0.  1.
</event>
<event>
 6    1  0.3240171E-005  0.8894763E+02  0.7818608E-02  0.1384347E+00
          2   -1    0    0  502    0  0.00000000000E+00  0.00000000000E+00  0.77466445794E+02  0.77466445794E+02  0.00000000000E+00 0. -1.
          1   -1    0    0  501    0 -0.00000000000E+00 -0.00000000000E+00 -0.38306311247E+03  0.38306311247E+03  0.00000000000E+00 0. -1.
          2    1    1    2  501    0  0.20234549225E+01  0.77070007017E+02 -0.16339357095E+03  0.18066914340E+03  0.00000000000E+00 0. -1.
          1    1    1    2  502    0 -0.16232035366E+02 -0.66980313300E+02 -0.13643743943E+03  0.15285619457E+03  0.00000000000E+00 0. -1.
         22    1    1    2    0    0 -0.54229282332E+01 -0.22212503997E+02  0.56312200240E+02  0.60777194574E+02  0.00000000000E+00 0. -1.
         22    1    1    2    0    0  0.19631508677E+02  0.12122810280E+02 -0.62077856546E+02  0.66227025717E+02  0.00000000000E+00 0. -1.
</event>
<event>
 6    1  0.3240171E-005  0.1458624E+03  0.7818608E-02  0.1264839E+00
          2   -1    0    0  502    0  0.00000000000E+00  0.00000000000E+00  0.38805353745E+03  0.38805353745E+03  0.00000000000E+00 0. -1.
          1   -1    0    0  501    0 -0.00000000000E+00 -0.00000000000E+00 -0.14765039217E+03  0.14765039217E+03  0.00000000000E+00 0. -1.
          2    1    1    2  501    0 -0.68727324867E+02  0.69916988195E+02 -0.93535386047E+02  0.13550165632E+03  0.00000000000E+00 0. -1.
          1    1    1    2  502    0  0.59464216355E+02 -0.35842311378E+02  0.19542233125E+03  0.20738985477E+03  0.00000000000E+00 0. -1.
         22    1    1    2    0    0 -0.26813820383E+02  0.34121961298E+02  0.12686027713E+02  0.45213101038E+02  0.00000000000E+00 0.  1.
         22    1    1    2    0    0  0.36076928895E+02 -0.68196638115E+02  0.12583017236E+03  0.14759931749E+03  0.00000000000E+00 0. -1.
</event>
<event>
 6    1  0.3240171E-005  0.9558461E+02  0.7818608E-02  0.1373164E+00
          2   -1    0    0  502    0  0.00000000000E+00  0.00000000000E+00  0.66073701215E+02  0.66073701215E+02  0.00000000000E+00 0. -1.
          1   -1    0    0  501    0 -0.00000000000E+00 -0.00000000000E+00 -0.34302784775E+03  0.34302784775E+03  0.00000000000E+00 0. -1.
          2    1    1    2  501    0  0.17417928732E+02 -0.55607441309E+02 -0.12556886137E+03  0.13843088787E+03  0.00000000000E+00 0. -1.
          1    1    1    2  502    0 -0.19010192555E+02  0.67352855488E+02  0.23262792364E+01  0.70022897244E+02  0.00000000000E+00 0. -1.
         22    1    1    2    0    0  0.31702916471E+01  0.21890833866E+02  0.16209224138E+02  0.27422587471E+02  0.00000000000E+00 0. -1.
         22    1    1    2    0    0 -0.15780278243E+01 -0.33636248044E+02 -0.16992078854E+03  0.17322517638E+03  0.00000000000E+00 0.  1.
</event>
<event>
 6    1  0.3240171E-005  0.7345764E+02  0.7818608E-02  0.1357075E+00
          2   -1    0    0  502    0  0.00000000000E+00  0.00000000000E+00  0.36482794613E+03  0.36482794613E+03  0.00000000000E+00 0. -1.
          1   -1    0    0  501    0 -0.00000000000E+00 -0.00000000000E+00 -0.82989367965E+03  0.82989367965E+03  0.00000000000E+00 0.  1.
          2    1    1    2  501    0 -0.61232854603E+02  0.64683408875E+01  0.39574025076E+02  0.73194298804E+02  0.00000000000E+00 0. -1.
          1    1    1    2  502    0  0.29296822990E+02 -0.15410402124E+02 -0.79937291148E+03  0.80005802036E+03  0.00000000000E+00 0.  1.
         22    1    1    2    0    0  0.54169612878E+02  0.29394775699E+02  0.28204971251E+03  0.28870476291E+03  0.00000000000E+00 0. -1.
         22    1    1    2    0    0 -0.22233581265E+02 -0.20452714463E+02  0.12683440375E+02  0.32764543710E+02  0.00000000000E+00 0.  1.
</event>
<event>
 6    1  0.3240171E-005  0.1198531E+03  0.7818608E-02  0.1293087E+00
          2   -1    0    0  502    0  0.00000000000E+00  0.00000000000E+00  0.24038953940E+03  0.24038953940E+03  0.00000000000E+00 0. -1.
          1   -1    0    0  501    0 -0.00000000000E+00 -0.00000000000E+00 -0.34017635536E+03  0.34017635536E+03  0.00000000000E+00 0. -1.
          2    1    1    2  501    0  0.30415097832E+02 -0.51472054698E+02 -0.24125659793E+03  0.24855421267E+03  0.00000000000E+00 0. -1.
          1    1    1    2  502    0 -0.64631889811E+02  0.22625491637E+02  0.18313685967E+03  0.19552059591E+03  0.00000000000E+00 0. -1.
         22    1    1    2    0    0 -0.12325139156E+02  0.43955849681E+02  0.26343170675E+02  0.52706625936E+02  0.00000000000E+00 0. -1.
         22    1    1    2    0    0  0.46541931134E+02 -0.15109286620E+02 -0.68010248374E+02  0.83784460253E+02  0.00000000000E+00 0. -1.
</event>
<event>
 6    1  0.3240171E-005  0.1216582E+03  0.7818608E-02  0.1241784E+00
          2   -1    0    0  502    0  0.00000000000E+00  0.00000000000E+00  0.10028901739E+04  0.10028901739E+04  0.00000000000E+00 0.  1.
          1   -1    0    0  501    0 -0.00000000000E+00 -0.00000000000E+00 -0.39316002718E+02  0.39316002718E+02  0.00000000000E+00 0.  1.
          2    1    1    2  501    0  0.86997506618E+02  0.28918965402E+02  0.38121092046E+03  0.39207988803E+03  0.00000000000E+00 0.  1.
          1    1    1    2  502    0 -0.11068921222E+01 -0.28364694334E+02 -0.16386697143E+02  0.32776591312E+02  0.00000000000E+00 0.  1.
         22    1    1    2    0    0 -0.11109103545E+03 -0.23984913163E+02  0.40860097684E+03  0.42411231118E+03  0.00000000000E+00 0.  1.
         22    1    1    2    0    0  0.25200420959E+02  0.23430642095E+02  0.19014897102E+03  0.19323738610E+03  0.00000000000E+00 0. -1.
</event>
<event>
 6    1  0.3240171E-005  0.9579427E+02  0.7818608E-02  0.1299741E+00
          2   -1    0    0  502    0  0.00000000000E+00  0.00000000000E+00  0.11054561020E+03  0.11054561020E+03  0.00000000000E+00 0. -1.
          1   -1    0    0  501    0 -0.00000000000E+00 -0.00000000000E+00 -0.20564498682E+03  0.20564498682E+03  0.00000000000E+00 0. -1.
          2    1    1    2  501    0  0.25049628477E+02  0.46600900776E+02 -0.10806148439E+02  0.53999080400E+02  0.00000000000E+00 0. -1.
          1    1    1    2  502    0  0.64923422736E+01 -0.27656700477E+02 -0.12549574874E+03  0.12867100116E+03  0.00000000000E+00 0. -1.
         22    1    1    2    0    0 -0.77009265154E+02 -0.16356085121E+02  0.39172854559E+02  0.87934412913E+02  0.00000000000E+00 0. -1.
         22    1    1    2    0    0  0.45467294403E+02 -0.25881151786E+01  0.20296659952E+01  0.45586102538E+02  0.00000000000E+00 0.  1.
</event>
<event>
 6    1  0.3240171E-005  0.2963149E+03  0.7818608E-02  0.1224570E+00
          2   -1    0    0  502    0  0.00000000000E+00  0.00000000000E+00  0.10646627081E+03  0.10646627081E+03  0.00000000000E+00 0. -1.
          1   -1    0    0  501    0 -0.00000000000E+00 -0.00000000000E+00 -0.38623103407E+03  0.38623103407E+03  0.00000000000E+00 0. -1.
          2    1    1    2  501    0  0.14942958719E+03 -0.64495455820E+02 -0.15894907202E+03  0.22749433585E+03  0.00000000000E+00 0. -1.
          1    1    1    2  502    0 -0.10974621065E+02  0.23497562627E+02 -0.61281382672E+02  0.66543110982E+02  0.00000000000E+00 0. -1.
         22    1    1    2    0    0 -0.12811173843E+03  0.35623106300E+02 -0.93628486338E+02  0.16262815463E+03  0.00000000000E+00 0. -1.
         22    1    1    2    0    0 -0.10343227698E+02  0.53747868932E+01  0.34094177768E+02  0.36031703416E+02  0.00000000000E+00 0. -1.
</event>
<event>
 6    1  0.3240171E-005  0.9878424E+02  0.7818608E-02  0.1345959E+00
          2   -1    0    0  502    0  0.00000000000E+00  0.00000000000E+00  0.16843441270E+02  0.16843441270E+02  0.00000000000E+00 0.  1.
          1   -1    0    0  501    0 -0.00000000000E+00 -0.00000000000E+00 -0.17571666367E+04  0.17571666367E+04  0.00000000000E+00 0.  1.
          2    1    1    2  501    0  0.38589403081E+02  0.11972598296E+02 -0.21171330022E+03  0.21553423540E+03  0.00000000000E+00 0.  1.
          1    1    1    2  502    0 -0.90037958793E+02 -0.39352689966E+01 -0.12086847709E+04  0.12120400966E+04  0.00000000000E+00 0.  1.
         22    1    1    2    0    0  0.12346059227E+02  0.29159988674E+02 -0.12073816786E+02  0.33889632185E+02  0.00000000000E+00 0.  1.
         22    1    1    2    0    0  0.39102496485E+02 -0.37197317973E+02 -0.30785130761E+03  0.31254611387E+03  0.00000000000E+00 0.  1.
</event>
<event>
 6    1  0.3240171E-005  0.5801267E+02  0.7818608E-02  0.1434010E+00
          2   -1    0    0  502    0  0.00000000000E+00  0.00000000000E+00  0.43962477486E+02  0.43962477486E+02  0.00000000000E+00 0. -1.
          1   -1    0    0  501    0 -0.00000000000E+00 -0.00000000000E+00 -0.25186326034E+03  0.25186326034E+03  0.00000000000E+00 0. -1.
          2    1    1    2  501    0  0.67359600338E+01 -0.25299721610E+02 -0.94152573473E+02  0.97724900423E+02  0.00000000000E+00 0. -1.
          1    1    1    2  502    0  0.83251260190E+01  0.38138391472E+02 -0.25603974813E+02  0.46684131710E+02  0.00000000000E+00 0. -1.
         22    1    1    2    0    0 -0.25407512503E+02 -0.30910997967E+02  0.17548580480E+02  0.43691923324E+02  0.00000000000E+00 0. -1.
         22    1    1    2    0    0  0.10346426450E+02  0.18072328104E+02 -0.10569281505E+03  0.10772478237E+03  0.00000000000E+00 0. -1.
</event>
<event>
 6    1  0.3240171E-005  0.2166928E+03  0.7818608E-02  0.1197355E+00
          2   -1    0    0  502    0  0.00000000000E+00  0.00000000000E+00  0.48377117366E+03  0.48377117366E+03  0.00000000000E+00 0. -1.
          1   -1    0    0  501    0 -0.00000000000E+00 -0.00000000000E+00 -0.97926767667E+02  0.97926767667E+02  0.00000000000E+00 0. -1.
          2    1    1    2  501    0  0.16277317532E+03 -0.14226792270E+02  0.20541246584E+03  0.26247245445E+03  0.00000000000E+00 0. -1.
          1    1    1    2  502    0 -0.12108988463E+03 -0.84157202080E+01  0.39813425659E+02  0.12774464125E+03  0.00000000000E+00 0. -1.
         22    1    1    2    0    0 -0.16212808245E+02  0.69403087121E+02  0.10681438144E+03  0.12840932885E+03  0.00000000000E+00 0. -1.
         22    1    1    2    0    0 -0.25470482445E+02 -0.46760574642E+02  0.33804133060E+02  0.63071516779E+02  0.00000000000E+00 0. -1.
</event>
<event>
 6    1  0.3240171E-005  0.1083345E+03  0.7818608E-02  0.1310609E+00
          2   -1    0    0  502    0  0.00000000000E+00  0.00000000000E+00  0.40223116435E+03  0.40223116435E+03  0.00000000000E+00 0. -1.
          1   -1    0    0  501    0 -0.00000000000E+00 -0.00000000000E+00 -0.86082012521E+03  0.86082012521E+03  0.00000000000E+00 0.  1.
          2    1    1    2  501    0  0.19602531414E+02  0.34253391383E+02  0.34748988939E+02  0.52583707471E+02  0.00000000000E+00 0. -1.
          1    1    1    2  502    0  0.37555575161E+01 -0.74738541673E+02 -0.83750785766E+03  0.84084443595E+03  0.00000000000E+00 0.  1.
         22    1    1    2    0    0 -0.32609131291E+02 -0.30709379817E+02  0.51399332429E+02  0.68178536406E+02  0.00000000000E+00 0. -1.
         22    1    1    2    0    0  0.92510423606E+01  0.71194530107E+02  0.29277057543E+03  0.30144460974E+03  0.00000000000E+00 0. -1.
</event>
<event>
 6    1  0.3240171E-005  0.1711615E+03  0.7818608E-02  0.1304419E+00
          2   -1    0    0  502    0  0.00000000000E+00  0.00000000000E+00  0.30983162136E+02  0.30983162136E+02  0.00000000000E+00 0.  1.
          1   -1    0    0  501    0 -0.00000000000E+00 -0.00000000000E+00 -0.69888971783E+03  0.69888971783E+03  0.00000000000E+00 0.  1.
          2    1    1    2  501    0  0.49570862154E+02 -0.40572088154E+02 -0.26344098098E+03  0.27111716133E+03  0.00000000000E+00 0.  1.
          1    1    1    2  502    0  0.19695642835E+02 -0.16782717405E+02 -0.20065096129E+03  0.20231259530E+03  0.00000000000E+00 0.  1.
         22    1    1    2    0    0 -0.74592054773E+02  0.68899329413E+02 -0.21609701329E+03  0.23876559924E+03  0.00000000000E+00 0.  1.
         22    1    1    2    0    0  0.53255497840E+01 -0.11544523854E+02  0.12282399863E+02  0.17677524089E+02  0.00000000000E+00 0. -1.
</event>
<event>
 6    1  0.3240171E-005  0.5008927E+03  0.7818608E-02  0.1150459E+00
          2   -1    0    0  502    0  0.00000000000E+00  0.00000000000E+00  0.57009534539E+03  0.57009534539E+03  0.00000000000E+00 0. -1.
          1   -1    0    0  501    0 -0.00000000000E+00 -0.00000000000E+00 -0.22185034018E+04  0.22185034018E+04  0.00000000000E+00 0.  1.
          2    1    1    2  501    0 -0.26392283958E+03  0.85162101885E+02  0.16057058256E+03  0.32045399176E+03  0.00000000000E+00 0. -1.
          1    1    1    2  502    0  0.46890314687E+03 -0.13324970583E+02 -0.20608273766E+04  0.21135413864E+04  0.00000000000E+00 0.  1.
         22    1    1    2    0    0 -0.21711565022E+03 -0.74901465362E+02  0.21100703174E+03  0.31188684251E+03  0.00000000000E+00 0. -1.
         22    1    1    2    0    0  0.12135342931E+02  0.30643340588E+01  0.40841705920E+02  0.42716526471E+02  0.00000000000E+00 0. -1.
</event>
<event>
 6    1  0.3240171E-005  0.1424848E+03  0.7818608E-02  0.1263817E+00
          2   -1    0    0  502    0  0.00000000000E+00  0.00000000000E+00  0.46250606729E+03  0.46250606729E+03  0.00000000000E+00 0. -1.
          1   -1    0    0  501    0 -0.00000000000E+00 -0.00000000000E+00 -0.72189148097E+02  0.72189148097E+02  0.00000000000E+00 0.  1.
          2    1    1    2  501    0  0.56665091228E+02 -0.38624666674E+02  0.55518685993E+02  0.88233337997E+02  0.00000000000E+00 0. -1.
          1    1    1    2  502    0 -0.78361417610E+02  0.28083837368E+02 -0.59079502893E+01  0.83451288593E+02  0.00000000000E+00 0.  1.
         22    1    1    2    0    0  0.34653649177E+02 -0.35151955965E+02  0.28743048589E+03  0.29163816559E+03  0.00000000000E+00 0. -1.
         22    1    1    2    0    0 -0.12957322795E+02  0.45692785271E+02  0.53275697599E+02  0.71372423207E+02  0.00000000000E+00 0.  1.
</event>
<event>
 6    1  0.3240171E-005  0.2239650E+03  0.7818608E-02  0.1131226E+00
          2   -1    0    0  502    0  0.00000000000E+00  0.00000000000E+00  0.32557851116E+03  0.32557851116E+03  0.00000000000E+00 0.  1.
          1   -1    0    0  501    0 -0.00000000000E+00 -0.00000000000E+00 -0.37978455156E+03  0.37978455156E+03  0.00000000000E+00 0.  1.
          2    1    1    2  501    0 -0.20334110392E+03  0.97828590205E+02  0.15822943287E+03  0.27559860491E+03  0.00000000000E+00 0.  1.
          1    1    1    2  502    0  0.80881659994E+02  0.44769497961E+02 -0.18124921281E+03  0.20346357909E+03  0.00000000000E+00 0.  1.
         22    1    1    2    0    0 -0.13553254593E+02  0.25443462141E+01  0.16748523435E+02  0.21695101865E+02  0.00000000000E+00 0. -1.
         22    1    1    2    0    0  0.13601269852E+03 -0.14514243438E+03 -0.47934783891E+02  0.20460577686E+03  0.00000000000E+00 0.  1.
</event>
<event>
 6    1  0.3240171E-005  0.1839574E+03  0.7818608E-02  0.1249857E+00
          2   -1    0    0  502    0  0.00000000000E+00  0.00000000000E+00  0.19365218192E+03  0.19365218192E+03  0.00000000000E+00 0.  1.
          1   -1    0    0  501    0 -0.00000000000E+00 -0.00000000000E+00 -0.22376577725E+03  0.22376577725E+03  0.00000000000E+00 0.  1.
          2    1    1    2  501    0  0.16542784363E+02 -0.11661795725E+02 -0.72889053477E+02  0.75647044296E+02  0.00000000000E+00 0.  1.
          1    1    1    2  502    0 -0.13605433576E+03 -0.54597085905E+02 -0.77440481936E+01  0.14680461284E+03  0.00000000000E+00 0.  1.
         22    1    1    2    0    0  0.93447053374E+02  0.79152454512E+02 -0.14907515400E+02  0.12336813549E+03  0.00000000000E+00 0.  1.
         22    1    1    2    0    0  0.26064498028E+02 -0.12893572882E+02  0.65427021735E+02  0.71598166542E+02  0.00000000000E+00 0.  1.
</event>
<event>
 6    1  0.3240171E-005  0.6165174E+02  0.7818608E-02  0.1449283E+00
          2   -1    0    0  502    0  0.00000000000E+00  0.00000000000E+00  0.62108756140E+02  0.62108756140E+02  0.00000000000E+00 0.  1.
          1   -1    0    0  501    0 -0.00000000000E+00 -0.00000000000E+00 -0.12841048155E+03  0.12841048155E+03  0.00000000000E+00 0.  1.
          2    1    1    2  501    0 -0.13213991755E+02  0.15805704403E+02 -0.10524403890E+02  0.23134237550E+02  0.00000000000E+00 0.  1.
          1    1    1    2  502    0 -0.15172023927E+02 -0.17785562384E+02 -0.20738255084E+02  0.31250468209E+02  0.00000000000E+00 0.  1.
         22    1    1    2    0    0  0.13787630041E+02 -0.19466098228E+02 -0.80408073378E+02  0.83871842634E+02  0.00000000000E+00 0.  1.
         22    1    1    2    0    0  0.14598385642E+02  0.21445956209E+02  0.45369006945E+02  0.52262689294E+02  0.00000000000E+00 0.  1.
</event>
<event>
 6    1  0.3240171E-005  0.8845544E+02  0.7818608E-02  0.1423946E+00
          2   -1    0    0  502    0  0.00000000000E+00  0.00000000000E+00  0.92492832607E+02  0.92492832607E+02  0.00000000000E+00 0.  1.
          1   -1    0    0  501    0 -0.00000000000E+00 -0.00000000000E+00 -0.33941035645E+03  0.33941035645E+03  0.00000000000E+00 0. -1.
          2    1    1    2  501    0  0.25043447648E+02 -0.25552673548E+02 -0.15082002959E+02  0.38827570215E+02  0.00000000000E+00 0.  1.
          1    1    1    2  502    0 -0.42320664911E+02  0.71978678969E+02 -0.24774698189E+03  0.26143935423E+03  0.00000000000E+00 0. -1.
         22    1    1    2    0    0  0.22528235719E+02 -0.57729847025E+02 -0.40390889834E+02  0.73970809268E+02  0.00000000000E+00 0.  1.
         22    1    1    2    0    0 -0.52510184564E+01  0.11303841604E+02  0.56302350840E+02  0.57665455343E+02  0.00000000000E+00 0.  1.
</event>
<event>
 6    1  0.3240171E-005  0.3285121E+03  0.7818608E-02  0.1155083E+00
          2   -1    0    0  502    0  0.00000000000E+00  0.00000000000E+00  0.14643955583E+04  0.14643955583E+04  0.00000000000E+00 0.  1.
          1   -1    0    0  501    0 -0.00000000000E+00 -0.00000000000E+00 -0.17401335153E+03  0.17401335153E+03  0.00000000000E+00 0.  1.
          2    1    1    2  501    0 -0.58129963034E+02  0.11786490942E+03  0.30900818958E+03  0.33579352392E+03  0.00000000000E+00 0.  1.
          1    1    1    2  502    0 -0.37821820595E+02  0.26001354287E+02 -0.14710921404E+03  0.15410282734E+03  0.00000000000E+00 0.  1.
         22    1    1    2    0    0  0.60921793654E+02 -0.16272497761E+03  0.92401570417E+03  0.94021056410E+03  0.00000000000E+00 0.  1.
         22    1    1    2    0    0  0.35029989975E+02  0.18858713902E+02  0.20446752700E+03  0.20830199444E+03  0.00000000000E+00 0. -1.
</event>
<event>
 6    1  0.3240171E-005  0.3982426E+03  0.7818608E-02  0.1142103E+00
          2   -1    0    0  502    0  0.00000000000E+00  0.00000000000E+00  0.10317984826E+04  0.10317984826E+04  0.00000000000E+00 0.  1.
          1   -1    0    0  501    0 -0.00000000000E+00 -0.00000000000E+00 -0.36657578907E+03  0.36657578907E+03  0.00000000000E+00 0.  1.
          2    1    1    2  501    0 -0.20684215997E+03 -0.39775291424E+02  0.24668077489E+03  0.32437194337E+03  0.00000000000E+00 0.  1.
          1    1    1    2  502    0  0.14057798834E+03  0.11109786745E+03 -0.29391516680E+03  0.34422526379E+03  0.00000000000E+00 0.  1.
         22    1    1    2    0    0 -0.18349103616E+02  0.24233910162E+02  0.13275001779E+03  0.13618567923E+03  0.00000000000E+00 0.  1.
         22    1    1    2    0    0  0.84613275244E+02 -0.95556486188E+02  0.57970706764E+03  0.59359138528E+03  0.00000000000E+00 0. -1.
</event>
<event>
 6    1  0.3240171E-005  0.1144128E+03  0.7818608E-02  0.1364429E+00
          2   -1    0    0  502    0  0.00000000000E+00  0.00000000000E+00  0.55583276024E+02  0.55583276024E+02  0.00000000000E+00 0.  1.
          1   -1    0    0  501    0 -0.00000000000E+00 -0.00000000000E+00 -0.26755142277E+03  0.26755142277E+03  0.00000000000E+00 0.  1.
          2    1    1    2  501    0  0.30828056152E+02  0.15986283812E+02 -0.17061202172E+02  0.38691277257E+02  0.00000000000E+00 0.  1.
          1    1    1    2  502    0 -0.51478349179E+02  0.21127939133E+02 -0.66021350222E+01  0.56035688923E+02  0.00000000000E+00 0.  1.
         22    1    1    2    0    0  0.69163554713E+01  0.13206794383E+02  0.13413537319E+02  0.20054385413E+02  0.00000000000E+00 0.  1.
         22    1    1    2    0    0  0.13733937556E+02 -0.50321017329E+02 -0.20171834687E+03  0.20835334720E+03  0.00000000000E+00 0.  1.
</event>
<event>
 6    1  0.3240171E-005  0.9043921E+02  0.7818608E-02  0.1398269E+00
          2   -1    0    0  502    0  0.00000000000E+00  0.00000000000E+00  0.10232257224E+03  0.10232257224E+03  0.00000000000E+00 0. -1.
          1   -1    0    0  501    0 -0.00000000000E+00 -0.00000000000E+00 -0.81199509667E+03  0.81199509667E+03  0.00000000000E+00 0. -1.
          2    1    1    2  501    0 -0.30252662189E+02 -0.65810301061E+02 -0.69961949576E+03  0.70335884024E+03  0.00000000000E+00 0. -1.
          1    1    1    2  502    0  0.22065771430E+02  0.60481516949E+02  0.40466338594E+02  0.76042335053E+02  0.00000000000E+00 0. -1.
         22    1    1    2    0    0  0.14629856261E+02 -0.94171036587E+01  0.39662139424E+02  0.43310504952E+02  0.00000000000E+00 0. -1.
         22    1    1    2    0    0 -0.64429655027E+01  0.14745887772E+02 -0.90181506689E+02  0.91605988665E+02  0.00000000000E+00 0.  1.
</event>
<event>
 6    1  0.3240171E-005  0.9480901E+02  0.7818608E-02  0.1385437E+00
          2   -1    0    0  502    0  0.00000000000E+00  0.00000000000E+00  0.60951953737E+02  0.60951953737E+02  0.00000000000E+00 0. -1.
          1   -1    0    0  501    0 -0.00000000000E+00 -0.00000000000E+00 -0.16558942250E+03  0.16558942250E+03  0.00000000000E+00 0. -1.
          2    1    1    2  501    0  0.22483090230E+02  0.25886512598E+02 -0.17101502613E+02  0.38315300761E+02  0.00000000000E+00 0. -1.
          1    1    1    2  502    0 -0.23832866909E+02  0.13172663989E+02 -0.32587995276E+02  0.42467658963E+02  0.00000000000E+00 0. -1.
         22    1    1    2    0    0  0.45656399914E+01  0.17979911096E+02  0.34762015305E+02  0.39402030146E+02  0.00000000000E+00 0. -1.
         22    1    1    2    0    0 -0.32158633128E+01 -0.57039087683E+02 -0.89709986178E+02  0.10635638636E+03  0.00000000000E+00 0. -1.
</event>
<event>
 6    1  0.3240171E-005  0.3518013E+03  0.7818608E-02  0.1172687E+00
          2   -1    0    0  502    0  0.00000000000E+00  0.00000000000E+00  0.41848781744E+03  0.41848781744E+03  0.00000000000E+00 0.  1.
          1   -1    0    0  501    0 -0.00000000000E+00 -0.00000000000E+00 -0.38474699109E+03  0.38474699109E+03  0.00000000000E+00 0. -1.
          2    1    1    2  501    0  0.11656906271E+03  0.20188706370E+03  0.10077715897E+03  0.25397395268E+03  0.00000000000E+00 0.  1.
          1    1    1    2  502    0 -0.11796025541E+02 -0.24976082018E+03 -0.21090958827E+03  0.32711231701E+03  0.00000000000E+00 0. -1.
         22    1    1    2    0    0 -0.15973460280E+01  0.21503209136E+02  0.10746119492E+03  0.10960313833E+03  0.00000000000E+00 0.  1.
         22    1    1    2    0    0 -0.10317569114E+03  0.26370547345E+02  0.36412060721E+02  0.11254540051E+03  0.00000000000E+00 0.  1.
</event>
<event>
 6    1  0.3240171E-005  0.1548870E+03  0.7818608E-02  0.1264149E+00
          2   -1    0    0  502    0  0.00000000000E+00  0.00000000000E+00  0.27098887021E+03  0.27098887021E+03  0.00000000000E+00 0. -1.
          1   -1    0    0  501    0 -0.00000000000E+00 -0.00000000000E+00 -0.52871140508E+03  0.52871140508E+03  0.00000000000E+00 0. -1.
          2    1    1    2  501    0 -0.55878301785E+02 -0.55767262996E+02  0.35930082010E+02  0.86737206698E+02  0.00000000000E+00 0. -1.
          1    1    1    2  502    0  0.55453732619E+02  0.67860055521E+02 -0.48143702329E+03  0.48934825123E+03  0.00000000000E+00 0. -1.
         22    1    1    2    0    0  0.17125027471E+02 -0.44813204460E+02  0.17970841469E+03  0.18600162411E+03  0.00000000000E+00 0. -1.
         22    1    1    2    0    0 -0.16700458304E+02  0.32720411935E+02  0.80759917091E+01  0.37613193255E+02  0.00000000000E+00 0. -1.
</event>
<event>
 6    1  0.3240171E-005  0.9854176E+02  0.7818608E-02  0.1286198E+00
          2   -1    0    0  502    0  0.00000000000E+00  0.00000000000E+00  0.76448373275E+03  0.76448373275E+03  0.00000000000E+00 0.  1.
          1   -1    0    0  501    0 -0.00000000000E+00 -0.00000000000E+00 -0.38391906958E+03  0.38391906958E+03  0.00000000000E+00 0. -1.
          2    1    1    2  501    0 -0.47482172310E+02 -0.29815763152E+02  0.28189616975E+03  0.28741779162E+03  0.00000000000E+00 0.  1.
          1    1    1    2  502    0 -0.31032002857E+02  0.20398616772E+02 -0.36942494531E+03  0.37128678806E+03  0.00000000000E+00 0. -1.
         22    1    1    2    0    0 -0.13500200372E+02 -0.36726622525E+02  0.16597822800E+03  0.17052821580E+03  0.00000000000E+00 0.  1.
         22    1    1    2    0    0  0.92014375538E+02  0.46143768905E+02  0.30211521073E+03  0.31917000684E+03  0.00000000000E+00 0. -1.
</event>
<event>
 6    1  0.3240171E-005  0.2019547E+03  0.7818608E-02  0.1221456E+00
          2   -1    0    0  502    0  0.00000000000E+00  0.00000000000E+00  0.23860579104E+03  0.23860579104E+03  0.00000000000E+00 0.  1.
          1   -1    0    0  501    0 -0.00000000000E+00 -0.00000000000E+00 -0.18224253668E+03  0.18224253668E+03  0.00000000000E+00 0.  1.
          2    1    1    2  501    0 -0.59043584742E+02  0.26340421343E+02 -0.15795892047E+02  0.66554285371E+02  0.00000000000E+00 0.  1.
          1    1    1    2  502    0  0.94481600995E+01 -0.19046422614E+02 -0.11936812490E+03  0.12124678629E+03  0.00000000000E+00 0.  1.
         22    1    1    2    0    0 -0.30969169419E+02  0.28489085688E+02  0.41901674732E+02  0.59384070281E+02  0.00000000000E+00 0. -1.
         22    1    1    2    0    0  0.80564594062E+02 -0.35783084417E+02  0.14962559658E+03  0.17366318579E+03  0.00000000000E+00 0.  1.
</event>
<event>
 6    1  0.3240171E-005  0.5998339E+02  0.7818608E-02  0.1481872E+00
          2   -1    0    0  502    0  0.00000000000E+00  0.00000000000E+00  0.38182254357E+02  0.38182254357E+02  0.00000000000E+00 0.  1.
          1   -1    0    0  501    0 -0.00000000000E+00 -0.00000000000E+00 -0.73733469961E+03  0.73733469961E+03  0.00000000000E+00 0.  1.
          2    1    1    2  501    0  0.18039793377E+02  0.24272554775E+02 -0.93433208605E+02  0.98205679726E+02  0.00000000000E+00 0.  1.
          1    1    1    2  502    0 -0.32742202636E+02  0.15511179309E+02 -0.52200708413E+03  0.52326288269E+03  0.00000000000E+00 0.  1.
         22    1    1    2    0    0  0.10649476946E+02 -0.23193724885E+02 -0.11532622031E+03  0.11811645662E+03  0.00000000000E+00 0.  1.
         22    1    1    2    0    0  0.40529323132E+01 -0.16590009198E+02  0.31614067793E+02  0.35931934932E+02  0.00000000000E+00 0.  1.
</event>
<event>
 6    1  0.3240171E-005  0.6381328E+02  0.7818608E-02  0.1388629E+00
          2   -1    0    0  502    0  0.00000000000E+00  0.00000000000E+00  0.20065054332E+03  0.20065054332E+03  0.00000000000E+00 0. -1.
          1   -1    0    0  501    0 -0.00000000000E+00 -0.00000000000E+00 -0.20507177026E+03  0.20507177026E+03  0.00000000000E+00 0.  1.
          2    1    1    2  501    0  0.29960381659E+02  0.38769216119E+02 -0.19123651340E+02  0.52596488744E+02  0.00000000000E+00 0. -1.
          1    1    1    2  502    0 -0.21865666310E+02 -0.21580198561E+02 -0.14663319314E+03  0.14981690714E+03  0.00000000000E+00 0.  1.
         22    1    1    2    0    0 -0.17802316468E+02 -0.52537524389E+02  0.15685980885E+03  0.16637942653E+03  0.00000000000E+00 0. -1.
         22    1    1    2    0    0  0.97076011198E+01  0.35348506831E+02  0.44758086849E+01  0.36929491170E+02  0.00000000000E+00 0. -1.
</event>
<event>
 6    1  0.3240171E-005  0.1619516E+03  0.7818608E-02  0.1223824E+00
          2   -1    0    0  502    0  0.00000000000E+00  0.00000000000E+00  0.39212094081E+03  0.39212094081E+03  0.00000000000E+00 0.  1.
          1   -1    0    0  501    0 -0.00000000000E+00 -0.00000000000E+00 -0.82091390142E+03  0.82091390142E+03  0.00000000000E+00 0. -1.
          2    1    1    2  501    0 -0.62449780427E+02  0.12417264993E+03  0.18656370060E+02  0.14023866160E+03  0.00000000000E+00 0.  1.
          1    1    1    2  502    0  0.75396542168E+01 -0.15559916431E+03 -0.73547940565E+03  0.75179645015E+03  0.00000000000E+00 0. -1.
         22    1    1    2    0    0  0.71940749741E+02 -0.91040664240E+01  0.25739723552E+03  0.26741670171E+03  0.00000000000E+00 0.  1.
         22    1    1    2    0    0 -0.17030623531E+02  0.40530580811E+02  0.30632839460E+02  0.53583028770E+02  0.00000000000E+00 0.  1.
</event>
<event>
 6    1  0.3240171E-005  0.1386208E+03  0.7818608E-02  0.1262833E+00
          2   -1    0    0  502    0  0.00000000000E+00  0.00000000000E+00  0.44179692457E+03  0.44179692457E+03  0.00000000000E+00 0.  1.
          1   -1    0    0  501    0 -0.00000000000E+00 -0.00000000000E+00 -0.14282955273E+03  0.14282955273E+03  0.00000000000E+00 0.  1.
          2    1    1    2  501    0 -0.37380283177E+02  0.10786085869E+03 -0.44621454786E+02  0.12256559319E+03  0.00000000000E+00 0.  1.
          1    1    1    2  502    0  0.15060086440E+02 -0.16320323619E+03  0.14530420294E+03  0.21903290597E+03  0.00000000000E+00 0.  1.
         22    1    1    2    0    0  0.13440819845E+02  0.35177909061E+01 -0.16690327235E+02  0.21716296051E+02  0.00000000000E+00 0. -1.
         22    1    1    2    0    0  0.88793768918E+01  0.51824586594E+02  0.21497495092E+03  0.22131168209E+03  0.00000000000E+00 0. -1.
</event>
<event>
 6    1  0.3240171E-005  0.1648638E+03  0.7818608E-02  0.1275783E+00
          2   -1    0    0  502    0  0.00000000000E+00  0.00000000000E+00  0.26925104963E+02  0.26925104963E+02  0.00000000000E+00 0. -1.
          1   -1    0    0  501    0 -0.00000000000E+00 -0.00000000000E+00 -0.10963137733E+04  0.10963137733E+04  0.00000000000E+00 0. -1.
          2    1    1    2  501    0  0.74900816664E+02  0.68936321098E+02 -0.66824347329E+03  0.67595243050E+03  0.00000000000E+00 0. -1.
          1    1    1    2  502    0 -0.46085823757E+02 -0.54288389843E+02 -0.15661230013E+03  0.17204227671E+03  0.00000000000E+00 0. -1.
         22    1    1    2    0    0  0.21942249675E+02  0.10497737043E+02 -0.90335192401E-01  0.24324328650E+02  0.00000000000E+00 0.  1.
         22    1    1    2    0    0 -0.50757242582E+02 -0.25145668298E+02 -0.24444255977E+03  0.25091984245E+03  0.00000000000E+00 0. -1.
</event>
<event>
 6    1  0.3240171E-005  0.1867147E+03  0.7818608E-02  0.1222628E+00
          2   -1    0    0  502    0  0.00000000000E+00  0.00000000000E+00  0.90787226602E+03  0.90787226602E+03  0.00000000000E+00 0. -1.
          1   -1    0    0  501    0 -0.00000000000E+00 -0.00000000000E+00 -0.47587510413E+02  0.47587510413E+02  0.00000000000E+00 0.  1.
          2    1    1    2  501    0  0.17841298896E+03  0.20780574354E+02  0.36120690510E+03  0.40340234901E+03  0.00000000000E+00 0. -1.
          1    1    1    2  502    0 -0.55842482336E+02 -0.34986649426E+01  0.18173329330E+03  0.19015155373E+03  0.00000000000E+00 0.  1.
         22    1    1    2    0    0 -0.14451398098E+02  0.46314531855E+02  0.91271841703E+02  0.10336550612E+03  0.00000000000E+00 0.  1.
         22    1    1    2    0    0 -0.10811910852E+03 -0.63596441267E+02  0.22607271550E+03  0.25854036757E+03  0.00000000000E+00 0.  1.
</event>
<event>
 6    1  0.3240171E-005  0.7965195E+02  0.7818608E-02  0.1330762E+00
          2   -1    0    0  502    0  0.00000000000E+00  0.00000000000E+00  0.98944530182E+02  0.98944530182E+02  0.00000000000E+00 0.  1.
          1   -1    0    0  501    0 -0.00000000000E+00 -0.00000000000E+00 -0.11360827687E+04  0.11360827687E+04  0.00000000000E+00 0. -1.
          2    1    1    2  501    0  0.17922698179E+02 -0.21925426971E+02 -0.16525817715E+02  0.32787956768E+02  0.00000000000E+00 0.  1.
          1    1    1    2  502    0  0.22977053272E+02 -0.30923501481E+02 -0.10577197505E+04  0.10584211253E+04  0.00000000000E+00 0. -1.
         22    1    1    2    0    0  0.78880597777E+01 -0.23327343437E+02 -0.24211538099E+02  0.34533824231E+02  0.00000000000E+00 0.  1.
         22    1    1    2    0    0 -0.48787811229E+02  0.76176271888E+02  0.61318867758E+02  0.10928439260E+03  0.00000000000E+00 0.  1.
</event>
<event>
 6    1  0.3240171E-005  0.4912020E+02  0.7818608E-02  0.1557125E+00
          2   -1    0    0  502    0  0.00000000000E+00  0.00000000000E+00  0.46750164985E+02  0.46750164985E+02  0.00000000000E+00 0. -1.
          1   -1    0    0  501    0 -0.00000000000E+00 -0.00000000000E+00 -0.35106216751E+03  0.35106216751E+03  0.00000000000E+00 0. -1.
          2    1    1    2  501    0  0.20817653223E+01 -0.22404581226E+02 -0.13989501908E+03  0.14169303219E+03  0.00000000000E+00 0. -1.
          1    1    1    2  502    0 -0.19869759141E+02  0.44588115193E+02 -0.97710575541E+02  0.10922574750E+03  0.00000000000E+00 0. -1.
         22    1    1    2    0    0  0.11068773847E+02  0.25250293715E+01  0.37710719645E+02  0.39382634548E+02  0.00000000000E+00 0. -1.
         22    1    1    2    0    0  0.67192199722E+01 -0.24708563339E+02 -0.10441712755E+03  0.10751091826E+03  0.00000000000E+00 0. -1.
</event>
<event>
 6    1  0.3240171E-005  0.1338030E+03  0.7818608E-02  0.1325094E+00
          2   -1    0    0  502    0  0.00000000000E+00  0.00000000000E+00  0.35834126071E+02  0.35834126071E+02  0.00000000000E+00 0. -1.
          1   -1    0    0  501    0 -0.00000000000E+00 -0.00000000000E+00 -0.74653153154E+03  0.74653153154E+03  0.00000000000E+00 0. -1.
          2    1    1    2  501    0 -0.20223064590E+02 -0.24771443534E+02 -0.35279225070E+03  0.35423857626E+03  0.00000000000E+00 0. -1.
          1    1    1    2  502    0  0.62372873044E+02 -0.30452567167E+02 -0.21858875367E+03  0.22934423335E+03  0.00000000000E+00 0. -1.
         22    1    1    2    0    0 -0.27218751804E+02  0.65869234079E+02 -0.15755145692E+03  0.17292217332E+03  0.00000000000E+00 0. -1.
         22    1    1    2    0    0 -0.14931056650E+02 -0.10645223377E+02  0.18235055831E+02  0.25860674674E+02  0.00000000000E+00 0. -1.
</event>
<event>
 6    1  0.3240171E-005  0.1330316E+03  0.7818608E-02  0.1296057E+00
          2   -1    0    0  502    0  0.00000000000E+00  0.00000000000E+00  0.24740362966E+03  0.24740362966E+03  0.00000000000E+00 0. -1.
          1   -1    0    0  501    0 -0.00000000000E+00 -0.00000000000E+00 -0.37140178960E+03  0.37140178960E+03  0.00000000000E+00 0.  1.
          2    1    1    2  501    0  0.33697203791E+02  0.16595998849E+02  0.84093198773E+01  0.38492147016E+02  0.00000000000E+00 0. -1.
          1    1    1    2  502    0  0.44931883344E+02  0.10717933622E+02 -0.32915983300E+03  0.33238523418E+03  0.00000000000E+00 0.  1.
         22    1    1    2    0    0 -0.46463134105E+00  0.31586851368E+02  0.11844229521E+03  0.12258271639E+03  0.00000000000E+00 0. -1.
         22    1    1    2    0    0 -0.78164455793E+02 -0.58900783839E+02  0.78310057968E+02  0.12534532167E+03  0.00000000000E+00 0. -1.
</event>
<event>
 6    1  0.3240171E-005  0.9992647E+02  0.7818608E-02  0.1346692E+00
          2   -1    0    0  502    0  0.00000000000E+00  0.00000000000E+00  0.30269752880E+03  0.30269752880E+03  0.00000000000E+00 0. -1.
          1   -1    0    0  501    0 -0.00000000000E+00 -0.00000000000E+00 -0.91422967828E+02  0.91422967828E+02  0.00000000000E+00 0. -1.
          2    1    1    2  501    0 -0.39762250937E+02  0.71425199023E+01  0.53197667652E+02  0.66798533170E+02  0.00000000000E+00 0. -1.
          1    1    1    2  502    0  0.22211021710E+02  0.50854322264E+02 -0.52452763813E+02  0.76359570520E+02  0.00000000000E+00 0. -1.
         22    1    1    2    0    0  0.26932224994E+02  0.13685865742E+02  0.15983614345E+03  0.16266603954E+03  0.00000000000E+00 0. -1.
         22    1    1    2    0    0 -0.93809957666E+01 -0.71682707909E+02  0.50693513676E+02  0.88296353399E+02  0.00000000000E+00 0. -1.
</event>
<event>
 6    1  0.3240171E-005  0.2833798E+03  0.7818608E-02  0.1226453E+00
          2   -1    0    0  502    0  0.00000000000E+00  0.00000000000E+00  0.19134296399E+03  0.19134296399E+03  0.00000000000E+00 0. -1.
          1   -1    0    0  501    0 -0.00000000000E+00 -0.00000000000E+00 -0.33592500786E+03  0.33592500786E+03  0.00000000000E+00 0. -1.
          2    1    1    2  501    0 -0.27134857551E+02 -0.42375188492E+02 -0.12265989778E+03  0.13257981602E+03  0.00000000000E+00 0. -1.
          1    1    1    2  502    0  0.10978853347E+03 -0.73453207271E+02 -0.12425412155E+03  0.18135044103E+03  0.00000000000E+00 0. -1.
         22    1    1    2    0    0 -0.83810994619E+02  0.12859075146E+03  0.53025610112E+02  0.16239328652E+03  0.00000000000E+00 0. -1.
         22    1    1    2    0    0  0.11573186949E+01 -0.12762355692E+02  0.49306365337E+02  0.50944428273E+02  0.00000000000E+00 0. -1.
</event>
<event>
 6    1  0.3240171E-005  0.7010103E+02  0.7818608E-02  0.1384495E+00
          2   -1    0    0  502    0  0.00000000000E+00  0.00000000000E+00  0.57613862350E+02  0.57613862350E+02  0.00000000000E+00 0. -1.
          1   -1    0    0  501    0 -0.00000000000E+00 -0.00000000000E+00 -0.45454559651E+03  0.45454559651E+03  0.00000000000E+00 0. -1.
          2    1    1    2  501    0 -0.21783748261E+02 -0.12631996056E+02 -0.51554099753E+02  0.57375292714E+02  0.00000000000E+00 0. -1.
          1    1    1    2  502    0  0.51788695851E+02  0.59789951743E+02 -0.30628860640E+03  0.31633782220E+03  0.00000000000E+00 0. -1.
         22    1    1    2    0    0 -0.37168070313E+02 -0.11148696747E+01 -0.72247887429E+02  0.81255557491E+02  0.00000000000E+00 0. -1.
         22    1    1    2    0    0  0.71631227228E+01 -0.46043086012E+02  0.33158859421E+02  0.57190786450E+02  0.00000000000E+00 0.  1.
</event>
<event>
 6    1  0.3240171E-005  0.8726298E+02  0.7818608E-02  0.1326790E+00
          2   -1    0    0  502    0  0.00000000000E+00  0.00000000000E+00  0.14560855001E+03  0.14560855001E+03  0.00000000000E+00 0.  1.
          1   -1    0    0  501    0 -0.00000000000E+00 -0.00000000000E+00 -0.46677699235E+03  0.46677699235E+03  0.00000000000E+00 0.  1.
          2    1    1    2  501    0 -0.10820731795E+03  0.36950313260E+02 -0.24567439249E+03  0.27097980816E+03  0.00000000000E+00 0.  1.
          1    1    1    2  502    0  0.47108399598E+02 -0.29945114435E+02 -0.16796464076E+03  0.17699726477E+03  0.00000000000E+00 0.  1.
         22    1    1    2    0    0  0.58036358454E+02 -0.23710963068E+02  0.11807290849E+03  0.13368485476E+03  0.00000000000E+00 0.  1.
         22    1    1    2    0    0  0.30625598932E+01  0.16705764243E+02 -0.25602317587E+02  0.30723614662E+02  0.00000000000E+00 0.  1.
</event>
<event>
 6    1  0.5114060E-005  0.7092433E+03  0.7818608E-02  0.1099377E+00
          2   -1    0    0  502    0  0.00000000000E+00  0.00000000000E+00  0.13296930710E+04  0.13296930710E+04  0.00000000000E+00 0.  1.
          1   -1    0    0  501    0 -0.00000000000E+00 -0.00000000000E+00 -0.95468594998E+03  0.95468594998E+03  0.00000000000E+00 0. -1.
          2    1    1    2  501    0  0.29570785008E+02  0.18031778543E+03  0.94961270263E+01  0.18297298023E+03  0.00000000000E+00 0.  1.
          1    1    1    2  502    0  0.26974436130E+02  0.52198872732E+02 -0.85208690423E+03  0.85411031774E+03  0.00000000000E+00 0. -1.
         22    1    1    2    0    0  0.50938714260E+01  0.14796978887E+02  0.74907406371E+02  0.76524621133E+02  0.00000000000E+00 0.  1.
         22    1    1    2    0    0 -0.61639092564E+02 -0.24731363705E+03  0.11426904918E+04  0.11707711018E+04  0.00000000000E+00 0.  1.
</event>
<event>
 6    1  0.3240171E-005  0.1611340E+03  0.7818608E-02  0.1219102E+00
          2   -1    0    0  502    0  0.00000000000E+00  0.00000000000E+00  0.69206204571E+03  0.69206204571E+03  0.00000000000E+00 0. -1.
          1   -1    0    0  501    0 -0.00000000000E+00 -0.00000000000E+00 -0.73907255216E+02  0.73907255216E+02  0.00000000000E+00 0. -1.
          2    1    1    2  501    0  0.30682684675E+02  0.22989175580E+02 -0.12174259566E+01  0.38358981460E+02  0.00000000000E+00 0. -1.
          1    1    1    2  502    0 -0.82365349116E+02  0.25676045350E+02 -0.45886722693E+01  0.86396562160E+02  0.00000000000E+00 0. -1.
         22    1    1    2    0    0  0.94790013874E+02 -0.24073190292E+02  0.43325785918E+03  0.44415879791E+03  0.00000000000E+00 0. -1.
         22    1    1    2    0    0 -0.43107349433E+02 -0.24592030638E+02  0.19070302954E+03  0.19705495940E+03  0.00000000000E+00 0. -1.
</event>
<event>
 6    1  0.3240171E-005  0.8985825E+02  0.7818608E-02  0.1407991E+00
          2   -1    0    0  502    0  0.00000000000E+00  0.00000000000E+00  0.78722361677E+02  0.78722361677E+02  0.00000000000E+00 0.  1.
          1   -1    0    0  501    0 -0.00000000000E+00 -0.00000000000E+00 -0.20200844566E+03  0.20200844566E+03  0.00000000000E+00 0.  1.
          2    1    1    2  501    0  0.26275363006E+02 -0.56515685301E+01 -0.20286816492E+02  0.33673280971E+02  0.00000000000E+00 0.  1.
          1    1    1    2  502    0 -0.58393391918E+02  0.53412248967E+02 -0.72584921383E+02  0.10738355261E+03  0.00000000000E+00 0.  1.
         22    1    1    2    0    0  0.46609757382E+02 -0.52405839127E+02 -0.68883266308E+02  0.98304353083E+02  0.00000000000E+00 0.  1.
         22    1    1    2    0    0 -0.14491728470E+02  0.46451586897E+01  0.38468920199E+02  0.41369620672E+02  0.00000000000E+00 0.  1.
</event>
<event>
 6    1  0.3240171E-005  0.1188178E+03  0.7818608E-02  0.1297144E+00
          2   -1    0    0  502    0  0.00000000000E+00  0.00000000000E+00  0.27976183351E+03  0.27976183351E+03  0.00000000000E+00 0.  1.
          1   -1    0    0  501    0 -0.00000000000E+00 -0.00000000000E+00 -0.20690384181E+03  0.20690384181E+03  0.00000000000E+00 0. -1.
          2    1    1    2  501    0  0.53978480339E+02  0.86598394741E+02 -0.11911400890E+03  0.15684739535E+03  0.00000000000E+00 0.  1.
          1    1    1    2  502    0  0.31388701475E+01 -0.47603581088E+02 -0.36391814237E+02  0.60002646455E+02  0.00000000000E+00 0. -1.
         22    1    1    2    0    0 -0.21650730711E+02 -0.13889074021E+02 -0.99444583773E+01  0.27578121218E+02  0.00000000000E+00 0.  1.
         22    1    1    2    0    0 -0.35466619776E+02 -0.25105739632E+02  0.23830827321E+03  0.24223751230E+03  0.00000000000E+00 0.  1.
</event>
<event>
 6    1  0.3240171E-005  0.4362451E+03  0.7818608E-02  0.1140304E+00
          2   -1    0    0  502    0  0.00000000000E+00  0.00000000000E+00  0.16977203362E+03  0.16977203362E+03  0.00000000000E+00 0.  1.
          1   -1    0    0  501    0 -0.00000000000E+00 -0.00000000000E+00 -0.41176466951E+03  0.41176466951E+03  0.00000000000E+00 0.  1.
          2    1    1    2  501    0 -0.47296548537E+02 -0.12169108319E+03 -0.24064245578E+03  0.27377814879E+03  0.00000000000E+00 0.  1.
          1    1    1    2  502    0 -0.40290800203E+01 -0.19988162309E+02 -0.88908053115E+02  0.91216237737E+02  0.00000000000E+00 0.  1.
         22    1    1    2    0    0  0.56634768697E+02  0.16464891722E+03  0.81227710792E+02  0.19213199621E+03  0.00000000000E+00 0.  1.
         22    1    1    2    0    0 -0.53091401397E+01 -0.22969671721E+02  0.63301622226E+01  0.24410320395E+02  0.00000000000E+00 0. -1.
</event>
<event>
 6    1  0.3240171E-005  0.1066682E+03  0.7818608E-02  0.1268536E+00
          2   -1    0    0  502    0  0.00000000000E+00  0.00000000000E+00  0.34461526037E+03  0.34461526037E+03  0.00000000000E+00 0.  1.
          1   -1    0    0  501    0 -0.00000000000E+00 -0.00000000000E+00 -0.53405665768E+03  0.53405665768E+03  0.00000000000E+00 0.  1.
          2    1    1    2  501    0  0.83889898287E+01 -0.42443731907E+02 -0.18568991951E+02  0.47081344401E+02  0.00000000000E+00 0.  1.
          1    1    1    2  502    0  0.43036208903E+02 -0.35862916892E+02 -0.48009323347E+03  0.48335057351E+03  0.00000000000E+00 0.  1.
         22    1    1    2    0    0  0.16526585406E+02 -0.13089207949E+02  0.27113620995E+01  0.21255749207E+02  0.00000000000E+00 0. -1.
         22    1    1    2    0    0 -0.67951784138E+02  0.91395856748E+02  0.30650946602E+03  0.32698425093E+03  0.00000000000E+00 0.  1.
</event>
<event>
 6    1  0.3240171E-005  0.1340686E+03  0.7818608E-02  0.1222584E+00
          2   -1    0    0  502    0  0.00000000000E+00  0.00000000000E+00  0.84110952250E+02  0.84110952250E+02  0.00000000000E+00 0.  1.
          1   -1    0    0  501    0 -0.00000000000E+00 -0.00000000000E+00 -0.88975807782E+03  0.88975807782E+03  0.00000000000E+00 0. -1.
          2    1    1    2  501    0 -0.65398283806E+02  0.84754007239E+02 -0.77208836563E+01  0.10733028143E+03  0.00000000000E+00 0.  1.
          1    1    1    2  502    0  0.18579676057E+02  0.27548073651E+02 -0.61488757062E+03  0.61578472312E+03  0.00000000000E+00 0. -1.
         22    1    1    2    0    0 -0.22513145610E+02  0.95031050649E+01 -0.63893149169E+01  0.25258148710E+02  0.00000000000E+00 0.  1.
         22    1    1    2    0    0  0.69331753359E+02 -0.12180518595E+03 -0.17664935638E+03  0.22549587681E+03  0.00000000000E+00 0.  1.
</event>
<event>
 6    1  0.3240171E-005  0.4151178E+03  0.7818608E-02  0.1081078E+00
          2   -1    0    0  502    0  0.00000000000E+00  0.00000000000E+00  0.12289033351E+04  0.12289033351E+04  0.00000000000E+00 0. -1.
          1   -1    0    0  501    0 -0.00000000000E+00 -0.00000000000E+00 -0.45570541691E+03  0.45570541691E+03  0.00000000000E+00 0. -1.
          2    1    1    2  501    0 -0.43807812975E+02 -0.30663268058E+03  0.41871991438E+03  0.52083499496E+03  0.00000000000E+00 0. -1.
          1    1    1    2  502    0  0.13535224381E+03  0.36394362378E+03 -0.29865731080E+03  0.48986873802E+03  0.00000000000E+00 0. -1.
         22    1    1    2    0    0 -0.93749061544E+02 -0.85057903657E+02  0.60671156186E+03  0.61977629255E+03  0.00000000000E+00 0. -1.
         22    1    1    2    0    0  0.22046307093E+01  0.27746960451E+02  0.46423752751E+02  0.54128726480E+02  0.00000000000E+00 0.  1.
</event>
<event>
 6    1  0.3240171E-005  0.2324519E+03  0.7818608E-02  0.1238193E+00
          2   -1    0    0  502    0  0.00000000000E+00  0.00000000000E+00  0.12271912129E+03  0.12271912129E+03  0.00000000000E+00 0. -1.
          1   -1    0    0  501    0 -0.00000000000E+00 -0.00000000000E+00 -0.26241250108E+04  0.26241250108E+04  0.00000000000E+00 0.  1.
          2    1    1    2  501    0  0.55148365811E+02 -0.82305937881E+02 -0.81835052586E+02  0.12850130542E+03  0.00000000000E+00 0. -1.
          1    1    1    2  502    0 -0.87112130528E+02  0.74993190753E+02 -0.24734173491E+04  0.24760868088E+04  0.00000000000E+00 0.  1.
         22    1    1    2    0    0  0.37011761658E+02  0.24836554889E+02  0.90742860820E+02  0.10109892062E+03  0.00000000000E+00 0. -1.
         22    1    1    2    0    0 -0.50479969412E+01 -0.17523807761E+02 -0.36896348714E+02  0.41157097322E+02  0.00000000000E+00 0.  1.
</event>
<event>
 6    1  0.3240171E-005  0.8423239E+02  0.7818608E-02  0.1349933E+00
          2   -1    0    0  502    0  0.00000000000E+00  0.00000000000E+00  0.24307960191E+03  0.24307960191E+03  0.00000000000E+00 0.  1.
          1   -1    0    0  501    0 -0.00000000000E+00 -0.00000000000E+00 -0.51415336826E+03  0.51415336826E+03  0.00000000000E+00 0.  1.
          2    1    1    2  501    0 -0.73895848213E+02 -0.70343213290E+02  0.15066346009E+03  0.18195670432E+03  0.00000000000E+00 0.  1.
          1    1    1    2  502    0  0.60198760839E+02  0.31671063258E+02 -0.43843525289E+03  0.44368053601E+03  0.00000000000E+00 0.  1.
         22    1    1    2    0    0  0.25715092762E+02  0.40194786657E+02 -0.46868878778E+02  0.66884816424E+02  0.00000000000E+00 0. -1.
         22    1    1    2    0    0 -0.12018005388E+02 -0.15226366252E+01  0.63566905230E+02  0.64710913425E+02  0.00000000000E+00 0.  1.
</event>
<event>
 6    1  0.3240171E-005  0.9689464E+02  0.7818608E-02  0.1335506E+00
          2   -1    0    0  502    0  0.00000000000E+00  0.00000000000E+00  0.29368259670E+02  0.29368259670E+02  0.00000000000E+00 0.  1.
          1   -1    0    0  501    0 -0.00000000000E+00 -0.00000000000E+00 -0.12695435957E+04  0.12695435957E+04  0.00000000000E+00 0. -1.
          2    1    1    2  501    0  0.13246656903E+02 -0.27628988677E+02 -0.16218140276E+03  0.16505042362E+03  0.00000000000E+00 0.  1.
          1    1    1    2  502    0 -0.19904734773E+02  0.94571004477E+01 -0.95251102686E+03  0.95276591643E+03  0.00000000000E+00 0. -1.
         22    1    1    2    0    0 -0.16896849471E+02  0.52175411137E+02 -0.12840558626E+03  0.13962725963E+03  0.00000000000E+00 0. -1.
         22    1    1    2    0    0  0.23554927342E+02 -0.34003522908E+02  0.29226798595E+01  0.41468255688E+02  0.00000000000E+00 0.  1.
</event>
<event>
 6    1  0.3240171E-005  0.3519738E+03  0.7818608E-02  0.1173252E+00
          2   -1    0    0  502    0  0.00000000000E+00  0.00000000000E+00  0.87668501310E+02  0.87668501310E+02  0.00000000000E+00 0.  1.
          1   -1    0    0  501    0 -0.00000000000E+00 -0.00000000000E+00 -0.13426006547E+04  0.13426006547E+04  0.00000000000E+00 0.  1.
          2    1    1    2  501    0  0.87096728586E+02 -0.82277528233E+02 -0.36634566986E+03  0.38544076278E+03  0.00000000000E+00 0.  1.
          1    1    1    2  502    0  0.80920011862E+02 -0.19509029141E+02 -0.78630833302E+03  0.79070186866E+03  0.00000000000E+00 0.  1.
         22    1    1    2    0    0 -0.14678620087E+03  0.10074888178E+03 -0.12909030789E+03  0.21991096730E+03  0.00000000000E+00 0.  1.
         22    1    1    2    0    0 -0.21230539574E+02  0.10376755958E+01  0.26812157337E+02  0.34215557314E+02  0.00000000000E+00 0.  1.
</event>
<event>
 6    1  0.3240171E-005  0.2115245E+03  0.7818608E-02  0.1231397E+00
          2   -1    0    0  502    0  0.00000000000E+00  0.00000000000E+00  0.66411948783E+03  0.66411948783E+03  0.00000000000E+00 0. -1.
          1   -1    0    0  501    0 -0.00000000000E+00 -0.00000000000E+00 -0.27590731045E+03  0.27590731045E+03  0.00000000000E+00 0. -1.
          2    1    1    2  501    0 -0.71754230073E+02 -0.34063003356E+02 -0.74655036596E+02  0.10900611093E+03  0.00000000000E+00 0. -1.
          1    1    1    2  502    0  0.10365691806E+03  0.16724751182E+03  0.57752007113E+03  0.61011959437E+03  0.00000000000E+00 0. -1.
         22    1    1    2    0    0 -0.27742593602E+02 -0.20393145203E+01  0.18936601504E+02  0.33651228506E+02  0.00000000000E+00 0. -1.
         22    1    1    2    0    0 -0.41600943878E+01 -0.13114519394E+03 -0.13358945867E+03  0.18724986448E+03  0.00000000000E+00 0. -1.
</event>
<event>
 6    1  0.3240171E-005  0.1059986E+03  0.7818608E-02  0.1362749E+00
          2   -1    0    0  502    0  0.00000000000E+00  0.00000000000E+00  0.15060673011E+03  0.15060673011E+03  0.00000000000E+00 0.  1.
          1   -1    0    0  501    0 -0.00000000000E+00 -0.00000000000E+00 -0.17520710673E+03  0.17520710673E+03  0.00000000000E+00 0. -1.
          2    1    1    2  501    0 -0.45764644413E+01 -0.56560317474E+02  0.23079081939E+02  0.61258938635E+02  0.00000000000E+00 0.  1.
          1    1    1    2  502    0 -0.89553845851E+01  0.33547551869E+02 -0.11197524335E+03  0.11723520066E+03  0.00000000000E+00 0. -1.
         22    1    1    2    0    0  0.32464869318E+02  0.19362608464E+02 -0.31745197626E+02  0.49362292478E+02  0.00000000000E+00 0.  1.
         22    1    1    2    0    0 -0.18933020292E+02  0.36501571407E+01  0.96040982421E+02  0.97957405074E+02  0.00000000000E+00 0. -1.
</event>
<event>
 6    1  0.3559039E-005  0.6733632E+02  0.7818608E-02  0.1375162E+00
          2   -1    0    0  502    0  0.00000000000E+00  0.00000000000E+00  0.36957125381E+03  0.36957125381E+03  0.00000000000E+00 0. -1.
          1   -1    0    0  501    0 -0.00000000000E+00 -0.00000000000E+00 -0.16783137699E+03  0.16783137699E+03  0.00000000000E+00 0. -1.
          2    1    1    2  501    0 -0.83047384375E+01  0.26472952864E+02 -0.91142561829E+02  0.95271992163E+02  0.00000000000E+00 0. -1.
          1    1    1    2  502    0  0.58032898762E+02 -0.41105151827E+02  0.29908497800E+03  0.30742360825E+03  0.00000000000E+00 0. -1.
         22    1    1    2    0    0 -0.52241799006E+02  0.30475743385E+02 -0.55977883157E+02  0.82410556975E+02  0.00000000000E+00 0.  1.
         22    1    1    2    0    0  0.25136386821E+01 -0.15843544422E+02  0.49775343808E+02  0.52296473404E+02  0.00000000000E+00 0.  1.
</event>
<event>
 6    1  0.3240171E-005  0.1277775E+03  0.7818608E-02  0.1235561E+00
          2   -1    0    0  502    0  0.00000000000E+00  0.00000000000E+00  0.46705558745E+03  0.46705558745E+03  0.00000000000E+00 0. -1.
          1   -1    0    0  501    0 -0.00000000000E+00 -0.00000000000E+00 -0.21382048964E+04  0.21382048964E+04  0.00000000000E+00 0. -1.
          2    1    1    2  501    0  0.38909048378E+02 -0.10197744866E+03  0.10350700930E+03  0.15042278768E+03  0.00000000000E+00 0. -1.
          1    1    1    2  502    0 -0.11393047289E+03  0.37010609030E+02 -0.20947456499E+04  0.20981680761E+04  0.00000000000E+00 0. -1.
         22    1    1    2    0    0  0.19383030192E+02 -0.36651562019E+02  0.87252692661E+02  0.96602646105E+02  0.00000000000E+00 0. -1.
         22    1    1    2    0    0  0.55638394316E+02  0.10161840165E+03  0.23283663900E+03  0.26006697395E+03  0.00000000000E+00 0. -1.
</event>
<event>
 6    1  0.3240171E-005  0.9465050E+02  0.7818608E-02  0.1346231E+00
          2   -1    0    0  502    0  0.00000000000E+00  0.00000000000E+00  0.12679200071E+03  0.12679200071E+03  0.00000000000E+00 0.  1.
          1   -1    0    0  501    0 -0.00000000000E+00 -0.00000000000E+00 -0.43486787496E+03  0.43486787496E+03  0.00000000000E+00 0.  1.
          2    1    1    2  501    0  0.12454673943E+02  0.26062467026E+02 -0.21326156679E+03  0.21520889145E+03  0.00000000000E+00 0.  1.
          1    1    1    2  502    0 -0.36168784172E+02 -0.97314323745E+00 -0.18379396884E+03  0.18732151755E+03  0.00000000000E+00 0.  1.
         22    1    1    2    0    0  0.35705698293E+02  0.29946895090E+01  0.11409624585E+03  0.11959021019E+03  0.00000000000E+00 0.  1.
         22    1    1    2    0    0 -0.11991588064E+02 -0.28084013298E+02 -0.25116584474E+02  0.39539256478E+02  0.00000000000E+00 0. -1.
</event>
<event>
 6    1  0.3240171E-005  0.9848158E+02  0.7818608E-02  0.1407153E+00
          2   -1    0    0  502    0  0.00000000000E+00  0.00000000000E+00  0.62856876478E+02  0.62856876478E+02  0.00000000000E+00 0.  1.
          1   -1    0    0  501    0 -0.00000000000E+00 -0.00000000000E+00 -0.38880199708E+03  0.38880199708E+03  0.00000000000E+00 0.  1.
          2    1    1    2  501    0  0.31619388546E+02 -0.14960707938E+02 -0.71576802490E+02  0.79667102174E+02  0.00000000000E+00 0.  1.
          1    1    1    2  502    0 -0.83304839662E+02  0.52043040453E+02 -0.19007117978E+03  0.21395146121E+03  0.00000000000E+00 0.  1.
         22    1    1    2    0    0  0.89799222239E+01  0.75204247981E+01  0.37329377004E+02  0.39123882473E+02  0.00000000000E+00 0.  1.
         22    1    1    2    0    0  0.42705528892E+02 -0.44602757313E+02 -0.10162651533E+03  0.11891642770E+03  0.00000000000E+00 0.  1.
</event>
<event>
 6    1  0.3240171E-005  0.7483171E+03  0.7818608E-02  0.1035070E+00
          2   -1    0    0  502    0  0.00000000000E+00  0.00000000000E+00  0.47758931326E+03  0.47758931326E+03  0.00000000000E+00 0.  1.
          1   -1    0    0  501    0 -0.00000000000E+00 -0.00000000000E+00 -0.17014812333E+04  0.17014812333E+04  0.00000000000E+00 0.  1.
          2    1    1    2  501    0 -0.71471732395E+02  0.79911288457E+02 -0.33830288833E+03  0.35488430059E+03  0.00000000000E+00 0.  1.
          1    1    1    2  502    0  0.15538059738E+03 -0.27050433686E+03 -0.13038868826E+04  0.13406851714E+04  0.00000000000E+00 0.  1.
         22    1    1    2    0    0 -0.99667633676E+02  0.11345196001E+03  0.34202907224E+03  0.37388349882E+03  0.00000000000E+00 0.  1.
         22    1    1    2    0    0  0.15758768687E+02  0.77141088389E+02  0.76268778647E+02  0.10961757571E+03  0.00000000000E+00 0.  1.
</event>
<event>
 6    1  0.3240171E-005  0.2097702E+03  0.7818608E-02  0.1247256E+00
          2   -1    0    0  502    0  0.00000000000E+00  0.00000000000E+00  0.21682627707E+03  0.21682627707E+03  0.00000000000E+00 0.  1.
          1   -1    0    0  501    0 -0.00000000000E+00 -0.00000000000E+00 -0.14384845948E+04  0.14384845948E+04  0.00000000000E+00 0.  1.
          2    1    1    2  501    0  0.71899137538E+02 -0.50354678223E+02  0.86667744859E+02  0.12335468210E+03  0.00000000000E+00 0.  1.
          1    1    1    2  502    0  0.36271261750E+01 -0.22771915248E+02 -0.13588724131E+04  0.13590680451E+04  0.00000000000E+00 0.  1.
         22    1    1    2    0    0 -0.20980944763E+01  0.20552808640E+02  0.76244613917E+02  0.78994057338E+02  0.00000000000E+00 0. -1.
         22    1    1    2    0    0 -0.73428169237E+02  0.52573784831E+02 -0.25698263391E+02  0.93894087301E+02  0.00000000000E+00 0. -1.
</event>
<event>
 6    1  0.3240171E-005  0.1343750E+03  0.7818608E-02  0.1222140E+00
          2   -1    0    0  502    0  0.00000000000E+00  0.00000000000E+00  0.88660253681E+02  0.88660253681E+02  0.00000000000E+00 0. -1.
          1   -1    0    0  501    0 -0.00000000000E+00 -0.00000000000E+00 -0.18374807429E+04  0.18374807429E+04  0.00000000000E+00 0. -1.
          2    1    1    2  501    0 -0.66381161604E+02 -0.94986252417E+02 -0.11345523027E+03  0.16217563331E+03  0.00000000000E+00 0. -1.
          1    1    1    2  502    0 -0.25431148712E+02  0.27331435384E+02 -0.15892792643E+04  0.15897176890E+04  0.00000000000E+00 0. -1.
         22    1    1    2    0    0  0.10176478466E+03  0.83631512983E+02 -0.82386164801E+01  0.13197793816E+03  0.00000000000E+00 0. -1.
         22    1    1    2    0    0 -0.99524743400E+01 -0.15976695950E+02 -0.37847378160E+02  0.42269736131E+02  0.00000000000E+00 0. -1.
</event>
<event>
 6    1  0.3240171E-005  0.5884205E+02  0.7818608E-02  0.1403909E+00
          2   -1    0    0  502    0  0.00000000000E+00  0.00000000000E+00  0.33596771919E+03  0.33596771919E+03  0.00000000000E+00 0.  1.
          1   -1    0    0  501    0 -0.00000000000E+00 -0.00000000000E+00 -0.44035070671E+02  0.44035070671E+02  0.00000000000E+00 0.  1.
          2    1    1    2  501    0 -0.33796125621E+02  0.73301910415E+01  0.13368821481E+03  0.13808855342E+03  0.00000000000E+00 0.  1.
          1    1    1    2  502    0 -0.29707121302E+02  0.26005640601E+01 -0.71961503590E+00  0.29829412251E+02  0.00000000000E+00 0.  1.
         22    1    1    2    0    0 -0.20189089758E+02  0.82023950959E+00  0.11533734766E+03  0.11709387645E+03  0.00000000000E+00 0. -1.
         22    1    1    2    0    0  0.83692336681E+02 -0.10750994611E+02  0.43626701096E+02  0.94990947741E+02  0.00000000000E+00 0.  1.
</event>
<event>
 6    1  0.3240171E-005  0.2248739E+03  0.7818608E-02  0.1181524E+00
          2   -1    0    0  502    0  0.00000000000E+00  0.00000000000E+00  0.20706749083E+03  0.20706749083E+03  0.00000000000E+00 0. -1.
          1   -1    0    0  501    0 -0.00000000000E+00 -0.00000000000E+00 -0.33086017689E+03  0.33086017689E+03  0.00000000000E+00 0. -1.
          2    1    1    2  501    0 -0.39228108044E+02  0.19315891711E+03  0.13284890263E+02  0.19754923445E+03  0.00000000000E+00 0. -1.
          1    1    1    2  502    0  0.97737819287E+02 -0.76933615636E+02 -0.27722602031E+02  0.12743627897E+03  0.00000000000E+00 0. -1.
         22    1    1    2    0    0 -0.67522108590E+02 -0.36164249424E+01 -0.56967903335E+02  0.88417507815E+02  0.00000000000E+00 0. -1.
         22    1    1    2    0    0  0.90123973475E+01 -0.11260887653E+03 -0.52387070959E+02  0.12452464649E+03  0.00000000000E+00 0. -1.
</event>
<event>
 6    1  0.3240171E-005  0.1747305E+03  0.7818608E-02  0.1219115E+00
          2   -1    0    0  502    0  0.00000000000E+00  0.00000000000E+00  0.30705431299E+02  0.30705431299E+02  0.00000000000E+00 0.  1.
          1   -1    0    0  501    0 -0.00000000000E+00 -0.00000000000E+00 -0.18905776664E+04  0.18905776664E+04  0.00000000000E+00 0.  1.
          2    1    1    2  501    0  0.37160582291E+02 -0.59326948344E+02 -0.39285635366E+03  0.39904474722E+03  0.00000000000E+00 0.  1.
          1    1    1    2  502    0  0.67819226422E+01  0.10764403800E+03 -0.12925810584E+04  0.12970732539E+04  0.00000000000E+00 0.  1.
         22    1    1    2    0    0  0.15652185372E+02 -0.70885897538E+02 -0.59984073365E+02  0.94169477190E+02  0.00000000000E+00 0.  1.
         22    1    1    2    0    0 -0.59594690306E+02  0.22568807883E+02 -0.11445074965E+03  0.13099561938E+03  0.00000000000E+00 0.  1.
</event>
<event>
 6    1  0.3240171E-005  0.1261515E+03  0.7818608E-02  0.1294244E+00
          2   -1    0    0  502    0  0.00000000000E+00  0.00000000000E+00  0.32372692971E+03  0.32372692971E+03  0.00000000000E+00 0. -1.
          1   -1    0    0  501    0 -0.00000000000E+00 -0.00000000000E+00 -0.17833260515E+03  0.17833260515E+03  0.00000000000E+00 0.  1.
          2    1    1    2  501    0 -0.34773426310E+02  0.91008761953E+00  0.22445851968E+02  0.41398498855E+02  0.00000000000E+00 0. -1.
          1    1    1    2  502    0  0.10885409723E+03 -0.37440376637E+02 -0.12518336184E+03  0.17006431245E+03  0.00000000000E+00 0.  1.
         22    1    1    2    0    0  0.36181214994E+02  0.12607927272E+02  0.58181128852E+02  0.69664079001E+02  0.00000000000E+00 0. -1.
         22    1    1    2    0    0 -0.11026188591E+03  0.23922361746E+02  0.18995070558E+03  0.22093264455E+03  0.00000000000E+00 0. -1.
</event>
<event>
 6    1  0.3240171E-005  0.8470076E+02  0.7818608E-02  0.1332121E+00
          2   -1    0    0  502    0  0.00000000000E+00  0.00000000000E+00  0.18489859593E+03  0.18489859593E+03  0.00000000000E+00 0. -1.
          1   -1    0    0  501    0 -0.00000000000E+00 -0.00000000000E+00 -0.10059727553E+03  0.10059727553E+03  0.00000000000E+00 0. -1.
          2    1    1    2  501    0  0.41897738630E+01 -0.33996381549E+02  0.19454308872E+02  0.39392617293E+02  0.00000000000E+00 0. -1.
          1    1    1    2  502    0 -0.34516797768E+02  0.10909794032E+02 -0.56299617686E+02  0.66933398880E+02  0.00000000000E+00 0. -1.
         22    1    1    2    0    0 -0.35211584295E+02 -0.23385127461E+01 -0.41174176041E+01  0.35528543992E+02  0.00000000000E+00 0. -1.
         22    1    1    2    0    0  0.65538608200E+02  0.25425100263E+02  0.12526404681E+03  0.14364131130E+03  0.00000000000E+00 0. -1.
</event>
<event>
 6    1  0.3240171E-005  0.5220503E+02  0.7818608E-02  0.1473749E+00
          2   -1    0    0  502    0  0.00000000000E+00  0.00000000000E+00  0.22288073603E+03  0.22288073603E+03  0.00000000000E+00 0. -1.
          1   -1    0    0  501    0 -0.00000000000E+00 -0.00000000000E+00 -0.37526152017E+02  0.37526152017E+02  0.00000000000E+00 0. -1.
          2    1    1    2  501    0 -0.10332504454E+02 -0.19471546244E+02  0.13541039541E+02  0.25870089162E+02  0.00000000000E+00 0. -1.
          1    1    1    2  502    0  0.28530179203E+02  0.20694054492E+02  0.35940986922E+02  0.50338549419E+02  0.00000000000E+00 0. -1.
         22    1    1    2    0    0 -0.26386970074E+02 -0.12187645864E+02  0.15664716524E+03  0.15932088776E+03  0.00000000000E+00 0. -1.
         22    1    1    2    0    0  0.81892953245E+01  0.10965137615E+02 -0.20774607686E+02  0.24877361703E+02  0.00000000000E+00 0. -1.
</event>
<event>
 6    1  0.3240171E-005  0.4663538E+03  0.7818608E-02  0.1152188E+00
          2   -1    0    0  502    0  0.00000000000E+00  0.00000000000E+00  0.20985877566E+03  0.20985877566E+03  0.00000000000E+00 0. -1.
          1   -1    0    0  501    0 -0.00000000000E+00 -0.00000000000E+00 -0.12655883857E+04  0.12655883857E+04  0.00000000000E+00 0. -1.
          2    1    1    2  501    0 -0.17765890373E+03  0.38884973340E+03 -0.69793850890E+03  0.81846500441E+03  0.00000000000E+00 0. -1.
          1    1    1    2  502    0  0.18277257830E+03 -0.37973830380E+03 -0.27864763136E+03  0.50522420490E+03  0.00000000000E+00 0. -1.
         22    1    1    2    0    0  0.74706597174E+01  0.12877247926E+02  0.33310211670E+02  0.36485674891E+02  0.00000000000E+00 0.  1.
         22    1    1    2    0    0 -0.12584334295E+02 -0.21988677526E+02 -0.11245368140E+03  0.11527227711E+03  0.00000000000E+00 0. -1.
</event>
<event>
 6    1  0.3240171E-005  0.3311886E+03  0.7818608E-02  0.1148273E+00
          2   -1    0    0  502    0  0.00000000000E+00  0.00000000000E+00  0.77293848217E+03  0.77293848217E+03  0.00000000000E+00 0. -1.
          1   -1    0    0  501    0 -0.00000000000E+00 -0.00000000000E+00 -0.18693674170E+03  0.18693674170E+03  0.00000000000E+00 0. -1.
          2    1    1    2  501    0  0.23936781490E+03 -0.10350513770E+03  0.82092014992E+02  0.27340329783E+03  0.00000000000E+00 0. -1.
          1    1    1    2  502    0 -0.30401358215E+03  0.11845485911E+03  0.32787662575E+03  0.46255690838E+03  0.00000000000E+00 0. -1.
         22    1    1    2    0    0  0.91350313381E+01 -0.44679916555E+02  0.14821686392E+03  0.15507411935E+03  0.00000000000E+00 0. -1.
         22    1    1    2    0    0  0.55510735911E+02  0.29730195149E+02  0.27816235812E+02  0.68840898307E+02  0.00000000000E+00 0.  1.
</event>
<event>
 6    1  0.3240171E-005  0.1191614E+03  0.7818608E-02  0.1245977E+00
          2   -1    0    0  502    0  0.00000000000E+00  0.00000000000E+00  0.12264571558E+03  0.12264571558E+03  0.00000000000E+00 0.  1.
          1   -1    0    0  501    0 -0.00000000000E+00 -0.00000000000E+00 -0.31649419306E+03  0.31649419306E+03  0.00000000000E+00 0.  1.
          2    1    1    2  501    0 -0.57535160017E+02 -0.10236141952E+03 -0.98674411393E+02  0.15337794596E+03  0.00000000000E+00 0.  1.
          1    1    1    2  502    0  0.33553494181E+02  0.26512206927E+02 -0.12546530543E+03  0.13255292134E+03  0.00000000000E+00 0.  1.
         22    1    1    2    0    0 -0.24654758037E+02 -0.20775307042E+02 -0.15461411740E+02  0.35756478148E+02  0.00000000000E+00 0. -1.
         22    1    1    2    0    0  0.48636423872E+02  0.96624519631E+02  0.45752651087E+02  0.11745256320E+03  0.00000000000E+00 0.  1.
</event>
<event>
 6    1  0.3240171E-005  0.3275996E+03  0.7818608E-02  0.1072373E+00
          2   -1    0    0  502    0  0.00000000000E+00  0.00000000000E+00  0.83949533959E+03  0.83949533959E+03  0.00000000000E+00 0. -1.
          1   -1    0    0  501    0 -0.00000000000E+00 -0.00000000000E+00 -0.34021699825E+03  0.34021699825E+03  0.00000000000E+00 0. -1.
          2    1    1    2  501    0 -0.31835690031E+03 -0.32164537828E+02  0.70081699602E+01  0.32005435150E+03  0.00000000000E+00 0. -1.
          1    1    1    2  502    0  0.66588033466E+02  0.30616492678E+03  0.21229811459E+03  0.37847247991E+03  0.00000000000E+00 0. -1.
         22    1    1    2    0    0 -0.10164269278E+02 -0.64156210903E+01 -0.23322180079E+01  0.12243847629E+02  0.00000000000E+00 0.  1.
         22    1    1    2    0    0  0.26193313612E+03 -0.26758476787E+03  0.28230427480E+03  0.46894165880E+03  0.00000000000E+00 0. -1.
</event>
<event>
 6    1  0.3240171E-005  0.3478066E+03  0.7818608E-02  0.1124919E+00
          2   -1    0    0  502    0  0.00000000000E+00  0.00000000000E+00  0.22710403213E+03  0.22710403213E+03  0.00000000000E+00 0.  1.
          1   -1    0    0  501    0 -0.00000000000E+00 -0.00000000000E+00 -0.88520180227E+03  0.88520180227E+03  0.00000000000E+00 0.  1.
          2    1    1    2  501    0  0.14164238183E+03  0.27895631574E+03 -0.35162194909E+03  0.47065612234E+03  0.00000000000E+00 0.  1.
          1    1    1    2  502    0 -0.23066261770E+03 -0.25635111854E+03 -0.33974093650E+03  0.48409197795E+03  0.00000000000E+00 0.  1.
         22    1    1    2    0    0  0.67081609743E+02 -0.17810039797E+02  0.79877133036E+02  0.10581822275E+03  0.00000000000E+00 0. -1.
         22    1    1    2    0    0  0.21938626133E+02 -0.47951574040E+01 -0.46612017601E+02  0.51739511361E+02  0.00000000000E+00 0.  1.
</event>
<event>
 6    1  0.3240171E-005  0.3210536E+03  0.7818608E-02  0.1157792E+00
          2   -1    0    0  502    0  0.00000000000E+00  0.00000000000E+00  0.39900552916E+03  0.39900552916E+03  0.00000000000E+00 0.  1.
          1   -1    0    0  501    0 -0.00000000000E+00 -0.00000000000E+00 -0.43516689556E+03  0.43516689556E+03  0.00000000000E+00 0.  1.
          2    1    1    2  501    0  0.11684537956E+03 -0.89795112293E+02  0.46337197511E+02  0.15447699113E+03  0.00000000000E+00 0.  1.
          1    1    1    2  502    0 -0.28106685481E+03  0.13302328459E+03 -0.26063554945E+03  0.40573964652E+03  0.00000000000E+00 0.  1.
         22    1    1    2    0    0  0.14798934448E+03 -0.79787518359E+02  0.14454017521E+03  0.22171774042E+03  0.00000000000E+00 0.  1.
         22    1    1    2    0    0  0.16232130774E+02  0.36559346057E+02  0.33596810326E+02  0.52238046649E+02  0.00000000000E+00 0.  1.
</event>
<event>
 6    1  0.3240171E-005  0.1510380E+03  0.7818608E-02  0.1216447E+00
          2   -1    0    0  502    0  0.00000000000E+00  0.00000000000E+00  0.46109608882E+03  0.46109608882E+03  0.00000000000E+00 0. -1.
          1   -1    0    0  501    0 -0.00000000000E+00 -0.00000000000E+00 -0.61708179783E+02  0.61708179783E+02  0.00000000000E+00 0.  1.
          2    1    1    2  501    0 -0.80249179377E+02  0.96422950845E+02  0.93127749883E+02  0.15623730041E+03  0.00000000000E+00 0. -1.
          1    1    1    2  502    0  0.41524191423E+02 -0.50814132315E+02  0.97401701619E+02  0.11744541709E+03  0.00000000000E+00 0.  1.
         22    1    1    2    0    0  0.80841045421E+02 -0.31382756442E+02  0.10521141649E+03  0.13634366207E+03  0.00000000000E+00 0.  1.
         22    1    1    2    0    0 -0.42116057466E+02 -0.14226062087E+02  0.10364704105E+03  0.11277788904E+03  0.00000000000E+00 0. -1.
</event>
<event>
 6    1  0.3240171E-005  0.1304871E+03  0.7818608E-02  0.1278121E+00
          2   -1    0    0  502    0  0.00000000000E+00  0.00000000000E+00  0.43851516307E+03  0.43851516307E+03  0.00000000000E+00 0. -1.
          1   -1    0    0  501    0 -0.00000000000E+00 -0.00000000000E+00 -0.17390429455E+03  0.17390429455E+03  0.00000000000E+00 0. -1.
          2    1    1    2  501    0  0.33284974698E+02  0.15445731730E+02  0.39434619036E+02  0.53866031483E+02  0.00000000000E+00 0. -1.
          1    1    1    2  502    0 -0.46838583055E+01  0.32489887818E+02 -0.15261414008E+03  0.15610447493E+03  0.00000000000E+00 0. -1.
         22    1    1    2    0    0 -0.90324918881E+01  0.33524350972E+02  0.33988711576E+02  0.48587040786E+02  0.00000000000E+00 0.  1.
         22    1    1    2    0    0 -0.19568624504E+02 -0.81459970520E+02  0.34380167799E+03  0.35386191043E+03  0.00000000000E+00 0. -1.
</event>
<event>
 6    1  0.3240171E-005  0.9891806E+02  0.7818608E-02  0.1307973E+00
          2   -1    0    0  502    0  0.00000000000E+00  0.00000000000E+00  0.12636044295E+03  0.12636044295E+03  0.00000000000E+00 0. -1.
          1   -1    0    0  501    0 -0.00000000000E+00 -0.00000000000E+00 -0.23610324678E+03  0.23610324678E+03  0.00000000000E+00 0.  1.
          2    1    1    2  501    0  0.50142122586E+02 -0.51719404717E+02 -0.15601730505E+02  0.73705788622E+02  0.00000000000E+00 0. -1.
          1    1    1    2  502    0 -0.23500268568E+02  0.42815265684E+02 -0.14261916416E+03  0.15075024240E+03  0.00000000000E+00 0.  1.
         22    1    1    2    0    0  0.21321304670E+01  0.56312862625E+02  0.58969604041E+02  0.81566529153E+02  0.00000000000E+00 0. -1.
         22    1    1    2    0    0 -0.28773984485E+02 -0.47408723593E+02 -0.10491513212E+02  0.56441129554E+02  0.00000000000E+00 0.  1.
</event>
<event>
 6    1  0.3240171E-005  0.1321961E+03  0.7818608E-02  0.1235648E+00
          2   -1    0    0  502    0  0.00000000000E+00  0.00000000000E+00  0.64624244841E+02  0.64624244841E+02  0.00000000000E+00 0. -1.
          1   -1    0    0  501    0 -0.00000000000E+00 -0.00000000000E+00 -0.13849104496E+04  0.13849104496E+04  0.00000000000E+00 0. -1.
          2    1    1    2  501    0  0.81013429193E+02 -0.10321901275E+03 -0.48354893529E+03  0.50103584016E+03  0.00000000000E+00 0. -1.
          1    1    1    2  502    0  0.52101625082E+01  0.28271171393E+02 -0.76654565064E+03  0.76708450606E+03  0.00000000000E+00 0. -1.
         22    1    1    2    0    0 -0.14438660565E+02  0.92650739872E+00 -0.76741811104E+02  0.78093782764E+02  0.00000000000E+00 0. -1.
         22    1    1    2    0    0 -0.71784931136E+02  0.74021333956E+02  0.65501923134E+01  0.10332056542E+03  0.00000000000E+00 0. -1.
</event>
<event>
 6    1  0.3240171E-005  0.1213074E+03  0.7818608E-02  0.1320978E+00
          2   -1    0    0  502    0  0.00000000000E+00  0.00000000000E+00  0.53050575636E+02  0.53050575636E+02  0.00000000000E+00 0. -1.
          1   -1    0    0  501    0 -0.00000000000E+00 -0.00000000000E+00 -0.10301129834E+04  0.10301129834E+04  0.00000000000E+00 0. -1.
          2    1    1    2  501    0  0.58382044083E+02 -0.50734054437E+01 -0.68418306156E+03  0.68668818560E+03  0.00000000000E+00 0. -1.
          1    1    1    2  502    0 -0.34289886133E+02  0.59964019200E+02 -0.24279180422E+03  0.25242690048E+03  0.00000000000E+00 0. -1.
         22    1    1    2    0    0 -0.51449294115E+01 -0.25971833281E+02  0.39765558237E+02  0.47773486836E+02  0.00000000000E+00 0. -1.
         22    1    1    2    0    0 -0.18947228538E+02 -0.28918780475E+02 -0.89853100210E+02  0.96274986111E+02  0.00000000000E+00 0. -1.
</event>
<event>
 6    1  0.3240171E-005  0.1628091E+03  0.7818608E-02  0.1292606E+00
          2   -1    0    0  502    0  0.00000000000E+00  0.00000000000E+00  0.10048217598E+03  0.10048217598E+03  0.00000000000E+00 0. -1.
          1   -1    0    0  501    0 -0.00000000000E+00 -0.00000000000E+00 -0.38691872853E+03  0.38691872853E+03  0.00000000000E+00 0. -1.
          2    1    1    2  501    0 -0.87648436934E+02 -0.34651548977E+02 -0.11736108175E+03  0.15052110103E+03  0.00000000000E+00 0. -1.
          1    1    1    2  502    0  0.71053005686E+02  0.55993711393E+02  0.35293023229E+02  0.97105215211E+02  0.00000000000E+00 0. -1.
         22    1    1    2    0    0  0.34802982449E+02 -0.23826929437E+02 -0.21462476034E+03  0.21872987429E+03  0.00000000000E+00 0. -1.
         22    1    1    2    0    0 -0.18207551201E+02  0.24847670213E+01  0.10256266321E+02  0.21044713986E+02  0.00000000000E+00 0. -1.
</event>
<event>
 6    1  0.3240171E-005  0.1039712E+03  0.7818608E-02  0.1325596E+00
          2   -1    0    0  502    0  0.00000000000E+00  0.00000000000E+00  0.32608706220E+03  0.32608706220E+03  0.00000000000E+00 0.  1.
          1   -1    0    0  501    0 -0.00000000000E+00 -0.00000000000E+00 -0.32679907650E+02  0.32679907650E+02  0.00000000000E+00 0.  1.
          2    1    1    2  501    0 -0.39665250357E+02 -0.67480405977E+01  0.62735971323E+02  0.74529660107E+02  0.00000000000E+00 0.  1.
          1    1    1    2  502    0 -0.94582543611E+01 -0.24975185936E+02  0.31135011088E+02  0.41019597798E+02  0.00000000000E+00 0.  1.
         22    1    1    2    0    0  0.23511597514E+02  0.59507106188E+02  0.32126155345E+02  0.71595954927E+02  0.00000000000E+00 0.  1.
         22    1    1    2    0    0  0.25611907204E+02 -0.27783879654E+02  0.16741001679E+03  0.17162175701E+03  0.00000000000E+00 0.  1.
</event>
<event>
 6    1  0.3240171E-005  0.8237235E+02  0.7818608E-02  0.1328042E+00
          2   -1    0    0  502    0  0.00000000000E+00  0.00000000000E+00  0.14944502429E+03  0.14944502429E+03  0.00000000000E+00 0. -1.
          1   -1    0    0  501    0 -0.00000000000E+00 -0.00000000000E+00 -0.10620984993E+03  0.10620984993E+03  0.00000000000E+00 0.  1.
          2    1    1    2  501    0 -0.30243517461E+02  0.39297395560E+02  0.35934594019E+02  0.61239290440E+02  0.00000000000E+00 0. -1.
          1    1    1    2  502    0  0.33575812619E+02  0.26672852885E+01 -0.43047156005E+02  0.54658094039E+02  0.00000000000E+00 0.  1.
         22    1    1    2    0    0 -0.68090442226E+01  0.29262582673E+02  0.60670580274E+02  0.67702150178E+02  0.00000000000E+00 0. -1.
         22    1    1    2    0    0  0.34767490649E+01 -0.71227263522E+02 -0.10322843919E+02  0.72055339563E+02  0.00000000000E+00 0. -1.
</event>
<event>
 6    1  0.3240171E-005  0.5994558E+02  0.7818608E-02  0.1406867E+00
          2   -1    0    0  502    0  0.00000000000E+00  0.00000000000E+00  0.10322452004E+03  0.10322452004E+03  0.00000000000E+00 0. -1.
          1   -1    0    0  501    0 -0.00000000000E+00 -0.00000000000E+00 -0.50514449556E+03  0.50514449556E+03  0.00000000000E+00 0. -1.
          2    1    1    2  501    0  0.12980383171E+02 -0.59951201335E+02 -0.73447420451E+02  0.95693053351E+02  0.00000000000E+00 0. -1.
          1    1    1    2  502    0  0.48426412633E+01  0.50294935406E+02 -0.37185863749E+03  0.37527573593E+03  0.00000000000E+00 0. -1.
         22    1    1    2    0    0  0.24066871292E+02 -0.18902095082E+02 -0.33455481392E+02  0.45340629986E+02  0.00000000000E+00 0. -1.
         22    1    1    2    0    0 -0.41889895727E+02  0.28558361011E+02  0.76841563818E+02  0.92059596336E+02  0.00000000000E+00 0. -1.
</event>
<event>
 6    1  0.3240171E-005  0.2434999E+03  0.7818608E-02  0.1189236E+00
          2   -1    0    0  502    0  0.00000000000E+00  0.00000000000E+00  0.32815325001E+03  0.32815325001E+03  0.00000000000E+00 0. -1.
          1   -1    0    0  501    0 -0.00000000000E+00 -0.00000000000E+00 -0.37501170027E+03  0.37501170027E+03  0.00000000000E+00 0.  1.
          2    1    1    2  501    0 -0.76598521752E+02  0.18780005535E+02  0.50280517583E+01  0.79027232312E+02  0.00000000000E+00 0. -1.
          1    1    1    2  502    0  0.14292538683E+03 -0.14535400156E+03 -0.26840380150E+03  0.33704013504E+03  0.00000000000E+00 0.  1.
         22    1    1    2    0    0  0.27771616138E+02  0.35222147148E+02  0.16244352080E+02  0.47704730239E+02  0.00000000000E+00 0. -1.
         22    1    1    2    0    0 -0.94098481221E+02  0.91351848872E+02  0.20027294740E+03  0.23939285269E+03  0.00000000000E+00 0. -1.
</event>
<event>
 6    1  0.3240171E-005  0.2277723E+03  0.7818608E-02  0.1200617E+00
          2   -1    0    0  502    0  0.00000000000E+00  0.00000000000E+00  0.43066288429E+02  0.43066288429E+02  0.00000000000E+00 0. -1.
          1   -1    0    0  501    0 -0.00000000000E+00 -0.00000000000E+00 -0.23641971929E+04  0.23641971929E+04  0.00000000000E+00 0. -1.
          2    1    1    2  501    0 -0.92326218323E+01 -0.20190377049E+02 -0.36517936194E+03  0.36585360326E+03  0.00000000000E+00 0. -1.
          1    1    1    2  502    0  0.97595710249E+01  0.51596184127E+02 -0.18959851401E+04  0.18967121730E+04  0.00000000000E+00 0. -1.
         22    1    1    2    0    0  0.27491373313E+02  0.32682709634E+02 -0.61334861518E+02  0.74738881133E+02  0.00000000000E+00 0.  1.
         22    1    1    2    0    0 -0.28018322506E+02 -0.64088516713E+02  0.13684591304E+01  0.69958823967E+02  0.00000000000E+00 0. -1.
</event>
<event>
 6    1  0.3240171E-005  0.1600434E+03  0.7818608E-02  0.1260683E+00
          2   -1    0    0  502    0  0.00000000000E+00  0.00000000000E+00  0.20335854646E+02  0.20335854646E+02  0.00000000000E+00 0. -1.
          1   -1    0    0  501    0 -0.00000000000E+00 -0.00000000000E+00 -0.15230615667E+04  0.15230615667E+04  0.00000000000E+00 0. -1.
          2    1    1    2  501    0 -0.55527210797E+02  0.27468497733E+02 -0.41162619954E+03  0.41626183786E+03  0.00000000000E+00 0. -1.
          1    1    1    2  502    0  0.12649154310E+03 -0.53103080176E+02 -0.60983364431E+03  0.62507369272E+03  0.00000000000E+00 0. -1.
         22    1    1    2    0    0 -0.10541332856E+03  0.16513777196E+02 -0.38065769071E+03  0.39532891644E+03  0.00000000000E+00 0. -1.
         22    1    1    2    0    0  0.34448996260E+02  0.91208052474E+01 -0.10060817751E+03  0.10673297435E+03  0.00000000000E+00 0. -1.
</event>
<event>
 6    1  0.3240171E-005  0.1572883E+03  0.7818608E-02  0.1226407E+00
          2   -1    0    0  502    0  0.00000000000E+00  0.00000000000E+00  0.12468275935E+03  0.12468275935E+03  0.00000000000E+00 0. -1.
          1   -1    0    0  501    0 -0.00000000000E+00 -0.00000000000E+00 -0.80375152475E+03  0.80375152475E+03  0.00000000000E+00 0. -1.
          2    1    1    2  501    0 -0.12918863303E+02  0.18016714352E+03 -0.26298361397E+03  0.31904149863E+03  0.00000000000E+00 0. -1.
          1    1    1    2  502    0 -0.38159779857E+02 -0.11436936358E+03 -0.43906051676E+03  0.45531380113E+03  0.00000000000E+00 0. -1.
         22    1    1    2    0    0  0.14689318908E+02 -0.20134737716E+00 -0.48371949149E+02  0.50553556702E+02  0.00000000000E+00 0. -1.
         22    1    1    2    0    0  0.36389324252E+02 -0.65596432562E+02  0.71347314473E+02  0.10352542763E+03  0.00000000000E+00 0. -1.
</event>
<event>
 6    1  0.3240171E-005  0.1483814E+03  0.7818608E-02  0.1209438E+00
          2   -1    0    0  502    0  0.00000000000E+00  0.00000000000E+00  0.50029475511E+03  0.50029475511E+03  0.00000000000E+00 0.  1.
          1   -1    0    0  501    0 -0.00000000000E+00 -0.00000000000E+00 -0.15729587846E+03  0.15729587846E+03  0.00000000000E+00 0.  1.
          2    1    1    2  501    0 -0.74310761203E+02 -0.10378109721E+03  0.30829810742E+03  0.33367698214E+03  0.00000000000E+00 0.  1.
          1    1    1    2  502    0  0.27237916385E+02 -0.27067954822E+02 -0.89066946708E+02  0.96992263935E+02  0.00000000000E+00 0.  1.
         22    1    1    2    0    0  0.33286242123E+02  0.13680196579E+03  0.46598047491E+02  0.14830417994E+03  0.00000000000E+00 0.  1.
         22    1    1    2    0    0  0.13786602695E+02 -0.59529137562E+01  0.77169668442E+02  0.78617207553E+02  0.00000000000E+00 0. -1.
</event>
<event>
 6    1  0.3240171E-005  0.6928005E+02  0.7818608E-02  0.1418151E+00
          2   -1    0    0  502    0  0.00000000000E+00  0.00000000000E+00  0.74506237367E+02  0.74506237367E+02  0.00000000000E+00 0. -1.
          1   -1    0    0  501    0 -0.00000000000E+00 -0.00000000000E+00 -0.35326249076E+03  0.35326249076E+03  0.00000000000E+00 0. -1.
          2    1    1    2  501    0  0.18583251247E+02 -0.39846535384E+02 -0.17065253352E+03  0.17622534098E+03  0.00000000000E+00 0. -1.
          1    1    1    2  502    0 -0.57926448916E+02  0.42201384114E+02 -0.98102182965E+02  0.12149266895E+03  0.00000000000E+00 0. -1.
         22    1    1    2    0    0  0.23427095909E+02  0.15977305011E+02  0.54333137957E+02  0.61287788167E+02  0.00000000000E+00 0. -1.
         22    1    1    2    0    0  0.15916101760E+02 -0.18332153741E+02 -0.64334674867E+02  0.68762930030E+02  0.00000000000E+00 0. -1.
</event>
<event>
 6    1  0.3240171E-005  0.3176533E+03  0.7818608E-02  0.1215375E+00
          2   -1    0    0  502    0  0.00000000000E+00  0.00000000000E+00  0.18198279745E+03  0.18198279745E+03  0.00000000000E+00 0.  1.
          1   -1    0    0  501    0 -0.00000000000E+00 -0.00000000000E+00 -0.12202163100E+04  0.12202163100E+04  0.00000000000E+00 0.  1.
          2    1    1    2  501    0 -0.23445880067E+03  0.49086936809E+02  0.52610633524E+01  0.23959994859E+03  0.00000000000E+00 0.  1.
          1    1    1    2  502    0  0.25397576687E+03 -0.40374340620E+02 -0.99802425002E+03  0.10306241707E+04  0.00000000000E+00 0.  1.
         22    1    1    2    0    0 -0.24847311562E+02 -0.18876412274E+02 -0.85140190049E+02  0.90678331446E+02  0.00000000000E+00 0. -1.
         22    1    1    2    0    0  0.53303453644E+01  0.10163816085E+02  0.39669864147E+02  0.41296656772E+02  0.00000000000E+00 0.  1.
</event>
<event>
 6    1  0.3240171E-005  0.1325993E+03  0.7818608E-02  0.1240356E+00
          2   -1    0    0  502    0  0.00000000000E+00  0.00000000000E+00  0.10246174731E+04  0.10246174731E+04  0.00000000000E+00 0.  1.
          1   -1    0    0  501    0 -0.00000000000E+00 -0.00000000000E+00 -0.57401661119E+02  0.57401661119E+02  0.00000000000E+00 0.  1.
          2    1    1    2  501    0 -0.51960934906E+01  0.23587114702E+02  0.39236613491E+02  0.46074539670E+02  0.00000000000E+00 0.  1.
          1    1    1    2  502    0 -0.83402988607E+02  0.10308503570E+03  0.61299271676E+02  0.14608279776E+03  0.00000000000E+00 0.  1.
         22    1    1    2    0    0  0.12217348395E+02  0.24957828275E+02  0.70460833522E+02  0.75742232965E+02  0.00000000000E+00 0.  1.
         22    1    1    2    0    0  0.76381733703E+02 -0.15162997868E+03  0.79621909330E+03  0.81411956383E+03  0.00000000000E+00 0.  1.
</event>
<event>
 6    1  0.3240171E-005  0.8256656E+02  0.7818608E-02  0.1365224E+00
          2   -1    0    0  502    0  0.00000000000E+00  0.00000000000E+00  0.53954220961E+02  0.53954220961E+02  0.00000000000E+00 0.  1.
          1   -1    0    0  501    0 -0.00000000000E+00 -0.00000000000E+00 -0.20217239448E+03  0.20217239448E+03  0.00000000000E+00 0.  1.
          2    1    1    2  501    0 -0.47844461581E+01 -0.42692167067E+02 -0.44341017535E+02  0.61738463618E+02  0.00000000000E+00 0.  1.
          1    1    1    2  502    0 -0.31436232055E+01  0.40621006300E+02 -0.20903047547E+02  0.45791766907E+02  0.00000000000E+00 0.  1.
         22    1    1    2    0    0 -0.37275859452E+02  0.11953330010E+02  0.13655865514E+02  0.41459069685E+02  0.00000000000E+00 0.  1.
         22    1    1    2    0    0  0.45203928816E+02 -0.98821692433E+01 -0.96629973946E+02  0.10713731523E+03  0.00000000000E+00 0.  1.
</event>
<event>
 6    1  0.3240171E-005  0.1524387E+03  0.7818608E-02  0.1262646E+00
          2   -1    0    0  502    0  0.00000000000E+00  0.00000000000E+00  0.18921386767E+03  0.18921386767E+03  0.00000000000E+00 0.  1.
          1   -1    0    0  501    0 -0.00000000000E+00 -0.00000000000E+00 -0.17146635120E+03  0.17146635120E+03  0.00000000000E+00 0.  1.
          2    1    1    2  501    0 -0.18900390398E+02 -0.37312489527E+02 -0.12989015624E+01  0.41846550361E+02  0.00000000000E+00 0.  1.
          1    1    1    2  502    0  0.11715695405E+03  0.74672122125E+02 -0.35259828748E+02  0.14333503838E+03  0.00000000000E+00 0.  1.
         22    1    1    2    0    0 -0.94784979415E+02 -0.76890650885E+02  0.58955986319E+02  0.13554398858E+03  0.00000000000E+00 0.  1.
         22    1    1    2    0    0 -0.34715842337E+01  0.39531018287E+02 -0.46497395428E+01  0.39954641554E+02  0.00000000000E+00 0.  1.
</event>
<event>
 6    1  0.3240171E-005  0.2237795E+03  0.7818608E-02  0.1190035E+00
          2   -1    0    0  502    0  0.00000000000E+00  0.00000000000E+00  0.20668418778E+03  0.20668418778E+03  0.00000000000E+00 0. -1.
          1   -1    0    0  501    0 -0.00000000000E+00 -0.00000000000E+00 -0.46155711655E+03  0.46155711655E+03  0.00000000000E+00 0. -1.
          2    1    1    2  501    0 -0.32286942594E+02 -0.38939945187E+02 -0.82397389552E+02  0.96685551135E+02  0.00000000000E+00 0. -1.
          1    1    1    2  502    0  0.34810368589E+02  0.34480661719E+02 -0.35153832659E+03  0.35493643495E+03  0.00000000000E+00 0. -1.
         22    1    1    2    0    0 -0.43557400550E+02  0.43090045853E+02  0.12142618288E+03  0.13600851843E+03  0.00000000000E+00 0. -1.
         22    1    1    2    0    0  0.41033974554E+02 -0.38630762385E+02  0.57636604488E+02  0.80610799816E+02  0.00000000000E+00 0.  1.
</event>
<event>
 6    1  0.3723326E-005  0.4645329E+02  0.7818608E-02  0.1501932E+00
          2   -1    0    0  502    0  0.00000000000E+00  0.00000000000E+00  0.13992091385E+03  0.13992091385E+03  0.00000000000E+00 0. -1.
          1   -1    0    0  501    0 -0.00000000000E+00 -0.00000000000E+00 -0.48388717131E+03  0.48388717131E+03  0.00000000000E+00 0. -1.
          2    1    1    2  501    0  0.27672882755E+02  0.39750463901E+02 -0.61739490501E+02  0.78470711145E+02  0.00000000000E+00 0. -1.
          1    1    1    2  502    0 -0.27657053459E+02 -0.29535013546E+02 -0.38400170326E+03  0.38612761846E+03  0.00000000000E+00 0. -1.
         22    1    1    2    0    0  0.11694964166E+01 -0.27798674080E+02  0.12612164855E+03  0.12915418783E+03  0.00000000000E+00 0. -1.
         22    1    1    2    0    0 -0.11853257129E+01  0.17583223726E+02 -0.24346712242E+02  0.30055567714E+02  0.00000000000E+00 0. -1.
</event>
<event>
 6    1  0.3240171E-005  0.1001177E+03  0.7818608E-02  0.1282447E+00
          2   -1    0    0  502    0  0.00000000000E+00  0.00000000000E+00  0.27754010014E+03  0.27754010014E+03  0.00000000000E+00 0.  1.
          1   -1    0    0  501    0 -0.00000000000E+00 -0.00000000000E+00 -0.11542003683E+04  0.11542003683E+04  0.00000000000E+00 0.  1.
          2    1    1    2  501    0 -0.57357586909E+01  0.71482636162E+02  0.94881663288E+02  0.11893357906E+03  0.00000000000E+00 0.  1.
          1    1    1    2  502    0 -0.58178999165E+02 -0.46759485496E+02 -0.11099459551E+04  0.11124528164E+04  0.00000000000E+00 0.  1.
         22    1    1    2    0    0 -0.13944450521E+02  0.32024336001E+02  0.80986125688E+02  0.88197269519E+02  0.00000000000E+00 0.  1.
         22    1    1    2    0    0  0.77859208377E+02 -0.56747486667E+02  0.57417897932E+02  0.11215680352E+03  0.00000000000E+00 0. -1.
</event>
<event>
 6    1  0.3240171E-005  0.7105134E+02  0.7818608E-02  0.1479357E+00
          2   -1    0    0  502    0  0.00000000000E+00  0.00000000000E+00  0.75096131903E+02  0.75096131903E+02  0.00000000000E+00 0.  1.
          1   -1    0    0  501    0 -0.00000000000E+00 -0.00000000000E+00 -0.21794692616E+03  0.21794692616E+03  0.00000000000E+00 0.  1.
          2    1    1    2  501    0 -0.14555238249E+02 -0.39943521315E+02 -0.56592757665E+02  0.70781919130E+02  0.00000000000E+00 0.  1.
          1    1    1    2  502    0  0.28035654360E+02  0.56593504269E+02 -0.73176151514E+02  0.96662152838E+02  0.00000000000E+00 0.  1.
         22    1    1    2    0    0 -0.21433410376E+02 -0.23728823495E+02 -0.65085837195E+02  0.72516304016E+02  0.00000000000E+00 0. -1.
         22    1    1    2    0    0  0.79529942644E+01  0.70788405404E+01  0.52003952116E+02  0.53082682081E+02  0.00000000000E+00 0.  1.
</event>
<event>
 6    1  0.3815899E-005  0.3127197E+03  0.7818608E-02  0.1170653E+00
          2   -1    0    0  502    0  0.00000000000E+00  0.00000000000E+00  0.36612263879E+03  0.36612263879E+03  0.00000000000E+00 0. -1.
          1   -1    0    0  501    0 -0.00000000000E+00 -0.00000000000E+00 -0.76988241999E+03  0.76988241999E+03  0.00000000000E+00 0.  1.
          2    1    1    2  501    0 -0.62436044501E+02  0.18521289278E+02 -0.38824882163E+02  0.75819979454E+02  0.00000000000E+00 0. -1.
          1    1    1    2  502    0 -0.61392413187E+02  0.50711896676E+02 -0.68455975686E+03  0.68917543889E+03  0.00000000000E+00 0.  1.
         22    1    1    2    0    0  0.11439157770E+02 -0.30053727206E+02  0.24644155782E+01  0.32251421575E+02  0.00000000000E+00 0. -1.
         22    1    1    2    0    0  0.11238929992E+03 -0.39179458748E+02  0.31716044224E+03  0.33875821886E+03  0.00000000000E+00 0. -1.
</event>
<event>
 6    1  0.3240171E-005  0.7086402E+02  0.7818608E-02  0.1363396E+00
          2   -1    0    0  502    0  0.00000000000E+00  0.00000000000E+00  0.52553018270E+03  0.52553018270E+03  0.00000000000E+00 0. -1.
          1   -1    0    0  501    0 -0.00000000000E+00 -0.00000000000E+00 -0.27594392071E+02  0.27594392071E+02  0.00000000000E+00 0. -1.
          2    1    1    2  501    0  0.30307456112E+02 -0.44976879563E+02  0.95442676170E+02  0.10977598110E+03  0.00000000000E+00 0. -1.
          1    1    1    2  502    0  0.89032058107E+01  0.33908328151E+02  0.20290236106E+03  0.20590874172E+03  0.00000000000E+00 0. -1.
         22    1    1    2    0    0 -0.68250796616E+02 -0.68954282673E-02  0.49875344684E+02  0.84532368319E+02  0.00000000000E+00 0. -1.
         22    1    1    2    0    0  0.29040134694E+02  0.11075446841E+02  0.14971540871E+03  0.15290748363E+03  0.00000000000E+00 0. -1.
</event>
<event>
 6    1  0.3240171E-005  0.9819300E+02  0.7818608E-02  0.1287788E+00
          2   -1    0    0  502    0  0.00000000000E+00  0.00000000000E+00  0.41844430316E+03  0.41844430316E+03  0.00000000000E+00 0.  1.
          1   -1    0    0  501    0 -0.00000000000E+00 -0.00000000000E+00 -0.61451710287E+02  0.61451710287E+02  0.00000000000E+00 0.  1.
          2    1    1    2  501    0 -0.23927535537E+02  0.61953317547E+02  0.15225806440E+03  0.16611218705E+03  0.00000000000E+00 0.  1.
          1    1    1    2  502    0 -0.25048583158E+02 -0.18609834395E+01 -0.29098541768E+02  0.38439821938E+02  0.00000000000E+00 0.  1.
         22    1    1    2    0    0 -0.35452787687E+01  0.23430597879E+02  0.12987679208E+03  0.13202099469E+03  0.00000000000E+00 0. -1.
         22    1    1    2    0    0  0.52521397464E+02 -0.83522931987E+02  0.10395627816E+03  0.14332300976E+03  0.00000000000E+00 0.  1.
</event>
<event>
 6    1  0.3240171E-005  0.1501383E+03  0.7818608E-02  0.1265587E+00
          2   -1    0    0  502    0  0.00000000000E+00  0.00000000000E+00  0.39763808818E+03  0.39763808818E+03  0.00000000000E+00 0.  1.
          1   -1    0    0  501    0 -0.00000000000E+00 -0.00000000000E+00 -0.47013225029E+02  0.47013225029E+02  0.00000000000E+00 0.  1.
          2    1    1    2  501    0 -0.18998822816E+02 -0.35432373035E+02 -0.10761099514E+02  0.41619822080E+02  0.00000000000E+00 0.  1.
          1    1    1    2  502    0  0.14354247375E+02 -0.21514525467E+02  0.16951434144E+02  0.30923621122E+02  0.00000000000E+00 0.  1.
         22    1    1    2    0    0 -0.38081350376E+02 -0.10676211229E+02  0.22442680999E+03  0.22788497927E+03  0.00000000000E+00 0.  1.
         22    1    1    2    0    0  0.42725925817E+02  0.67623109731E+02  0.12000771853E+03  0.14422289074E+03  0.00000000000E+00 0.  1.
</event>
<event>
 6    1  0.3240171E-005  0.7641533E+02  0.7818608E-02  0.1464014E+00
          2   -1    0    0  502    0  0.00000000000E+00  0.00000000000E+00  0.90230069365E+02  0.90230069365E+02  0.00000000000E+00 0.  1.
          1   -1    0    0  501    0 -0.00000000000E+00 -0.00000000000E+00 -0.15528345454E+03  0.15528345454E+03  0.00000000000E+00 0.  1.
          2    1    1    2  501    0 -0.78877387521E+01 -0.18476115314E+02 -0.14584094373E+02  0.24824968649E+02  0.00000000000E+00 0.  1.
          1    1    1    2  502    0  0.68011856655E+01  0.70522524959E+02 -0.48002964420E+02  0.85580180219E+02  0.00000000000E+00 0.  1.
         22    1    1    2    0    0  0.98083092774E+01 -0.58170468495E+02 -0.55511481529E+02  0.81003277201E+02  0.00000000000E+00 0.  1.
         22    1    1    2    0    0 -0.87217561908E+01  0.61240588492E+01  0.53045155145E+02  0.54105097839E+02  0.00000000000E+00 0.  1.
</event>
<event>
 6    1  0.3240171E-005  0.8436349E+02  0.7818608E-02  0.1325179E+00
          2   -1    0    0  502    0  0.00000000000E+00  0.00000000000E+00  0.61650481205E+02  0.61650481205E+02  0.00000000000E+00 0.  1.
          1   -1    0    0  501    0 -0.00000000000E+00 -0.00000000000E+00 -0.29687108709E+03  0.29687108709E+03  0.00000000000E+00 0. -1.
          2    1    1    2  501    0  0.23417373904E+01 -0.38499670589E+02 -0.34221158680E+02  0.51563514920E+02  0.00000000000E+00 0.  1.
          1    1    1    2  502    0 -0.39231588675E+02  0.47986722758E+02 -0.16285640189E+03  0.17425283569E+03  0.00000000000E+00 0. -1.
         22    1    1    2    0    0 -0.30218544640E+02 -0.41851106146E+02 -0.75747066715E+01  0.52173285376E+02  0.00000000000E+00 0.  1.
         22    1    1    2    0    0  0.67108395925E+02  0.32364053977E+02 -0.30568338645E+02  0.80531932306E+02  0.00000000000E+00 0.  1.
</event>
<event>
 6    1  0.3240171E-005  0.4109971E+03  0.7818608E-02  0.1158630E+00
          2   -1    0    0  502    0  0.00000000000E+00  0.00000000000E+00  0.27262203514E+03  0.27262203514E+03  0.00000000000E+00 0.  1.
          1   -1    0    0  501    0 -0.00000000000E+00 -0.00000000000E+00 -0.99801528187E+03  0.99801528187E+03  0.00000000000E+00 0.  1.
          2    1    1    2  501    0  0.12209502570E+03  0.35310800141E+03 -0.30272686132E+03  0.48087005368E+03  0.00000000000E+00 0.  1.
          1    1    1    2  502    0 -0.14802174682E+03 -0.36066508637E+03 -0.50273611105E+03  0.63618656022E+03  0.00000000000E+00 0.  1.
         22    1    1    2    0    0  0.41291488156E+02  0.18212174784E+02 -0.21722616543E+02  0.50085350892E+02  0.00000000000E+00 0. -1.
         22    1    1    2    0    0 -0.15364767038E+02 -0.10655089826E+02  0.10179234218E+03  0.10349535222E+03  0.00000000000E+00 0.  1.
</event>
<event>
 6    1  0.3240171E-005  0.1124950E+03  0.7818608E-02  0.1290982E+00
          2   -1    0    0  502    0  0.00000000000E+00  0.00000000000E+00  0.46719325199E+03  0.46719325199E+03  0.00000000000E+00 0. -1.
          1   -1    0    0  501    0 -0.00000000000E+00 -0.00000000000E+00 -0.81770427464E+02  0.81770427464E+02  0.00000000000E+00 0.  1.
          2    1    1    2  501    0 -0.53050425630E+01 -0.55957971113E+02  0.16015945564E+03  0.16973652889E+03  0.00000000000E+00 0. -1.
          1    1    1    2  502    0  0.42608374452E+02  0.15798595749E+02 -0.53785393817E+02  0.70412625211E+02  0.00000000000E+00 0.  1.
         22    1    1    2    0    0 -0.77487143508E+02  0.10536444861E+02  0.13089142150E+03  0.15247241816E+03  0.00000000000E+00 0. -1.
         22    1    1    2    0    0  0.40183811619E+02  0.29622930503E+02  0.14815734120E+03  0.15634210719E+03  0.00000000000E+00 0. -1.
</event>
<event>
 6    1  0.3240171E-005  0.9352571E+02  0.7818608E-02  0.1297858E+00
          2   -1    0    0  502    0  0.00000000000E+00  0.00000000000E+00  0.54026025107E+02  0.54026025107E+02  0.00000000000E+00 0. -1.
          1   -1    0    0  501    0 -0.00000000000E+00 -0.00000000000E+00 -0.75229435419E+03  0.75229435419E+03  0.00000000000E+00 0. -1.
          2    1    1    2  501    0  0.46801658589E+02 -0.22669757090E+02 -0.12872730719E+03  0.13883455171E+03  0.00000000000E+00 0. -1.
          1    1    1    2  502    0  0.13617317705E+02  0.45805957084E+02 -0.51701591148E+03  0.51921967390E+03  0.00000000000E+00 0. -1.
         22    1    1    2    0    0 -0.90216924171E+02  0.66944757151E+00 -0.94193224821E+01  0.90709785597E+02  0.00000000000E+00 0. -1.
         22    1    1    2    0    0  0.29797947877E+02 -0.23805647566E+02 -0.43105787932E+02  0.57556368083E+02  0.00000000000E+00 0. -1.
</event>
<event>
 6    1  0.3240171E-005  0.1355594E+03  0.7818608E-02  0.1251477E+00
          2   -1    0    0  502    0  0.00000000000E+00  0.00000000000E+00  0.36411027576E+03  0.36411027576E+03  0.00000000000E+00 0. -1.
          1   -1    0    0  501    0 -0.00000000000E+00 -0.00000000000E+00 -0.64288732864E+03  0.64288732864E+03  0.00000000000E+00 0. -1.
          2    1    1    2  501    0  0.66830567548E+02  0.21220131977E+02  0.10937820066E+03  0.12992386054E+03  0.00000000000E+00 0. -1.
          1    1    1    2  502    0 -0.77799980802E+02 -0.34113247440E+02 -0.61219660238E+03  0.61806248117E+03  0.00000000000E+00 0. -1.
         22    1    1    2    0    0 -0.74153259133E+01 -0.55018098051E+02  0.67576314530E+02  0.87455911504E+02  0.00000000000E+00 0.  1.
         22    1    1    2    0    0  0.18384739167E+02  0.67911213514E+02  0.15646503431E+03  0.17155535118E+03  0.00000000000E+00 0. -1.
</event>
<event>
 6    1  0.3240171E-005  0.1358577E+03  0.7818608E-02  0.1325911E+00
          2   -1    0    0  502    0  0.00000000000E+00  0.00000000000E+00  0.19382091846E+03  0.19382091846E+03  0.00000000000E+00 0. -1.
          1   -1    0    0  501    0 -0.00000000000E+00 -0.00000000000E+00 -0.18212537742E+03  0.18212537742E+03  0.00000000000E+00 0. -1.
          2    1    1    2  501    0 -0.33893851537E+02 -0.11900704615E+02  0.81215040138E+01  0.36829047908E+02  0.00000000000E+00 0. -1.
          1    1    1    2  502    0  0.32242981947E+02 -0.79654393203E+02 -0.11735371994E+03  0.14545214961E+03  0.00000000000E+00 0. -1.
         22    1    1    2    0    0 -0.13711767772E+02 -0.10493016816E+02  0.81311181625E+02  0.83124149527E+02  0.00000000000E+00 0. -1.
         22    1    1    2    0    0  0.15362637361E+02  0.10204811463E+03  0.39616575345E+02  0.11054094883E+03  0.00000000000E+00 0. -1.
</event>
<event>
 6    1  0.3240171E-005  0.3754708E+03  0.7818608E-02  0.1154748E+00
          2   -1    0    0  502    0  0.00000000000E+00  0.00000000000E+00  0.40201392520E+04  0.40201392520E+04  0.00000000000E+00 0. -1.
          1   -1    0    0  501    0 -0.00000000000E+00 -0.00000000000E+00 -0.41381650463E+02  0.41381650463E+02  0.00000000000E+00 0. -1.
          2    1    1    2  501    0  0.12129422766E+03  0.49301756222E+02  0.28624693531E+03  0.31477017140E+03  0.00000000000E+00 0. -1.
          1    1    1    2  502    0 -0.33921141722E+03 -0.10570475211E+03  0.25941133678E+04  0.26183319203E+04  0.00000000000E+00 0. -1.
         22    1    1    2    0    0  0.21577435638E+03  0.83174348855E+02  0.96217941390E+03  0.98957858188E+03  0.00000000000E+00 0. -1.
         22    1    1    2    0    0  0.21428331834E+01 -0.26771352963E+02  0.13621788454E+03  0.13884022883E+03  0.00000000000E+00 0.  1.
</event>
<event>
 6    1  0.3240171E-005  0.1028107E+03  0.7818608E-02  0.1301618E+00
          2   -1    0    0  502    0  0.00000000000E+00  0.00000000000E+00  0.20920648620E+03  0.20920648620E+03  0.00000000000E+00 0. -1.
          1   -1    0    0  501    0 -0.00000000000E+00 -0.00000000000E+00 -0.93374489916E+02  0.93374489916E+02  0.00000000000E+00 0.  1.
          2    1    1    2  501    0  0.93667571651E+01  0.37706566558E+02 -0.30479284765E+02  0.49381252527E+02  0.00000000000E+00 0. -1.
          1    1    1    2  502    0 -0.35212687435E+02 -0.39637918339E+02 -0.95891016585E+01  0.53879948007E+02  0.00000000000E+00 0.  1.
         22    1    1    2    0    0  0.21632486494E+02  0.58855783962E+02  0.55073582278E+02  0.83456978394E+02  0.00000000000E+00 0. -1.
         22    1    1    2    0    0  0.42134437757E+01 -0.56924432180E+02  0.10082680043E+03  0.11586279719E+03  0.00000000000E+00 0.  1.
</event>
<event>
 6    1  0.3240171E-005  0.1688066E+03  0.7818608E-02  0.1241108E+00
          2   -1    0    0  502    0  0.00000000000E+00  0.00000000000E+00  0.14008919597E+03  0.14008919597E+03  0.00000000000E+00 0.  1.
          1   -1    0    0  501    0 -0.00000000000E+00 -0.00000000000E+00 -0.33968992107E+03  0.33968992107E+03  0.00000000000E+00 0. -1.
          2    1    1    2  501    0 -0.87246637259E+02 -0.10612810772E+03 -0.55907653105E+02  0.14832672260E+03  0.00000000000E+00 0.  1.
          1    1    1    2  502    0  0.58205666078E+02  0.12369016527E+03 -0.14247619797E+03  0.19745030650E+03  0.00000000000E+00 0. -1.
         22    1    1    2    0    0  0.40860907063E+02 -0.18560971829E+02  0.58154149662E+02  0.73457664843E+02  0.00000000000E+00 0.  1.
         22    1    1    2    0    0 -0.11819935882E+02  0.99891427602E+00 -0.59371023690E+02  0.60544423096E+02  0.00000000000E+00 0. -1.
</event>
<event>
 6    1  0.3240171E-005  0.8236806E+02  0.7818608E-02  0.1324611E+00
          2   -1    0    0  502    0  0.00000000000E+00  0.00000000000E+00  0.54577401366E+02  0.54577401366E+02  0.00000000000E+00 0.  1.
          1   -1    0    0  501    0 -0.00000000000E+00 -0.00000000000E+00 -0.60819914626E+03  0.60819914626E+03  0.00000000000E+00 0.  1.
          2    1    1    2  501    0 -0.16565343050E+02  0.43769415968E+02 -0.39184237523E+02  0.61037503510E+02  0.00000000000E+00 0.  1.
          1    1    1    2  502    0  0.76774940520E+01 -0.28642379088E+02 -0.45825114657E+03  0.45920958519E+03  0.00000000000E+00 0.  1.
         22    1    1    2    0    0  0.48287578024E+02 -0.52931487665E+02 -0.12787701726E+02  0.72780202619E+02  0.00000000000E+00 0.  1.
         22    1    1    2    0    0 -0.39399729027E+02  0.37804450785E+02 -0.43398659079E+02  0.69749256314E+02  0.00000000000E+00 0.  1.
</event>
<event>
 6    1  0.3240171E-005  0.8659406E+02  0.7818608E-02  0.1317010E+00
          2   -1    0    0  502    0  0.00000000000E+00  0.00000000000E+00  0.43237407364E+03  0.43237407364E+03  0.00000000000E+00 0. -1.
          1   -1    0    0  501    0 -0.00000000000E+00 -0.00000000000E+00 -0.57307265386E+02  0.57307265386E+02  0.00000000000E+00 0. -1.
          2    1    1    2  501    0  0.69852129989E+02 -0.83897504977E+01  0.45316339836E+02  0.83685593943E+02  0.00000000000E+00 0. -1.
          1    1    1    2  502    0 -0.30840471295E+02 -0.33901165378E+01 -0.17263039902E+02  0.35505494033E+02  0.00000000000E+00 0. -1.
         22    1    1    2    0    0 -0.73396949137E+02 -0.67015479977E+01  0.30220280029E+03  0.31106037258E+03  0.00000000000E+00 0. -1.
         22    1    1    2    0    0  0.34385290443E+02  0.18481415033E+02  0.44810708027E+02  0.59429878465E+02  0.00000000000E+00 0. -1.
</event>
<event>
 6    1  0.3240171E-005  0.1733003E+03  0.7818608E-02  0.1235518E+00
          2   -1    0    0  502    0  0.00000000000E+00  0.00000000000E+00  0.38855919203E+03  0.38855919203E+03  0.00000000000E+00 0. -1.
          1   -1    0    0  501    0 -0.00000000000E+00 -0.00000000000E+00 -0.34817201402E+03  0.34817201402E+03  0.00000000000E+00 0. -1.
          2    1    1    2  501    0  0.58420985228E+02 -0.23637378750E+02 -0.23691808009E+03  0.24515691681E+03  0.00000000000E+00 0. -1.
          1    1    1    2  502    0 -0.11622386029E+03  0.68364780937E+02  0.31771451303E+03  0.34514379722E+03  0.00000000000E+00 0. -1.
         22    1    1    2    0    0  0.22021125587E+02 -0.74390670486E+02 -0.57862537281E+02  0.96783134110E+02  0.00000000000E+00 0. -1.
         22    1    1    2    0    0  0.35781749478E+02  0.29663268299E+02  0.17453282355E+02  0.49647357904E+02  0.00000000000E+00 0. -1.
</event>
<event>
 6    1  0.3240171E-005  0.7688365E+02  0.7818608E-02  0.1423965E+00
          2   -1    0    0  502    0  0.00000000000E+00  0.00000000000E+00  0.11884933181E+03  0.11884933181E+03  0.00000000000E+00 0.  1.
          1   -1    0    0  501    0 -0.00000000000E+00 -0.00000000000E+00 -0.38565067885E+03  0.38565067885E+03  0.00000000000E+00 0.  1.
          2    1    1    2  501    0 -0.31984561976E+02  0.45122184575E+02 -0.71773874480E+02  0.90611880035E+02  0.00000000000E+00 0.  1.
          1    1    1    2  502    0  0.39559027174E+02 -0.57448182973E+02 -0.26006976651E+03  0.26926101428E+03  0.00000000000E+00 0.  1.
         22    1    1    2    0    0  0.13038003061E+02  0.13787448839E+02  0.10120940873E+03  0.10297294637E+03  0.00000000000E+00 0.  1.
         22    1    1    2    0    0 -0.20612468258E+02 -0.14614504401E+01 -0.36167114769E+02  0.41654169969E+02  0.00000000000E+00 0. -1.
</event>
<event>
 6    1  0.3240171E-005  0.6829934E+02  0.7818608E-02  0.1394198E+00
          2   -1    0    0  502    0  0.00000000000E+00  0.00000000000E+00  0.13146505060E+03  0.13146505060E+03  0.00000000000E+00 0.  1.
          1   -1    0    0  501    0 -0.00000000000E+00 -0.00000000000E+00 -0.80774669198E+03  0.80774669198E+03  0.00000000000E+00 0.  1.
          2    1    1    2  501    0  0.29637345909E+02 -0.22859947405E+02 -0.61233553642E+02  0.71766967050E+02  0.00000000000E+00 0.  1.
          1    1    1    2  502    0 -0.19867387613E+02  0.20403937428E+02 -0.71152656745E+03  0.71209626452E+03  0.00000000000E+00 0.  1.
         22    1    1    2    0    0 -0.16144023287E+01 -0.38850401754E+02 -0.10588966091E+02  0.40299953030E+02  0.00000000000E+00 0.  1.
         22    1    1    2    0    0 -0.81555559674E+01  0.41306411731E+02  0.10706744580E+03  0.11504855798E+03  0.00000000000E+00 0. -1.
</event>
<event>
 6    1  0.3240171E-005  0.6302000E+02  0.7818608E-02  0.1499116E+00
          2   -1    0    0  502    0  0.00000000000E+00  0.00000000000E+00  0.32073152327E+02  0.32073152327E+02  0.00000000000E+00 0.  1.
          1   -1    0    0  501    0 -0.00000000000E+00 -0.00000000000E+00 -0.77519326671E+03  0.77519326671E+03  0.00000000000E+00 0.  1.
          2    1    1    2  501    0 -0.14693676184E+02 -0.26009614970E+02 -0.41448393361E+03  0.41555906369E+03  0.00000000000E+00 0.  1.
          1    1    1    2  502    0 -0.28921519197E+01  0.45770160635E+02 -0.21225128638E+03  0.21714944328E+03  0.00000000000E+00 0.  1.
         22    1    1    2    0    0  0.23441423094E+02 -0.97668398240E+01 -0.14315470909E+03  0.14538969087E+03  0.00000000000E+00 0.  1.
         22    1    1    2    0    0 -0.58555949902E+01 -0.99937058411E+01  0.26769814696E+02  0.29168221201E+02  0.00000000000E+00 0.  1.
</event>
<event>
 6    1  0.3240171E-005  0.7612213E+02  0.7818608E-02  0.1341934E+00
          2   -1    0    0  502    0  0.00000000000E+00  0.00000000000E+00  0.42341235863E+02  0.42341235863E+02  0.00000000000E+00 0.  1.
          1   -1    0    0  501    0 -0.00000000000E+00 -0.00000000000E+00 -0.49864233671E+03  0.49864233671E+03  0.00000000000E+00 0.  1.
          2    1    1    2  501    0 -0.36889329379E+02 -0.60306656062E+01 -0.97813312813E+02  0.10471215647E+03  0.00000000000E+00 0.  1.
          1    1    1    2  502    0 -0.24070094143E+02 -0.52648301335E+01 -0.26957533227E+03  0.27069899822E+03  0.00000000000E+00 0.  1.
         22    1    1    2    0    0 -0.15610976148E+02 -0.64981168045E+01 -0.85213226417E+02  0.86874749235E+02  0.00000000000E+00 0.  1.
         22    1    1    2    0    0  0.76570399669E+02  0.17793612544E+02 -0.36992293493E+01  0.78697668648E+02  0.00000000000E+00 0.  1.
</event>
<event>
 6    1  0.3240171E-005  0.8760188E+02  0.7818608E-02  0.1360817E+00
          2   -1    0    0  502    0  0.00000000000E+00  0.00000000000E+00  0.20495229278E+03  0.20495229278E+03  0.00000000000E+00 0. -1.
          1   -1    0    0  501    0 -0.00000000000E+00 -0.00000000000E+00 -0.10879029122E+03  0.10879029122E+03  0.00000000000E+00 0. -1.
          2    1    1    2  501    0 -0.22562929120E+02 -0.98832878446E+01 -0.67395818157E+02  0.71756264215E+02  0.00000000000E+00 0. -1.
          1    1    1    2  502    0  0.36536471607E+02  0.20244235276E+02  0.84770324615E+02  0.94502649458E+02  0.00000000000E+00 0. -1.
         22    1    1    2    0    0 -0.15393125329E+02 -0.45615933417E+02 -0.12394554915E+02  0.49713043363E+02  0.00000000000E+00 0. -1.
         22    1    1    2    0    0  0.14195828419E+01  0.35254985986E+02  0.91182050011E+02  0.97770626962E+02  0.00000000000E+00 0. -1.
</event>
<event>
 6    1  0.3240171E-005  0.7873519E+02  0.7818608E-02  0.1342001E+00
          2   -1    0    0  502    0  0.00000000000E+00  0.00000000000E+00  0.42713716360E+03  0.42713716360E+03  0.00000000000E+00 0. -1.
          1   -1    0    0  501    0 -0.00000000000E+00 -0.00000000000E+00 -0.18537360520E+03  0.18537360520E+03  0.00000000000E+00 0.  1.
          2    1    1    2  501    0 -0.12124777311E+01 -0.21853722263E+02  0.40348711781E+02  0.45902873782E+02  0.00000000000E+00 0. -1.
          1    1    1    2  502    0  0.40652714301E+02  0.67428384275E+02 -0.16044158041E+03  0.17871969928E+03  0.00000000000E+00 0.  1.
         22    1    1    2    0    0 -0.78782473018E+02 -0.10053566030E+01  0.17796260799E+03  0.19462368468E+03  0.00000000000E+00 0. -1.
         22    1    1    2    0    0  0.39342236448E+02 -0.44569305408E+02  0.18389381904E+03  0.19326451106E+03  0.00000000000E+00 0. -1.
</event>
<event>
 6    1  0.3240171E-005  0.1807916E+03  0.7818608E-02  0.1209810E+00
          2   -1    0    0  502    0  0.00000000000E+00  0.00000000000E+00  0.10301030094E+03  0.10301030094E+03  0.00000000000E+00 0. -1.
          1   -1    0    0  501    0 -0.00000000000E+00 -0.00000000000E+00 -0.66577266489E+03  0.66577266489E+03  0.00000000000E+00 0. -1.
          2    1    1    2  501    0  0.11873822680E+03  0.15068469093E+02 -0.16410708790E+03  0.20311809758E+03  0.00000000000E+00 0. -1.
          1    1    1    2  502    0 -0.12827460467E+03 -0.81116376279E+02 -0.39903040395E+03  0.42691861517E+03  0.00000000000E+00 0. -1.
         22    1    1    2    0    0  0.63172630814E+02  0.20961682217E+02 -0.11887211256E+02  0.67612714757E+02  0.00000000000E+00 0. -1.
         22    1    1    2    0    0 -0.53636252946E+02  0.45086224969E+02  0.12262339154E+02  0.71133538318E+02  0.00000000000E+00 0. -1.
</event>
<event>
 6    1  0.3240171E-005  0.2026714E+03  0.7818608E-02  0.1276439E+00
          2   -1    0    0  502    0  0.00000000000E+00  0.00000000000E+00  0.12917269980E+03  0.12917269980E+03  0.00000000000E+00 0. -1.
          1   -1    0    0  501    0 -0.00000000000E+00 -0.00000000000E+00 -0.14118615793E+04  0.14118615793E+04  0.00000000000E+00 0.  1.
          2    1    1    2  501    0  0.88104486661E+01 -0.93257932054E+02 -0.67589344043E+02  0.11551184063E+03  0.00000000000E+00 0. -1.
          1    1    1    2  502    0 -0.91125588969E+02  0.14895692076E+03 -0.12518269791E+04  0.12639473180E+04  0.00000000000E+00 0.  1.
         22    1    1    2    0    0  0.89137871598E+02 -0.44716180078E+02 -0.21426712507E+02  0.10200098491E+03  0.00000000000E+00 0. -1.
         22    1    1    2    0    0 -0.68227312952E+01 -0.10982808627E+02  0.58154156141E+02  0.59574135530E+02  0.00000000000E+00 0. -1.
</event>
<event>
 6    1  0.3240171E-005  0.6088122E+02  0.7818608E-02  0.1473272E+00
          2   -1    0    0  502    0  0.00000000000E+00  0.00000000000E+00  0.18623663276E+03  0.18623663276E+03  0.00000000000E+00 0.  1.
          1   -1    0    0  501    0 -0.00000000000E+00 -0.00000000000E+00 -0.48418099481E+02  0.48418099481E+02  0.00000000000E+00 0.  1.
          2    1    1    2  501    0  0.16337644059E+02 -0.19103861898E+02  0.11749638470E+02  0.27747615339E+02  0.00000000000E+00 0.  1.
          1    1    1    2  502    0 -0.24942184892E+02  0.11457021236E+02  0.65941146358E+02  0.71425560592E+02  0.00000000000E+00 0.  1.
         22    1    1    2    0    0  0.17979779897E+02  0.41429650329E+01  0.96247853162E+02  0.98000438176E+02  0.00000000000E+00 0.  1.
         22    1    1    2    0    0 -0.93752390642E+01  0.35038756295E+01 -0.36120104713E+02  0.37481118132E+02  0.00000000000E+00 0.  1.
</event>
<event>
 6    1  0.3240171E-005  0.5838551E+02  0.7818608E-02  0.1505126E+00
          2   -1    0    0  502    0  0.00000000000E+00  0.00000000000E+00  0.84622170228E+02  0.84622170228E+02  0.00000000000E+00 0. -1.
          1   -1    0    0  501    0 -0.00000000000E+00 -0.00000000000E+00 -0.17221423458E+03  0.17221423458E+03  0.00000000000E+00 0.  1.
          2    1    1    2  501    0  0.24281689257E+02  0.13778245529E+02 -0.57496897863E+02  0.63916615578E+02  0.00000000000E+00 0. -1.
          1    1    1    2  502    0 -0.11000146438E+02 -0.31813995982E+02 -0.54003044202E+02  0.63635385950E+02  0.00000000000E+00 0.  1.
         22    1    1    2    0    0 -0.25469685015E+02  0.12432440911E+02 -0.48213094804E+02  0.55926495978E+02  0.00000000000E+00 0. -1.
         22    1    1    2    0    0  0.12188142196E+02  0.56033095419E+01  0.72120972514E+02  0.73357907306E+02  0.00000000000E+00 0. -1.
</event>
<event>
 6    1  0.3240171E-005  0.2598229E+03  0.7818608E-02  0.1108833E+00
          2   -1    0    0  502    0  0.00000000000E+00  0.00000000000E+00  0.36325830128E+04  0.36325830128E+04  0.00000000000E+00 0. -1.
          1   -1    0    0  501    0 -0.00000000000E+00 -0.00000000000E+00 -0.24277678103E+02  0.24277678103E+02  0.00000000000E+00 0. -1.
          2    1    1    2  501    0 -0.25509059438E+03  0.21346992507E+02  0.12633267281E+04  0.12890001270E+04  0.00000000000E+00 0. -1.
          1    1    1    2  502    0  0.32118037248E+02 -0.38329176055E+01  0.86432702869E+03  0.86493206213E+03  0.00000000000E+00 0. -1.
         22    1    1    2    0    0  0.23298837122E+03 -0.36894939778E+02  0.13665243832E+04  0.13867349089E+04  0.00000000000E+00 0. -1.
         22    1    1    2    0    0 -0.10015814094E+02  0.19380864876E+02  0.11412719477E+03  0.11619359294E+03  0.00000000000E+00 0.  1.
</event>
<event>
 6    1  0.3240171E-005  0.7136642E+02  0.7818608E-02  0.1361344E+00
          2   -1    0    0  502    0  0.00000000000E+00  0.00000000000E+00  0.61515150540E+02  0.61515150540E+02  0.00000000000E+00 0. -1.
          1   -1    0    0  501    0 -0.00000000000E+00 -0.00000000000E+00 -0.77547852780E+03  0.77547852780E+03  0.00000000000E+00 0. -1.
          2    1    1    2  501    0 -0.39860808586E+02  0.45556817117E+02 -0.14429164069E+03  0.15647487089E+03  0.00000000000E+00 0. -1.
          1    1    1    2  502    0  0.43499644245E+02  0.23028398034E+01 -0.54579129361E+03  0.54752685623E+03  0.00000000000E+00 0. -1.
         22    1    1    2    0    0  0.32847518984E+01  0.16947891914E+02 -0.57231338949E+02  0.59778313737E+02  0.00000000000E+00 0. -1.
         22    1    1    2    0    0 -0.69235875572E+01 -0.64807548835E+02  0.33350895982E+02  0.73213637483E+02  0.00000000000E+00 0. -1.
</event>
<event>
 6    1  0.3240171E-005  0.8194535E+02  0.7818608E-02  0.1352768E+00
          2   -1    0    0  502    0  0.00000000000E+00  0.00000000000E+00  0.93336061741E+02  0.93336061741E+02  0.00000000000E+00 0. -1.
          1   -1    0    0  501    0 -0.00000000000E+00 -0.00000000000E+00 -0.11130753110E+03  0.11130753110E+03  0.00000000000E+00 0. -1.
          2    1    1    2  501    0  0.27481615867E+02  0.16083836799E+01 -0.72287827446E+01  0.28461929111E+02  0.00000000000E+00 0. -1.
          1    1    1    2  502    0  0.13455418787E+02  0.24347095264E+02 -0.30627798342E+02  0.41375009049E+02  0.00000000000E+00 0. -1.
         22    1    1    2    0    0 -0.10043733508E+02 -0.62570922323E+02 -0.25973865475E+02  0.68488236879E+02  0.00000000000E+00 0. -1.
         22    1    1    2    0    0 -0.30893301146E+02  0.36615443379E+02  0.45858977203E+02  0.66318417802E+02  0.00000000000E+00 0. -1.
</event>
<event>
 6    1  0.3240171E-005  0.1335366E+03  0.7818608E-02  0.1273142E+00
          2   -1    0    0  502    0  0.00000000000E+00  0.00000000000E+00  0.41358971856E+02  0.41358971856E+02  0.00000000000E+00 0. -1.
          1   -1    0    0  501    0 -0.00000000000E+00 -0.00000000000E+00 -0.16101199182E+04  0.16101199182E+04  0.00000000000E+00 0.  1.
          2    1    1    2  501    0 -0.44936864035E+02  0.96433102465E+01 -0.13956994158E+03  0.14694245055E+03  0.00000000000E+00 0. -1.
          1    1    1    2  502    0  0.64831793743E+01 -0.25157227923E+02 -0.13538188128E+04  0.13540680543E+04  0.00000000000E+00 0.  1.
         22    1    1    2    0    0 -0.24389119026E+02  0.44623575155E+02 -0.39901778052E+01  0.51009941241E+02  0.00000000000E+00 0. -1.
         22    1    1    2    0    0  0.62842803687E+02 -0.29109657479E+02 -0.71382014159E+02  0.99458443981E+02  0.00000000000E+00 0. -1.
</event>
<event>
 6    1  0.3240171E-005  0.4313153E+02  0.7818608E-02  0.1510374E+00
          2   -1    0    0  502    0  0.00000000000E+00  0.00000000000E+00  0.30843840515E+03  0.30843840515E+03  0.00000000000E+00 0. -1.
          1   -1    0    0  501    0 -0.00000000000E+00 -0.00000000000E+00 -0.87133809975E+02  0.87133809975E+02  0.00000000000E+00 0. -1.
          2    1    1    2  501    0 -0.28277777776E+01 -0.29870350380E+02 -0.54499772746E+02  0.62213016229E+02  0.00000000000E+00 0. -1.
          1    1    1    2  502    0  0.21535526153E+02  0.24378335357E+02  0.16679863478E+03  0.16994077405E+03  0.00000000000E+00 0. -1.
         22    1    1    2    0    0 -0.25694496571E+02  0.17311455772E+02  0.13257203445E+03  0.13614418083E+03  0.00000000000E+00 0. -1.
         22    1    1    2    0    0  0.69867481956E+01 -0.11819440750E+02 -0.23566301301E+02  0.27274244022E+02  0.00000000000E+00 0. -1.
</event>
<event>
 6    1  0.3240171E-005  0.1223669E+03  0.7818608E-02  0.1255668E+00
          2   -1    0    0  502    0  0.00000000000E+00  0.00000000000E+00  0.15841420945E+03  0.15841420945E+03  0.00000000000E+00 0. -1.
          1   -1    0    0  501    0 -0.00000000000E+00 -0.00000000000E+00 -0.28663359574E+03  0.28663359574E+03  0.00000000000E+00 0. -1.
          2    1    1    2  501    0  0.64904624762E+01 -0.55803322956E+02 -0.46088475544E+02  0.72665566358E+02  0.00000000000E+00 0. -1.
          1    1    1    2  502    0  0.59234716638E+02  0.69476908312E+02 -0.17821474770E+03  0.20024057716E+03  0.00000000000E+00 0. -1.
         22    1    1    2    0    0  0.37986696944E+02 -0.29635597613E+01  0.19708516468E+02  0.42897522685E+02  0.00000000000E+00 0. -1.
         22    1    1    2    0    0 -0.10371187606E+03 -0.10710025594E+02  0.76375320487E+02  0.12924413899E+03  0.00000000000E+00 0. -1.
</event>
<event>
 6    1  0.3240171E-005  0.1351518E+03  0.7818608E-02  0.1299251E+00
          2   -1    0    0  502    0  0.00000000000E+00  0.00000000000E+00  0.19794058119E+03  0.19794058119E+03  0.00000000000E+00 0. -1.
          1   -1    0    0  501    0 -0.00000000000E+00 -0.00000000000E+00 -0.11854680350E+04  0.11854680350E+04  0.00000000000E+00 0.  1.
          2    1    1    2  501    0 -0.43898272353E+02 -0.44697724429E+02  0.23729613288E+02  0.66992831195E+02  0.00000000000E+00 0. -1.
          1    1    1    2  502    0  0.99454334746E+02  0.81933196512E+02 -0.11273969503E+04  0.11347370166E+04  0.00000000000E+00 0.  1.
         22    1    1    2    0    0  0.20153265601E+02 -0.20006858884E+02  0.97879210102E+02  0.10191549581E+03  0.00000000000E+00 0. -1.
         22    1    1    2    0    0 -0.75709327993E+02 -0.17228613200E+02  0.18260673126E+02  0.79763272507E+02  0.00000000000E+00 0. -1.
</event>
<event>
 6    1  0.3240171E-005  0.4175942E+03  0.7818608E-02  0.1143008E+00
          2   -1    0    0  502    0  0.00000000000E+00  0.00000000000E+00  0.19821977083E+03  0.19821977083E+03  0.00000000000E+00 0.  1.
          1   -1    0    0  501    0 -0.00000000000E+00 -0.00000000000E+00 -0.10564048276E+04  0.10564048276E+04  0.00000000000E+00 0.  1.
          2    1    1    2  501    0  0.54468954549E+02 -0.58031760397E+02 -0.49510224130E+03  0.50145865389E+03  0.00000000000E+00 0.  1.
          1    1    1    2  502    0 -0.22912032264E+02  0.19533739996E+01 -0.53197064558E+03  0.53246741183E+03  0.00000000000E+00 0.  1.
         22    1    1    2    0    0 -0.34335144101E+02  0.81737459954E+02  0.55917093687E+02  0.10481715435E+03  0.00000000000E+00 0.  1.
         22    1    1    2    0    0  0.27782218166E+01 -0.25659073557E+02  0.11297073640E+03  0.11588137838E+03  0.00000000000E+00 0.  1.
</event>
<event>
 6    1  0.3240171E-005  0.1546357E+03  0.7818608E-02  0.1306929E+00
          2   -1    0    0  502    0  0.00000000000E+00  0.00000000000E+00  0.14093256409E+03  0.14093256409E+03  0.00000000000E+00 0.  1.
          1   -1    0    0  501    0 -0.00000000000E+00 -0.00000000000E+00 -0.10764119240E+03  0.10764119240E+03  0.00000000000E+00 0. -1.
          2    1    1    2  501    0 -0.12287778526E+02 -0.67857172750E+02  0.25745410768E+02  0.73609860551E+02  0.00000000000E+00 0.  1.
          1    1    1    2  502    0 -0.18467830084E+02  0.19269236204E+02  0.18892390314E+02  0.32699948374E+02  0.00000000000E+00 0. -1.
         22    1    1    2    0    0  0.16066995095E+02 -0.36135986312E+01  0.54516023491E+02  0.56949128560E+02  0.00000000000E+00 0.  1.
         22    1    1    2    0    0  0.14688613515E+02  0.52201535178E+02 -0.65862452879E+02  0.85314819000E+02  0.00000000000E+00 0. -1.
</event>
<event>
 6    1  0.3240171E-005  0.9554338E+02  0.7818608E-02  0.1291494E+00
          2   -1    0    0  502    0  0.00000000000E+00  0.00000000000E+00  0.44367613365E+03  0.44367613365E+03  0.00000000000E+00 0. -1.
          1   -1    0    0  501    0 -0.00000000000E+00 -0.00000000000E+00 -0.26638547561E+03  0.26638547561E+03  0.00000000000E+00 0. -1.
          2    1    1    2  501    0 -0.62817435064E+02 -0.53250449987E+02  0.20581629811E+02  0.84883709023E+02  0.00000000000E+00 0. -1.
          1    1    1    2  502    0  0.19886262633E+02  0.92653614047E+01 -0.22089901609E+03  0.22198577809E+03  0.00000000000E+00 0. -1.
         22    1    1    2    0    0 -0.22886708852E+02 -0.17717130102E+02  0.22100875436E+02  0.36416299045E+02  0.00000000000E+00 0. -1.
         22    1    1    2    0    0  0.65817881283E+02  0.61702218684E+02  0.35550716888E+03  0.36677582310E+03  0.00000000000E+00 0.  1.
</event>
<event>
 6    1  0.3240171E-005  0.2302074E+03  0.7818608E-02  0.1202030E+00
          2   -1    0    0  502    0  0.00000000000E+00  0.00000000000E+00  0.11235045359E+04  0.11235045359E+04  0.00000000000E+00 0. -1.
          1   -1    0    0  501    0 -0.00000000000E+00 -0.00000000000E+00 -0.12417776656E+03  0.12417776656E+03  0.00000000000E+00 0. -1.
          2    1    1    2  501    0 -0.99320711220E+02  0.45181000510E+02 -0.31034408893E+02  0.11344188389E+03  0.00000000000E+00 0. -1.
          1    1    1    2  502    0  0.16182380543E+03  0.46079795483E+01  0.95072079540E+03  0.96440562435E+03  0.00000000000E+00 0. -1.
         22    1    1    2    0    0  0.39125054987E+02 -0.88750591528E+01  0.26422353880E+02  0.48038290844E+02  0.00000000000E+00 0. -1.
         22    1    1    2    0    0 -0.10162814919E+03 -0.40913920905E+02  0.53218028985E+02  0.12179650340E+03  0.00000000000E+00 0. -1.
</event>
<event>
 6    1  0.3844120E-005  0.6873578E+02  0.7818608E-02  0.1421799E+00
          2   -1    0    0  502    0  0.00000000000E+00  0.00000000000E+00  0.28377083891E+03  0.28377083891E+03  0.00000000000E+00 0. -1.
          1   -1    0    0  501    0 -0.00000000000E+00 -0.00000000000E+00 -0.37120507277E+03  0.37120507277E+03  0.00000000000E+00 0. -1.
          2    1    1    2  501    0 -0.37992634545E+02  0.29507373325E+02 -0.30207028419E+03  0.30587674306E+03  0.00000000000E+00 0. -1.
          1    1    1    2  502    0  0.29248426357E+02 -0.23908874836E+02  0.21581190748E+03  0.21909332293E+03  0.00000000000E+00 0. -1.
         22    1    1    2    0    0  0.27102485379E+02 -0.43627622070E+01  0.60075616266E+02  0.66050420722E+02  0.00000000000E+00 0. -1.
         22    1    1    2    0    0 -0.18358277191E+02 -0.12357362822E+01 -0.61251473426E+02  0.63955424964E+02  0.00000000000E+00 0. -1.
</event>
<event>
 6    1  0.3240171E-005  0.1070409E+03  0.7818608E-02  0.1294911E+00
          2   -1    0    0  502    0  0.00000000000E+00  0.00000000000E+00  0.13669866892E+03  0.13669866892E+03  0.00000000000E+00 0. -1.
          1   -1    0    0  501    0 -0.00000000000E+00 -0.00000000000E+00 -0.43890100178E+03  0.43890100178E+03  0.00000000000E+00 0. -1.
          2    1    1    2  501    0 -0.66266257599E+02  0.10738472887E+02  0.16495625870E+02  0.69127688874E+02  0.00000000000E+00 0. -1.
          1    1    1    2  502    0  0.38587024926E+02  0.58989828869E+02 -0.34747640742E+03  0.35455410323E+03  0.00000000000E+00 0. -1.
         22    1    1    2    0    0 -0.30090468977E+02 -0.47368466527E+02  0.60333915806E+02  0.82397750824E+02  0.00000000000E+00 0. -1.
         22    1    1    2    0    0  0.57769701650E+02 -0.22359835228E+02 -0.31555467116E+02  0.69520127770E+02  0.00000000000E+00 0.  1.
</event>
<event>
 6    1  0.3240171E-005  0.7859790E+02  0.7818608E-02  0.1376378E+00
          2   -1    0    0  502    0  0.00000000000E+00  0.00000000000E+00  0.76371446886E+02  0.76371446886E+02  0.00000000000E+00 0. -1.
          1   -1    0    0  501    0 -0.00000000000E+00 -0.00000000000E+00 -0.82997327829E+03  0.82997327829E+03  0.00000000000E+00 0.  1.
          2    1    1    2  501    0  0.48868805676E+02 -0.15418404671E+02 -0.89270551000E+02  0.10293259273E+03  0.00000000000E+00 0. -1.
          1    1    1    2  502    0 -0.29009528423E+02 -0.12647040077E+02 -0.67432842824E+03  0.67507061075E+03  0.00000000000E+00 0.  1.
         22    1    1    2    0    0  0.14293923241E+02  0.41236166823E+02 -0.44734492717E+02  0.62497300218E+02  0.00000000000E+00 0. -1.
         22    1    1    2    0    0 -0.34153200493E+02 -0.13170722075E+02  0.54731640556E+02  0.65844221477E+02  0.00000000000E+00 0. -1.
</event>
<event>
 6    1  0.3240171E-005  0.3888778E+03  0.7818608E-02  0.1163205E+00
          2   -1    0    0  502    0  0.00000000000E+00  0.00000000000E+00  0.72819749972E+03  0.72819749972E+03  0.00000000000E+00 0.  1.
          1   -1    0    0  501    0 -0.00000000000E+00 -0.00000000000E+00 -0.20820293328E+03  0.20820293328E+03  0.00000000000E+00 0.  1.
          2    1    1    2  501    0 -0.67799016737E+02  0.34236768976E+02  0.14501914743E+02  0.77325083586E+02  0.00000000000E+00 0.  1.
          1    1    1    2  502    0  0.14595754679E+03 -0.32136162315E+03  0.16694668846E+03  0.39044602071E+03  0.00000000000E+00 0.  1.
         22    1    1    2    0    0 -0.58857860699E+02  0.29174735739E+03  0.28727693820E+03  0.41365300378E+03  0.00000000000E+00 0.  1.
         22    1    1    2    0    0 -0.19300669359E+02 -0.46225032228E+01  0.51269025038E+02  0.54976324923E+02  0.00000000000E+00 0. -1.
</event>
<event>
 6    1  0.3240171E-005  0.1929359E+03  0.7818608E-02  0.1231194E+00
          2   -1    0    0  502    0  0.00000000000E+00  0.00000000000E+00  0.34493352216E+03  0.34493352216E+03  0.00000000000E+00 0. -1.
          1   -1    0    0  501    0 -0.00000000000E+00 -0.00000000000E+00 -0.10622302542E+03  0.10622302542E+03  0.00000000000E+00 0. -1.
          2    1    1    2  501    0  0.18489357834E+02 -0.78680073917E+02  0.36514272860E+02  0.88688795838E+02  0.00000000000E+00 0. -1.
          1    1    1    2  502    0  0.21749058943E+02  0.29747443404E+02 -0.57990828324E+02  0.68708573873E+02  0.00000000000E+00 0. -1.
         22    1    1    2    0    0  0.35298864598E+02  0.10442123349E+02  0.27035416957E+02  0.45672328077E+02  0.00000000000E+00 0.  1.
         22    1    1    2    0    0 -0.75537281375E+02  0.38490507164E+02  0.23315163524E+03  0.24808684978E+03  0.00000000000E+00 0. -1.
</event>
<event>
 6    1  0.3240171E-005  0.9804995E+02  0.7818608E-02  0.1298835E+00
          2   -1    0    0  502    0  0.00000000000E+00  0.00000000000E+00  0.98137555870E+02  0.98137555870E+02  0.00000000000E+00 0.  1.
          1   -1    0    0  501    0 -0.00000000000E+00 -0.00000000000E+00 -0.60505129053E+03  0.60505129053E+03  0.00000000000E+00 0.  1.
          2    1    1    2  501    0 -0.38896306405E+02 -0.15941209769E+02 -0.22257272811E+02  0.47565018805E+02  0.00000000000E+00 0.  1.
          1    1    1    2  502    0  0.17817951841E+02  0.32356566909E+02 -0.51806650243E+03  0.51938167832E+03  0.00000000000E+00 0.  1.
         22    1    1    2    0    0  0.41893822993E+02  0.48296227651E+02  0.12734267195E+02  0.65190333419E+02  0.00000000000E+00 0.  1.
         22    1    1    2    0    0 -0.20815468429E+02 -0.64711584791E+02  0.20675773386E+02  0.71051815861E+02  0.00000000000E+00 0.  1.
</event>
<event>
 6    1  0.3240171E-005  0.9332821E+02  0.7818608E-02  0.1299203E+00
          2   -1    0    0  502    0  0.00000000000E+00  0.00000000000E+00  0.79672201756E+02  0.79672201756E+02  0.00000000000E+00 0. -1.
          1   -1    0    0  501    0 -0.00000000000E+00 -0.00000000000E+00 -0.27401201912E+03  0.27401201912E+03  0.00000000000E+00 0. -1.
          2    1    1    2  501    0 -0.19738213772E+02  0.25789919043E+02 -0.60957456768E+02  0.69069012898E+02  0.00000000000E+00 0. -1.
          1    1    1    2  502    0  0.93519027586E+02  0.23459242489E+02 -0.42415756580E+02  0.10533394982E+03  0.00000000000E+00 0. -1.
         22    1    1    2    0    0 -0.55552629918E+02  0.35122044681E+02 -0.55266156777E+02  0.85872002412E+02  0.00000000000E+00 0.  1.
         22    1    1    2    0    0 -0.18228183896E+02 -0.84371206212E+02 -0.35700447243E+02  0.93409255747E+02  0.00000000000E+00 0. -1.
</event>
<event>
 6    1  0.3240171E-005  0.1178891E+03  0.7818608E-02  0.1305096E+00
          2   -1    0    0  502    0  0.00000000000E+00  0.00000000000E+00  0.99764799919E+02  0.99764799919E+02  0.00000000000E+00 0.  1.
          1   -1    0    0  501    0 -0.00000000000E+00 -0.00000000000E+00 -0.62916716482E+03  0.62916716482E+03  0.00000000000E+00 0.  1.
          2    1    1    2  501    0 -0.36134624201E+02  0.67229143600E+01 -0.82755622338E+01  0.37674840065E+02  0.00000000000E+00 0.  1.
          1    1    1    2  502    0  0.91619720266E+02 -0.52746580060E+02 -0.53858150018E+03  0.54885918703E+03  0.00000000000E+00 0.  1.
         22    1    1    2    0    0 -0.35211995890E+02  0.78673851328E+02 -0.20268828071E+02  0.88545383441E+02  0.00000000000E+00 0.  1.
         22    1    1    2    0    0 -0.20273100175E+02 -0.32650185628E+02  0.37723525582E+02  0.53852554206E+02  0.00000000000E+00 0.  1.
</event>
<event>
 6    1  0.3240171E-005  0.7888137E+03  0.7818608E-02  0.1039525E+00
          2   -1    0    0  502    0  0.00000000000E+00  0.00000000000E+00  0.38333432283E+03  0.38333432283E+03  0.00000000000E+00 0. -1.
          1   -1    0    0  501    0 -0.00000000000E+00 -0.00000000000E+00 -0.58005943666E+03  0.58005943666E+03  0.00000000000E+00 0. -1.
          2    1    1    2  501    0 -0.10347412353E+03 -0.84491444713E+02 -0.51617517325E+03  0.53318149626E+03  0.00000000000E+00 0. -1.
          1    1    1    2  502    0  0.68886964583E+02 -0.28321139284E+02  0.10567424798E+02  0.75227463647E+02  0.00000000000E+00 0. -1.
         22    1    1    2    0    0 -0.10970727216E+02  0.57978409709E+02  0.28217318245E+02  0.65406956029E+02  0.00000000000E+00 0. -1.
         22    1    1    2    0    0  0.45557886159E+02  0.54834174287E+02  0.28066531637E+03  0.28957784355E+03  0.00000000000E+00 0. -1.
</event>
<event>
 6    1  0.3240171E-005  0.9829430E+02  0.7818608E-02  0.1311520E+00
          2   -1    0    0  502    0  0.00000000000E+00  0.00000000000E+00  0.10817175398E+03  0.10817175398E+03  0.00000000000E+00 0.  1.
          1   -1    0    0  501    0 -0.00000000000E+00 -0.00000000000E+00 -0.37893994131E+03  0.37893994131E+03  0.00000000000E+00 0.  1.
          2    1    1    2  501    0 -0.21284175145E+02  0.22987148081E+01 -0.19066265747E+02  0.28667450025E+02  0.00000000000E+00 0.  1.
          1    1    1    2  502    0  0.48281550889E+02 -0.29502239767E+00 -0.31319839910E+03  0.31689814199E+03  0.00000000000E+00 0.  1.
         22    1    1    2    0    0 -0.59951731560E+02 -0.42945862955E+02  0.26316292563E+02  0.78301369824E+02  0.00000000000E+00 0.  1.
         22    1    1    2    0    0  0.32954355816E+02  0.40942170544E+02  0.35180184951E+02  0.63244733451E+02  0.00000000000E+00 0. -1.
</event>
<event>
 6    1  0.3240171E-005  0.9659977E+02  0.7818608E-02  0.1379380E+00
          2   -1    0    0  502    0  0.00000000000E+00  0.00000000000E+00  0.75739121779E+02  0.75739121779E+02  0.00000000000E+00 0.  1.
          1   -1    0    0  501    0 -0.00000000000E+00 -0.00000000000E+00 -0.32649076459E+03  0.32649076459E+03  0.00000000000E+00 0.  1.
          2    1    1    2  501    0  0.22203262016E+02  0.75953994345E+01 -0.15601939369E+02  0.28179699232E+02  0.00000000000E+00 0.  1.
          1    1    1    2  502    0 -0.79781734078E+02 -0.58495135052E+02 -0.20052729222E+03  0.22360232745E+03  0.00000000000E+00 0.  1.
         22    1    1    2    0    0 -0.15305765897E+01  0.19291643248E+02  0.43440311415E+02  0.47555975647E+02  0.00000000000E+00 0.  1.
         22    1    1    2    0    0  0.59109048651E+02  0.31608092369E+02 -0.78062722644E+02  0.10289188404E+03  0.00000000000E+00 0.  1.
</event>
<event>
 6    1  0.3240171E-005  0.2266449E+03  0.7818608E-02  0.1237050E+00
          2   -1    0    0  502    0  0.00000000000E+00  0.00000000000E+00  0.54622786979E+02  0.54622786979E+02  0.00000000000E+00 0.  1.
          1   -1    0    0  501    0 -0.00000000000E+00 -0.00000000000E+00 -0.10472609459E+04  0.10472609459E+04  0.00000000000E+00 0.  1.
          2    1    1    2  501    0 -0.32531667197E+02 -0.71757939125E+02 -0.51686449043E+03  0.52283497652E+03  0.00000000000E+00 0.  1.
          1    1    1    2  502    0  0.30526413199E+02 -0.15845510906E+02 -0.40725278282E+03  0.40870254616E+03  0.00000000000E+00 0.  1.
         22    1    1    2    0    0 -0.20062216196E+02  0.17443514355E+01  0.31063701286E+02  0.37020113698E+02  0.00000000000E+00 0.  1.
         22    1    1    2    0    0  0.22067470194E+02  0.85859098595E+02 -0.99584586967E+02  0.13332609652E+03  0.00000000000E+00 0.  1.
</event>
<event>
 6    1  0.3240171E-005  0.1225931E+03  0.7818608E-02  0.1241428E+00
          2   -1    0    0  502    0  0.00000000000E+00  0.00000000000E+00  0.18657828941E+03  0.18657828941E+03  0.00000000000E+00 0.  1.
          1   -1    0    0  501    0 -0.00000000000E+00 -0.00000000000E+00 -0.11313206821E+03  0.11313206821E+03  0.00000000000E+00 0.  1.
          2    1    1    2  501    0 -0.71310720089E+02  0.44543883544E+02  0.12857402922E+02  0.85056976026E+02  0.00000000000E+00 0.  1.
          1    1    1    2  502    0  0.19201134494E+02  0.37478512060E+02 -0.86714436303E+01  0.42994375989E+02  0.00000000000E+00 0.  1.
         22    1    1    2    0    0  0.74399099496E+02 -0.99698026622E+02  0.39569836721E+02  0.13054001109E+03  0.00000000000E+00 0.  1.
         22    1    1    2    0    0 -0.22289513900E+02  0.17675631018E+02  0.29690425190E+02  0.41118994513E+02  0.00000000000E+00 0. -1.
</event>
<event>
 6    1  0.3240171E-005  0.8826014E+02  0.7818608E-02  0.1360663E+00
          2   -1    0    0  502    0  0.00000000000E+00  0.00000000000E+00  0.49171382973E+03  0.49171382973E+03  0.00000000000E+00 0. -1.
          1   -1    0    0  501    0 -0.00000000000E+00 -0.00000000000E+00 -0.90211424823E+02  0.90211424823E+02  0.00000000000E+00 0. -1.
          2    1    1    2  501    0 -0.19409216801E+02  0.27722612653E+02 -0.23624691016E+02  0.41272108920E+02  0.00000000000E+00 0. -1.
          1    1    1    2  502    0  0.45394706691E+02 -0.14926749900E+03  0.24747437816E+03  0.29254919843E+03  0.00000000000E+00 0. -1.
         22    1    1    2    0    0 -0.23139761738E+02  0.13907427679E+03  0.18160802393E+03  0.22990993322E+03  0.00000000000E+00 0. -1.
         22    1    1    2    0    0 -0.28457281521E+01 -0.17529390440E+02 -0.39553061709E+01  0.18194013983E+02  0.00000000000E+00 0. -1.
</event>
<event>
 6    1  0.3240171E-005  0.1293540E+03  0.7818608E-02  0.1274225E+00
          2   -1    0    0  502    0  0.00000000000E+00  0.00000000000E+00  0.13140219609E+03  0.13140219609E+03  0.00000000000E+00 0.  1.
          1   -1    0    0  501    0 -0.00000000000E+00 -0.00000000000E+00 -0.90255063553E+03  0.90255063553E+03  0.00000000000E+00 0.  1.
          2    1    1    2  501    0 -0.85089218905E+02  0.10830362291E+02  0.32935640179E+02  0.91881599437E+02  0.00000000000E+00 0.  1.
          1    1    1    2  502    0  0.80192316663E+02 -0.29534302597E+02 -0.81306252391E+03  0.81754128364E+03  0.00000000000E+00 0.  1.
         22    1    1    2    0    0  0.11891162303E+02 -0.50505571509E+02 -0.90495090133E+01  0.52669783631E+02  0.00000000000E+00 0.  1.
         22    1    1    2    0    0 -0.69942600613E+01  0.69209511815E+02  0.18027953305E+02  0.71860164903E+02  0.00000000000E+00 0.  1.
</event>
<event>
 6    1  0.3240171E-005  0.1089043E+03  0.7818608E-02  0.1317461E+00
          2   -1    0    0  502    0  0.00000000000E+00  0.00000000000E+00  0.18686137877E+03  0.18686137877E+03  0.00000000000E+00 0. -1.
          1   -1    0    0  501    0 -0.00000000000E+00 -0.00000000000E+00 -0.47223092718E+03  0.47223092718E+03  0.00000000000E+00 0. -1.
          2    1    1    2  501    0 -0.92397625254E+02 -0.60585580780E+02 -0.15829953238E+03  0.19304578654E+03  0.00000000000E+00 0. -1.
          1    1    1    2  502    0  0.67190749705E+02  0.41404952062E+02 -0.26488751473E+03  0.27639530090E+03  0.00000000000E+00 0. -1.
         22    1    1    2    0    0  0.10598334289E+02 -0.16945656736E+02 -0.19293428761E+02  0.27779783392E+02  0.00000000000E+00 0.  1.
         22    1    1    2    0    0  0.14608541260E+02  0.36126285455E+02  0.15711092746E+03  0.16187143511E+03  0.00000000000E+00 0. -1.
</event>
<event>
 6    1  0.3240171E-005  0.8489334E+02  0.7818608E-02  0.1364846E+00
          2   -1    0    0  502    0  0.00000000000E+00  0.00000000000E+00  0.28465748073E+03  0.28465748073E+03  0.00000000000E+00 0. -1.
          1   -1    0    0  501    0 -0.00000000000E+00 -0.00000000000E+00 -0.75034674418E+02  0.75034674418E+02  0.00000000000E+00 0. -1.
          2    1    1    2  501    0  0.37233625133E+02 -0.45005252127E+01 -0.40679953244E+01  0.37724609391E+02  0.00000000000E+00 0. -1.
          1    1    1    2  502    0 -0.74384181836E+02 -0.19101756647E+02  0.10999616064E+02  0.77581409938E+02  0.00000000000E+00 0. -1.
         22    1    1    2    0    0 -0.17114327126E+02  0.31946492115E+02  0.18222316565E+03  0.18579225132E+03  0.00000000000E+00 0. -1.
         22    1    1    2    0    0  0.54264883829E+02 -0.83442102552E+01  0.20468019931E+02  0.58593884507E+02  0.00000000000E+00 0. -1.
</event>
<event>
 6    1  0.3240171E-005  0.2716470E+03  0.7818608E-02  0.1203847E+00
          2   -1    0    0  502    0  0.00000000000E+00  0.00000000000E+00  0.31119410714E+02  0.31119410714E+02  0.00000000000E+00 0.  1.
          1   -1    0    0  501    0 -0.00000000000E+00 -0.00000000000E+00 -0.23711311145E+04  0.23711311145E+04  0.00000000000E+00 0.  1.
          2    1    1    2  501    0 -0.66655690430E+02  0.99650740927E+02 -0.31918406846E+03  0.34095706590E+03  0.00000000000E+00 0.  1.
          1    1    1    2  502    0  0.11385803627E+03  0.27126038445E+02 -0.15639639122E+04  0.15683375252E+04  0.00000000000E+00 0.  1.
         22    1    1    2    0    0 -0.57660244638E+02 -0.14779596775E+03 -0.42281264775E+03  0.45159593332E+03  0.00000000000E+00 0.  1.
         22    1    1    2    0    0  0.10457898795E+02  0.21019188380E+02 -0.34051075338E+02  0.41360000713E+02  0.00000000000E+00 0.  1.
</event>
<event>
 6    1  0.3240171E-005  0.1865579E+03  0.7818608E-02  0.1215354E+00
          2   -1    0    0  502    0  0.00000000000E+00  0.00000000000E+00  0.45246074746E+03  0.45246074746E+03  0.00000000000E+00 0. -1.
          1   -1    0    0  501    0 -0.00000000000E+00 -0.00000000000E+00 -0.49651233233E+03  0.49651233233E+03  0.00000000000E+00 0. -1.
          2    1    1    2  501    0  0.38093143331E+02  0.25500859917E+02  0.38098585426E+02  0.59606070470E+02  0.00000000000E+00 0. -1.
          1    1    1    2  502    0 -0.11461669011E+03 -0.13624275365E+03 -0.44731597735E+03  0.48144642191E+03  0.00000000000E+00 0. -1.
         22    1    1    2    0    0 -0.30694067537E+02  0.47649863954E+02  0.97991736568E+02  0.11320342642E+03  0.00000000000E+00 0. -1.
         22    1    1    2    0    0  0.10721761431E+03  0.63092029781E+02  0.26717407049E+03  0.29471716099E+03  0.00000000000E+00 0. -1.
</event>
<event>
 6    1  0.3240171E-005  0.1892164E+03  0.7818608E-02  0.1281461E+00
          2   -1    0    0  502    0  0.00000000000E+00  0.00000000000E+00  0.91890822210E+02  0.91890822210E+02  0.00000000000E+00 0.  1.
          1   -1    0    0  501    0 -0.00000000000E+00 -0.00000000000E+00 -0.58639498892E+03  0.58639498892E+03  0.00000000000E+00 0.  1.
          2    1    1    2  501    0  0.72585912761E+02 -0.19036447854E+02 -0.93953778121E+02  0.12024314326E+03  0.00000000000E+00 0.  1.
          1    1    1    2  502    0 -0.17663539918E+03 -0.56433475532E+01 -0.33894819203E+03  0.38225356571E+03  0.00000000000E+00 0.  1.
         22    1    1    2    0    0  0.10819388393E+03  0.38510178060E+02 -0.88683840223E+02  0.14509918625E+03  0.00000000000E+00 0.  1.
         22    1    1    2    0    0 -0.41443975059E+01 -0.13830382653E+02  0.27081643665E+02  0.30689915911E+02  0.00000000000E+00 0.  1.
</event>
<event>
 6    1  0.3240171E-005  0.9818480E+02  0.7818608E-02  0.1290746E+00
          2   -1    0    0  502    0  0.00000000000E+00  0.00000000000E+00  0.54244748666E+03  0.54244748666E+03  0.00000000000E+00 0.  1.
          1   -1    0    0  501    0 -0.00000000000E+00 -0.00000000000E+00 -0.44040950299E+02  0.44040950299E+02  0.00000000000E+00 0.  1.
          2    1    1    2  501    0 -0.33893215893E+02  0.71893330204E+02  0.48289382650E+02  0.93001427344E+02  0.00000000000E+00 0.  1.
          1    1    1    2  502    0 -0.17967604123E+02 -0.61352248553E+02  0.11410412721E+03  0.13079252673E+03  0.00000000000E+00 0.  1.
         22    1    1    2    0    0 -0.40216441036E+02 -0.17619527009E+02  0.97633211699E+02  0.10705164122E+03  0.00000000000E+00 0.  1.
         22    1    1    2    0    0  0.92077261052E+02  0.70784453585E+01  0.23837981480E+03  0.25564284166E+03  0.00000000000E+00 0.  1.
</event>
<event>
 6    1  0.3240171E-005  0.1112499E+03  0.7818608E-02  0.1334656E+00
          2   -1    0    0  502    0  0.00000000000E+00  0.00000000000E+00  0.29715227391E+02  0.29715227391E+02  0.00000000000E+00 0.  1.
          1   -1    0    0  501    0 -0.00000000000E+00 -0.00000000000E+00 -0.13864201324E+04  0.13864201324E+04  0.00000000000E+00 0.  1.
          2    1    1    2  501    0  0.16971365592E+02 -0.51575822636E+02 -0.91156481835E+03  0.91318043714E+03  0.00000000000E+00 0.  1.
          1    1    1    2  502    0 -0.35344483624E+02 -0.92066552044E+01 -0.29344219391E+03  0.29570646964E+03  0.00000000000E+00 0.  1.
         22    1    1    2    0    0  0.81340876601E+00  0.26950189180E+02  0.18587729415E+02  0.32748710134E+02  0.00000000000E+00 0.  1.
         22    1    1    2    0    0  0.17559709266E+02  0.33832288660E+02 -0.17028562217E+03  0.17449974288E+03  0.00000000000E+00 0.  1.
</event>
<event>
 6    1  0.3240171E-005  0.7631207E+02  0.7818608E-02  0.1346775E+00
          2   -1    0    0  502    0  0.00000000000E+00  0.00000000000E+00  0.12435611268E+03  0.12435611268E+03  0.00000000000E+00 0. -1.
          1   -1    0    0  501    0 -0.00000000000E+00 -0.00000000000E+00 -0.46111894309E+03  0.46111894309E+03  0.00000000000E+00 0.  1.
          2    1    1    2  501    0  0.16398413637E+02  0.19444247373E+02 -0.33328420122E+02  0.41925771472E+02  0.00000000000E+00 0. -1.
          1    1    1    2  502    0 -0.80202852036E+02 -0.13062988355E+02 -0.37726596807E+03  0.38591806100E+03  0.00000000000E+00 0.  1.
         22    1    1    2    0    0  0.52192699853E+02 -0.43167633568E+02  0.92604203138E+02  0.11473038370E+03  0.00000000000E+00 0. -1.
         22    1    1    2    0    0  0.11611738547E+02  0.36786374550E+02 -0.18772645353E+02  0.42900839597E+02  0.00000000000E+00 0. -1.
</event>
<event>
 6    1  0.3240171E-005  0.5525993E+02  0.7818608E-02  0.1422619E+00
          2   -1    0    0  502    0  0.00000000000E+00  0.00000000000E+00  0.27292255990E+02  0.27292255990E+02  0.00000000000E+00 0.  1.
          1   -1    0    0  501    0 -0.00000000000E+00 -0.00000000000E+00 -0.26076990479E+04  0.26076990479E+04  0.00000000000E+00 0.  1.
          2    1    1    2  501    0  0.43246711154E+01  0.42800515598E+02 -0.16883846783E+03  0.17423264658E+03  0.00000000000E+00 0.  1.
          1    1    1    2  502    0  0.37187304592E+02 -0.34874197035E+02 -0.22546344383E+04  0.22552107564E+04  0.00000000000E+00 0.  1.
         22    1    1    2    0    0 -0.28486481767E+02 -0.42652047314E+02 -0.78102358846E+01  0.51881370145E+02  0.00000000000E+00 0.  1.
         22    1    1    2    0    0 -0.13025493940E+02  0.34725728751E+02 -0.14912364985E+03  0.15366653076E+03  0.00000000000E+00 0.  1.
</event>
<event>
 6    1  0.3240171E-005  0.1137358E+03  0.7818608E-02  0.1339153E+00
          2   -1    0    0  502    0  0.00000000000E+00  0.00000000000E+00  0.50057481064E+02  0.50057481064E+02  0.00000000000E+00 0.  1.
          1   -1    0    0  501    0 -0.00000000000E+00 -0.00000000000E+00 -0.12040858037E+04  0.12040858037E+04  0.00000000000E+00 0. -1.
          2    1    1    2  501    0  0.11543910607E+02 -0.76115876101E+02 -0.14625951615E+03  0.16528379997E+03  0.00000000000E+00 0.  1.
          1    1    1    2  502    0  0.28588662457E+02  0.10004916106E+03 -0.92000456326E+03  0.92587015432E+03  0.00000000000E+00 0. -1.
         22    1    1    2    0    0 -0.23195354659E+02  0.25291548397E+01  0.31757189366E+02  0.39407361982E+02  0.00000000000E+00 0.  1.
         22    1    1    2    0    0 -0.16937218406E+02 -0.26462439799E+02 -0.11952143261E+03  0.12358196850E+03  0.00000000000E+00 0.  1.
</event>
<event>
 6    1  0.3240171E-005  0.1726593E+03  0.7818608E-02  0.1220887E+00
          2   -1    0    0  502    0  0.00000000000E+00  0.00000000000E+00  0.40620549103E+03  0.40620549103E+03  0.00000000000E+00 0. -1.
          1   -1    0    0  501    0 -0.00000000000E+00 -0.00000000000E+00 -0.23567932895E+03  0.23567932895E+03  0.00000000000E+00 0.  1.
          2    1    1    2  501    0  0.66761197438E+01 -0.77969985104E+02  0.69040225621E+02  0.10435728008E+03  0.00000000000E+00 0. -1.
          1    1    1    2  502    0  0.16343076739E+02  0.15062429036E+03 -0.17146828826E+03  0.22881465618E+03  0.00000000000E+00 0.  1.
         22    1    1    2    0    0 -0.61383281154E+02 -0.16774116081E+02  0.69341878301E+02  0.94114686749E+02  0.00000000000E+00 0. -1.
         22    1    1    2    0    0  0.38364084672E+02 -0.55880189171E+02  0.20361234641E+03  0.21459819698E+03  0.00000000000E+00 0. -1.
</event>
<event>
 6    1  0.3240171E-005  0.4495607E+03  0.7818608E-02  0.1115285E+00
          2   -1    0    0  502    0  0.00000000000E+00  0.00000000000E+00  0.87206350542E+03  0.87206350542E+03  0.00000000000E+00 0.  1.
          1   -1    0    0  501    0 -0.00000000000E+00 -0.00000000000E+00 -0.12973645557E+04  0.12973645557E+04  0.00000000000E+00 0. -1.
          2    1    1    2  501    0 -0.15482411338E+03 -0.57648456603E+02  0.58276510392E+02  0.17518562240E+03  0.00000000000E+00 0.  1.
          1    1    1    2  502    0  0.18115405582E+02  0.13679039435E+02 -0.12266952844E+04  0.12269052958E+04  0.00000000000E+00 0. -1.
         22    1    1    2    0    0 -0.10857605133E+02  0.38968240946E+02  0.10922006132E+03  0.11647073962E+03  0.00000000000E+00 0.  1.
         22    1    1    2    0    0  0.14756631294E+03  0.50011762212E+01  0.63389766244E+03  0.65086640329E+03  0.00000000000E+00 0.  1.
</event>
<event>
 6    1  0.3240171E-005  0.1034094E+03  0.7818608E-02  0.1343959E+00
          2   -1    0    0  502    0  0.00000000000E+00  0.00000000000E+00  0.15683336450E+03  0.15683336450E+03  0.00000000000E+00 0. -1.
          1   -1    0    0  501    0 -0.00000000000E+00 -0.00000000000E+00 -0.22520110384E+04  0.22520110384E+04  0.00000000000E+00 0. -1.
          2    1    1    2  501    0 -0.18396921654E+02  0.25436584550E+02 -0.57071912982E+01  0.31906717042E+02  0.00000000000E+00 0. -1.
          1    1    1    2  502    0  0.17986815916E+01 -0.10073248228E+03 -0.21927799948E+04  0.21950932495E+04  0.00000000000E+00 0. -1.
         22    1    1    2    0    0  0.28443734251E+02  0.26826285175E+01  0.10442512201E+03  0.10826286816E+03  0.00000000000E+00 0. -1.
         22    1    1    2    0    0 -0.11845494189E+02  0.72613269213E+02 -0.11156098099E+01  0.73581568233E+02  0.00000000000E+00 0. -1.
</event>
<event>
 6    1  0.3240171E-005  0.8647410E+02  0.7818608E-02  0.1359216E+00
          2   -1    0    0  502    0  0.00000000000E+00  0.00000000000E+00  0.43055479139E+02  0.43055479139E+02  0.00000000000E+00 0. -1.
          1   -1    0    0  501    0 -0.00000000000E+00 -0.00000000000E+00 -0.15177706851E+04  0.15177706851E+04  0.00000000000E+00 0. -1.
          2    1    1    2  501    0 -0.62807001021E+02 -0.81161452007E+01 -0.85998766112E+02  0.10680065057E+03  0.00000000000E+00 0. -1.
          1    1    1    2  502    0  0.65054181260E+02 -0.71478285507E+01 -0.12917922321E+04  0.12934489974E+04  0.00000000000E+00 0. -1.
         22    1    1    2    0    0 -0.34878288584E+02  0.34110497520E+02 -0.11028647018E+03  0.12059488613E+03  0.00000000000E+00 0.  1.
         22    1    1    2    0    0  0.32631108344E+02 -0.18846523769E+02  0.13362262444E+02  0.39981630126E+02  0.00000000000E+00 0. -1.
</event>
<event>
 6    1  0.3240171E-005  0.3970238E+03  0.7818608E-02  0.1044815E+00
          2   -1    0    0  502    0  0.00000000000E+00  0.00000000000E+00  0.73216953419E+03  0.73216953419E+03  0.00000000000E+00 0.  1.
          1   -1    0    0  501    0 -0.00000000000E+00 -0.00000000000E+00 -0.12849682791E+04  0.12849682791E+04  0.00000000000E+00 0.  1.
          2    1    1    2  501    0  0.53746278653E+02 -0.32794773876E+02  0.39169709586E+02  0.74151370936E+02  0.00000000000E+00 0.  1.
          1    1    1    2  502    0 -0.33204094628E+03  0.11742931985E+03 -0.12039979726E+04  0.12544528501E+04  0.00000000000E+00 0.  1.
         22    1    1    2    0    0  0.15022394267E+03 -0.92591031294E+02  0.43881023139E+03  0.47296379481E+03  0.00000000000E+00 0.  1.
         22    1    1    2    0    0  0.12807072496E+03  0.79564853206E+01  0.17321928674E+03  0.21556979739E+03  0.00000000000E+00 0.  1.
</event>
<event>
 6    1  0.3240171E-005  0.1120000E+03  0.7818608E-02  0.1260548E+00
          2   -1    0    0  502    0  0.00000000000E+00  0.00000000000E+00  0.20176733016E+03  0.20176733016E+03  0.00000000000E+00 0.  1.
          1   -1    0    0  501    0 -0.00000000000E+00 -0.00000000000E+00 -0.13285342249E+04  0.13285342249E+04  0.00000000000E+00 0. -1.
          2    1    1    2  501    0  0.68766892259E+02  0.16869856184E+02  0.15130356687E+02  0.72404455747E+02  0.00000000000E+00 0.  1.
          1    1    1    2  502    0 -0.34014296551E+02  0.58994569385E+02 -0.12627750864E+04  0.12646099202E+04  0.00000000000E+00 0. -1.
         22    1    1    2    0    0 -0.77586390945E+02 -0.74050481191E+02  0.77699825165E+02  0.13244011724E+03  0.00000000000E+00 0.  1.
         22    1    1    2    0    0  0.42833795237E+02 -0.18139443773E+01  0.43178009772E+02  0.60847061856E+02  0.00000000000E+00 0. -1.
</event>
<event>
 6    1  0.3240171E-005  0.6236864E+02  0.7818608E-02  0.1460493E+00
          2   -1    0    0  502    0  0.00000000000E+00  0.00000000000E+00  0.71332777004E+02  0.71332777004E+02  0.00000000000E+00 0. -1.
          1   -1    0    0  501    0 -0.00000000000E+00 -0.00000000000E+00 -0.26897203728E+03  0.26897203728E+03  0.00000000000E+00 0. -1.
          2    1    1    2  501    0  0.26845261024E+02  0.90125121449E+00 -0.69809107184E+02  0.74798340483E+02  0.00000000000E+00 0. -1.
          1    1    1    2  502    0  0.72954208070E+01  0.19683331665E+02 -0.13477847613E+03  0.13640342495E+03  0.00000000000E+00 0. -1.
         22    1    1    2    0    0 -0.31826333990E+02 -0.88362651703E-01 -0.55146792164E+02  0.63671752208E+02  0.00000000000E+00 0. -1.
         22    1    1    2    0    0 -0.23143478413E+01 -0.20496220228E+02  0.62095115197E+02  0.65431296647E+02  0.00000000000E+00 0. -1.
</event>
<event>
 6    1  0.3240171E-005  0.9431005E+02  0.7818608E-02  0.1297141E+00
          2   -1    0    0  502    0  0.00000000000E+00  0.00000000000E+00  0.34255257016E+03  0.34255257016E+03  0.00000000000E+00 0.  1.
          1   -1    0    0  501    0 -0.00000000000E+00 -0.00000000000E+00 -0.13470516508E+03  0.13470516508E+03  0.00000000000E+00 0.  1.
          2    1    1    2  501    0  0.14545245997E+02  0.61240472993E+02  0.10127022875E+03  0.11923765741E+03  0.00000000000E+00 0.  1.
          1    1    1    2  502    0  0.28167998703E+02 -0.78253543323E+02 -0.87593368273E+02  0.12078762916E+03  0.00000000000E+00 0.  1.
         22    1    1    2    0    0  0.39216607522E+02  0.32396788037E+02  0.94284277143E+02  0.10713085035E+03  0.00000000000E+00 0.  1.
         22    1    1    2    0    0 -0.81929852222E+02 -0.15383717707E+02  0.99886267457E+02  0.13010159831E+03  0.00000000000E+00 0.  1.
</event>
<event>
 6    1  0.3240171E-005  0.1384904E+03  0.7818608E-02  0.1244885E+00
          2   -1    0    0  502    0  0.00000000000E+00  0.00000000000E+00  0.12481249272E+03  0.12481249272E+03  0.00000000000E+00 0. -1.
          1   -1    0    0  501    0 -0.00000000000E+00 -0.00000000000E+00 -0.43727023247E+03  0.43727023247E+03  0.00000000000E+00 0. -1.
          2    1    1    2  501    0 -0.10793430661E+03  0.91227133050E+01 -0.23397854380E+03  0.25783521365E+03  0.00000000000E+00 0. -1.
          1    1    1    2  502    0  0.15274701187E+03 -0.38358510205E+02 -0.24449461721E+02  0.15937628781E+03  0.00000000000E+00 0. -1.
         22    1    1    2    0    0  0.18240487896E+02 -0.11928032281E+02 -0.65200514443E+02  0.68746639456E+02  0.00000000000E+00 0. -1.
         22    1    1    2    0    0 -0.63053193155E+02  0.41163829181E+02  0.11170780218E+02  0.76124584272E+02  0.00000000000E+00 0. -1.
</event>
<event>
 6    1  0.3240171E-005  0.1873754E+03  0.7818608E-02  0.1161414E+00
          2   -1    0    0  502    0  0.00000000000E+00  0.00000000000E+00  0.90611014490E+03  0.90611014490E+03  0.00000000000E+00 0.  1.
          1   -1    0    0  501    0 -0.00000000000E+00 -0.00000000000E+00 -0.10978864005E+03  0.10978864005E+03  0.00000000000E+00 0.  1.
          2    1    1    2  501    0  0.72050843203E+02 -0.14959676346E+03  0.16391509133E+03  0.23332096522E+03  0.00000000000E+00 0.  1.
          1    1    1    2  502    0  0.36309554756E+02  0.92714983437E+01 -0.52553837899E+02  0.64546497396E+02  0.00000000000E+00 0.  1.
         22    1    1    2    0    0  0.10259322603E+02 -0.63799702936E+01  0.62786376160E+01  0.13615396121E+02  0.00000000000E+00 0.  1.
         22    1    1    2    0    0 -0.11861972056E+03  0.14670523541E+03  0.67868161380E+03  0.70441592622E+03  0.00000000000E+00 0.  1.
</event>
<event>
 6    1  0.3240171E-005  0.1632625E+03  0.7818608E-02  0.1238926E+00
          2   -1    0    0  502    0  0.00000000000E+00  0.00000000000E+00  0.24157376396E+02  0.24157376396E+02  0.00000000000E+00 0. -1.
          1   -1    0    0  501    0 -0.00000000000E+00 -0.00000000000E+00 -0.22414009971E+04  0.22414009971E+04  0.00000000000E+00 0.  1.
          2    1    1    2  501    0 -0.22101279741E+02  0.20767787236E+01 -0.10731752830E+03  0.10958937657E+03  0.00000000000E+00 0. -1.
          1    1    1    2  502    0  0.15245933465E+03 -0.54156667943E+02 -0.16768036452E+04  0.16845911249E+04  0.00000000000E+00 0.  1.
         22    1    1    2    0    0  0.33307342861E+01  0.51747926213E+02 -0.10646215045E+03  0.11841930222E+03  0.00000000000E+00 0. -1.
         22    1    1    2    0    0 -0.13368878920E+03  0.33196300611E+00 -0.32666029670E+03  0.35295856980E+03  0.00000000000E+00 0. -1.
</event>
<event>
 6    1  0.3240171E-005  0.5558388E+03  0.7818608E-02  0.1095484E+00
          2   -1    0    0  502    0  0.00000000000E+00  0.00000000000E+00  0.22549766147E+03  0.22549766147E+03  0.00000000000E+00 0.  1.
          1   -1    0    0  501    0 -0.00000000000E+00 -0.00000000000E+00 -0.77983934645E+03  0.77983934645E+03  0.00000000000E+00 0.  1.
          2    1    1    2  501    0 -0.80262210329E+02  0.91777415598E+01 -0.46168504891E+03  0.46869962421E+03  0.00000000000E+00 0.  1.
          1    1    1    2  502    0  0.21487538078E+01  0.95442378500E+02 -0.26819057019E+03  0.28467533559E+03  0.00000000000E+00 0.  1.
         22    1    1    2    0    0 -0.32061418531E+02 -0.16338571937E+02  0.58020041310E+02  0.68273045082E+02  0.00000000000E+00 0.  1.
         22    1    1    2    0    0  0.11017487505E+03 -0.88281548123E+02  0.11751389281E+03  0.18368900303E+03  0.00000000000E+00 0.  1.
</event>
<event>
 6    1  0.3240171E-005  0.7142354E+02  0.7818608E-02  0.1366545E+00
          2   -1    0    0  502    0  0.00000000000E+00  0.00000000000E+00  0.16565217895E+03  0.16565217895E+03  0.00000000000E+00 0. -1.
          1   -1    0    0  501    0 -0.00000000000E+00 -0.00000000000E+00 -0.11615177820E+04  0.11615177820E+04  0.00000000000E+00 0.  1.
          2    1    1    2  501    0 -0.11414858251E+02 -0.29918559380E+02 -0.33361921990E+02  0.46243237594E+02  0.00000000000E+00 0. -1.
          1    1    1    2  502    0 -0.63993721838E+01  0.21755539879E+02 -0.10959185260E+04  0.10961531239E+04  0.00000000000E+00 0.  1.
         22    1    1    2    0    0  0.50630994159E+02  0.29524487132E+02  0.13330049062E+03  0.14561666700E+03  0.00000000000E+00 0. -1.
         22    1    1    2    0    0 -0.32816763724E+02 -0.21361467630E+02  0.11435431214E+00  0.39156932433E+02  0.00000000000E+00 0.  1.
</event>
<event>
 6    1  0.3240171E-005  0.7003132E+02  0.7818608E-02  0.1366604E+00
          2   -1    0    0  502    0  0.00000000000E+00  0.00000000000E+00  0.37159009032E+02  0.37159009032E+02  0.00000000000E+00 0.  1.
          1   -1    0    0  501    0 -0.00000000000E+00 -0.00000000000E+00 -0.14781462102E+04  0.14781462102E+04  0.00000000000E+00 0.  1.
          2    1    1    2  501    0 -0.58756470982E+02  0.45830322428E+02 -0.22819342915E+03  0.24005204112E+03  0.00000000000E+00 0.  1.
          1    1    1    2  502    0  0.53735434436E+02 -0.94000047927E+01 -0.11114018364E+04  0.11127398164E+04  0.00000000000E+00 0.  1.
         22    1    1    2    0    0  0.42844532593E+02 -0.40065745594E+02 -0.49641503913E+01  0.58869013345E+02  0.00000000000E+00 0.  1.
         22    1    1    2    0    0 -0.37823496048E+02  0.36354279594E+01 -0.96427785219E+02  0.10364434838E+03  0.00000000000E+00 0.  1.
</event>
<event>
 6    1  0.3240171E-005  0.1292239E+03  0.7818608E-02  0.1235147E+00
          2   -1    0    0  502    0  0.00000000000E+00  0.00000000000E+00  0.20778969888E+03  0.20778969888E+03  0.00000000000E+00 0.  1.
          1   -1    0    0  501    0 -0.00000000000E+00 -0.00000000000E+00 -0.22116261475E+03  0.22116261475E+03  0.00000000000E+00 0.  1.
          2    1    1    2  501    0 -0.92268057275E+02 -0.11399439116E+02 -0.99280875482E+01  0.93498173928E+02  0.00000000000E+00 0.  1.
          1    1    1    2  502    0  0.29904912838E+02 -0.20536480426E+02 -0.13498370834E+03  0.13977357532E+03  0.00000000000E+00 0.  1.
         22    1    1    2    0    0 -0.34187909462E+02 -0.15103461264E+02  0.37151746888E+02  0.52698956274E+02  0.00000000000E+00 0.  1.
         22    1    1    2    0    0  0.96551053900E+02  0.47039380805E+02  0.94387133137E+02  0.14298160811E+03  0.00000000000E+00 0.  1.
</event>
<event>
 6    1  0.3240171E-005  0.8564948E+02  0.7818608E-02  0.1333382E+00
          2   -1    0    0  502    0  0.00000000000E+00  0.00000000000E+00  0.27482201385E+02  0.27482201385E+02  0.00000000000E+00 0. -1.
          1   -1    0    0  501    0 -0.00000000000E+00 -0.00000000000E+00 -0.36188314620E+03  0.36188314620E+03  0.00000000000E+00 0. -1.
          2    1    1    2  501    0  0.12389052280E+02  0.20928630630E+02 -0.10668923697E+03  0.10942618279E+03  0.00000000000E+00 0. -1.
          1    1    1    2  502    0 -0.19331557983E+02 -0.30010906044E+02 -0.84666741408E+02  0.91884823101E+02  0.00000000000E+00 0. -1.
         22    1    1    2    0    0  0.61348465805E+02 -0.10912048005E+02 -0.90114129871E+02  0.10955940604E+03  0.00000000000E+00 0. -1.
         22    1    1    2    0    0 -0.54405960102E+02  0.19994323419E+02 -0.52930836570E+02  0.78494935656E+02  0.00000000000E+00 0. -1.
</event>
<event>
 6    1  0.3240171E-005  0.7452662E+02  0.7818608E-02  0.1347214E+00
          2   -1    0    0  502    0  0.00000000000E+00  0.00000000000E+00  0.25298214191E+02  0.25298214191E+02  0.00000000000E+00 0. -1.
          1   -1    0    0  501    0 -0.00000000000E+00 -0.00000000000E+00 -0.50238902667E+03  0.50238902667E+03  0.00000000000E+00 0. -1.
          2    1    1    2  501    0  0.24546315473E+02 -0.13164503890E+02 -0.29553772567E+02  0.40610974366E+02  0.00000000000E+00 0. -1.
          1    1    1    2  502    0 -0.43027673886E+02 -0.13908512777E+01 -0.24050097301E+03  0.24432362393E+03  0.00000000000E+00 0. -1.
         22    1    1    2    0    0  0.62863413653E+02 -0.39237222802E+01 -0.56106451066E+02  0.84351278733E+02  0.00000000000E+00 0. -1.
         22    1    1    2    0    0 -0.44382055240E+02  0.18479077448E+02 -0.15092961583E+03  0.15840136384E+03  0.00000000000E+00 0.  1.
</event>
<event>
 6    1  0.3240171E-005  0.6716663E+02  0.7818608E-02  0.1371902E+00
          2   -1    0    0  502    0  0.00000000000E+00  0.00000000000E+00  0.17535659114E+03  0.17535659114E+03  0.00000000000E+00 0. -1.
          1   -1    0    0  501    0 -0.00000000000E+00 -0.00000000000E+00 -0.14638997682E+03  0.14638997682E+03  0.00000000000E+00 0. -1.
          2    1    1    2  501    0  0.45568414027E+02 -0.66410425560E+01  0.99285256499E+02  0.10944471646E+03  0.00000000000E+00 0. -1.
          1    1    1    2  502    0 -0.29792986908E+02 -0.16068501415E+02 -0.75513214524E+02  0.82753032418E+02  0.00000000000E+00 0. -1.
         22    1    1    2    0    0  0.18770383939E+02 -0.14260469460E+02  0.54203043117E+02  0.59107175416E+02  0.00000000000E+00 0. -1.
         22    1    1    2    0    0 -0.34545811057E+02  0.36970013431E+02 -0.49008470775E+02  0.70441643666E+02  0.00000000000E+00 0. -1.
</event>
<event>
 6    1  0.3240171E-005  0.1246271E+03  0.7818608E-02  0.1295638E+00
          2   -1    0    0  502    0  0.00000000000E+00  0.00000000000E+00  0.88535800585E+02  0.88535800585E+02  0.00000000000E+00 0. -1.
          1   -1    0    0  501    0 -0.00000000000E+00 -0.00000000000E+00 -0.38007855630E+03  0.38007855630E+03  0.00000000000E+00 0. -1.
          2    1    1    2  501    0  0.46833596295E+02  0.48535641321E+01 -0.29841677383E+02  0.55744672712E+02  0.00000000000E+00 0. -1.
          1    1    1    2  502    0  0.21627929835E+02  0.40348412902E+02 -0.25866518371E+03  0.26268505674E+03  0.00000000000E+00 0. -1.
         22    1    1    2    0    0 -0.44937108798E+02 -0.75958986522E+02 -0.39777184070E+02  0.96805659716E+02  0.00000000000E+00 0. -1.
         22    1    1    2    0    0 -0.23524417333E+02  0.30757009487E+02  0.36741289450E+02  0.53378967711E+02  0.00000000000E+00 0. -1.
</event>
<event>
 6    1  0.3240171E-005  0.3550080E+03  0.7818608E-02  0.1189250E+00
          2   -1    0    0  502    0  0.00000000000E+00  0.00000000000E+00  0.26646085588E+03  0.26646085588E+03  0.00000000000E+00 0. -1.
          1   -1    0    0  501    0 -0.00000000000E+00 -0.00000000000E+00 -0.25411826820E+03  0.25411826820E+03  0.00000000000E+00 0. -1.
          2    1    1    2  501    0  0.95851558496E+02  0.72244413116E+02  0.17490697842E+03  0.21213021376E+03  0.00000000000E+00 0. -1.
          1    1    1    2  502    0  0.22297540818E+02  0.55638293122E+01 -0.11376492220E+03  0.11606288832E+03  0.00000000000E+00 0. -1.
         22    1    1    2    0    0 -0.10413434439E+03 -0.74210454389E+02 -0.84902594734E+02  0.15349138026E+03  0.00000000000E+00 0. -1.
         22    1    1    2    0    0 -0.14014754924E+02 -0.35977880384E+01  0.36103126194E+02  0.38894641730E+02  0.00000000000E+00 0. -1.
</event>
<event>
 6    1  0.3240171E-005  0.1489293E+03  0.7818608E-02  0.1255789E+00
          2   -1    0    0  502    0  0.00000000000E+00  0.00000000000E+00  0.41815665204E+03  0.41815665204E+03  0.00000000000E+00 0. -1.
          1   -1    0    0  501    0 -0.00000000000E+00 -0.00000000000E+00 -0.11002539126E+03  0.11002539126E+03  0.00000000000E+00 0.  1.
          2    1    1    2  501    0  0.18483237955E+02 -0.32182554714E+02  0.16021468218E+02  0.40423190832E+02  0.00000000000E+00 0. -1.
          1    1    1    2  502    0  0.83473177420E+01 -0.22203144724E+02 -0.84092165336E+02  0.87373620847E+02  0.00000000000E+00 0.  1.
         22    1    1    2    0    0 -0.68617408280E+02  0.27410401683E+02  0.30303796953E+03  0.31191615831E+03  0.00000000000E+00 0. -1.
         22    1    1    2    0    0  0.41786852583E+02  0.26975297755E+02  0.73163988374E+02  0.88469073311E+02  0.00000000000E+00 0. -1.
</event>
<event>
 6    1  0.3240171E-005  0.2132409E+03  0.7818608E-02  0.1183951E+00
          2   -1    0    0  502    0  0.00000000000E+00  0.00000000000E+00  0.69483100620E+02  0.69483100620E+02  0.00000000000E+00 0.  1.
          1   -1    0    0  501    0 -0.00000000000E+00 -0.00000000000E+00 -0.13546288711E+04  0.13546288711E+04  0.00000000000E+00 0.  1.
          2    1    1    2  501    0  0.62392884838E+02 -0.12709713790E+03 -0.39407346553E+03  0.41873673206E+03  0.00000000000E+00 0.  1.
          1    1    1    2  502    0 -0.89643336044E+02  0.23501504664E+03 -0.72393285934E+03  0.76638553267E+03  0.00000000000E+00 0.  1.
         22    1    1    2    0    0  0.31772828317E+02 -0.68057726414E+02 -0.87710036170E+01  0.75619423750E+02  0.00000000000E+00 0.  1.
         22    1    1    2    0    0 -0.45223771112E+01 -0.39860182318E+02 -0.15836844200E+03  0.16337028325E+03  0.00000000000E+00 0.  1.
</event>
<event>
 6    1  0.3240171E-005  0.6225211E+02  0.7818608E-02  0.1404136E+00
          2   -1    0    0  502    0  0.00000000000E+00  0.00000000000E+00  0.55721019794E+02  0.55721019794E+02  0.00000000000E+00 0.  1.
          1   -1    0    0  501    0 -0.00000000000E+00 -0.00000000000E+00 -0.48140811402E+03  0.48140811402E+03  0.00000000000E+00 0.  1.
          2    1    1    2  501    0 -0.55475270936E+01 -0.20315275897E+02 -0.16687796273E+03  0.16820148613E+03  0.00000000000E+00 0.  1.
          1    1    1    2  502    0  0.30153029532E+02  0.12065351821E+02 -0.23361692837E+03  0.23586361976E+03  0.00000000000E+00 0.  1.
         22    1    1    2    0    0 -0.46993808570E+02  0.16477640757E+02  0.39853629489E+02  0.63782775671E+02  0.00000000000E+00 0.  1.
         22    1    1    2    0    0  0.22388306132E+02 -0.82277166807E+01 -0.65045832608E+02  0.69281252247E+02  0.00000000000E+00 0.  1.
</event>
<event>
 6    1  0.3240171E-005  0.6409935E+02  0.7818608E-02  0.1436502E+00
          2   -1    0    0  502    0  0.00000000000E+00  0.00000000000E+00  0.40976769745E+02  0.40976769745E+02  0.00000000000E+00 0. -1.
          1   -1    0    0  501    0 -0.00000000000E+00 -0.00000000000E+00 -0.56761896450E+03  0.56761896450E+03  0.00000000000E+00 0.  1.
          2    1    1    2  501    0 -0.18107688381E+02 -0.89157339657E+01 -0.64445668375E+02  0.67532383809E+02  0.00000000000E+00 0. -1.
          1    1    1    2  502    0  0.61209701838E+02  0.33547689124E+01 -0.38906734429E+03  0.39386708477E+03  0.00000000000E+00 0.  1.
         22    1    1    2    0    0 -0.45069797326E+02 -0.21445483505E+02 -0.98287641136E+02  0.11023454900E+03  0.00000000000E+00 0. -1.
         22    1    1    2    0    0  0.19677838682E+01  0.27006448558E+02  0.25158459045E+02  0.36961716662E+02  0.00000000000E+00 0. -1.
</event>
<event>
 6    1  0.3240171E-005  0.2544809E+03  0.7818608E-02  0.1134603E+00
          2   -1    0    0  502    0  0.00000000000E+00  0.00000000000E+00  0.42981512210E+03  0.42981512210E+03  0.00000000000E+00 0. -1.
          1   -1    0    0  501    0 -0.00000000000E+00 -0.00000000000E+00 -0.43105746327E+03  0.43105746327E+03  0.00000000000E+00 0. -1.
          2    1    1    2  501    0 -0.27855612095E+02  0.12687915667E+03 -0.31995771530E+03  0.34532187174E+03  0.00000000000E+00 0. -1.
          1    1    1    2  502    0  0.16996357237E+03 -0.52700865500E+02  0.66099570602E+02  0.18982663246E+03  0.00000000000E+00 0. -1.
         22    1    1    2    0    0 -0.43234659793E+02  0.24472669542E+02  0.18309682999E+02  0.52947066524E+02  0.00000000000E+00 0. -1.
         22    1    1    2    0    0 -0.98873300481E+02 -0.98650960710E+02  0.23430612053E+03  0.27277701464E+03  0.00000000000E+00 0.  1.
</event>
<event>
 6    1  0.3240171E-005  0.1246290E+03  0.7818608E-02  0.1369314E+00
          2   -1    0    0  502    0  0.00000000000E+00  0.00000000000E+00  0.66822538614E+02  0.66822538614E+02  0.00000000000E+00 0. -1.
          1   -1    0    0  501    0 -0.00000000000E+00 -0.00000000000E+00 -0.61445698757E+03  0.61445698757E+03  0.00000000000E+00 0. -1.
          2    1    1    2  501    0 -0.14746739211E+02  0.55131868866E+02 -0.33840100031E+03  0.34317958315E+03  0.00000000000E+00 0. -1.
          1    1    1    2  502    0  0.49367868626E+02 -0.10572194151E+03 -0.12743466137E+03  0.17278283563E+03  0.00000000000E+00 0. -1.
         22    1    1    2    0    0 -0.24521685075E+02  0.47259926309E+02 -0.11699981662E+03  0.12854482005E+03  0.00000000000E+00 0.  1.
         22    1    1    2    0    0 -0.10099444340E+02  0.33301463363E+01  0.35201029339E+02  0.36772287352E+02  0.00000000000E+00 0. -1.
</event>
<event>
 6    1  0.3240171E-005  0.1042864E+03  0.7818608E-02  0.1283751E+00
          2   -1    0    0  502    0  0.00000000000E+00  0.00000000000E+00  0.49294695819E+03  0.49294695819E+03  0.00000000000E+00 0. -1.
          1   -1    0    0  501    0 -0.00000000000E+00 -0.00000000000E+00 -0.67462015964E+03  0.67462015964E+03  0.00000000000E+00 0. -1.
          2    1    1    2  501    0 -0.30671262512E+02  0.83644207419E+02  0.31898824818E+02  0.94628826494E+02  0.00000000000E+00 0. -1.
          1    1    1    2  502    0 -0.12627596219E+02 -0.21406159791E+02 -0.63126114524E+03  0.63175019854E+03  0.00000000000E+00 0. -1.
         22    1    1    2    0    0  0.62399356853E+02 -0.53410673385E+02  0.41097320686E+03  0.41910065202E+03  0.00000000000E+00 0. -1.
         22    1    1    2    0    0 -0.19100498122E+02 -0.88273742431E+01  0.67159121154E+01  0.22087440777E+02  0.00000000000E+00 0. -1.
</event>
<event>
 6    1  0.3240171E-005  0.1706604E+03  0.7818608E-02  0.1198443E+00
          2   -1    0    0  502    0  0.00000000000E+00  0.00000000000E+00  0.52205906597E+03  0.52205906597E+03  0.00000000000E+00 0.  1.
          1   -1    0    0  501    0 -0.00000000000E+00 -0.00000000000E+00 -0.36048790876E+03  0.36048790876E+03  0.00000000000E+00 0.  1.
          2    1    1    2  501    0  0.15503352357E+03  0.11097335532E+02  0.18295925885E+03  0.24006797930E+03  0.00000000000E+00 0.  1.
          1    1    1    2  502    0 -0.10803298095E+03 -0.81586962577E+02 -0.29709564768E+03  0.32648641826E+03  0.00000000000E+00 0.  1.
         22    1    1    2    0    0  0.23368810121E+02 -0.93796049071E+01  0.14619985897E+03  0.14835254308E+03  0.00000000000E+00 0.  1.
         22    1    1    2    0    0 -0.70369352741E+02  0.79869231952E+02  0.12950768708E+03  0.16764003409E+03  0.00000000000E+00 0.  1.
</event>
<event>
 6    1  0.3240171E-005  0.1371134E+03  0.7818608E-02  0.1353506E+00
          2   -1    0    0  502    0  0.00000000000E+00  0.00000000000E+00  0.65641609321E+02  0.65641609321E+02  0.00000000000E+00 0. -1.
          1   -1    0    0  501    0 -0.00000000000E+00 -0.00000000000E+00 -0.12898284553E+04  0.12898284553E+04  0.00000000000E+00 0. -1.
          2    1    1    2  501    0  0.16681566342E+02  0.11554177966E+03 -0.57500990104E+03  0.58674062737E+03  0.00000000000E+00 0. -1.
          1    1    1    2  502    0  0.78040215882E+01 -0.12502418195E+03 -0.62229236366E+03  0.63477534191E+03  0.00000000000E+00 0. -1.
         22    1    1    2    0    0 -0.16054972413E+02  0.15589648007E+02 -0.78330991732E+02  0.81464983459E+02  0.00000000000E+00 0. -1.
         22    1    1    2    0    0 -0.84306155172E+01 -0.61072457104E+01  0.51446410408E+02  0.52489111938E+02  0.00000000000E+00 0. -1.
</event>
<event>
 6    1  0.3240171E-005  0.9416377E+02  0.7818608E-02  0.1294934E+00
          2   -1    0    0  502    0  0.00000000000E+00  0.00000000000E+00  0.48964615964E+03  0.48964615964E+03  0.00000000000E+00 0.  1.
          1   -1    0    0  501    0 -0.00000000000E+00 -0.00000000000E+00 -0.10427794783E+04  0.10427794783E+04  0.00000000000E+00 0. -1.
          2    1    1    2  501    0  0.38535603346E+02  0.22598884842E+02  0.42014960572E+01  0.44870423337E+02  0.00000000000E+00 0.  1.
          1    1    1    2  502    0 -0.21969890161E+02  0.67191927096E+02 -0.10082367614E+04  0.10107120253E+04  0.00000000000E+00 0. -1.
         22    1    1    2    0    0 -0.42600958855E+02 -0.89548194903E+02  0.43538131551E+03  0.44653175788E+03  0.00000000000E+00 0.  1.
         22    1    1    2    0    0  0.26035245670E+02 -0.24261703483E+00  0.15520631177E+02  0.30311431379E+02  0.00000000000E+00 0.  1.
</event>
<event>
 6    1  0.3240171E-005  0.1632130E+03  0.7818608E-02  0.1212940E+00
          2   -1    0    0  502    0  0.00000000000E+00  0.00000000000E+00  0.79872148821E+03  0.79872148821E+03  0.00000000000E+00 0. -1.
          1   -1    0    0  501    0 -0.00000000000E+00 -0.00000000000E+00 -0.15720475972E+03  0.15720475972E+03  0.00000000000E+00 0.  1.
          2    1    1    2  501    0 -0.36479702703E+02 -0.65735321922E+02  0.11988800274E+03  0.14150983874E+03  0.00000000000E+00 0. -1.
          1    1    1    2  502    0  0.99185495905E+02 -0.66338449038E+02 -0.10478902228E+03  0.15880582990E+03  0.00000000000E+00 0.  1.
         22    1    1    2    0    0  0.33617642321E+02  0.51070175634E+02  0.13276949739E+03  0.14617129729E+03  0.00000000000E+00 0. -1.
         22    1    1    2    0    0 -0.96323435523E+02  0.81003595326E+02  0.49364825064E+03  0.50943928200E+03  0.00000000000E+00 0. -1.
</event>
<event>
 6    1  0.3240171E-005  0.1250366E+03  0.7818608E-02  0.1330988E+00
          2   -1    0    0  502    0  0.00000000000E+00  0.00000000000E+00  0.72841247160E+02  0.72841247160E+02  0.00000000000E+00 0.  1.
          1   -1    0    0  501    0 -0.00000000000E+00 -0.00000000000E+00 -0.42438685968E+03  0.42438685968E+03  0.00000000000E+00 0.  1.
          2    1    1    2  501    0  0.21884301827E+02  0.13954351064E+02 -0.56003494762E+01  0.26552033713E+02  0.00000000000E+00 0.  1.
          1    1    1    2  502    0 -0.99729528296E+02  0.36151996901E+02 -0.28252879204E+03  0.30178711706E+03  0.00000000000E+00 0.  1.
         22    1    1    2    0    0 -0.20251051174E+02 -0.91606546700E-01  0.21725389453E+02  0.29700269567E+02  0.00000000000E+00 0.  1.
         22    1    1    2    0    0  0.98096277643E+02 -0.50014741419E+02 -0.85141860458E+02  0.13918868650E+03  0.00000000000E+00 0.  1.
</event>
<event>
 6    1  0.3240171E-005  0.1001183E+03  0.7818608E-02  0.1311797E+00
          2   -1    0    0  502    0  0.00000000000E+00  0.00000000000E+00  0.20575318997E+03  0.20575318997E+03  0.00000000000E+00 0.  1.
          1   -1    0    0  501    0 -0.00000000000E+00 -0.00000000000E+00 -0.35564166161E+03  0.35564166161E+03  0.00000000000E+00 0.  1.
          2    1    1    2  501    0  0.20224662389E+02  0.46092894048E+02 -0.15592445716E+03  0.16384757609E+03  0.00000000000E+00 0.  1.
          1    1    1    2  502    0 -0.59270360633E+02 -0.99775970243E+02 -0.14950685804E+03  0.18926309859E+03  0.00000000000E+00 0.  1.
         22    1    1    2    0    0  0.23643267398E+02  0.31810941270E+00 -0.15617321427E+02  0.28337360770E+02  0.00000000000E+00 0. -1.
         22    1    1    2    0    0  0.15402430846E+02  0.53364966782E+02  0.17116016499E+03  0.17994681613E+03  0.00000000000E+00 0.  1.
</event>
<event>
 6    1  0.3240171E-005  0.2468297E+03  0.7818608E-02  0.1176004E+00
          2   -1    0    0  502    0  0.00000000000E+00  0.00000000000E+00  0.16299854832E+04  0.16299854832E+04  0.00000000000E+00 0.  1.
          1   -1    0    0  501    0 -0.00000000000E+00 -0.00000000000E+00 -0.44550495011E+02  0.44550495011E+02  0.00000000000E+00 0.  1.
          2    1    1    2  501    0 -0.14901261652E+03 -0.11069151963E+03  0.41552797834E+03  0.45510534295E+03  0.00000000000E+00 0.  1.
          1    1    1    2  502    0  0.18984754622E+03  0.69507345252E+02  0.74184769479E+03  0.76890270134E+03  0.00000000000E+00 0.  1.
         22    1    1    2    0    0  0.38556479137E+02  0.43198431602E+02  0.13489164988E+03  0.14679395009E+03  0.00000000000E+00 0. -1.
         22    1    1    2    0    0 -0.79391408841E+02 -0.20142572272E+01  0.29316766513E+03  0.30373398379E+03  0.00000000000E+00 0.  1.
</event>
<event>
 6    1  0.3240171E-005  0.2706664E+03  0.7818608E-02  0.1209442E+00
          2   -1    0    0  502    0  0.00000000000E+00  0.00000000000E+00  0.15924409437E+03  0.15924409437E+03  0.00000000000E+00 0. -1.
          1   -1    0    0  501    0 -0.00000000000E+00 -0.00000000000E+00 -0.14233004394E+04  0.14233004394E+04  0.00000000000E+00 0. -1.
          2    1    1    2  501    0  0.24277038999E+03 -0.33874254827E+02 -0.16080316889E+03  0.29315966046E+03  0.00000000000E+00 0. -1.
          1    1    1    2  502    0 -0.25937641979E+03  0.30836292391E+02 -0.11271500330E+04  0.11570195336E+04  0.00000000000E+00 0. -1.
         22    1    1    2    0    0  0.27348497119E+02 -0.15060028729E+02 -0.48106260499E+02  0.57349429458E+02  0.00000000000E+00 0.  1.
         22    1    1    2    0    0 -0.10742467317E+02  0.18097991164E+02  0.72003117377E+02  0.75015910314E+02  0.00000000000E+00 0. -1.
</event>
<event>
 6    1  0.3240171E-005  0.1036964E+03  0.7818608E-02  0.1274542E+00
          2   -1    0    0  502    0  0.00000000000E+00  0.00000000000E+00  0.33664498678E+02  0.33664498678E+02  0.00000000000E+00 0.  1.
          1   -1    0    0  501    0 -0.00000000000E+00 -0.00000000000E+00 -0.44836485123E+03  0.44836485123E+03  0.00000000000E+00 0.  1.
          2    1    1    2  501    0  0.59300462327E+02 -0.14829553516E+02 -0.12459833962E+03  0.13878474962E+03  0.00000000000E+00 0.  1.
          1    1    1    2  502    0  0.86582765101E+01 -0.26285313344E+02 -0.10138733956E+03  0.10509650838E+03  0.00000000000E+00 0.  1.
         22    1    1    2    0    0  0.19865751224E+02 -0.23089035975E+02 -0.74137387452E+02  0.80150507623E+02  0.00000000000E+00 0.  1.
         22    1    1    2    0    0 -0.87824490061E+02  0.64203902835E+02 -0.11457728591E+03  0.15799758429E+03  0.00000000000E+00 0.  1.
</event>
<event>
 6    1  0.3240171E-005  0.9241360E+02  0.7818608E-02  0.1300402E+00
          2   -1    0    0  502    0  0.00000000000E+00  0.00000000000E+00  0.58173682761E+03  0.58173682761E+03  0.00000000000E+00 0. -1.
          1   -1    0    0  501    0 -0.00000000000E+00 -0.00000000000E+00 -0.24795653235E+03  0.24795653235E+03  0.00000000000E+00 0. -1.
          2    1    1    2  501    0 -0.38202074279E+02  0.15720050075E+02  0.15849487849E+03  0.16378994157E+03  0.00000000000E+00 0. -1.
          1    1    1    2  502    0  0.95482378225E+01  0.38404392264E+02 -0.23171326366E+03  0.23506829380E+03  0.00000000000E+00 0. -1.
         22    1    1    2    0    0  0.76241105227E+02 -0.50297037206E+02  0.30162613641E+03  0.31515206527E+03  0.00000000000E+00 0.  1.
         22    1    1    2    0    0 -0.47587268770E+02 -0.38274051329E+01  0.10537254403E+03  0.11568305932E+03  0.00000000000E+00 0.  1.
</event>
<event>
 6    1  0.3240171E-005  0.3349913E+03  0.7818608E-02  0.1198362E+00
          2   -1    0    0  502    0  0.00000000000E+00  0.00000000000E+00  0.74974123937E+03  0.74974123937E+03  0.00000000000E+00 0. -1.
          1   -1    0    0  501    0 -0.00000000000E+00 -0.00000000000E+00 -0.14198100779E+03  0.14198100779E+03  0.00000000000E+00 0. -1.
          2    1    1    2  501    0 -0.99379412834E+01 -0.30297943668E+02  0.58253900094E+01  0.32413935834E+02  0.00000000000E+00 0. -1.
          1    1    1    2  502    0 -0.25289925409E+03 -0.11735543168E+03  0.35419217831E+03  0.45075761695E+03  0.00000000000E+00 0. -1.
         22    1    1    2    0    0 -0.53050822086E+01  0.13063155932E+02  0.43182147659E+02  0.45425629513E+02  0.00000000000E+00 0.  1.
         22    1    1    2    0    0  0.26814227759E+03  0.13459021942E+03  0.20456051561E+03  0.36312506487E+03  0.00000000000E+00 0. -1.
</event>
<event>
 6    1  0.3240171E-005  0.1403353E+03  0.7818608E-02  0.1237040E+00
          2   -1    0    0  502    0  0.00000000000E+00  0.00000000000E+00  0.58281998053E+02  0.58281998053E+02  0.00000000000E+00 0.  1.
          1   -1    0    0  501    0 -0.00000000000E+00 -0.00000000000E+00 -0.16890110527E+04  0.16890110527E+04  0.00000000000E+00 0.  1.
          2    1    1    2  501    0 -0.82834028268E+02  0.29064468867E+02 -0.61437793324E+03  0.62061780868E+03  0.00000000000E+00 0.  1.
          1    1    1    2  502    0  0.17347839838E+03 -0.37796069047E+02 -0.93771482931E+03  0.95437539713E+03  0.00000000000E+00 0.  1.
         22    1    1    2    0    0 -0.10971189806E+02 -0.20447362122E+02 -0.84132329083E+02  0.87273767081E+02  0.00000000000E+00 0.  1.
         22    1    1    2    0    0 -0.79673180309E+02  0.29178962303E+02  0.54960369509E+01  0.85026077904E+02  0.00000000000E+00 0.  1.
</event>
<event>
 6    1  0.3240171E-005  0.2608974E+03  0.7818608E-02  0.1187902E+00
          2   -1    0    0  502    0  0.00000000000E+00  0.00000000000E+00  0.30655538196E+03  0.30655538196E+03  0.00000000000E+00 0.  1.
          1   -1    0    0  501    0 -0.00000000000E+00 -0.00000000000E+00 -0.15282993559E+03  0.15282993559E+03  0.00000000000E+00 0.  1.
          2    1    1    2  501    0 -0.22884918080E+02 -0.12258737967E+02 -0.63327654971E+02  0.68442589199E+02  0.00000000000E+00 0.  1.
          1    1    1    2  502    0  0.48267330741E+02  0.61865039309E+02 -0.47914131667E+02  0.91939014129E+02  0.00000000000E+00 0.  1.
         22    1    1    2    0    0 -0.14655857554E+02 -0.85601169644E+02  0.23630133095E+03  0.25175518547E+03  0.00000000000E+00 0.  1.
         22    1    1    2    0    0 -0.10726555108E+02  0.35994868303E+02  0.28665902057E+02  0.47248528753E+02  0.00000000000E+00 0. -1.
</event>
<event>
 6    1  0.3240171E-005  0.7797030E+02  0.7818608E-02  0.1336357E+00
          2   -1    0    0  502    0  0.00000000000E+00  0.00000000000E+00  0.31352039353E+03  0.31352039353E+03  0.00000000000E+00 0. -1.
          1   -1    0    0  501    0 -0.00000000000E+00 -0.00000000000E+00 -0.66789038153E+03  0.66789038153E+03  0.00000000000E+00 0. -1.
          2    1    1    2  501    0 -0.40040372003E+02  0.49432969298E+02  0.19551212118E+03  0.20560116578E+03  0.00000000000E+00 0. -1.
          1    1    1    2  502    0 -0.19147898426E+02 -0.50217352340E+02 -0.61982463462E+03  0.62215030513E+03  0.00000000000E+00 0. -1.
         22    1    1    2    0    0  0.66891404913E+02 -0.13175390224E+02 -0.12822983297E+02  0.69372039465E+02  0.00000000000E+00 0. -1.
         22    1    1    2    0    0 -0.77031344845E+01  0.13959773267E+02  0.82765508743E+02  0.84287264685E+02  0.00000000000E+00 0.  1.
</event>
<event>
 6    1  0.3240171E-005  0.7616198E+02  0.7818608E-02  0.1409118E+00
          2   -1    0    0  502    0  0.00000000000E+00  0.00000000000E+00  0.10041080974E+03  0.10041080974E+03  0.00000000000E+00 0. -1.
          1   -1    0    0  501    0 -0.00000000000E+00 -0.00000000000E+00 -0.64620225597E+03  0.64620225597E+03  0.00000000000E+00 0. -1.
          2    1    1    2  501    0  0.17735897961E+02 -0.11074537696E+02 -0.14428854164E+02  0.25404710078E+02  0.00000000000E+00 0. -1.
          1    1    1    2  502    0 -0.69945196189E+02  0.31093501052E+02 -0.57279542289E+03  0.57788730109E+03  0.00000000000E+00 0. -1.
         22    1    1    2    0    0  0.41774057396E+02  0.22098847091E+01 -0.40234855426E+02  0.58041356401E+02  0.00000000000E+00 0. -1.
         22    1    1    2    0    0  0.10435240832E+02 -0.22228848065E+02  0.81667686246E+02  0.85279698137E+02  0.00000000000E+00 0. -1.
</event>
<event>
 6    1  0.3240171E-005  0.8299665E+02  0.7818608E-02  0.1330251E+00
          2   -1    0    0  502    0  0.00000000000E+00  0.00000000000E+00  0.43286852691E+03  0.43286852691E+03  0.00000000000E+00 0. -1.
          1   -1    0    0  501    0 -0.00000000000E+00 -0.00000000000E+00 -0.17709735192E+04  0.17709735192E+04  0.00000000000E+00 0.  1.
          2    1    1    2  501    0  0.15401266005E+01  0.20981595145E+02  0.23316232997E+02  0.31404554541E+02  0.00000000000E+00 0. -1.
          1    1    1    2  502    0  0.55739790272E+01 -0.39667816196E+02 -0.17560610704E+04  0.17565178871E+04  0.00000000000E+00 0.  1.
         22    1    1    2    0    0 -0.46335383819E+01 -0.54321199635E+02  0.12133018474E+03  0.13301607473E+03  0.00000000000E+00 0.  1.
         22    1    1    2    0    0 -0.24805672459E+01  0.73007420686E+02  0.27330966034E+03  0.28290352971E+03  0.00000000000E+00 0. -1.
</event>
<event>
 6    1  0.3240171E-005  0.1010698E+03  0.7818608E-02  0.1285643E+00
          2   -1    0    0  502    0  0.00000000000E+00  0.00000000000E+00  0.94667031424E+03  0.94667031424E+03  0.00000000000E+00 0. -1.
          1   -1    0    0  501    0 -0.00000000000E+00 -0.00000000000E+00 -0.16547414871E+02  0.16547414871E+02  0.00000000000E+00 0. -1.
          2    1    1    2  501    0  0.40398129725E+02 -0.51672219336E+02  0.21936805120E+03  0.22896368495E+03  0.00000000000E+00 0. -1.
          1    1    1    2  502    0 -0.28092276794E+02  0.28032906484E+02  0.31422748789E+03  0.31672375030E+03  0.00000000000E+00 0. -1.
         22    1    1    2    0    0  0.56325152422E+02 -0.39907416075E+01  0.15758663826E+03  0.16739772212E+03  0.00000000000E+00 0. -1.
         22    1    1    2    0    0 -0.68631005353E+02  0.27630054459E+02  0.23894072202E+03  0.25013257174E+03  0.00000000000E+00 0. -1.
</event>
<event>
 6    1  0.3240171E-005  0.2380662E+03  0.7818608E-02  0.1149212E+00
          2   -1    0    0  502    0  0.00000000000E+00  0.00000000000E+00  0.38513617093E+03  0.38513617093E+03  0.00000000000E+00 0.  1.
          1   -1    0    0  501    0 -0.00000000000E+00 -0.00000000000E+00 -0.33568906068E+03  0.33568906068E+03  0.00000000000E+00 0.  1.
          2    1    1    2  501    0  0.89474781445E+01 -0.22227140780E+03 -0.47485377389E+01  0.22250210044E+03  0.00000000000E+00 0.  1.
          1    1    1    2  502    0  0.84679044539E+02  0.20531505995E+03 -0.13028898530E+03  0.25748793004E+03  0.00000000000E+00 0.  1.
         22    1    1    2    0    0 -0.11151784835E+03  0.44515403225E+02  0.15904009130E+03  0.19927770138E+03  0.00000000000E+00 0.  1.
         22    1    1    2    0    0  0.17891325667E+02 -0.27559055384E+02  0.25444541985E+02  0.41557499739E+02  0.00000000000E+00 0. -1.
</event>
<event>
 6    1  0.3240171E-005  0.8197651E+02  0.7818608E-02  0.1369194E+00
          2   -1    0    0  502    0  0.00000000000E+00  0.00000000000E+00  0.11207618641E+03  0.11207618641E+03  0.00000000000E+00 0.  1.
          1   -1    0    0  501    0 -0.00000000000E+00 -0.00000000000E+00 -0.77226298000E+03  0.77226298000E+03  0.00000000000E+00 0.  1.
          2    1    1    2  501    0  0.36351037292E+02  0.34709844279E+01 -0.42216061977E+02  0.55817932011E+02  0.00000000000E+00 0.  1.
          1    1    1    2  502    0 -0.64307812597E+02  0.21431207818E+02 -0.67812611583E+03  0.68150555419E+03  0.00000000000E+00 0.  1.
         22    1    1    2    0    0 -0.35935469834E+02 -0.10514875276E+02  0.71346362528E+02  0.80574338596E+02  0.00000000000E+00 0.  1.
         22    1    1    2    0    0  0.63892245138E+02 -0.14387316969E+02 -0.11190978312E+02  0.66441341603E+02  0.00000000000E+00 0.  1.
</event>
<event>
 6    1  0.3240171E-005  0.1300157E+03  0.7818608E-02  0.1232845E+00
          2   -1    0    0  502    0  0.00000000000E+00  0.00000000000E+00  0.51121843730E+03  0.51121843730E+03  0.00000000000E+00 0.  1.
          1   -1    0    0  501    0 -0.00000000000E+00 -0.00000000000E+00 -0.14183562941E+03  0.14183562941E+03  0.00000000000E+00 0.  1.
          2    1    1    2  501    0  0.98147423813E+02 -0.19872016785E+02 -0.10075768307E+03  0.14205606129E+03  0.00000000000E+00 0.  1.
          1    1    1    2  502    0 -0.12724577609E+02 -0.30746461531E+02  0.39722083143E+02  0.51817985885E+02  0.00000000000E+00 0.  1.
         22    1    1    2    0    0  0.18768423328E+02 -0.12480891895E+01  0.70215578044E+01  0.20077691970E+02  0.00000000000E+00 0. -1.
         22    1    1    2    0    0 -0.10419126953E+03  0.51866567505E+02  0.42339685001E+03  0.43910232756E+03  0.00000000000E+00 0.  1.
</event>
<event>
 6    1  0.3240171E-005  0.2193251E+03  0.7818608E-02  0.1183057E+00
          2   -1    0    0  502    0  0.00000000000E+00  0.00000000000E+00  0.11269409642E+04  0.11269409642E+04  0.00000000000E+00 0. -1.
          1   -1    0    0  501    0 -0.00000000000E+00 -0.00000000000E+00 -0.63758420864E+02  0.63758420864E+02  0.00000000000E+00 0. -1.
          2    1    1    2  501    0  0.46882746805E+02  0.11505914711E+03  0.32442420527E+03  0.34740130145E+03  0.00000000000E+00 0. -1.
          1    1    1    2  502    0 -0.19586260498E+02 -0.31261483318E+02 -0.36982044918E+02  0.52235750075E+02  0.00000000000E+00 0. -1.
         22    1    1    2    0    0 -0.76193175832E+02 -0.36073153113E+02  0.49498336760E+03  0.50211075135E+03  0.00000000000E+00 0. -1.
         22    1    1    2    0    0  0.48896689526E+02 -0.47724510680E+02  0.28075701542E+03  0.28895158223E+03  0.00000000000E+00 0.  1.
</event>
<event>
 6    1  0.3240171E-005  0.9213781E+02  0.7818608E-02  0.1329503E+00
          2   -1    0    0  502    0  0.00000000000E+00  0.00000000000E+00  0.97672937934E+02  0.97672937934E+02  0.00000000000E+00 0.  1.
          1   -1    0    0  501    0 -0.00000000000E+00 -0.00000000000E+00 -0.74172205487E+03  0.74172205487E+03  0.00000000000E+00 0. -1.
          2    1    1    2  501    0  0.20617022681E+02 -0.18422548086E+02 -0.27399954159E+02  0.38925690619E+02  0.00000000000E+00 0.  1.
          1    1    1    2  502    0  0.16180829689E+02 -0.12638876785E+02 -0.66273748250E+03  0.66305545105E+03  0.00000000000E+00 0. -1.
         22    1    1    2    0    0  0.88281364568E+01  0.57801032509E+02 -0.11106258972E+02  0.59516756807E+02  0.00000000000E+00 0.  1.
         22    1    1    2    0    0 -0.45625988827E+02 -0.26739607638E+02  0.57194578694E+02  0.77897094330E+02  0.00000000000E+00 0.  1.
</event>
<event>
 6    1  0.3240171E-005  0.6085852E+02  0.7818608E-02  0.1398199E+00
          2   -1    0    0  502    0  0.00000000000E+00  0.00000000000E+00  0.12220674945E+03  0.12220674945E+03  0.00000000000E+00 0.  1.
          1   -1    0    0  501    0 -0.00000000000E+00 -0.00000000000E+00 -0.91255125473E+03  0.91255125473E+03  0.00000000000E+00 0. -1.
          2    1    1    2  501    0  0.10364838068E+02 -0.25222078513E+02  0.45136197278E+02  0.52733854566E+02  0.00000000000E+00 0.  1.
          1    1    1    2  502    0  0.82446369412E+01  0.28479521877E+02 -0.85364473388E+03  0.85415946338E+03  0.00000000000E+00 0. -1.
         22    1    1    2    0    0 -0.49794465349E+02  0.13797088703E+02 -0.36074311455E+02  0.63017492675E+02  0.00000000000E+00 0.  1.
         22    1    1    2    0    0  0.31184990341E+02 -0.17054532067E+02  0.54238342765E+02  0.64847193559E+02  0.00000000000E+00 0.  1.
</event>
<event>
 6    1  0.3240171E-005  0.1838609E+03  0.7818608E-02  0.1268221E+00
          2   -1    0    0  502    0  0.00000000000E+00  0.00000000000E+00  0.11650223907E+03  0.11650223907E+03  0.00000000000E+00 0. -1.
          1   -1    0    0  501    0 -0.00000000000E+00 -0.00000000000E+00 -0.47319942744E+03  0.47319942744E+03  0.00000000000E+00 0.  1.
          2    1    1    2  501    0 -0.24312902255E+02 -0.23602357440E+02  0.61713930751E+02  0.70404529269E+02  0.00000000000E+00 0. -1.
          1    1    1    2  502    0 -0.26125893149E+02 -0.31315198655E+02 -0.35973649755E+03  0.36204081486E+03  0.00000000000E+00 0.  1.
         22    1    1    2    0    0 -0.12442243397E+01  0.20250648474E+02  0.37538513819E+02  0.42670562190E+02  0.00000000000E+00 0. -1.
         22    1    1    2    0    0  0.51683019744E+02  0.34666907622E+02 -0.96213135401E+02  0.11458576019E+03  0.00000000000E+00 0.  1.
</event>
<event>
 6    1  0.3240171E-005  0.1423915E+03  0.7818608E-02  0.1225999E+00
          2   -1    0    0  502    0  0.00000000000E+00  0.00000000000E+00  0.65374258183E+03  0.65374258183E+03  0.00000000000E+00 0. -1.
          1   -1    0    0  501    0 -0.00000000000E+00 -0.00000000000E+00 -0.48257145931E+02  0.48257145931E+02  0.00000000000E+00 0. -1.
          2    1    1    2  501    0  0.14773447614E+02 -0.80139214325E+02  0.28340548463E+02  0.86277083367E+02  0.00000000000E+00 0. -1.
          1    1    1    2  502    0 -0.16796283570E+02 -0.17510281869E+02  0.24944936299E+03  0.25062663427E+03  0.00000000000E+00 0. -1.
         22    1    1    2    0    0  0.50343302101E+02  0.62162977963E+01  0.62789592607E+02  0.80719411324E+02  0.00000000000E+00 0. -1.
         22    1    1    2    0    0 -0.48320466145E+02  0.91433198398E+02  0.26490593184E+03  0.28437659879E+03  0.00000000000E+00 0. -1.
</event>
<event>
 6    1  0.3240171E-005  0.2260508E+03  0.7818608E-02  0.1133221E+00
          2   -1    0    0  502    0  0.00000000000E+00  0.00000000000E+00  0.17898886155E+04  0.17898886155E+04  0.00000000000E+00 0.  1.
          1   -1    0    0  501    0 -0.00000000000E+00 -0.00000000000E+00 -0.13649633986E+03  0.13649633986E+03  0.00000000000E+00 0.  1.
          2    1    1    2  501    0  0.21406087170E+03  0.39662129870E+02  0.40651744598E+03  0.46114159997E+03  0.00000000000E+00 0.  1.
          1    1    1    2  502    0 -0.83395443197E+02 -0.21010513850E+03  0.35187728168E+02  0.22877313081E+03  0.00000000000E+00 0.  1.
         22    1    1    2    0    0 -0.14865649368E+03  0.17285726214E+03  0.11339143559E+04  0.11566071730E+04  0.00000000000E+00 0.  1.
         22    1    1    2    0    0  0.17991065184E+02 -0.24142535128E+01  0.77772745586E+02  0.79863051547E+02  0.00000000000E+00 0.  1.
</event>
<event>
 6    1  0.3240171E-005  0.9476754E+02  0.7818608E-02  0.1359933E+00
          2   -1    0    0  502    0  0.00000000000E+00  0.00000000000E+00  0.40612942475E+02  0.40612942475E+02  0.00000000000E+00 0. -1.
          1   -1    0    0  501    0 -0.00000000000E+00 -0.00000000000E+00 -0.39205329061E+03  0.39205329061E+03  0.00000000000E+00 0. -1.
          2    1    1    2  501    0  0.54031981346E+02  0.87201246173E+01 -0.15930181960E+03  0.16844157833E+03  0.00000000000E+00 0. -1.
          1    1    1    2  502    0 -0.23797206951E+02 -0.44387617618E+02 -0.57663337771E+02  0.76561270753E+02  0.00000000000E+00 0. -1.
         22    1    1    2    0    0 -0.25362577403E+02 -0.12525103653E+02  0.13946230076E+02  0.31537848490E+02  0.00000000000E+00 0. -1.
         22    1    1    2    0    0 -0.48721969918E+01  0.48192596654E+02 -0.14842142084E+03  0.15612553552E+03  0.00000000000E+00 0.  1.
</event>
<event>
 6    1  0.3240171E-005  0.2272589E+03  0.7818608E-02  0.1170256E+00
          2   -1    0    0  502    0  0.00000000000E+00  0.00000000000E+00  0.83501292181E+02  0.83501292181E+02  0.00000000000E+00 0.  1.
          1   -1    0    0  501    0 -0.00000000000E+00 -0.00000000000E+00 -0.14601145993E+04  0.14601145993E+04  0.00000000000E+00 0. -1.
          2    1    1    2  501    0 -0.57471507949E+02 -0.92534525254E+01 -0.19873641544E+03  0.20708636708E+03  0.00000000000E+00 0.  1.
          1    1    1    2  502    0  0.60899943856E+02 -0.63852748686E+02 -0.11858679416E+04  0.11891462280E+04  0.00000000000E+00 0. -1.
         22    1    1    2    0    0 -0.40132957701E+02  0.74419415628E+02 -0.34411754555E+02  0.91285664635E+02  0.00000000000E+00 0.  1.
         22    1    1    2    0    0  0.36704521794E+02 -0.13132144167E+01  0.42402804519E+02  0.56097631709E+02  0.00000000000E+00 0.  1.
</event>
<event>
 6    1  0.3240171E-005  0.8219101E+02  0.7818608E-02  0.1341703E+00
          2   -1    0    0  502    0  0.00000000000E+00  0.00000000000E+00  0.11664363234E+03  0.11664363234E+03  0.00000000000E+00 0.  1.
          1   -1    0    0  501    0 -0.00000000000E+00 -0.00000000000E+00 -0.53088361074E+03  0.53088361074E+03  0.00000000000E+00 0. -1.
          2    1    1    2  501    0 -0.20638452442E+02 -0.32492341184E+02 -0.60521393582E+02  0.71725428099E+02  0.00000000000E+00 0.  1.
          1    1    1    2  502    0 -0.85127911109E+01  0.85930539605E+02 -0.41351690834E+03  0.42243669198E+03  0.00000000000E+00 0. -1.
         22    1    1    2    0    0 -0.23898263078E+02 -0.27258202542E+02 -0.29166068931E+02  0.46527370018E+02  0.00000000000E+00 0.  1.
         22    1    1    2    0    0  0.53049506631E+02 -0.26179995880E+02  0.88964392451E+02  0.10683775298E+03  0.00000000000E+00 0.  1.
</event>
<event>
 6    1  0.3240171E-005  0.8131920E+02  0.7818608E-02  0.1397181E+00
          2   -1    0    0  502    0  0.00000000000E+00  0.00000000000E+00  0.12531330218E+03  0.12531330218E+03  0.00000000000E+00 0. -1.
          1   -1    0    0  501    0 -0.00000000000E+00 -0.00000000000E+00 -0.11779791905E+03  0.11779791905E+03  0.00000000000E+00 0. -1.
          2    1    1    2  501    0 -0.24655860673E+02 -0.55209842450E+00  0.75156401218E+00  0.24673490363E+02  0.00000000000E+00 0. -1.
          1    1    1    2  502    0 -0.18211606965E+01 -0.47017287463E+02  0.58531756458E+02  0.75099323970E+02  0.00000000000E+00 0. -1.
         22    1    1    2    0    0  0.16086003568E+02  0.25546871413E+02 -0.91714229656E+02  0.96555176304E+02  0.00000000000E+00 0. -1.
         22    1    1    2    0    0  0.10391017802E+02  0.22022514474E+02  0.39946292318E+02  0.46783230592E+02  0.00000000000E+00 0. -1.
</event>
<event>
 6    1  0.3240171E-005  0.9581319E+02  0.7818608E-02  0.1291640E+00
          2   -1    0    0  502    0  0.00000000000E+00  0.00000000000E+00  0.44763335871E+03  0.44763335871E+03  0.00000000000E+00 0.  1.
          1   -1    0    0  501    0 -0.00000000000E+00 -0.00000000000E+00 -0.73248560798E+03  0.73248560798E+03  0.00000000000E+00 0. -1.
          2    1    1    2  501    0  0.83459661324E+02 -0.36800003191E+01  0.25464278245E+03  0.26799627633E+03  0.00000000000E+00 0.  1.
          1    1    1    2  502    0 -0.49916376004E+02  0.78598880757E+02 -0.69312804022E+03  0.69935392241E+03  0.00000000000E+00 0. -1.
         22    1    1    2    0    0  0.19726203796E+02 -0.15171665487E+00  0.10885407243E+03  0.11062709984E+03  0.00000000000E+00 0. -1.
         22    1    1    2    0    0 -0.53269489117E+02 -0.74767163783E+02  0.44778936061E+02  0.10214166812E+03  0.00000000000E+00 0. -1.
</event>
<event>
 6    1  0.3240171E-005  0.1973398E+03  0.7818608E-02  0.1235410E+00
          2   -1    0    0  502    0  0.00000000000E+00  0.00000000000E+00  0.18910707718E+03  0.18910707718E+03  0.00000000000E+00 0. -1.
          1   -1    0    0  501    0 -0.00000000000E+00 -0.00000000000E+00 -0.36713762268E+03  0.36713762268E+03  0.00000000000E+00 0. -1.
          2    1    1    2  501    0  0.58577846527E+02  0.14760021566E+02 -0.20156046118E+03  0.21041825456E+03  0.00000000000E+00 0. -1.
          1    1    1    2  502    0 -0.16003492286E+03 -0.65712498358E+00 -0.45991701921E+02  0.16651379821E+03  0.00000000000E+00 0. -1.
         22    1    1    2    0    0  0.27182702331E+02  0.16010778428E+02  0.91020325366E+02  0.96332465771E+02  0.00000000000E+00 0. -1.
         22    1    1    2    0    0  0.74274374002E+02 -0.30113675010E+02 -0.21498707759E+02  0.82980181316E+02  0.00000000000E+00 0. -1.
</event>
<event>
 6    1  0.3240171E-005  0.9494957E+02  0.7818608E-02  0.1309487E+00
          2   -1    0    0  502    0  0.00000000000E+00  0.00000000000E+00  0.33500646811E+03  0.33500646811E+03  0.00000000000E+00 0.  1.
          1   -1    0    0  501    0 -0.00000000000E+00 -0.00000000000E+00 -0.23136946540E+03  0.23136946540E+03  0.00000000000E+00 0.  1.
          2    1    1    2  501    0  0.15332816347E+02 -0.22937313487E+02  0.13008190435E+02  0.30502928147E+02  0.00000000000E+00 0.  1.
          1    1    1    2  502    0  0.40716712471E+00  0.24368422710E+02 -0.20959699370E+03  0.21100920733E+03  0.00000000000E+00 0.  1.
         22    1    1    2    0    0 -0.14043660198E+02 -0.61428606791E+02  0.17493543658E+03  0.18593844437E+03  0.00000000000E+00 0.  1.
         22    1    1    2    0    0 -0.16963232736E+01  0.59997497568E+02  0.12529036939E+03  0.13892535366E+03  0.00000000000E+00 0. -1.
</event>
<event>
 6    1  0.3240171E-005  0.9783261E+02  0.7818608E-02  0.1321409E+00
          2   -1    0    0  502    0  0.00000000000E+00  0.00000000000E+00  0.10029067791E+03  0.10029067791E+03  0.00000000000E+00 0. -1.
          1   -1    0    0  501    0 -0.00000000000E+00 -0.00000000000E+00 -0.14751218461E+03  0.14751218461E+03  0.00000000000E+00 0. -1.
          2    1    1    2  501    0  0.49156315166E+02  0.29593064900E+02 -0.29432766612E+02  0.64485506599E+02  0.00000000000E+00 0. -1.
          1    1    1    2  502    0 -0.35228926166E+02 -0.40917133828E+02 -0.17993357039E+02  0.56912652170E+02  0.00000000000E+00 0. -1.
         22    1    1    2    0    0 -0.41043268914E+02 -0.28710052727E+02 -0.39539731076E+02  0.63813849471E+02  0.00000000000E+00 0.  1.
         22    1    1    2    0    0  0.27115879914E+02  0.40034121655E+02  0.39744348024E+02  0.62590854285E+02  0.00000000000E+00 0. -1.
</event>
<event>
 6    1  0.3240171E-005  0.1802815E+03  0.7818608E-02  0.1215018E+00
          2   -1    0    0  502    0  0.00000000000E+00  0.00000000000E+00  0.19443558409E+03  0.19443558409E+03  0.00000000000E+00 0. -1.
          1   -1    0    0  501    0 -0.00000000000E+00 -0.00000000000E+00 -0.14562163902E+04  0.14562163902E+04  0.00000000000E+00 0.  1.
          2    1    1    2  501    0 -0.23634565746E+02  0.10200914845E+03 -0.84750381699E+01  0.10505372596E+03  0.00000000000E+00 0. -1.
          1    1    1    2  502    0  0.24893867319E+02 -0.77609075099E+02 -0.13683757997E+04  0.13708009346E+04  0.00000000000E+00 0.  1.
         22    1    1    2    0    0  0.61993790397E+02 -0.25056954393E+02  0.46134081869E+02  0.81236903690E+02  0.00000000000E+00 0. -1.
         22    1    1    2    0    0 -0.63253091970E+02  0.65688104437E+00  0.68935949893E+02  0.93560410025E+02  0.00000000000E+00 0. -1.
</event>
<event>
 6    1  0.3240171E-005  0.2159025E+03  0.7818608E-02  0.1165341E+00
          2   -1    0    0  502    0  0.00000000000E+00  0.00000000000E+00  0.14269365069E+03  0.14269365069E+03  0.00000000000E+00 0. -1.
          1   -1    0    0  501    0 -0.00000000000E+00 -0.00000000000E+00 -0.16032362404E+04  0.16032362404E+04  0.00000000000E+00 0. -1.
          2    1    1    2  501    0 -0.15731135173E+03 -0.40774137161E+02 -0.22938242555E+03  0.28111508105E+03  0.00000000000E+00 0. -1.
          1    1    1    2  502    0  0.21983266021E+03 -0.52939295206E+02 -0.12740577170E+04  0.12939675551E+04  0.00000000000E+00 0. -1.
         22    1    1    2    0    0 -0.33579015635E+02  0.10515650122E+03  0.69042055775E+02  0.13020078919E+03  0.00000000000E+00 0. -1.
         22    1    1    2    0    0 -0.28942292844E+02 -0.11443068858E+02 -0.26144502894E+02  0.40646465671E+02  0.00000000000E+00 0. -1.
</event>
<event>
 6    1  0.3240171E-005  0.4134304E+03  0.7818608E-02  0.1086591E+00
          2   -1    0    0  502    0  0.00000000000E+00  0.00000000000E+00  0.17951116999E+03  0.17951116999E+03  0.00000000000E+00 0. -1.
          1   -1    0    0  501    0 -0.00000000000E+00 -0.00000000000E+00 -0.20497752677E+04  0.20497752677E+04  0.00000000000E+00 0. -1.
          2    1    1    2  501    0  0.18198860093E+03  0.31005281509E+03 -0.16675174767E+04  0.17058332668E+04  0.00000000000E+00 0. -1.
          1    1    1    2  502    0 -0.25072979458E+02 -0.26906337863E+03 -0.75306399523E+02  0.28052595215E+03  0.00000000000E+00 0. -1.
         22    1    1    2    0    0 -0.48219393314E+02 -0.20697337489E+02 -0.12132234583E+03  0.13218396751E+03  0.00000000000E+00 0.  1.
         22    1    1    2    0    0 -0.10869622816E+03 -0.20292098967E+02 -0.61178756963E+01  0.11074325126E+03  0.00000000000E+00 0. -1.
</event>
<event>
 6    1  0.3240171E-005  0.4332669E+02  0.7818608E-02  0.1494788E+00
          2   -1    0    0  502    0  0.00000000000E+00  0.00000000000E+00  0.74417105038E+02  0.74417105038E+02  0.00000000000E+00 0. -1.
          1   -1    0    0  501    0 -0.00000000000E+00 -0.00000000000E+00 -0.72501471894E+03  0.72501471894E+03  0.00000000000E+00 0. -1.
          2    1    1    2  501    0  0.18859710421E+02 -0.33533889603E+02 -0.24444562190E+02  0.45582310710E+02  0.00000000000E+00 0. -1.
          1    1    1    2  502    0 -0.27166865521E+02  0.26353933902E+02 -0.63063123979E+03  0.63176603977E+03  0.00000000000E+00 0. -1.
         22    1    1    2    0    0  0.22343982083E+02 -0.27958008227E+02 -0.46449209630E+02  0.58638151698E+02  0.00000000000E+00 0.  1.
         22    1    1    2    0    0 -0.14036826983E+02  0.35137963927E+02  0.50927397706E+02  0.63445321796E+02  0.00000000000E+00 0. -1.
</event>
<event>
 6    1  0.3240171E-005  0.7218938E+02  0.7818608E-02  0.1354133E+00
          2   -1    0    0  502    0  0.00000000000E+00  0.00000000000E+00  0.87590885089E+02  0.87590885089E+02  0.00000000000E+00 0. -1.
          1   -1    0    0  501    0 -0.00000000000E+00 -0.00000000000E+00 -0.29754720163E+03  0.29754720163E+03  0.00000000000E+00 0. -1.
          2    1    1    2  501    0  0.75212687649E+01 -0.18693915638E+02 -0.75112000641E+02  0.77767889299E+02  0.00000000000E+00 0. -1.
          1    1    1    2  502    0  0.41605334848E+02 -0.66383338887E+01  0.57041099060E+02  0.70913738772E+02  0.00000000000E+00 0. -1.
         22    1    1    2    0    0 -0.67009816040E+02  0.25030447165E+02 -0.20311147807E+03  0.21533952553E+03  0.00000000000E+00 0.  1.
         22    1    1    2    0    0  0.17883212426E+02  0.30180236116E+00  0.11226063112E+02  0.21116933119E+02  0.00000000000E+00 0. -1.
</event>
<event>
 6    1  0.3240171E-005  0.1378335E+03  0.7818608E-02  0.1289844E+00
          2   -1    0    0  502    0  0.00000000000E+00  0.00000000000E+00  0.17021884301E+03  0.17021884301E+03  0.00000000000E+00 0.  1.
          1   -1    0    0  501    0 -0.00000000000E+00 -0.00000000000E+00 -0.29145110074E+04  0.29145110074E+04  0.00000000000E+00 0. -1.
          2    1    1    2  501    0  0.16326789513E+02  0.12976379725E+03 -0.77534206931E+02  0.15204196913E+03  0.00000000000E+00 0.  1.
          1    1    1    2  502    0 -0.42253829535E+02 -0.11867825992E+03 -0.27660345885E+04  0.27689018148E+04  0.00000000000E+00 0. -1.
         22    1    1    2    0    0  0.28429280669E+02  0.20706102265E+02 -0.19904414538E+02  0.40412280169E+02  0.00000000000E+00 0. -1.
         22    1    1    2    0    0 -0.25022406468E+01 -0.31791639598E+02  0.11918104548E+03  0.12337378635E+03  0.00000000000E+00 0.  1.
</event>
<event>
 6    1  0.3240171E-005  0.1228731E+03  0.7818608E-02  0.1341489E+00
          2   -1    0    0  502    0  0.00000000000E+00  0.00000000000E+00  0.23287325216E+02  0.23287325216E+02  0.00000000000E+00 0. -1.
          1   -1    0    0  501    0 -0.00000000000E+00 -0.00000000000E+00 -0.10174722749E+04  0.10174722749E+04  0.00000000000E+00 0. -1.
          2    1    1    2  501    0  0.59405551646E+02 -0.98370791386E+01 -0.26419907825E+03  0.27097405898E+03  0.00000000000E+00 0. -1.
          1    1    1    2  502    0 -0.99798558085E+02  0.44355093875E+02 -0.35768712443E+03  0.37398824250E+03  0.00000000000E+00 0. -1.
         22    1    1    2    0    0  0.57413984422E+02 -0.39627912049E+02 -0.37151548454E+03  0.37800858756E+03  0.00000000000E+00 0. -1.
         22    1    1    2    0    0 -0.17020977982E+02  0.51098973122E+01 -0.78326248542E+00  0.17788711087E+02  0.00000000000E+00 0. -1.
</event>
<event>
 6    1  0.3240171E-005  0.1791021E+03  0.7818608E-02  0.1237364E+00
          2   -1    0    0  502    0  0.00000000000E+00  0.00000000000E+00  0.38592136353E+03  0.38592136353E+03  0.00000000000E+00 0.  1.
          1   -1    0    0  501    0 -0.00000000000E+00 -0.00000000000E+00 -0.14608240201E+03  0.14608240201E+03  0.00000000000E+00 0. -1.
          2    1    1    2  501    0  0.43795591756E+02 -0.30293152199E+02  0.10081703307E+00  0.53251658110E+02  0.00000000000E+00 0.  1.
          1    1    1    2  502    0 -0.26620317620E+02  0.51585082279E+02 -0.10090300247E+03  0.11640909729E+03  0.00000000000E+00 0. -1.
         22    1    1    2    0    0 -0.21704285061E+02  0.34250692062E+02  0.41371626623E+02  0.57929244654E+02  0.00000000000E+00 0. -1.
         22    1    1    2    0    0  0.45290109248E+01 -0.55542622143E+02  0.29926952034E+03  0.30441376548E+03  0.00000000000E+00 0.  1.
</event>
<event>
 6    1  0.3240171E-005  0.1747876E+03  0.7818608E-02  0.1265978E+00
          2   -1    0    0  502    0  0.00000000000E+00  0.00000000000E+00  0.25410669721E+03  0.25410669721E+03  0.00000000000E+00 0.  1.
          1   -1    0    0  501    0 -0.00000000000E+00 -0.00000000000E+00 -0.19591074755E+03  0.19591074755E+03  0.00000000000E+00 0.  1.
          2    1    1    2  501    0 -0.61792111410E+02 -0.36670308095E+02 -0.52323987517E+01  0.72044115131E+02  0.00000000000E+00 0.  1.
          1    1    1    2  502    0  0.16752443892E+03  0.27276456713E+02 -0.50855685828E+02  0.17718561879E+03  0.00000000000E+00 0.  1.
         22    1    1    2    0    0 -0.10145283354E+03 -0.14899486959E+02  0.21487082613E+02  0.10476815768E+03  0.00000000000E+00 0.  1.
         22    1    1    2    0    0 -0.42794939740E+01  0.24293338340E+02  0.92796951629E+02  0.96019553155E+02  0.00000000000E+00 0.  1.
</event>
<event>
 6    1  0.3240171E-005  0.1319508E+03  0.7818608E-02  0.1301784E+00
          2   -1    0    0  502    0  0.00000000000E+00  0.00000000000E+00  0.14891055582E+03  0.14891055582E+03  0.00000000000E+00 0. -1.
          1   -1    0    0  501    0 -0.00000000000E+00 -0.00000000000E+00 -0.64751541456E+03  0.64751541456E+03  0.00000000000E+00 0. -1.
          2    1    1    2  501    0  0.67149518046E+02  0.67558250517E+02 -0.15099541843E+03  0.17852952522E+03  0.00000000000E+00 0. -1.
          1    1    1    2  502    0 -0.11158114993E+03 -0.82647935603E+02 -0.43748843959E+03  0.45899582683E+03  0.00000000000E+00 0. -1.
         22    1    1    2    0    0  0.19715345915E+02 -0.31507181751E+00 -0.29797849214E+02  0.35731022272E+02  0.00000000000E+00 0. -1.
         22    1    1    2    0    0  0.24716285972E+02  0.15404756904E+02  0.11967684849E+03  0.12316959606E+03  0.00000000000E+00 0. -1.
</event>
<event>
 6    1  0.3240171E-005  0.1304228E+03  0.7818608E-02  0.1318855E+00
          2   -1    0    0  502    0  0.00000000000E+00  0.00000000000E+00  0.10576304433E+03  0.10576304433E+03  0.00000000000E+00 0. -1.
          1   -1    0    0  501    0 -0.00000000000E+00 -0.00000000000E+00 -0.55399922938E+03  0.55399922938E+03  0.00000000000E+00 0. -1.
          2    1    1    2  501    0 -0.37116923790E+02 -0.76400848461E+02 -0.40612133860E+03  0.41490878196E+03  0.00000000000E+00 0. -1.
          1    1    1    2  502    0  0.52970710183E+02  0.33013659363E+02  0.52393640955E+02  0.81491664938E+02  0.00000000000E+00 0. -1.
         22    1    1    2    0    0  0.61736936072E+01  0.41282485550E+02 -0.12149366492E+03  0.12846427021E+03  0.00000000000E+00 0.  1.
         22    1    1    2    0    0 -0.22027480000E+02  0.21047035481E+01  0.26985177512E+02  0.34897556613E+02  0.00000000000E+00 0. -1.
</event>
<event>
 6    1  0.3240171E-005  0.1920165E+03  0.7818608E-02  0.1219175E+00
          2   -1    0    0  502    0  0.00000000000E+00  0.00000000000E+00  0.45585978633E+03  0.45585978633E+03  0.00000000000E+00 0.  1.
          1   -1    0    0  501    0 -0.00000000000E+00 -0.00000000000E+00 -0.11060741141E+04  0.11060741141E+04  0.00000000000E+00 0. -1.
          2    1    1    2  501    0  0.17390953402E+03  0.36823159987E+02  0.64334687570E+02  0.18904873223E+03  0.00000000000E+00 0.  1.
          1    1    1    2  502    0 -0.17788931998E+03 -0.35263371317E+02 -0.10234634816E+04  0.10394063756E+04  0.00000000000E+00 0. -1.
         22    1    1    2    0    0 -0.44218505349E+02 -0.18563888561E+02  0.25388945767E+03  0.25837908369E+03  0.00000000000E+00 0.  1.
         22    1    1    2    0    0  0.48198291306E+02  0.17004099891E+02  0.55025008615E+02  0.75099708861E+02  0.00000000000E+00 0. -1.
</event>
<event>
 6    1  0.3240171E-005  0.1156426E+03  0.7818608E-02  0.1257916E+00
          2   -1    0    0  502    0  0.00000000000E+00  0.00000000000E+00  0.11172575455E+03  0.11172575455E+03  0.00000000000E+00 0.  1.
          1   -1    0    0  501    0 -0.00000000000E+00 -0.00000000000E+00 -0.56652208191E+03  0.56652208191E+03  0.00000000000E+00 0. -1.
          2    1    1    2  501    0  0.71102557869E+02 -0.83629100578E+02 -0.28130252341E+03  0.30196110656E+03  0.00000000000E+00 0.  1.
          1    1    1    2  502    0 -0.27919466777E+00  0.30535913636E+02 -0.21551117390E+03  0.21766392913E+03  0.00000000000E+00 0. -1.
         22    1    1    2    0    0 -0.74609480589E+01 -0.21748815946E+02 -0.29390958984E+02  0.37316286136E+02  0.00000000000E+00 0.  1.
         22    1    1    2    0    0 -0.63362415142E+02  0.74842002888E+02  0.71408328931E+02  0.12130651462E+03  0.00000000000E+00 0.  1.
</event>
<event>
 6    1  0.3849607E-005  0.1621981E+03  0.7818608E-02  0.1278910E+00
          2   -1    0    0  502    0  0.00000000000E+00  0.00000000000E+00  0.25087165471E+03  0.25087165471E+03  0.00000000000E+00 0. -1.
          1   -1    0    0  501    0 -0.00000000000E+00 -0.00000000000E+00 -0.53546931433E+03  0.53546931433E+03  0.00000000000E+00 0. -1.
          2    1    1    2  501    0  0.12815684370E+03  0.11099494620E+03 -0.46111574061E+03  0.49129602167E+03  0.00000000000E+00 0. -1.
          1    1    1    2  502    0 -0.39553966080E+02  0.35397925757E+01  0.59962264526E+02  0.71920230333E+02  0.00000000000E+00 0. -1.
         22    1    1    2    0    0 -0.74034269215E+02 -0.95384943828E+02  0.14314181089E+03  0.18726702473E+03  0.00000000000E+00 0. -1.
         22    1    1    2    0    0 -0.14568608408E+02 -0.19149794951E+02 -0.26585994425E+02  0.35857692301E+02  0.00000000000E+00 0.  1.
</event>
<event>
 6    1  0.3240171E-005  0.1555958E+03  0.7818608E-02  0.1233955E+00
          2   -1    0    0  502    0  0.00000000000E+00  0.00000000000E+00  0.18905893013E+03  0.18905893013E+03  0.00000000000E+00 0. -1.
          1   -1    0    0  501    0 -0.00000000000E+00 -0.00000000000E+00 -0.88137426181E+03  0.88137426181E+03  0.00000000000E+00 0.  1.
          2    1    1    2  501    0 -0.93501673746E+02 -0.72693393558E+02  0.33417455618E+02  0.12305941167E+03  0.00000000000E+00 0. -1.
          1    1    1    2  502    0  0.66579521369E+01  0.49434045589E+02 -0.78285757985E+03  0.78444505450E+03  0.00000000000E+00 0.  1.
         22    1    1    2    0    0  0.36039071039E+02 -0.13633088024E+02 -0.34590977479E+02  0.51780415732E+02  0.00000000000E+00 0. -1.
         22    1    1    2    0    0  0.50804650570E+02  0.36892435993E+02  0.91715770033E+02  0.11114831005E+03  0.00000000000E+00 0. -1.
</event>
<event>
 6    1  0.3240171E-005  0.1206544E+03  0.7818608E-02  0.1350676E+00
          2   -1    0    0  502    0  0.00000000000E+00  0.00000000000E+00  0.35579214501E+02  0.35579214501E+02  0.00000000000E+00 0. -1.
          1   -1    0    0  501    0 -0.00000000000E+00 -0.00000000000E+00 -0.98965716035E+03  0.98965716035E+03  0.00000000000E+00 0.  1.
          2    1    1    2  501    0 -0.21260814067E+02  0.31057801070E+02 -0.38274029768E+02  0.53679703583E+02  0.00000000000E+00 0. -1.
          1    1    1    2  502    0  0.17369509601E+02  0.38753454125E+02 -0.75275259913E+03  0.75394960413E+03  0.00000000000E+00 0.  1.
         22    1    1    2    0    0  0.57694548196E+01  0.14957621240E+02  0.14010140984E+02  0.21290868758E+02  0.00000000000E+00 0. -1.
         22    1    1    2    0    0 -0.18781503544E+01 -0.84768876434E+02 -0.17706145793E+03  0.19631619838E+03  0.00000000000E+00 0. -1.
</event>
<event>
 6    1  0.3240171E-005  0.1158205E+03  0.7818608E-02  0.1317883E+00
          2   -1    0    0  502    0  0.00000000000E+00  0.00000000000E+00  0.29585206594E+03  0.29585206594E+03  0.00000000000E+00 0. -1.
          1   -1    0    0  501    0 -0.00000000000E+00 -0.00000000000E+00 -0.39029171825E+03  0.39029171825E+03  0.00000000000E+00 0. -1.
          2    1    1    2  501    0 -0.20115823746E+02  0.78725901456E+01  0.23683464971E+02  0.32055117433E+02  0.00000000000E+00 0. -1.
          1    1    1    2  502    0  0.11101801792E+03 -0.19512247929E+02 -0.35413369804E+03  0.37164015420E+03  0.00000000000E+00 0. -1.
         22    1    1    2    0    0  0.33519685377E+01  0.31976665331E+02  0.14945720459E+03  0.15287641683E+03  0.00000000000E+00 0. -1.
         22    1    1    2    0    0 -0.94254162715E+02 -0.20337007548E+02  0.86553376167E+02  0.12957209573E+03  0.00000000000E+00 0. -1.
</event>
<event>
 6    1  0.3240171E-005  0.7617755E+02  0.7818608E-02  0.1341109E+00
          2   -1    0    0  502    0  0.00000000000E+00  0.00000000000E+00  0.11030788003E+03  0.11030788003E+03  0.00000000000E+00 0. -1.
          1   -1    0    0  501    0 -0.00000000000E+00 -0.00000000000E+00 -0.71613865464E+02  0.71613865464E+02  0.00000000000E+00 0.  1.
          2    1    1    2  501    0 -0.97357262566E+01  0.19831227731E+02  0.14865121101E+01  0.22142079336E+02  0.00000000000E+00 0. -1.
          1    1    1    2  502    0  0.20199080960E+01  0.22466645152E+02  0.80375791239E+01  0.23946458011E+02  0.00000000000E+00 0.  1.
         22    1    1    2    0    0 -0.32051489797E+01  0.40491356147E+02  0.32859537434E+02  0.52245306995E+02  0.00000000000E+00 0. -1.
         22    1    1    2    0    0  0.10920967140E+02 -0.82789229030E+02 -0.36896141034E+01  0.83587901151E+02  0.00000000000E+00 0.  1.
</event>
<event>
 6    1  0.3240171E-005  0.1976522E+03  0.7818608E-02  0.1212088E+00
          2   -1    0    0  502    0  0.00000000000E+00  0.00000000000E+00  0.57861897080E+02  0.57861897080E+02  0.00000000000E+00 0. -1.
          1   -1    0    0  501    0 -0.00000000000E+00 -0.00000000000E+00 -0.16237168589E+04  0.16237168589E+04  0.00000000000E+00 0. -1.
          2    1    1    2  501    0  0.23612493539E+02 -0.21110815570E+02 -0.27717577591E+03  0.27897961778E+03  0.00000000000E+00 0. -1.
          1    1    1    2  502    0 -0.72113086423E+02 -0.13031714645E+02 -0.12543994388E+04  0.12565381311E+04  0.00000000000E+00 0. -1.
         22    1    1    2    0    0  0.29544770546E+02  0.81576479447E+02 -0.38263359673E+02  0.94824575713E+02  0.00000000000E+00 0.  1.
         22    1    1    2    0    0  0.18955822338E+02 -0.47433949233E+02  0.39836124995E+01  0.51236431461E+02  0.00000000000E+00 0. -1.
</event>
<event>
 6    1  0.3240171E-005  0.9504788E+02  0.7818608E-02  0.1362072E+00
          2   -1    0    0  502    0  0.00000000000E+00  0.00000000000E+00  0.20693699615E+03  0.20693699615E+03  0.00000000000E+00 0. -1.
          1   -1    0    0  501    0 -0.00000000000E+00 -0.00000000000E+00 -0.14403118465E+03  0.14403118465E+03  0.00000000000E+00 0. -1.
          2    1    1    2  501    0 -0.20297417037E+02  0.61432376867E+01  0.77028844190E+01  0.22562334454E+02  0.00000000000E+00 0. -1.
          1    1    1    2  502    0  0.70184772151E+02 -0.54231757392E+02 -0.89877197719E+02  0.12627310253E+03  0.00000000000E+00 0. -1.
         22    1    1    2    0    0  0.23778617288E+02 -0.12892214644E+02  0.84988093912E+02  0.89188608832E+02  0.00000000000E+00 0. -1.
         22    1    1    2    0    0 -0.73665972402E+02  0.60980734350E+02  0.60092030887E+02  0.11294413499E+03  0.00000000000E+00 0. -1.
</event>
<event>
 6    1  0.3240171E-005  0.6913447E+02  0.7818608E-02  0.1371474E+00
          2   -1    0    0  502    0  0.00000000000E+00  0.00000000000E+00  0.10124255201E+03  0.10124255201E+03  0.00000000000E+00 0.  1.
          1   -1    0    0  501    0 -0.00000000000E+00 -0.00000000000E+00 -0.14967953745E+03  0.14967953745E+03  0.00000000000E+00 0.  1.
          2    1    1    2  501    0 -0.18854850725E+02  0.31936875974E+02 -0.76056385790E+02  0.84617038841E+02  0.00000000000E+00 0.  1.
          1    1    1    2  502    0 -0.25759636187E+02 -0.10574478821E+02 -0.88961103980E+01  0.29232161039E+02  0.00000000000E+00 0.  1.
         22    1    1    2    0    0  0.10589637999E+02  0.28738934735E+02 -0.32901214950E+02  0.44950603420E+02  0.00000000000E+00 0. -1.
         22    1    1    2    0    0  0.34024848913E+02 -0.50101331888E+02  0.69416725701E+02  0.92122286161E+02  0.00000000000E+00 0.  1.
</event>
<event>
 6    1  0.3240171E-005  0.3002578E+03  0.7818608E-02  0.1195714E+00
          2   -1    0    0  502    0  0.00000000000E+00  0.00000000000E+00  0.25414123563E+03  0.25414123563E+03  0.00000000000E+00 0.  1.
          1   -1    0    0  501    0 -0.00000000000E+00 -0.00000000000E+00 -0.28734092218E+03  0.28734092218E+03  0.00000000000E+00 0.  1.
          2    1    1    2  501    0  0.93364036266E+02  0.30399033029E+02  0.42540615020E+02  0.10700770254E+03  0.00000000000E+00 0.  1.
          1    1    1    2  502    0 -0.12873719737E+03  0.15125141191E+03 -0.71886930318E+02  0.21122970042E+03  0.00000000000E+00 0.  1.
         22    1    1    2    0    0  0.19973155814E+02  0.56067956404E+01  0.25718449306E+02  0.33042423417E+02  0.00000000000E+00 0. -1.
         22    1    1    2    0    0  0.15400005288E+02 -0.18725724057E+03 -0.29571820555E+02  0.19020233143E+03  0.00000000000E+00 0.  1.
</event>
<event>
 6    1  0.3240171E-005  0.7909433E+02  0.7818608E-02  0.1334310E+00
          2   -1    0    0  502    0  0.00000000000E+00  0.00000000000E+00  0.44618208800E+03  0.44618208800E+03  0.00000000000E+00 0.  1.
          1   -1    0    0  501    0 -0.00000000000E+00 -0.00000000000E+00 -0.99125449003E+02  0.99125449003E+02  0.00000000000E+00 0. -1.
          2    1    1    2  501    0  0.19542861830E+02  0.24524620204E+02  0.11896125238E+03  0.12302503815E+03  0.00000000000E+00 0.  1.
          1    1    1    2  502    0  0.39556606977E+01 -0.22176080531E+02 -0.83916166273E+02  0.86886988446E+02  0.00000000000E+00 0. -1.
         22    1    1    2    0    0  0.10285360639E+02  0.55041981463E+02  0.15688488693E+03  0.16657813816E+03  0.00000000000E+00 0.  1.
         22    1    1    2    0    0 -0.33783883166E+02 -0.57390521137E+02  0.15512666596E+03  0.16881737224E+03  0.00000000000E+00 0. -1.
</event>
<event>
 6    1  0.3240171E-005  0.1869019E+03  0.7818608E-02  0.1213261E+00
          2   -1    0    0  502    0  0.00000000000E+00  0.00000000000E+00  0.87838805160E+03  0.87838805160E+03  0.00000000000E+00 0. -1.
          1   -1    0    0  501    0 -0.00000000000E+00 -0.00000000000E+00 -0.60583668066E+02  0.60583668066E+02  0.00000000000E+00 0. -1.
          2    1    1    2  501    0 -0.29835679759E+00 -0.13116377266E+03  0.14994209035E+03  0.19921509665E+03  0.00000000000E+00 0. -1.
          1    1    1    2  502    0  0.25385264428E+01  0.13147703960E+03  0.11863409055E+03  0.17710647503E+03  0.00000000000E+00 0. -1.
         22    1    1    2    0    0  0.42853761061E+02  0.40443733996E+02  0.32661908853E+03  0.33189180382E+03  0.00000000000E+00 0. -1.
         22    1    1    2    0    0 -0.45093930707E+02 -0.40757000932E+02  0.22260911411E+03  0.23075834416E+03  0.00000000000E+00 0. -1.
</event>
<event>
 6    1  0.3240171E-005  0.7712808E+02  0.7818608E-02  0.1403831E+00
          2   -1    0    0  502    0  0.00000000000E+00  0.00000000000E+00  0.13060326547E+03  0.13060326547E+03  0.00000000000E+00 0.  1.
          1   -1    0    0  501    0 -0.00000000000E+00 -0.00000000000E+00 -0.91820260582E+02  0.91820260582E+02  0.00000000000E+00 0.  1.
          2    1    1    2  501    0 -0.22005417238E+02 -0.17372824090E+01 -0.14424142814E+02  0.26368777634E+02  0.00000000000E+00 0.  1.
          1    1    1    2  502    0  0.91357579685E+01 -0.43003944576E+02 -0.14577494390E+02  0.46317433710E+02  0.00000000000E+00 0.  1.
         22    1    1    2    0    0  0.37923237000E+02  0.39060345474E+02 -0.20208194233E+02  0.58071108197E+02  0.00000000000E+00 0. -1.
         22    1    1    2    0    0 -0.25053577730E+02  0.56808815112E+01  0.87992836327E+02  0.91666206515E+02  0.00000000000E+00 0.  1.
</event>
<event>
 6    1  0.3240171E-005  0.7480999E+02  0.7818608E-02  0.1346000E+00
          2   -1    0    0  502    0  0.00000000000E+00  0.00000000000E+00  0.52317039014E+03  0.52317039014E+03  0.00000000000E+00 0. -1.
          1   -1    0    0  501    0 -0.00000000000E+00 -0.00000000000E+00 -0.45497614952E+03  0.45497614952E+03  0.00000000000E+00 0.  1.
          2    1    1    2  501    0 -0.24578571058E+02  0.13208196305E+01  0.96204383992E+02  0.99303243749E+02  0.00000000000E+00 0. -1.
          1    1    1    2  502    0 -0.31851517042E+02  0.27231758593E+02 -0.44135055719E+03  0.44333554127E+03  0.00000000000E+00 0.  1.
         22    1    1    2    0    0 -0.30419966659E+02  0.20967596225E+02  0.12360016137E+03  0.12900393154E+03  0.00000000000E+00 0. -1.
         22    1    1    2    0    0  0.86850054759E+02 -0.49520174448E+02  0.28974025245E+03  0.30650382311E+03  0.00000000000E+00 0. -1.
</event>
<event>
 6    1  0.3240171E-005  0.1738253E+03  0.7818608E-02  0.1236391E+00
          2   -1    0    0  502    0  0.00000000000E+00  0.00000000000E+00  0.52821617789E+03  0.52821617789E+03  0.00000000000E+00 0. -1.
          1   -1    0    0  501    0 -0.00000000000E+00 -0.00000000000E+00 -0.12090024110E+03  0.12090024110E+03  0.00000000000E+00 0.  1.
          2    1    1    2  501    0 -0.15790517436E+02  0.55457108078E+02  0.32258788951E+02  0.66071633413E+02  0.00000000000E+00 0. -1.
          1    1    1    2  502    0 -0.23297145542E+02 -0.78205991969E+02 -0.77040944801E+02  0.11222406759E+03  0.00000000000E+00 0.  1.
         22    1    1    2    0    0  0.83997810095E+02  0.17265310261E+02  0.31406504544E+03  0.32556193851E+03  0.00000000000E+00 0. -1.
         22    1    1    2    0    0 -0.44910147117E+02  0.54835736305E+01  0.13803304720E+03  0.14525877947E+03  0.00000000000E+00 0.  1.
</event>
<event>
 6    1  0.3240171E-005  0.9756456E+02  0.7818608E-02  0.1368462E+00
          2   -1    0    0  502    0  0.00000000000E+00  0.00000000000E+00  0.35484032557E+02  0.35484032557E+02  0.00000000000E+00 0. -1.
          1   -1    0    0  501    0 -0.00000000000E+00 -0.00000000000E+00 -0.60901466615E+03  0.60901466615E+03  0.00000000000E+00 0. -1.
          2    1    1    2  501    0  0.13257702516E+02 -0.58759225941E+02 -0.22164865247E+03  0.22968791533E+03  0.00000000000E+00 0. -1.
          1    1    1    2  502    0 -0.45298531710E+02  0.49410810915E+02 -0.20996809908E+03  0.22040868368E+03  0.00000000000E+00 0. -1.
         22    1    1    2    0    0  0.15986651810E+02 -0.15806476582E+02  0.19800201512E+02  0.29957732189E+02  0.00000000000E+00 0. -1.
         22    1    1    2    0    0  0.16054177384E+02  0.25154891608E+02 -0.16171408356E+03  0.16444436750E+03  0.00000000000E+00 0.  1.
</event>
<event>
 6    1  0.3240171E-005  0.1666871E+03  0.7818608E-02  0.1242323E+00
          2   -1    0    0  502    0  0.00000000000E+00  0.00000000000E+00  0.11967125313E+04  0.11967125313E+04  0.00000000000E+00 0. -1.
          1   -1    0    0  501    0 -0.00000000000E+00 -0.00000000000E+00 -0.76371189109E+02  0.76371189109E+02  0.00000000000E+00 0. -1.
          2    1    1    2  501    0  0.19490104065E+02  0.82662320091E+01 -0.52727821299E+02  0.56819168306E+02  0.00000000000E+00 0. -1.
          1    1    1    2  502    0  0.21001093766E+02 -0.49905222144E+02  0.96263481064E+03  0.96415629221E+03  0.00000000000E+00 0. -1.
         22    1    1    2    0    0 -0.15526733826E+02  0.79654691366E+02  0.79932307112E+02  0.11390839758E+03  0.00000000000E+00 0. -1.
         22    1    1    2    0    0 -0.24964464005E+02 -0.38015701231E+02  0.13050204576E+03  0.13819986234E+03  0.00000000000E+00 0. -1.
</event>
<event>
 6    1  0.3240171E-005  0.2413929E+03  0.7818608E-02  0.1210611E+00
          2   -1    0    0  502    0  0.00000000000E+00  0.00000000000E+00  0.41270279112E+03  0.41270279112E+03  0.00000000000E+00 0.  1.
          1   -1    0    0  501    0 -0.00000000000E+00 -0.00000000000E+00 -0.98765174446E+03  0.98765174446E+03  0.00000000000E+00 0. -1.
          2    1    1    2  501    0 -0.91141177008E+02 -0.73307800777E+02  0.12787214976E+03  0.17329753168E+03  0.00000000000E+00 0.  1.
          1    1    1    2  502    0  0.19895322669E+03  0.46563976458E+02 -0.92529426176E+03  0.94758643994E+03  0.00000000000E+00 0. -1.
         22    1    1    2    0    0 -0.97361064980E+02  0.53728169221E+02  0.87693296238E+02  0.14161923368E+03  0.00000000000E+00 0.  1.
         22    1    1    2    0    0 -0.10450984698E+02 -0.26984344902E+02  0.13477986241E+03  0.13785133029E+03  0.00000000000E+00 0. -1.
</event>
<event>
 6    1  0.3240171E-005  0.6779324E+02  0.7818608E-02  0.1368561E+00
          2   -1    0    0  502    0  0.00000000000E+00  0.00000000000E+00  0.29327923126E+03  0.29327923126E+03  0.00000000000E+00 0.  1.
          1   -1    0    0  501    0 -0.00000000000E+00 -0.00000000000E+00 -0.72465703209E+02  0.72465703209E+02  0.00000000000E+00 0.  1.
          2    1    1    2  501    0  0.92828789430E+01 -0.24843683278E+02  0.44033177356E+01  0.26884375525E+02  0.00000000000E+00 0.  1.
          1    1    1    2  502    0 -0.12832951867E+02 -0.17390535747E+02 -0.43289346857E+02  0.48384738694E+02  0.00000000000E+00 0.  1.
         22    1    1    2    0    0 -0.97987748552E+00 -0.27755093127E+02  0.75879063294E+01  0.28790305257E+02  0.00000000000E+00 0.  1.
         22    1    1    2    0    0  0.45299504095E+01  0.69989312151E+02  0.25211165084E+03  0.26168551499E+03  0.00000000000E+00 0.  1.
</event>
<event>
 6    1  0.3240171E-005  0.1211913E+03  0.7818608E-02  0.1340375E+00
          2   -1    0    0  502    0  0.00000000000E+00  0.00000000000E+00  0.92614436792E+02  0.92614436792E+02  0.00000000000E+00 0. -1.
          1   -1    0    0  501    0 -0.00000000000E+00 -0.00000000000E+00 -0.47935295743E+03  0.47935295743E+03  0.00000000000E+00 0. -1.
          2    1    1    2  501    0  0.38611835391E+02 -0.70296507746E+02 -0.63964917939E+02  0.10258646870E+03  0.00000000000E+00 0. -1.
          1    1    1    2  502    0 -0.17479162596E+01  0.22542868520E+02 -0.32542875515E+03  0.32621329036E+03  0.00000000000E+00 0. -1.
         22    1    1    2    0    0 -0.31256352079E+02  0.29723321801E+02 -0.62159417014E+02  0.75658631548E+02  0.00000000000E+00 0.  1.
         22    1    1    2    0    0 -0.56075670522E+01  0.18030317425E+02  0.64814569460E+02  0.67509003614E+02  0.00000000000E+00 0. -1.
</event>
<event>
 6    1  0.3240171E-005  0.1004382E+03  0.7818608E-02  0.1280676E+00
          2   -1    0    0  502    0  0.00000000000E+00  0.00000000000E+00  0.15071210974E+02  0.15071210974E+02  0.00000000000E+00 0. -1.
          1   -1    0    0  501    0 -0.00000000000E+00 -0.00000000000E+00 -0.16099593882E+04  0.16099593882E+04  0.00000000000E+00 0.  1.
          2    1    1    2  501    0  0.66632115529E+02 -0.20185158723E+02 -0.17628869467E+03  0.18953887021E+03  0.00000000000E+00 0. -1.
          1    1    1    2  502    0  0.40421146367E+01 -0.29153044810E+02 -0.75689914161E+03  0.75747115410E+03  0.00000000000E+00 0.  1.
         22    1    1    2    0    0 -0.97732832583E+02  0.45766827463E+02 -0.61083944912E+03  0.62029923558E+03  0.00000000000E+00 0.  1.
         22    1    1    2    0    0  0.27058602417E+02  0.35713760703E+01 -0.50860891815E+02  0.57721339278E+02  0.00000000000E+00 0.  1.
</event>
<event>
 6    1  0.3240171E-005  0.2495750E+03  0.7818608E-02  0.1212399E+00
          2   -1    0    0  502    0  0.00000000000E+00  0.00000000000E+00  0.73736859976E+03  0.73736859976E+03  0.00000000000E+00 0.  1.
          1   -1    0    0  501    0 -0.00000000000E+00 -0.00000000000E+00 -0.18013296654E+03  0.18013296654E+03  0.00000000000E+00 0.  1.
          2    1    1    2  501    0 -0.12383207277E+02  0.20113211869E+03 -0.32982583852E+02  0.20419432859E+03  0.00000000000E+00 0.  1.
          1    1    1    2  502    0  0.13284084227E+02 -0.24364537847E+03  0.47769886408E+03  0.53641005032E+03  0.00000000000E+00 0.  1.
         22    1    1    2    0    0  0.25132135179E+02  0.19198901080E+01  0.12464850639E+03  0.12717138178E+03  0.00000000000E+00 0.  1.
         22    1    1    2    0    0 -0.26033012129E+02  0.40593369673E+02 -0.12129153409E+02  0.49725805618E+02  0.00000000000E+00 0. -1.
</event>
<event>
 6    1  0.3240171E-005  0.1326356E+03  0.7818608E-02  0.1270037E+00
          2   -1    0    0  502    0  0.00000000000E+00  0.00000000000E+00  0.77574684606E+02  0.77574684606E+02  0.00000000000E+00 0. -1.
          1   -1    0    0  501    0 -0.00000000000E+00 -0.00000000000E+00 -0.31493450770E+03  0.31493450770E+03  0.00000000000E+00 0. -1.
          2    1    1    2  501    0  0.39480019317E+02 -0.33433914362E+02 -0.83275769465E+02  0.98037504736E+02  0.00000000000E+00 0. -1.
          1    1    1    2  502    0 -0.41579507512E+02  0.81728120082E+02 -0.12704847126E+03  0.15668329556E+03  0.00000000000E+00 0. -1.
         22    1    1    2    0    0 -0.51595047803E+02  0.77636379476E+01 -0.29853070530E+02  0.60112634712E+02  0.00000000000E+00 0. -1.
         22    1    1    2    0    0  0.53694535998E+02 -0.56057843667E+02  0.28174881616E+01  0.77675757300E+02  0.00000000000E+00 0. -1.
</event>
<event>
 6    1  0.3240171E-005  0.6244739E+02  0.7818608E-02  0.1452591E+00
          2   -1    0    0  502    0  0.00000000000E+00  0.00000000000E+00  0.45305327733E+02  0.45305327733E+02  0.00000000000E+00 0. -1.
          1   -1    0    0  501    0 -0.00000000000E+00 -0.00000000000E+00 -0.35650307951E+03  0.35650307951E+03  0.00000000000E+00 0.  1.
          2    1    1    2  501    0 -0.24104550932E+02 -0.21627891366E+00 -0.17579731046E+02  0.29834930800E+02  0.00000000000E+00 0. -1.
          1    1    1    2  502    0  0.25517379631E+02  0.13957810344E+02 -0.23170480233E+03  0.23352317349E+03  0.00000000000E+00 0.  1.
         22    1    1    2    0    0 -0.92533734822E+01  0.21123154113E+02  0.31152582131E+02  0.38759462508E+02  0.00000000000E+00 0. -1.
         22    1    1    2    0    0  0.78405447829E+01 -0.34864685543E+02 -0.93065800528E+02  0.99690840444E+02  0.00000000000E+00 0.  1.
</event>
<event>
 6    1  0.3240171E-005  0.1127484E+03  0.7818608E-02  0.1333093E+00
          2   -1    0    0  502    0  0.00000000000E+00  0.00000000000E+00  0.13296229756E+03  0.13296229756E+03  0.00000000000E+00 0.  1.
          1   -1    0    0  501    0 -0.00000000000E+00 -0.00000000000E+00 -0.10309417592E+04  0.10309417592E+04  0.00000000000E+00 0.  1.
          2    1    1    2  501    0 -0.45329468539E+02  0.42244505665E+01 -0.70535804926E+02  0.83951810446E+02  0.00000000000E+00 0.  1.
          1    1    1    2  502    0  0.11024319364E+03 -0.28269871216E+02 -0.90673278443E+03  0.91384741052E+03  0.00000000000E+00 0.  1.
         22    1    1    2    0    0 -0.42322942492E+02  0.99655448302E+01 -0.30515271394E+02  0.53119914657E+02  0.00000000000E+00 0.  1.
         22    1    1    2    0    0 -0.22590782607E+02  0.14079875819E+02  0.10980439906E+03  0.11298492118E+03  0.00000000000E+00 0.  1.
</event>
<event>
 6    1  0.3240171E-005  0.1925964E+03  0.7818608E-02  0.1211685E+00
          2   -1    0    0  502    0  0.00000000000E+00  0.00000000000E+00  0.12339212943E+04  0.12339212943E+04  0.00000000000E+00 0.  1.
          1   -1    0    0  501    0 -0.00000000000E+00 -0.00000000000E+00 -0.35198268550E+02  0.35198268550E+02  0.00000000000E+00 0.  1.
          2    1    1    2  501    0  0.20016778712E+02  0.14568562915E+03  0.41770417199E+03  0.44283377160E+03  0.00000000000E+00 0.  1.
          1    1    1    2  502    0 -0.26613796022E+01 -0.13986738300E+03  0.32979114629E+03  0.35823479443E+03  0.00000000000E+00 0.  1.
         22    1    1    2    0    0  0.43340809859E+02 -0.34965202447E+02  0.23884123783E+03  0.24524707556E+03  0.00000000000E+00 0. -1.
         22    1    1    2    0    0 -0.60696208969E+02  0.29146956295E+02  0.21238646967E+03  0.22280392130E+03  0.00000000000E+00 0.  1.
</event>
<event>
 6    1  0.3240171E-005  0.6139237E+02  0.7818608E-02  0.1398101E+00
          2   -1    0    0  502    0  0.00000000000E+00  0.00000000000E+00  0.72365525535E+02  0.72365525535E+02  0.00000000000E+00 0. -1.
          1   -1    0    0  501    0 -0.00000000000E+00 -0.00000000000E+00 -0.17027220609E+03  0.17027220609E+03  0.00000000000E+00 0. -1.
          2    1    1    2  501    0  0.99836432658E+01 -0.17848405058E+02 -0.51815479454E+02  0.55705319379E+02  0.00000000000E+00 0. -1.
          1    1    1    2  502    0  0.15554234047E+02  0.31641924444E+02 -0.44588940726E+02  0.56844693810E+02  0.00000000000E+00 0. -1.
         22    1    1    2    0    0  0.25249745217E+02 -0.36778595545E+02 -0.41930894048E+02  0.61224297460E+02  0.00000000000E+00 0.  1.
         22    1    1    2    0    0 -0.50787622530E+02  0.22985076159E+02  0.40428633672E+02  0.68863420979E+02  0.00000000000E+00 0.  1.
</event>
<event>
 6    1  0.3240171E-005  0.2246295E+03  0.7818608E-02  0.1131321E+00
          2   -1    0    0  502    0  0.00000000000E+00  0.00000000000E+00  0.77485712573E+03  0.77485712573E+03  0.00000000000E+00 0.  1.
          1   -1    0    0  501    0 -0.00000000000E+00 -0.00000000000E+00 -0.77632591337E+03  0.77632591337E+03  0.00000000000E+00 0.  1.
          2    1    1    2  501    0 -0.19306840413E+03 -0.95898785673E+01  0.34776719904E+03  0.39788113699E+03  0.00000000000E+00 0.  1.
          1    1    1    2  502    0 -0.42364032310E+02  0.49053746295E+02 -0.70422610818E+03  0.70720251181E+03  0.00000000000E+00 0.  1.
         22    1    1    2    0    0 -0.11448389292E+02 -0.62057416245E+01  0.53230082252E+02  0.54799803860E+02  0.00000000000E+00 0.  1.
         22    1    1    2    0    0  0.24688082574E+03 -0.33258126103E+02  0.30176003924E+03  0.39129958644E+03  0.00000000000E+00 0. -1.
</event>
<event>
 6    1  0.3240171E-005  0.1797362E+03  0.7818608E-02  0.1180817E+00
          2   -1    0    0  502    0  0.00000000000E+00  0.00000000000E+00  0.81174275475E+02  0.81174275475E+02  0.00000000000E+00 0. -1.
          1   -1    0    0  501    0 -0.00000000000E+00 -0.00000000000E+00 -0.14101478901E+04  0.14101478901E+04  0.00000000000E+00 0. -1.
          2    1    1    2  501    0  0.75570776556E+02 -0.11894138861E+03 -0.68316693040E+03  0.69754931796E+03  0.00000000000E+00 0. -1.
          1    1    1    2  502    0 -0.17645522922E+03  0.44501468197E+02 -0.78042852291E+02  0.19800887704E+03  0.00000000000E+00 0. -1.
         22    1    1    2    0    0  0.11204496482E+03  0.74490152859E+02 -0.56885498995E+03  0.58455013182E+03  0.00000000000E+00 0. -1.
         22    1    1    2    0    0 -0.11160512159E+02 -0.50232441581E-01  0.10911579765E+01  0.11213838802E+02  0.00000000000E+00 0. -1.
</event>
<event>
 6    1  0.3240171E-005  0.7720103E+02  0.7818608E-02  0.1347498E+00
          2   -1    0    0  502    0  0.00000000000E+00  0.00000000000E+00  0.75181483201E+02  0.75181483201E+02  0.00000000000E+00 0. -1.
          1   -1    0    0  501    0 -0.00000000000E+00 -0.00000000000E+00 -0.35813455675E+03  0.35813455675E+03  0.00000000000E+00 0. -1.
          2    1    1    2  501    0 -0.49872379348E+02 -0.28400769494E+02 -0.84725997962E+02  0.10233451353E+03  0.00000000000E+00 0. -1.
          1    1    1    2  502    0  0.35013588146E+02  0.41961661645E+02 -0.19916806841E+03  0.20653002657E+03  0.00000000000E+00 0. -1.
         22    1    1    2    0    0 -0.43725808159E+02  0.66790526002E+01 -0.31681491841E+02  0.54408390604E+02  0.00000000000E+00 0. -1.
         22    1    1    2    0    0  0.58584599361E+02 -0.20239944751E+02  0.32622484665E+02  0.70043109237E+02  0.00000000000E+00 0. -1.
</event>
<event>
 6    1  0.3240171E-005  0.5900964E+02  0.7818608E-02  0.1422692E+00
          2   -1    0    0  502    0  0.00000000000E+00  0.00000000000E+00  0.27654200984E+02  0.27654200984E+02  0.00000000000E+00 0.  1.
          1   -1    0    0  501    0 -0.00000000000E+00 -0.00000000000E+00 -0.21906622820E+04  0.21906622820E+04  0.00000000000E+00 0.  1.
          2    1    1    2  501    0  0.22474073934E+02  0.22416472463E+02 -0.16974685545E+02  0.35996141269E+02  0.00000000000E+00 0.  1.
          1    1    1    2  502    0 -0.20006778416E+02  0.39832747415E+02 -0.18842693634E+04  0.18847965283E+04  0.00000000000E+00 0.  1.
         22    1    1    2    0    0  0.20344057128E+02 -0.13163430735E+02  0.54884681473E+01  0.24845117262E+02  0.00000000000E+00 0.  1.
         22    1    1    2    0    0 -0.22811352646E+02 -0.49085789144E+02 -0.26725250020E+03  0.27267869622E+03  0.00000000000E+00 0. -1.
</event>
<event>
 6    1  0.3240171E-005  0.1482492E+03  0.7818608E-02  0.1242875E+00
          2   -1    0    0  502    0  0.00000000000E+00  0.00000000000E+00  0.62684634168E+02  0.62684634168E+02  0.00000000000E+00 0. -1.
          1   -1    0    0  501    0 -0.00000000000E+00 -0.00000000000E+00 -0.30419161980E+03  0.30419161980E+03  0.00000000000E+00 0. -1.
          2    1    1    2  501    0  0.63045814230E+02 -0.51796344187E+01 -0.13210127653E+03  0.14646620963E+03  0.00000000000E+00 0. -1.
          1    1    1    2  502    0 -0.21654090620E+02  0.46000253351E+02 -0.39018711616E+02  0.64088866468E+02  0.00000000000E+00 0. -1.
         22    1    1    2    0    0  0.13208488533E+02 -0.21602399502E+02  0.30724389237E+02  0.39813514384E+02  0.00000000000E+00 0. -1.
         22    1    1    2    0    0 -0.54600212143E+02 -0.19218219431E+02 -0.10111138673E+03  0.11650766348E+03  0.00000000000E+00 0. -1.
</event>
<event>
 6    1  0.3240171E-005  0.1299236E+03  0.7818608E-02  0.1344486E+00
          2   -1    0    0  502    0  0.00000000000E+00  0.00000000000E+00  0.89211952398E+02  0.89211952398E+02  0.00000000000E+00 0. -1.
          1   -1    0    0  501    0 -0.00000000000E+00 -0.00000000000E+00 -0.76777473222E+03  0.76777473222E+03  0.00000000000E+00 0. -1.
          2    1    1    2  501    0 -0.48870438161E+02 -0.26862015061E+02 -0.20449589854E+02  0.59397586688E+02  0.00000000000E+00 0. -1.
          1    1    1    2  502    0 -0.20856224984E+02  0.53853349992E+02 -0.65182476913E+03  0.65437809795E+03  0.00000000000E+00 0. -1.
         22    1    1    2    0    0  0.55800553713E+01 -0.13139559676E+02  0.52927463901E+02  0.54818805910E+02  0.00000000000E+00 0. -1.
         22    1    1    2    0    0  0.64146607774E+02 -0.13851775255E+02 -0.59215884733E+02  0.88392194063E+02  0.00000000000E+00 0.  1.
</event>
<event>
 6    1  0.3240171E-005  0.1069078E+03  0.7818608E-02  0.1268411E+00
          2   -1    0    0  502    0  0.00000000000E+00  0.00000000000E+00  0.72002697130E+03  0.72002697130E+03  0.00000000000E+00 0. -1.
          1   -1    0    0  501    0 -0.00000000000E+00 -0.00000000000E+00 -0.20590765980E+03  0.20590765980E+03  0.00000000000E+00 0.  1.
          2    1    1    2  501    0  0.38846330770E+02  0.49685146194E+02  0.64336829512E+02  0.90093722302E+02  0.00000000000E+00 0. -1.
          1    1    1    2  502    0 -0.92285019436E+01  0.17880743654E+02 -0.18411876157E+03  0.18521502261E+03  0.00000000000E+00 0.  1.
         22    1    1    2    0    0 -0.47730091469E+02 -0.94050319219E+02  0.56312348147E+03  0.57291507186E+03  0.00000000000E+00 0. -1.
         22    1    1    2    0    0  0.18112262643E+02  0.26484429371E+02  0.70777762089E+02  0.77710814328E+02  0.00000000000E+00 0. -1.
</event>
<event>
 6    1  0.3240171E-005  0.1383989E+03  0.7818608E-02  0.1215817E+00
          2   -1    0    0  502    0  0.00000000000E+00  0.00000000000E+00  0.47452891296E+03  0.47452891296E+03  0.00000000000E+00 0. -1.
          1   -1    0    0  501    0 -0.00000000000E+00 -0.00000000000E+00 -0.92492932755E+02  0.92492932755E+02  0.00000000000E+00 0. -1.
          2    1    1    2  501    0  0.60920604744E+02  0.41009896007E+02 -0.16251017487E+02  0.75214541295E+02  0.00000000000E+00 0. -1.
          1    1    1    2  502    0  0.13575692008E+02  0.78248226694E+02  0.44040154410E+02  0.90810900198E+02  0.00000000000E+00 0. -1.
         22    1    1    2    0    0 -0.90453218665E+02 -0.12439574600E+03  0.35193268167E+03  0.38407381949E+03  0.00000000000E+00 0. -1.
         22    1    1    2    0    0  0.15956921913E+02  0.51376232979E+01  0.23141616124E+01  0.16922584733E+02  0.00000000000E+00 0.  1.
</event>
<event>
 6    1  0.3240171E-005  0.1174888E+03  0.7818608E-02  0.1263602E+00
          2   -1    0    0  502    0  0.00000000000E+00  0.00000000000E+00  0.84112198925E+02  0.84112198925E+02  0.00000000000E+00 0. -1.
          1   -1    0    0  501    0 -0.00000000000E+00 -0.00000000000E+00 -0.30760830908E+03  0.30760830908E+03  0.00000000000E+00 0. -1.
          2    1    1    2  501    0  0.45128985371E+02  0.54039725923E+02 -0.68212521855E+02  0.98029921127E+02  0.00000000000E+00 0. -1.
          1    1    1    2  502    0 -0.54227631315E+02  0.14573232967E+02 -0.13667752916E+03  0.14776251925E+03  0.00000000000E+00 0. -1.
         22    1    1    2    0    0  0.64222177990E+02 -0.13900741215E+02 -0.18492147299E+02  0.68261836071E+02  0.00000000000E+00 0. -1.
         22    1    1    2    0    0 -0.55123532045E+02 -0.54712217675E+02 -0.11391183715E+00  0.77666231555E+02  0.00000000000E+00 0. -1.
</event>
<event>
 6    1  0.3240171E-005  0.2213059E+03  0.7818608E-02  0.1203268E+00
          2   -1    0    0  502    0  0.00000000000E+00  0.00000000000E+00  0.24003699498E+03  0.24003699498E+03  0.00000000000E+00 0.  1.
          1   -1    0    0  501    0 -0.00000000000E+00 -0.00000000000E+00 -0.37751829000E+03  0.37751829000E+03  0.00000000000E+00 0.  1.
          2    1    1    2  501    0 -0.13083312419E+03  0.11256613704E+03 -0.51835606381E+02  0.18020924416E+03  0.00000000000E+00 0.  1.
          1    1    1    2  502    0  0.16908316676E+03 -0.12491510132E+03 -0.18206081112E+03  0.27809897297E+03  0.00000000000E+00 0.  1.
         22    1    1    2    0    0 -0.18458817502E+02  0.51607213861E+02  0.17112801652E+01  0.54835763384E+02  0.00000000000E+00 0.  1.
         22    1    1    2    0    0 -0.19791225072E+02 -0.39258249574E+02  0.94703842317E+02  0.10441130446E+03  0.00000000000E+00 0. -1.
</event>
<event>
 6    1  0.3240171E-005  0.1100239E+03  0.7818608E-02  0.1302417E+00
          2   -1    0    0  502    0  0.00000000000E+00  0.00000000000E+00  0.64040164733E+02  0.64040164733E+02  0.00000000000E+00 0. -1.
          1   -1    0    0  501    0 -0.00000000000E+00 -0.00000000000E+00 -0.50582757185E+03  0.50582757185E+03  0.00000000000E+00 0. -1.
          2    1    1    2  501    0  0.70105548601E+02 -0.11011165685E+02 -0.95529845860E+02  0.11900413927E+03  0.00000000000E+00 0. -1.
          1    1    1    2  502    0 -0.98706756859E+02  0.39554267840E+02 -0.29106992511E+03  0.30988589070E+03  0.00000000000E+00 0. -1.
         22    1    1    2    0    0  0.25071579355E+02  0.20987740258E+02 -0.79300238069E+02  0.85776436684E+02  0.00000000000E+00 0. -1.
         22    1    1    2    0    0  0.35296289025E+01 -0.49530842412E+02  0.24112601917E+02  0.55201269926E+02  0.00000000000E+00 0. -1.
</event>
<event>
 6    1  0.3240171E-005  0.1302055E+03  0.7818608E-02  0.1263033E+00
          2   -1    0    0  502    0  0.00000000000E+00  0.00000000000E+00  0.52668614502E+02  0.52668614502E+02  0.00000000000E+00 0. -1.
          1   -1    0    0  501    0 -0.00000000000E+00 -0.00000000000E+00 -0.79572114497E+03  0.79572114497E+03  0.00000000000E+00 0.  1.
          2    1    1    2  501    0  0.60342708483E+01  0.50214614919E+02 -0.93289885246E+02  0.10611749462E+03  0.00000000000E+00 0. -1.
          1    1    1    2  502    0 -0.64843510391E+02 -0.21779055338E+02 -0.57872593109E+03  0.58275441775E+03  0.00000000000E+00 0.  1.
         22    1    1    2    0    0  0.13440972151E+02  0.15564209775E+02  0.32356491092E+02  0.38338582056E+02  0.00000000000E+00 0. -1.
         22    1    1    2    0    0  0.45368267392E+02 -0.43999769356E+02 -0.10339320523E+03  0.12117926504E+03  0.00000000000E+00 0. -1.
</event>
<event>
 6    1  0.3240171E-005  0.1076189E+03  0.7818608E-02  0.1294669E+00
          2   -1    0    0  502    0  0.00000000000E+00  0.00000000000E+00  0.55656124007E+03  0.55656124007E+03  0.00000000000E+00 0. -1.
          1   -1    0    0  501    0 -0.00000000000E+00 -0.00000000000E+00 -0.46964871848E+03  0.46964871848E+03  0.00000000000E+00 0.  1.
          2    1    1    2  501    0  0.35700131181E+01 -0.62282537464E+02  0.14909429810E+03  0.16161982921E+03  0.00000000000E+00 0. -1.
          1    1    1    2  502    0 -0.66166495390E+02  0.78023756446E+02 -0.44512718118E+03  0.45673178027E+03  0.00000000000E+00 0.  1.
         22    1    1    2    0    0  0.34085341400E+02 -0.69925040362E+02  0.24180403903E+03  0.25400888776E+03  0.00000000000E+00 0. -1.
         22    1    1    2    0    0  0.28511140872E+02  0.54183821380E+02  0.14114136563E+03  0.15384946131E+03  0.00000000000E+00 0. -1.
</event>
<event>
 6    1  0.3240171E-005  0.1589715E+03  0.7818608E-02  0.1218378E+00
          2   -1    0    0  502    0  0.00000000000E+00  0.00000000000E+00  0.17719419838E+03  0.17719419838E+03  0.00000000000E+00 0. -1.
          1   -1    0    0  501    0 -0.00000000000E+00 -0.00000000000E+00 -0.91431806621E+03  0.91431806621E+03  0.00000000000E+00 0. -1.
          2    1    1    2  501    0 -0.66297199989E+02 -0.17000016029E+03  0.55397061938E+02  0.19069401589E+03  0.00000000000E+00 0. -1.
          1    1    1    2  502    0  0.48209705227E+02  0.12636562055E+03 -0.75233836465E+03  0.76439875762E+03  0.00000000000E+00 0. -1.
         22    1    1    2    0    0  0.45417847307E+01  0.85818315289E+02 -0.29315821002E+02  0.90801037486E+02  0.00000000000E+00 0.  1.
         22    1    1    2    0    0  0.13545710031E+02 -0.42183775547E+02 -0.10866744114E+02  0.45618453583E+02  0.00000000000E+00 0. -1.
</event>
<event>
 6    1  0.3240171E-005  0.4044145E+02  0.7818608E-02  0.1511740E+00
          2   -1    0    0  502    0  0.00000000000E+00  0.00000000000E+00  0.12769279598E+03  0.12769279598E+03  0.00000000000E+00 0.  1.
          1   -1    0    0  501    0 -0.00000000000E+00 -0.00000000000E+00 -0.17603333803E+03  0.17603333803E+03  0.00000000000E+00 0. -1.
          2    1    1    2  501    0 -0.10779964020E+02  0.22812736552E+02 -0.13238659655E+02  0.28493695491E+02  0.00000000000E+00 0.  1.
          1    1    1    2  502    0  0.18097739911E+02 -0.23655707793E+02 -0.12064315755E+03  0.12426541017E+03  0.00000000000E+00 0. -1.
         22    1    1    2    0    0 -0.11580275005E+02 -0.34028572432E+02  0.10487737211E+03  0.11086617920E+03  0.00000000000E+00 0.  1.
         22    1    1    2    0    0  0.42624991145E+01  0.34871543673E+02 -0.19336096948E+02  0.40100849143E+02  0.00000000000E+00 0. -1.
</event>
<event>
 6    1  0.3240171E-005  0.1332732E+03  0.7818608E-02  0.1272895E+00
          2   -1    0    0  502    0  0.00000000000E+00  0.00000000000E+00  0.13037545404E+03  0.13037545404E+03  0.00000000000E+00 0. -1.
          1   -1    0    0  501    0 -0.00000000000E+00 -0.00000000000E+00 -0.32620579157E+03  0.32620579157E+03  0.00000000000E+00 0.  1.
          2    1    1    2  501    0 -0.30481840991E+02  0.23334440169E+02 -0.15620755968E+03  0.16085534007E+03  0.00000000000E+00 0. -1.
          1    1    1    2  502    0  0.94600750095E+02 -0.55106821691E+01 -0.10348925924E+03  0.14031997831E+03  0.00000000000E+00 0.  1.
         22    1    1    2    0    0 -0.14515241440E+02 -0.46456305663E+02  0.81976714898E+02  0.95336574070E+02  0.00000000000E+00 0. -1.
         22    1    1    2    0    0 -0.49603667663E+02  0.28632547663E+02 -0.18110233511E+02  0.60069353160E+02  0.00000000000E+00 0. -1.
</event>
<event>
 6    1  0.3240171E-005  0.2163464E+03  0.7818608E-02  0.1227151E+00
          2   -1    0    0  502    0  0.00000000000E+00  0.00000000000E+00  0.54409583488E+02  0.54409583488E+02  0.00000000000E+00 0.  1.
          1   -1    0    0  501    0 -0.00000000000E+00 -0.00000000000E+00 -0.10699721667E+04  0.10699721667E+04  0.00000000000E+00 0. -1.
          2    1    1    2  501    0 -0.71781953035E+02  0.22181504035E+02 -0.24741922713E+03  0.25857482835E+03  0.00000000000E+00 0.  1.
          1    1    1    2  502    0  0.26291262543E+02  0.52889392328E+02 -0.69087096790E+03  0.69339109642E+03  0.00000000000E+00 0. -1.
         22    1    1    2    0    0  0.49421579927E+02 -0.10318127532E+03 -0.85543330624E+02  0.14285142475E+03  0.00000000000E+00 0.  1.
         22    1    1    2    0    0 -0.39308894352E+01  0.28110378954E+02  0.82709424603E+01  0.29564400651E+02  0.00000000000E+00 0. -1.
</event>
<event>
 6    1  0.3240171E-005  0.9348246E+02  0.7818608E-02  0.1306836E+00
          2   -1    0    0  502    0  0.00000000000E+00  0.00000000000E+00  0.12763607075E+03  0.12763607075E+03  0.00000000000E+00 0. -1.
          1   -1    0    0  501    0 -0.00000000000E+00 -0.00000000000E+00 -0.16562370424E+03  0.16562370424E+03  0.00000000000E+00 0.  1.
          2    1    1    2  501    0 -0.34694891198E+02  0.47617462628E+02  0.21762840833E+02  0.62807479359E+02  0.00000000000E+00 0. -1.
          1    1    1    2  502    0 -0.25982667390E+01  0.24679668208E+02 -0.73396033821E+02  0.77477834208E+02  0.00000000000E+00 0.  1.
         22    1    1    2    0    0 -0.63525484207E+01  0.85858652286E+01  0.52219257486E+02  0.53300307744E+02  0.00000000000E+00 0. -1.
         22    1    1    2    0    0  0.43645706358E+02 -0.80882996064E+02 -0.38573697985E+02  0.99674153681E+02  0.00000000000E+00 0.  1.
</event>
<event>
 6    1  0.3240171E-005  0.2339807E+03  0.7818608E-02  0.1145649E+00
          2   -1    0    0  502    0  0.00000000000E+00  0.00000000000E+00  0.14983150287E+04  0.14983150287E+04  0.00000000000E+00 0.  1.
          1   -1    0    0  501    0 -0.00000000000E+00 -0.00000000000E+00 -0.86165978482E+02  0.86165978482E+02  0.00000000000E+00 0. -1.
          2    1    1    2  501    0  0.18163364195E+03 -0.69433916589E+02  0.41426757492E+03  0.45763464936E+03  0.00000000000E+00 0.  1.
          1    1    1    2  502    0 -0.89043950867E+02  0.18359360889E+03  0.13941407067E+03  0.24712693401E+03  0.00000000000E+00 0. -1.
         22    1    1    2    0    0  0.27041014056E+02 -0.46029097198E+02  0.28515347863E+03  0.29010756731E+03  0.00000000000E+00 0.  1.
         22    1    1    2    0    0 -0.11963070514E+03 -0.68130595102E+02  0.57331392596E+03  0.58961185648E+03  0.00000000000E+00 0.  1.
</event>
<event>
 6    1  0.3240171E-005  0.4274819E+02  0.7818608E-02  0.1497849E+00
          2   -1    0    0  502    0  0.00000000000E+00  0.00000000000E+00  0.40860520248E+02  0.40860520248E+02  0.00000000000E+00 0. -1.
          1   -1    0    0  501    0 -0.00000000000E+00 -0.00000000000E+00 -0.52162878820E+03  0.52162878820E+03  0.00000000000E+00 0. -1.
          2    1    1    2  501    0 -0.18404020819E+02  0.45726787959E+02 -0.36260079502E+03  0.36593576441E+03  0.00000000000E+00 0. -1.
          1    1    1    2  502    0  0.50168463404E+01 -0.33018495006E+02 -0.37410487874E+02  0.50149121255E+02  0.00000000000E+00 0. -1.
         22    1    1    2    0    0  0.28973147805E+02 -0.23336212503E+02  0.21130948597E+02  0.42784799828E+02  0.00000000000E+00 0. -1.
         22    1    1    2    0    0 -0.15585973327E+02  0.10627919549E+02 -0.10188793365E+03  0.10361962296E+03  0.00000000000E+00 0. -1.
</event>
<event>
 6    1  0.3240171E-005  0.2049370E+03  0.7818608E-02  0.1257048E+00
          2   -1    0    0  502    0  0.00000000000E+00  0.00000000000E+00  0.24571459540E+03  0.24571459540E+03  0.00000000000E+00 0. -1.
          1   -1    0    0  501    0 -0.00000000000E+00 -0.00000000000E+00 -0.81917294976E+03  0.81917294976E+03  0.00000000000E+00 0. -1.
          2    1    1    2  501    0  0.21464555511E+01 -0.76107254999E+02  0.12305785951E+03  0.14470714676E+03  0.00000000000E+00 0. -1.
          1    1    1    2  502    0  0.25979751520E+02 -0.30298424338E+01 -0.75846012583E+03  0.75891098945E+03  0.00000000000E+00 0. -1.
         22    1    1    2    0    0 -0.12623711868E+02  0.88732785516E+02 -0.70539227969E+01  0.89903410133E+02  0.00000000000E+00 0.  1.
         22    1    1    2    0    0 -0.15502495203E+02 -0.95956880832E+01  0.68997834753E+02  0.71365998822E+02  0.00000000000E+00 0.  1.
</event>
<event>
 6    1  0.3240171E-005  0.1549693E+03  0.7818608E-02  0.1217289E+00
          2   -1    0    0  502    0  0.00000000000E+00  0.00000000000E+00  0.11285641351E+04  0.11285641351E+04  0.00000000000E+00 0.  1.
          1   -1    0    0  501    0 -0.00000000000E+00 -0.00000000000E+00 -0.92486245285E+02  0.92486245285E+02  0.00000000000E+00 0.  1.
          2    1    1    2  501    0 -0.63861072429E+02  0.14167756341E+03  0.33673494651E+03  0.37086546449E+03  0.00000000000E+00 0.  1.
          1    1    1    2  502    0  0.95615036596E+02 -0.81368445030E+02 -0.10075941378E+02  0.12595468893E+03  0.00000000000E+00 0.  1.
         22    1    1    2    0    0 -0.37220007348E+02  0.34457610197E+02  0.25817880408E+03  0.26311395008E+03  0.00000000000E+00 0. -1.
         22    1    1    2    0    0  0.54660431810E+01 -0.94766728578E+02  0.45124008061E+03  0.46111627690E+03  0.00000000000E+00 0.  1.
</event>
<event>
 6    1  0.3240171E-005  0.4134686E+03  0.7818608E-02  0.1117003E+00
          2   -1    0    0  502    0  0.00000000000E+00  0.00000000000E+00  0.43853181846E+03  0.43853181846E+03  0.00000000000E+00 0. -1.
          1   -1    0    0  501    0 -0.00000000000E+00 -0.00000000000E+00 -0.43067897507E+03  0.43067897507E+03  0.00000000000E+00 0. -1.
          2    1    1    2  501    0 -0.20290415038E+02 -0.71302657003E+02 -0.10242881511E+03  0.12644141728E+03  0.00000000000E+00 0. -1.
          1    1    1    2  502    0 -0.32154286317E+02 -0.32478823735E+02 -0.29728331000E+03  0.30077589419E+03  0.00000000000E+00 0. -1.
         22    1    1    2    0    0  0.23207672098E+01  0.11587714679E+03  0.32041160776E+03  0.34072936107E+03  0.00000000000E+00 0. -1.
         22    1    1    2    0    0  0.50123934145E+02 -0.12095666055E+02  0.87153360739E+02  0.10126412099E+03  0.00000000000E+00 0. -1.
</event>
<event>
 6    1  0.3240171E-005  0.5265757E+03  0.7818608E-02  0.1107736E+00
          2   -1    0    0  502    0  0.00000000000E+00  0.00000000000E+00  0.26856432212E+04  0.26856432212E+04  0.00000000000E+00 0. -1.
          1   -1    0    0  501    0 -0.00000000000E+00 -0.00000000000E+00 -0.11027432592E+03  0.11027432592E+03  0.00000000000E+00 0. -1.
          2    1    1    2  501    0 -0.18302661538E+02 -0.17633660640E+02  0.13571776370E+01  0.25451430963E+02  0.00000000000E+00 0. -1.
          1    1    1    2  502    0  0.37287028509E+03  0.27134821344E+03  0.67232714116E+03  0.81528270384E+03  0.00000000000E+00 0. -1.
         22    1    1    2    0    0 -0.29762962063E+02  0.80264652218E+01  0.68169373346E+02  0.74815249229E+02  0.00000000000E+00 0. -1.
         22    1    1    2    0    0 -0.32480466148E+03 -0.26174101802E+03  0.18335152032E+04  0.18803681631E+04  0.00000000000E+00 0. -1.
</event>
<event>
 6    1  0.3240171E-005  0.1698081E+03  0.7818608E-02  0.1223247E+00
          2   -1    0    0  502    0  0.00000000000E+00  0.00000000000E+00  0.51674968315E+03  0.51674968315E+03  0.00000000000E+00 0. -1.
          1   -1    0    0  501    0 -0.00000000000E+00 -0.00000000000E+00 -0.20555088038E+03  0.20555088038E+03  0.00000000000E+00 0. -1.
          2    1    1    2  501    0  0.44840360689E+01  0.47522971208E+02  0.78558035075E+01  0.48376161698E+02  0.00000000000E+00 0. -1.
          1    1    1    2  502    0 -0.19482626488E+02 -0.57142386655E+01 -0.17563708332E+03  0.17680670320E+03  0.00000000000E+00 0. -1.
         22    1    1    2    0    0 -0.51702057270E+02 -0.41588004346E+02  0.24056302648E+03  0.24954605695E+03  0.00000000000E+00 0. -1.
         22    1    1    2    0    0  0.66700647689E+02 -0.22072819634E+00  0.23841705610E+03  0.24757164168E+03  0.00000000000E+00 0. -1.
</event>
<event>
 6    1  0.3240171E-005  0.1301566E+03  0.7818608E-02  0.1236720E+00
          2   -1    0    0  502    0  0.00000000000E+00  0.00000000000E+00  0.69291857282E+03  0.69291857282E+03  0.00000000000E+00 0. -1.
          1   -1    0    0  501    0 -0.00000000000E+00 -0.00000000000E+00 -0.25893769863E+03  0.25893769863E+03  0.00000000000E+00 0. -1.
          2    1    1    2  501    0 -0.50036688135E+02  0.61076730992E+02  0.68223418105E+01  0.79250120353E+02  0.00000000000E+00 0. -1.
          1    1    1    2  502    0 -0.25913289194E+02 -0.99086698785E+01 -0.21241623431E+03  0.21422029991E+03  0.00000000000E+00 0. -1.
         22    1    1    2    0    0 -0.25293728503E+02 -0.10213939515E+02  0.36858130573E+02  0.45854324238E+02  0.00000000000E+00 0.  1.
         22    1    1    2    0    0  0.10124370583E+03 -0.40954121599E+02  0.60271663612E+03  0.61253152694E+03  0.00000000000E+00 0. -1.
</event>
<event>
 6    1  0.3240171E-005  0.3002324E+03  0.7818608E-02  0.1116857E+00
          2   -1    0    0  502    0  0.00000000000E+00  0.00000000000E+00  0.69371285581E+03  0.69371285581E+03  0.00000000000E+00 0.  1.
          1   -1    0    0  501    0 -0.00000000000E+00 -0.00000000000E+00 -0.39854290241E+03  0.39854290241E+03  0.00000000000E+00 0. -1.
          2    1    1    2  501    0  0.57383381267E+02 -0.30357433432E+03  0.22327077498E+03  0.38118246007E+03  0.00000000000E+00 0.  1.
          1    1    1    2  502    0  0.27195743694E+02  0.19747892361E+03 -0.26141165814E+03  0.32874547716E+03  0.00000000000E+00 0. -1.
         22    1    1    2    0    0 -0.47255024512E+02  0.12321413107E+03  0.17740270065E+03  0.22110286664E+03  0.00000000000E+00 0. -1.
         22    1    1    2    0    0 -0.37324100449E+02 -0.17118720359E+02  0.15590813591E+03  0.16122495434E+03  0.00000000000E+00 0.  1.
</event>
<event>
 6    1  0.3240171E-005  0.1474314E+03  0.7818608E-02  0.1205146E+00
          2   -1    0    0  502    0  0.00000000000E+00  0.00000000000E+00  0.12184889503E+04  0.12184889503E+04  0.00000000000E+00 0. -1.
          1   -1    0    0  501    0 -0.00000000000E+00 -0.00000000000E+00 -0.51683022573E+02  0.51683022573E+02  0.00000000000E+00 0. -1.
          2    1    1    2  501    0  0.98143008591E+02  0.86985998668E+02  0.44701412216E+03  0.46585431146E+03  0.00000000000E+00 0. -1.
          1    1    1    2  502    0 -0.26805052671E+02 -0.15497590013E+02 -0.26494581145E+02  0.40751061029E+02  0.00000000000E+00 0. -1.
         22    1    1    2    0    0 -0.89806305460E+02 -0.94779791793E+02  0.56757308727E+03  0.58239813773E+03  0.00000000000E+00 0. -1.
         22    1    1    2    0    0  0.18468349540E+02  0.23291383139E+02  0.17871329948E+03  0.18116846269E+03  0.00000000000E+00 0. -1.
</event>
<event>
 6    1  0.3240171E-005  0.1981951E+03  0.7818608E-02  0.1252292E+00
          2   -1    0    0  502    0  0.00000000000E+00  0.00000000000E+00  0.85501673111E+03  0.85501673111E+03  0.00000000000E+00 0.  1.
          1   -1    0    0  501    0 -0.00000000000E+00 -0.00000000000E+00 -0.73490852086E+02  0.73490852086E+02  0.00000000000E+00 0.  1.
          2    1    1    2  501    0  0.16402095129E+02  0.16021135960E+02  0.36180515739E+02  0.42833809557E+02  0.00000000000E+00 0.  1.
          1    1    1    2  502    0  0.67191782381E+02 -0.16701326388E+03  0.10108346162E+03  0.20646072785E+03  0.00000000000E+00 0.  1.
         22    1    1    2    0    0 -0.22145351220E+02 -0.41874509064E+00  0.10111398596E+02  0.24348147972E+02  0.00000000000E+00 0.  1.
         22    1    1    2    0    0 -0.61448526290E+02  0.15141087301E+03  0.63415050307E+03  0.65486489782E+03  0.00000000000E+00 0.  1.
</event>
<event>
 6    1  0.3240171E-005  0.2405747E+03  0.7818608E-02  0.1186413E+00
          2   -1    0    0  502    0  0.00000000000E+00  0.00000000000E+00  0.38592289604E+03  0.38592289604E+03  0.00000000000E+00 0. -1.
          1   -1    0    0  501    0 -0.00000000000E+00 -0.00000000000E+00 -0.23391717490E+03  0.23391717490E+03  0.00000000000E+00 0. -1.
          2    1    1    2  501    0 -0.12065623098E+03 -0.81392479469E+02 -0.94838630999E+02  0.17371536408E+03  0.00000000000E+00 0. -1.
          1    1    1    2  502    0  0.17882052389E+03 -0.36371780778E+02  0.15668778140E+03  0.24052182238E+03  0.00000000000E+00 0. -1.
         22    1    1    2    0    0 -0.33221886672E+02  0.36715108744E+02  0.10812204706E+03  0.11892043569E+03  0.00000000000E+00 0. -1.
         22    1    1    2    0    0 -0.24942406236E+02  0.81049151503E+02 -0.17965476325E+02  0.86682448788E+02  0.00000000000E+00 0. -1.
</event>
<event>
 6    1  0.3240171E-005  0.1946100E+03  0.7818608E-02  0.1227752E+00
          2   -1    0    0  502    0  0.00000000000E+00  0.00000000000E+00  0.17188259274E+03  0.17188259274E+03  0.00000000000E+00 0. -1.
          1   -1    0    0  501    0 -0.00000000000E+00 -0.00000000000E+00 -0.81139934586E+03  0.81139934586E+03  0.00000000000E+00 0. -1.
          2    1    1    2  501    0 -0.45782777741E+02  0.90639687506E+02 -0.24659404234E+02  0.10449737751E+03  0.00000000000E+00 0. -1.
          1    1    1    2  502    0  0.55641816690E+02 -0.15358077723E+03 -0.69719515001E+03  0.71607551563E+03  0.00000000000E+00 0. -1.
         22    1    1    2    0    0 -0.16829709182E+01  0.10057628554E+03  0.68875650980E+02  0.12191093840E+03  0.00000000000E+00 0. -1.
         22    1    1    2    0    0 -0.81760680312E+01 -0.37635195817E+02  0.13462150142E+02  0.40798107052E+02  0.00000000000E+00 0.  1.
</event>
<event>
 6    1  0.3240171E-005  0.1233775E+03  0.7818608E-02  0.1285787E+00
          2   -1    0    0  502    0  0.00000000000E+00  0.00000000000E+00  0.18415055951E+02  0.18415055951E+02  0.00000000000E+00 0.  1.
          1   -1    0    0  501    0 -0.00000000000E+00 -0.00000000000E+00 -0.22366117892E+04  0.22366117892E+04  0.00000000000E+00 0.  1.
          2    1    1    2  501    0  0.12602184163E+02 -0.41836038499E+02 -0.25782390871E+03  0.26149997527E+03  0.00000000000E+00 0.  1.
          1    1    1    2  502    0 -0.22796503068E+02  0.10466319273E+03 -0.16360445312E+04  0.16395474292E+04  0.00000000000E+00 0.  1.
         22    1    1    2    0    0  0.45399267134E+02  0.15547113136E+02 -0.65041144595E+02  0.80827944879E+02  0.00000000000E+00 0. -1.
         22    1    1    2    0    0 -0.35204948229E+02 -0.78374267365E+02 -0.25928714869E+03  0.27315149577E+03  0.00000000000E+00 0.  1.
</event>
<event>
 6    1  0.6993743E-005  0.1957560E+03  0.7818608E-02  0.1229315E+00
          2   -1    0    0  502    0  0.00000000000E+00  0.00000000000E+00  0.81115231817E+02  0.81115231817E+02  0.00000000000E+00 0. -1.
          1   -1    0    0  501    0 -0.00000000000E+00 -0.00000000000E+00 -0.10299216188E+04  0.10299216188E+04  0.00000000000E+00 0.  1.
          2    1    1    2  501    0 -0.38064475545E+01  0.22788006151E+02 -0.12598058669E+03  0.12808157748E+03  0.00000000000E+00 0. -1.
          1    1    1    2  502    0 -0.52660877248E+01 -0.31247266229E+02 -0.85295501052E+03  0.85354342204E+03  0.00000000000E+00 0.  1.
         22    1    1    2    0    0  0.44279706127E+02 -0.24560439876E+01  0.64988913906E+02  0.78678354440E+02  0.00000000000E+00 0. -1.
         22    1    1    2    0    0 -0.35207170848E+02  0.10915304065E+02 -0.34859703652E+02  0.50733496634E+02  0.00000000000E+00 0.  1.
</event>
<event>
 6    1  0.3240171E-005  0.8057498E+02  0.7818608E-02  0.1330086E+00
          2   -1    0    0  502    0  0.00000000000E+00  0.00000000000E+00  0.91757588301E+02  0.91757588301E+02  0.00000000000E+00 0.  1.
          1   -1    0    0  501    0 -0.00000000000E+00 -0.00000000000E+00 -0.52994044261E+03  0.52994044261E+03  0.00000000000E+00 0.  1.
          2    1    1    2  501    0 -0.24688886771E+02  0.52428066290E+02 -0.21316444061E+02  0.61746530690E+02  0.00000000000E+00 0.  1.
          1    1    1    2  502    0  0.18303024737E+02 -0.28052438151E+02 -0.43337610267E+03  0.43466859372E+03  0.00000000000E+00 0.  1.
         22    1    1    2    0    0 -0.37080247365E+02  0.29364885173E+02 -0.14578095059E+02  0.49495071285E+02  0.00000000000E+00 0.  1.
         22    1    1    2    0    0  0.43466109399E+02 -0.53740513312E+02  0.31087787477E+02  0.75787835221E+02  0.00000000000E+00 0.  1.
</event>
<event>
 6    1  0.3240171E-005  0.6954237E+02  0.7818608E-02  0.1456761E+00
          2   -1    0    0  502    0  0.00000000000E+00  0.00000000000E+00  0.73121671086E+02  0.73121671086E+02  0.00000000000E+00 0.  1.
          1   -1    0    0  501    0 -0.00000000000E+00 -0.00000000000E+00 -0.42093633724E+03  0.42093633724E+03  0.00000000000E+00 0. -1.
          2    1    1    2  501    0  0.40126529832E+02 -0.62640057888E+01 -0.44470914501E+02  0.60224898517E+02  0.00000000000E+00 0.  1.
          1    1    1    2  502    0 -0.29663358241E+02 -0.32458877271E-01 -0.30978483917E+03  0.31120180343E+03  0.00000000000E+00 0. -1.
         22    1    1    2    0    0  0.54251469281E+01 -0.14743066064E+02  0.60489075070E+02  0.62495747207E+02  0.00000000000E+00 0.  1.
         22    1    1    2    0    0 -0.15888318519E+02  0.21039530730E+02 -0.54047987547E+02  0.60135559169E+02  0.00000000000E+00 0.  1.
</event>
<event>
 6    1  0.3240171E-005  0.1523705E+03  0.7818608E-02  0.1237430E+00
          2   -1    0    0  502    0  0.00000000000E+00  0.00000000000E+00  0.94349857367E+02  0.94349857367E+02  0.00000000000E+00 0.  1.
          1   -1    0    0  501    0 -0.00000000000E+00 -0.00000000000E+00 -0.48170449390E+03  0.48170449390E+03  0.00000000000E+00 0.  1.
          2    1    1    2  501    0 -0.30114951786E+02  0.79506619203E+01 -0.82566515635E+02  0.88245979229E+02  0.00000000000E+00 0.  1.
          1    1    1    2  502    0 -0.33639230064E+02  0.39751705418E+02 -0.33242083672E+03  0.33647497466E+03  0.00000000000E+00 0.  1.
         22    1    1    2    0    0  0.65377081032E+01 -0.81879974987E+02  0.14909504647E+02  0.83482724321E+02  0.00000000000E+00 0.  1.
         22    1    1    2    0    0  0.57216473747E+02  0.34177607649E+02  0.12723211175E+02  0.67850673064E+02  0.00000000000E+00 0.  1.
</event>
<event>
 6    1  0.3240171E-005  0.3958693E+02  0.7818608E-02  0.1572383E+00
          2   -1    0    0  502    0  0.00000000000E+00  0.00000000000E+00  0.66754211194E+02  0.66754211194E+02  0.00000000000E+00 0. -1.
          1   -1    0    0  501    0 -0.00000000000E+00 -0.00000000000E+00 -0.48863364372E+03  0.48863364372E+03  0.00000000000E+00 0. -1.
          2    1    1    2  501    0 -0.23769633900E+02 -0.17164514603E+02 -0.11402464633E+03  0.11773375059E+03  0.00000000000E+00 0. -1.
          1    1    1    2  502    0  0.29722901031E+02  0.17126165872E+02 -0.31069109236E+03  0.31257912803E+03  0.00000000000E+00 0. -1.
         22    1    1    2    0    0 -0.40643017848E+00  0.17891536895E+02  0.61214254207E+02  0.63776619509E+02  0.00000000000E+00 0. -1.
         22    1    1    2    0    0 -0.55468369522E+01 -0.17853188164E+02 -0.58377948046E+02  0.61298356796E+02  0.00000000000E+00 0.  1.
</event>
<event>
 6    1  0.3240171E-005  0.4946600E+02  0.7818608E-02  0.1458685E+00
          2   -1    0    0  502    0  0.00000000000E+00  0.00000000000E+00  0.40207851379E+03  0.40207851379E+03  0.00000000000E+00 0.  1.
          1   -1    0    0  501    0 -0.00000000000E+00 -0.00000000000E+00 -0.29067822354E+02  0.29067822354E+02  0.00000000000E+00 0.  1.
          2    1    1    2  501    0  0.10308883293E+02  0.20283226663E+02  0.27318673488E+01  0.22916052405E+02  0.00000000000E+00 0.  1.
          1    1    1    2  502    0 -0.22228858318E+02 -0.31660685412E+02  0.13820873024E+03  0.14352064052E+03  0.00000000000E+00 0.  1.
         22    1    1    2    0    0 -0.10032078879E+02  0.46250253369E+02  0.24890909449E+02  0.53472291110E+02  0.00000000000E+00 0.  1.
         22    1    1    2    0    0  0.21952053905E+02 -0.34872794621E+02  0.20717918440E+03  0.21123735211E+03  0.00000000000E+00 0.  1.
</event>
<event>
 6    1  0.3520427E-005  0.7967537E+02  0.7818608E-02  0.1409088E+00
          2   -1    0    0  502    0  0.00000000000E+00  0.00000000000E+00  0.21090664974E+03  0.21090664974E+03  0.00000000000E+00 0. -1.
          1   -1    0    0  501    0 -0.00000000000E+00 -0.00000000000E+00 -0.43291185350E+03  0.43291185350E+03  0.00000000000E+00 0. -1.
          2    1    1    2  501    0 -0.87763583947E+01 -0.34533762353E+02 -0.38957351216E+03  0.39119959941E+03  0.00000000000E+00 0. -1.
          1    1    1    2  502    0  0.28957673730E+02  0.39707668225E+02  0.95599260005E+02  0.10749169408E+03  0.00000000000E+00 0. -1.
         22    1    1    2    0    0 -0.15605709366E+02  0.14729024036E+02  0.10452010706E+03  0.10670021131E+03  0.00000000000E+00 0. -1.
         22    1    1    2    0    0 -0.45756059695E+01 -0.19902929908E+02 -0.32551058659E+02  0.38426998435E+02  0.00000000000E+00 0. -1.
</event>
<event>
 6    1  0.3240171E-005  0.1164083E+03  0.7818608E-02  0.1273296E+00
          2   -1    0    0  502    0  0.00000000000E+00  0.00000000000E+00  0.42619764092E+02  0.42619764092E+02  0.00000000000E+00 0. -1.
          1   -1    0    0  501    0 -0.00000000000E+00 -0.00000000000E+00 -0.78344892820E+03  0.78344892820E+03  0.00000000000E+00 0.  1.
          2    1    1    2  501    0  0.38718312430E+01  0.30764640345E+02 -0.28197075261E+02  0.41910967848E+02  0.00000000000E+00 0. -1.
          1    1    1    2  502    0  0.37611381035E+02 -0.11549008554E+03 -0.52576457221E+03  0.53961186165E+03  0.00000000000E+00 0.  1.
         22    1    1    2    0    0 -0.71200625006E+02  0.13541665224E+02 -0.52086226077E+02  0.89251782308E+02  0.00000000000E+00 0. -1.
         22    1    1    2    0    0  0.29717412727E+02  0.71183779967E+02 -0.13478129057E+03  0.15529408049E+03  0.00000000000E+00 0. -1.
</event>
<event>
 6    1  0.3240171E-005  0.1206720E+03  0.7818608E-02  0.1243780E+00
          2   -1    0    0  502    0  0.00000000000E+00  0.00000000000E+00  0.41382545193E+03  0.41382545193E+03  0.00000000000E+00 0.  1.
          1   -1    0    0  501    0 -0.00000000000E+00 -0.00000000000E+00 -0.16409249530E+03  0.16409249530E+03  0.00000000000E+00 0.  1.
          2    1    1    2  501    0  0.10386557744E+03  0.26472447776E+02  0.28381912497E+03  0.30338448274E+03  0.00000000000E+00 0.  1.
          1    1    1    2  502    0 -0.16265945157E+02 -0.27410121467E+02 -0.10385238042E+03  0.10863338644E+03  0.00000000000E+00 0.  1.
         22    1    1    2    0    0 -0.10231869659E+03  0.81209454370E+01  0.90785676933E+01  0.10304118506E+03  0.00000000000E+00 0. -1.
         22    1    1    2    0    0  0.14719064303E+02 -0.71832717455E+01  0.60687644381E+02  0.62858892986E+02  0.00000000000E+00 0. -1.
</event>
<event>
 6    1  0.3240171E-005  0.1481434E+03  0.7818608E-02  0.1277574E+00
          2   -1    0    0  502    0  0.00000000000E+00  0.00000000000E+00  0.38595113732E+02  0.38595113732E+02  0.00000000000E+00 0.  1.
          1   -1    0    0  501    0 -0.00000000000E+00 -0.00000000000E+00 -0.81784264017E+03  0.81784264017E+03  0.00000000000E+00 0. -1.
          2    1    1    2  501    0  0.19298802651E+02 -0.11754264740E+02 -0.14494352017E+03  0.14669434400E+03  0.00000000000E+00 0.  1.
          1    1    1    2  502    0 -0.76149714707E+02 -0.49872079375E+02 -0.49829389067E+03  0.50654003280E+03  0.00000000000E+00 0. -1.
         22    1    1    2    0    0 -0.25975359992E+02 -0.19358677288E+02 -0.15047250312E+02  0.35719706816E+02  0.00000000000E+00 0.  1.
         22    1    1    2    0    0  0.82826272048E+02  0.80985021403E+02 -0.12096286529E+03  0.16748367028E+03  0.00000000000E+00 0.  1.
</event>
<event>
 6    1  0.3240171E-005  0.1577038E+03  0.7818608E-02  0.1278264E+00
          2   -1    0    0  502    0  0.00000000000E+00  0.00000000000E+00  0.47479034235E+02  0.47479034235E+02  0.00000000000E+00 0. -1.
          1   -1    0    0  501    0 -0.00000000000E+00 -0.00000000000E+00 -0.77357597430E+03  0.77357597430E+03  0.00000000000E+00 0. -1.
          2    1    1    2  501    0 -0.41418169426E+02 -0.83970553468E+02 -0.22596024049E+03  0.24459057400E+03  0.00000000000E+00 0. -1.
          1    1    1    2  502    0  0.10567966831E+03  0.10400779523E+03 -0.25384430506E+03  0.29397745658E+03  0.00000000000E+00 0. -1.
         22    1    1    2    0    0 -0.17390928954E+02  0.19998628181E+02  0.20757154799E+01  0.26583794570E+02  0.00000000000E+00 0. -1.
         22    1    1    2    0    0 -0.46870569930E+02 -0.40035869938E+02 -0.24836810999E+03  0.25590318339E+03  0.00000000000E+00 0. -1.
</event>
<event>
 6    1  0.3240171E-005  0.1992099E+03  0.7818608E-02  0.1259487E+00
          2   -1    0    0  502    0  0.00000000000E+00  0.00000000000E+00  0.18277554869E+03  0.18277554869E+03  0.00000000000E+00 0.  1.
          1   -1    0    0  501    0 -0.00000000000E+00 -0.00000000000E+00 -0.26127714890E+04  0.26127714890E+04  0.00000000000E+00 0.  1.
          2    1    1    2  501    0 -0.24150103117E+02 -0.69738680905E+02 -0.12275402195E+02  0.74815750975E+02  0.00000000000E+00 0.  1.
          1    1    1    2  502    0  0.23609057125E+02  0.19303123126E+03 -0.25133868946E+04  0.25208990709E+04  0.00000000000E+00 0.  1.
         22    1    1    2    0    0 -0.12607120169E+02 -0.14105132493E+02  0.87534832018E+02  0.89555798572E+02  0.00000000000E+00 0.  1.
         22    1    1    2    0    0  0.13148166160E+02 -0.10918741786E+03  0.81315245235E+01  0.11027641717E+03  0.00000000000E+00 0.  1.
</event>
<event>
 6    1  0.3240171E-005  0.4981830E+02  0.7818608E-02  0.1465587E+00
          2   -1    0    0  502    0  0.00000000000E+00  0.00000000000E+00  0.15905146706E+03  0.15905146706E+03  0.00000000000E+00 0.  1.
          1   -1    0    0  501    0 -0.00000000000E+00 -0.00000000000E+00 -0.83633989069E+03  0.83633989069E+03  0.00000000000E+00 0. -1.
          2    1    1    2  501    0  0.22704332356E+02 -0.12486845315E+02 -0.11032354273E+03  0.11332560212E+03  0.00000000000E+00 0.  1.
          1    1    1    2  502    0 -0.54299718634E+01  0.45796356253E+02 -0.69645015961E+03  0.69797536895E+03  0.00000000000E+00 0. -1.
         22    1    1    2    0    0  0.12971464254E+02 -0.10977733959E+02 -0.22119447893E+02  0.27893359477E+02  0.00000000000E+00 0.  1.
         22    1    1    2    0    0 -0.30245824746E+02 -0.22331776978E+02  0.15160472661E+03  0.15619702720E+03  0.00000000000E+00 0.  1.
</event>
<event>
 6    1  0.3240171E-005  0.6868201E+02  0.7818608E-02  0.1387397E+00
          2   -1    0    0  502    0  0.00000000000E+00  0.00000000000E+00  0.13228290433E+02  0.13228290433E+02  0.00000000000E+00 0. -1.
          1   -1    0    0  501    0 -0.00000000000E+00 -0.00000000000E+00 -0.12074253648E+04  0.12074253648E+04  0.00000000000E+00 0.  1.
          2    1    1    2  501    0 -0.21099052354E+02  0.20420728821E+02 -0.20266653876E+03  0.20478257276E+03  0.00000000000E+00 0. -1.
          1    1    1    2  502    0  0.42317021845E+02 -0.31929443577E+02 -0.65363805925E+03  0.65578421162E+03  0.00000000000E+00 0.  1.
         22    1    1    2    0    0 -0.63702425246E+02  0.32242447079E+02 -0.25342479895E+03  0.26329015002E+03  0.00000000000E+00 0. -1.
         22    1    1    2    0    0  0.42484455755E+02 -0.20733732322E+02 -0.84467677425E+02  0.96796720845E+02  0.00000000000E+00 0. -1.
</event>
<event>
 6    1  0.3240171E-005  0.5210140E+02  0.7818608E-02  0.1436329E+00
          2   -1    0    0  502    0  0.00000000000E+00  0.00000000000E+00  0.30354069785E+03  0.30354069785E+03  0.00000000000E+00 0.  1.
          1   -1    0    0  501    0 -0.00000000000E+00 -0.00000000000E+00 -0.88905208645E+03  0.88905208645E+03  0.00000000000E+00 0. -1.
          2    1    1    2  501    0 -0.35299899771E+02 -0.17558532961E+02  0.21252999391E+03  0.21615592362E+03  0.00000000000E+00 0.  1.
          1    1    1    2  502    0 -0.24013441320E+02  0.10207201228E+02 -0.83527288873E+03  0.83568034018E+03  0.00000000000E+00 0. -1.
         22    1    1    2    0    0  0.65339824854E+02  0.17799028586E+02 -0.28830663788E+02  0.73602345785E+02  0.00000000000E+00 0. -1.
         22    1    1    2    0    0 -0.60264837629E+01 -0.10447696853E+02  0.66062170005E+02  0.67154174716E+02  0.00000000000E+00 0.  1.
</event>
<event>
 6    1  0.3240171E-005  0.1256911E+03  0.7818608E-02  0.1237874E+00
          2   -1    0    0  502    0  0.00000000000E+00  0.00000000000E+00  0.14720969416E+03  0.14720969416E+03  0.00000000000E+00 0.  1.
          1   -1    0    0  501    0 -0.00000000000E+00 -0.00000000000E+00 -0.44651731925E+03  0.44651731925E+03  0.00000000000E+00 0.  1.
          2    1    1    2  501    0  0.12097412467E+02 -0.89552852971E+02  0.30483094101E+02  0.95369176832E+02  0.00000000000E+00 0.  1.
          1    1    1    2  502    0  0.25153931019E+02 -0.10871754898E+02 -0.33292806978E+03  0.33405391024E+03  0.00000000000E+00 0.  1.
         22    1    1    2    0    0 -0.61993566297E+02  0.11374824719E+03 -0.15670581168E+02  0.13048920689E+03  0.00000000000E+00 0.  1.
         22    1    1    2    0    0  0.24742222810E+02 -0.13323639325E+02  0.18807931753E+02  0.33814719447E+02  0.00000000000E+00 0. -1.
</event>
<event>
 6    1  0.3240171E-005  0.1412302E+03  0.7818608E-02  0.1319273E+00
          2   -1    0    0  502    0  0.00000000000E+00  0.00000000000E+00  0.14198089435E+03  0.14198089435E+03  0.00000000000E+00 0. -1.
          1   -1    0    0  501    0 -0.00000000000E+00 -0.00000000000E+00 -0.59906464906E+03  0.59906464906E+03  0.00000000000E+00 0. -1.
          2    1    1    2  501    0 -0.50819272738E+02 -0.63589130380E+02 -0.48526909086E+03  0.49204904890E+03  0.00000000000E+00 0. -1.
          1    1    1    2  502    0  0.67601899934E+02  0.61079131387E+02 -0.48755442574E+02  0.10333329737E+03  0.00000000000E+00 0. -1.
         22    1    1    2    0    0 -0.27841713485E+02 -0.10789667862E+02 -0.27022106894E+02  0.40271232951E+02  0.00000000000E+00 0. -1.
         22    1    1    2    0    0  0.11059086289E+02  0.13299666855E+02  0.10396288561E+03  0.10539196418E+03  0.00000000000E+00 0. -1.
</event>
<event>
 6    1  0.3240171E-005  0.1293437E+03  0.7818608E-02  0.1285241E+00
          2   -1    0    0  502    0  0.00000000000E+00  0.00000000000E+00  0.93500511735E+02  0.93500511735E+02  0.00000000000E+00 0. -1.
          1   -1    0    0  501    0 -0.00000000000E+00 -0.00000000000E+00 -0.10878231011E+04  0.10878231011E+04  0.00000000000E+00 0. -1.
          2    1    1    2  501    0  0.28893862754E+01 -0.79623277383E+02  0.14122379814E+02  0.80917590584E+02  0.00000000000E+00 0. -1.
          1    1    1    2  502    0  0.12548294834E+02  0.11256787496E+03 -0.95224231423E+03  0.95895485357E+03  0.00000000000E+00 0. -1.
         22    1    1    2    0    0 -0.49657713535E+02 -0.57433131343E+02 -0.63145144808E+01  0.76186128544E+02  0.00000000000E+00 0. -1.
         22    1    1    2    0    0  0.34220032426E+02  0.24488533766E+02 -0.49888140484E+02  0.65265040153E+02  0.00000000000E+00 0.  1.
</event>
<event>
 6    1  0.3240171E-005  0.1028635E+03  0.7818608E-02  0.1291424E+00
          2   -1    0    0  502    0  0.00000000000E+00  0.00000000000E+00  0.16974242594E+03  0.16974242594E+03  0.00000000000E+00 0. -1.
          1   -1    0    0  501    0 -0.00000000000E+00 -0.00000000000E+00 -0.11167285559E+03  0.11167285559E+03  0.00000000000E+00 0. -1.
          2    1    1    2  501    0  0.19961490642E+02  0.10132465681E+02 -0.35468710192E+02  0.41942310047E+02  0.00000000000E+00 0. -1.
          1    1    1    2  502    0  0.34320965146E+02  0.24251692612E+02 -0.31755903549E+02  0.52673623886E+02  0.00000000000E+00 0. -1.
         22    1    1    2    0    0  0.25939911514E+02 -0.40247930861E+02  0.14779967285E+02  0.50112098149E+02  0.00000000000E+00 0.  1.
         22    1    1    2    0    0 -0.80222367302E+02  0.58637725676E+01  0.11051421681E+03  0.13668724944E+03  0.00000000000E+00 0. -1.
</event>
<event>
 6    1  0.3240171E-005  0.1943381E+03  0.7818608E-02  0.1201894E+00
          2   -1    0    0  502    0  0.00000000000E+00  0.00000000000E+00  0.49004044562E+03  0.49004044562E+03  0.00000000000E+00 0. -1.
          1   -1    0    0  501    0 -0.00000000000E+00 -0.00000000000E+00 -0.41106687274E+03  0.41106687274E+03  0.00000000000E+00 0.  1.
          2    1    1    2  501    0  0.30376777820E+01  0.67985367409E+02  0.27234027289E+01  0.68107669101E+02  0.00000000000E+00 0. -1.
          1    1    1    2  502    0  0.70669454314E+02 -0.13134637792E+03 -0.34808118032E+03  0.37869057402E+03  0.00000000000E+00 0.  1.
         22    1    1    2    0    0 -0.18704525606E+01  0.66857167143E+02  0.32418537459E+03  0.33101289475E+03  0.00000000000E+00 0. -1.
         22    1    1    2    0    0 -0.71836679536E+02 -0.34961566314E+01  0.10014597588E+03  0.12329618049E+03  0.00000000000E+00 0. -1.
</event>
<event>
 6    1  0.3240171E-005  0.9360783E+02  0.7818608E-02  0.1308188E+00
          2   -1    0    0  502    0  0.00000000000E+00  0.00000000000E+00  0.11562401338E+03  0.11562401338E+03  0.00000000000E+00 0.  1.
          1   -1    0    0  501    0 -0.00000000000E+00 -0.00000000000E+00 -0.20468958938E+03  0.20468958938E+03  0.00000000000E+00 0. -1.
          2    1    1    2  501    0  0.62170405283E+02  0.41806039746E+01  0.25791820659E+01  0.62364163770E+02  0.00000000000E+00 0.  1.
          1    1    1    2  502    0 -0.16210196823E+02  0.26493647523E+02 -0.11752971546E+03  0.12156445968E+03  0.00000000000E+00 0. -1.
         22    1    1    2    0    0 -0.59240548276E+02 -0.42186991440E+02  0.62420937653E+02  0.95841318148E+02  0.00000000000E+00 0.  1.
         22    1    1    2    0    0  0.13280339817E+02  0.11512739943E+02 -0.36535980264E+02  0.40543661163E+02  0.00000000000E+00 0. -1.
</event>
<event>
 6    1  0.3240171E-005  0.1647665E+03  0.7818608E-02  0.1301129E+00
          2   -1    0    0  502    0  0.00000000000E+00  0.00000000000E+00  0.18386372788E+03  0.18386372788E+03  0.00000000000E+00 0. -1.
          1   -1    0    0  501    0 -0.00000000000E+00 -0.00000000000E+00 -0.14155235760E+04  0.14155235760E+04  0.00000000000E+00 0.  1.
          2    1    1    2  501    0  0.14980011037E+02 -0.60692945221E+02  0.44617712106E+02  0.76803480154E+02  0.00000000000E+00 0. -1.
          1    1    1    2  502    0  0.42881004856E+02  0.13206484600E+03 -0.13478399293E+04  0.13549732024E+04  0.00000000000E+00 0.  1.
         22    1    1    2    0    0 -0.70707733889E+02 -0.79382337392E+02  0.12971389160E+02  0.10709526627E+03  0.00000000000E+00 0. -1.
         22    1    1    2    0    0  0.12846717996E+02  0.80104366143E+01  0.58590979975E+02  0.60515355014E+02  0.00000000000E+00 0. -1.
</event>
<event>
 6    1  0.3240171E-005  0.7713564E+02  0.7818608E-02  0.1339656E+00
          2   -1    0    0  502    0  0.00000000000E+00  0.00000000000E+00  0.24043755997E+03  0.24043755997E+03  0.00000000000E+00 0. -1.
          1   -1    0    0  501    0 -0.00000000000E+00 -0.00000000000E+00 -0.51596028228E+03  0.51596028228E+03  0.00000000000E+00 0. -1.
          2    1    1    2  501    0  0.30706116209E+02  0.13286408288E+02  0.26403099886E+02  0.42620627652E+02  0.00000000000E+00 0. -1.
          1    1    1    2  502    0 -0.29345344717E+01 -0.26744086988E+02 -0.48845765948E+03  0.48919806090E+03  0.00000000000E+00 0. -1.
         22    1    1    2    0    0  0.44625072690E+02 -0.61633082105E+01  0.41272648771E+02  0.61096767650E+02  0.00000000000E+00 0. -1.
         22    1    1    2    0    0 -0.72396654428E+02  0.19620986911E+02  0.14525918852E+03  0.16348238605E+03  0.00000000000E+00 0. -1.
</event>
<event>
 6    1  0.3240171E-005  0.4631082E+03  0.7818608E-02  0.1054418E+00
          2   -1    0    0  502    0  0.00000000000E+00  0.00000000000E+00  0.32870257899E+03  0.32870257899E+03  0.00000000000E+00 0. -1.
          1   -1    0    0  501    0 -0.00000000000E+00 -0.00000000000E+00 -0.10896246831E+04  0.10896246831E+04  0.00000000000E+00 0. -1.
          2    1    1    2  501    0 -0.99001567435E+02  0.34920585486E+03 -0.53160611771E+03  0.64370109819E+03  0.00000000000E+00 0. -1.
          1    1    1    2  502    0  0.35756181144E+03 -0.24935620632E+03 -0.14425117516E+03  0.45917030410E+03  0.00000000000E+00 0. -1.
         22    1    1    2    0    0 -0.16900819802E+03 -0.87173020370E+02  0.16281479047E+01  0.19017244107E+03  0.00000000000E+00 0. -1.
         22    1    1    2    0    0 -0.89552045989E+02 -0.12676628169E+02 -0.86692959090E+02  0.12528341869E+03  0.00000000000E+00 0. -1.
</event>
<event>
 6    1  0.3240171E-005  0.1171790E+03  0.7818608E-02  0.1312345E+00
          2   -1    0    0  502    0  0.00000000000E+00  0.00000000000E+00  0.67513551177E+02  0.67513551177E+02  0.00000000000E+00 0.  1.
          1   -1    0    0  501    0 -0.00000000000E+00 -0.00000000000E+00 -0.32200248895E+03  0.32200248895E+03  0.00000000000E+00 0.  1.
          2    1    1    2  501    0 -0.36119122314E+01 -0.38338121762E+02 -0.44962285378E+02  0.59198518534E+02  0.00000000000E+00 0.  1.
          1    1    1    2  502    0  0.52347107088E+02  0.77702228671E+02 -0.14551899525E+03  0.17307118171E+03  0.00000000000E+00 0.  1.
         22    1    1    2    0    0  0.34259644040E+02  0.16899801685E+01  0.13133209694E+02  0.36729558119E+02  0.00000000000E+00 0.  1.
         22    1    1    2    0    0 -0.82994838897E+02 -0.41054087078E+02 -0.77140866841E+02  0.12051678176E+03  0.00000000000E+00 0.  1.
</event>
<event>
 6    1  0.3240171E-005  0.1274422E+03  0.7818608E-02  0.1241070E+00
          2   -1    0    0  502    0  0.00000000000E+00  0.00000000000E+00  0.77362952578E+03  0.77362952578E+03  0.00000000000E+00 0. -1.
          1   -1    0    0  501    0 -0.00000000000E+00 -0.00000000000E+00 -0.56281902376E+03  0.56281902376E+03  0.00000000000E+00 0. -1.
          2    1    1    2  501    0 -0.60938011617E+02  0.31472029273E+02  0.65897731633E+02  0.95112780007E+02  0.00000000000E+00 0. -1.
          1    1    1    2  502    0  0.46231385986E+02  0.43346524016E+02 -0.53834710852E+03  0.54206445323E+03  0.00000000000E+00 0. -1.
         22    1    1    2    0    0  0.21458537618E+02 -0.10974742407E+03  0.55590818593E+03  0.56704398164E+03  0.00000000000E+00 0. -1.
         22    1    1    2    0    0 -0.67519119872E+01  0.34928870778E+02  0.12735169298E+03  0.13222733467E+03  0.00000000000E+00 0.  1.
</event>
<event>
 6    1  0.3240171E-005  0.1412975E+03  0.7818608E-02  0.1305800E+00
          2   -1    0    0  502    0  0.00000000000E+00  0.00000000000E+00  0.33112401795E+03  0.33112401795E+03  0.00000000000E+00 0. -1.
          1   -1    0    0  501    0 -0.00000000000E+00 -0.00000000000E+00 -0.93093855335E+02  0.93093855335E+02  0.00000000000E+00 0. -1.
          2    1    1    2  501    0  0.12123394009E+01  0.63636441166E+02 -0.45656508255E+01  0.63811531705E+02  0.00000000000E+00 0. -1.
          1    1    1    2  502    0  0.27824126261E+02 -0.11780811128E+03  0.16336842291E+03  0.20332775189E+03  0.00000000000E+00 0. -1.
         22    1    1    2    0    0  0.70986871371E+01 -0.20860717215E+02  0.69884070480E+02  0.73275809027E+02  0.00000000000E+00 0.  1.
         22    1    1    2    0    0 -0.36135152799E+02  0.75032387329E+02  0.93433200445E+01  0.83802780655E+02  0.00000000000E+00 0. -1.
</event>
<event>
 6    1  0.3240171E-005  0.1229968E+03  0.7818608E-02  0.1281814E+00
          2   -1    0    0  502    0  0.00000000000E+00  0.00000000000E+00  0.57931780022E+03  0.57931780022E+03  0.00000000000E+00 0.  1.
          1   -1    0    0  501    0 -0.00000000000E+00 -0.00000000000E+00 -0.58807795121E+02  0.58807795121E+02  0.00000000000E+00 0. -1.
          2    1    1    2  501    0  0.18304857349E+02 -0.54796494649E+02  0.22249943507E+03  0.22987762448E+03  0.00000000000E+00 0.  1.
          1    1    1    2  502    0 -0.14633110789E+02  0.92902088719E+02  0.13504025182E+02  0.95012024059E+02  0.00000000000E+00 0. -1.
         22    1    1    2    0    0  0.48048975074E+02 -0.30940117045E+02  0.60498618524E+02  0.83223059855E+02  0.00000000000E+00 0. -1.
         22    1    1    2    0    0 -0.51720721634E+02 -0.71654770257E+01  0.22400792632E+03  0.23001288695E+03  0.00000000000E+00 0.  1.
</event>
<event>
 6    1  0.3240171E-005  0.1462025E+03  0.7818608E-02  0.1226987E+00
          2   -1    0    0  502    0  0.00000000000E+00  0.00000000000E+00  0.30395825273E+03  0.30395825273E+03  0.00000000000E+00 0. -1.
          1   -1    0    0  501    0 -0.00000000000E+00 -0.00000000000E+00 -0.17724627892E+03  0.17724627892E+03  0.00000000000E+00 0. -1.
          2    1    1    2  501    0  0.72327589218E+02 -0.11948286983E+03 -0.59477646015E+02  0.15180588500E+03  0.00000000000E+00 0. -1.
          1    1    1    2  502    0 -0.10748704038E+03  0.59257379779E+02  0.64039638355E+02  0.13844123732E+03  0.00000000000E+00 0. -1.
         22    1    1    2    0    0 -0.73219345079E-01 -0.25069233917E+02 -0.12267244702E+02  0.27909803705E+02  0.00000000000E+00 0. -1.
         22    1    1    2    0    0  0.35232670512E+02  0.85294723966E+02  0.13441722617E+03  0.16304760563E+03  0.00000000000E+00 0. -1.
</event>
<event>
 6    1  0.3240171E-005  0.2204355E+03  0.7818608E-02  0.1142343E+00
          2   -1    0    0  502    0  0.00000000000E+00  0.00000000000E+00  0.10752277586E+04  0.10752277586E+04  0.00000000000E+00 0. -1.
          1   -1    0    0  501    0 -0.00000000000E+00 -0.00000000000E+00 -0.13334962047E+03  0.13334962047E+03  0.00000000000E+00 0.  1.
          2    1    1    2  501    0  0.33198590855E+02  0.16517581225E+03  0.67533304243E+03  0.69603154640E+03  0.00000000000E+00 0. -1.
          1    1    1    2  502    0 -0.25501722160E+02  0.24069552542E+02 -0.86329650636E+02  0.93179878577E+02  0.00000000000E+00 0.  1.
         22    1    1    2    0    0  0.37689748259E+02 -0.66079110380E+01  0.65341280527E+02  0.75720965083E+02  0.00000000000E+00 0.  1.
         22    1    1    2    0    0 -0.45386616955E+02 -0.18263745376E+03  0.28753346578E+03  0.34364498899E+03  0.00000000000E+00 0. -1.
</event>
<event>
 6    1  0.3240171E-005  0.8337501E+02  0.7818608E-02  0.1446684E+00
          2   -1    0    0  502    0  0.00000000000E+00  0.00000000000E+00  0.90286986255E+02  0.90286986255E+02  0.00000000000E+00 0.  1.
          1   -1    0    0  501    0 -0.00000000000E+00 -0.00000000000E+00 -0.14828268625E+03  0.14828268625E+03  0.00000000000E+00 0. -1.
          2    1    1    2  501    0  0.18758913865E+02  0.29983149693E+02 -0.25480311765E+02  0.43590508170E+02  0.00000000000E+00 0.  1.
          1    1    1    2  502    0 -0.55210692132E+02 -0.78293800776E+01 -0.34437539866E+02  0.65539788450E+02  0.00000000000E+00 0. -1.
         22    1    1    2    0    0  0.42482463013E+01  0.96801681352E+01  0.57093931853E+02  0.58064363479E+02  0.00000000000E+00 0. -1.
         22    1    1    2    0    0  0.32203531965E+02 -0.31833937751E+02 -0.55171780220E+02  0.71375012409E+02  0.00000000000E+00 0. -1.
</event>
<event>
 6    1  0.3240171E-005  0.1197830E+03  0.7818608E-02  0.1254604E+00
          2   -1    0    0  502    0  0.00000000000E+00  0.00000000000E+00  0.24507965552E+03  0.24507965552E+03  0.00000000000E+00 0. -1.
          1   -1    0    0  501    0 -0.00000000000E+00 -0.00000000000E+00 -0.12336470151E+03  0.12336470151E+03  0.00000000000E+00 0. -1.
          2    1    1    2  501    0 -0.37711565676E+01 -0.81325580604E+02  0.34190117003E+02  0.88300825495E+02  0.00000000000E+00 0. -1.
          1    1    1    2  502    0 -0.62667361614E+02  0.10649347514E+03  0.46431766829E+02  0.13199987662E+03  0.00000000000E+00 0. -1.
         22    1    1    2    0    0 -0.29239917370E+02 -0.19742275834E+02  0.38578676421E+02  0.52278528071E+02  0.00000000000E+00 0.  1.
         22    1    1    2    0    0  0.95678435551E+02 -0.54256186980E+01  0.25143937495E+01  0.95865126838E+02  0.00000000000E+00 0. -1.
</event>
<event>
 6    1  0.3240171E-005  0.1552914E+03  0.7818608E-02  0.1280066E+00
          2   -1    0    0  502    0  0.00000000000E+00  0.00000000000E+00  0.49694148328E+02  0.49694148328E+02  0.00000000000E+00 0. -1.
          1   -1    0    0  501    0 -0.00000000000E+00 -0.00000000000E+00 -0.61779173163E+03  0.61779173163E+03  0.00000000000E+00 0. -1.
          2    1    1    2  501    0  0.45892825101E+02 -0.18013676628E+02 -0.67121369787E+02  0.83282184311E+02  0.00000000000E+00 0. -1.
          1    1    1    2  502    0 -0.74082497574E+02 -0.75373622155E+02 -0.35776050060E+03  0.37304420000E+03  0.00000000000E+00 0. -1.
         22    1    1    2    0    0  0.47470792062E+02  0.11203021894E+03 -0.13774382356E+03  0.18378685205E+03  0.00000000000E+00 0. -1.
         22    1    1    2    0    0 -0.19281119589E+02 -0.18642920160E+02 -0.54718893518E+01  0.27372643603E+02  0.00000000000E+00 0. -1.
</event>
<event>
 6    1  0.3240171E-005  0.7659964E+02  0.7818608E-02  0.1414265E+00
          2   -1    0    0  502    0  0.00000000000E+00  0.00000000000E+00  0.39233266947E+02  0.39233266947E+02  0.00000000000E+00 0.  1.
          1   -1    0    0  501    0 -0.00000000000E+00 -0.00000000000E+00 -0.97429285987E+03  0.97429285987E+03  0.00000000000E+00 0.  1.
          2    1    1    2  501    0 -0.28554923707E+02 -0.87640348114E+01 -0.36103393459E+02  0.46857731415E+02  0.00000000000E+00 0.  1.
          1    1    1    2  502    0  0.33811146800E+02 -0.20287997688E+02 -0.80777453635E+03  0.80873635882E+03  0.00000000000E+00 0.  1.
         22    1    1    2    0    0 -0.16545296479E+01  0.51038142027E+02 -0.11468951385E+03  0.12554407193E+03  0.00000000000E+00 0. -1.
         22    1    1    2    0    0 -0.36016934451E+01 -0.21986109528E+02  0.23507850739E+02  0.32387964650E+02  0.00000000000E+00 0.  1.
</event>
<event>
 6    1  0.3240171E-005  0.9427606E+02  0.7818608E-02  0.1295534E+00
          2   -1    0    0  502    0  0.00000000000E+00  0.00000000000E+00  0.10477369353E+03  0.10477369353E+03  0.00000000000E+00 0. -1.
          1   -1    0    0  501    0 -0.00000000000E+00 -0.00000000000E+00 -0.24662072976E+03  0.24662072976E+03  0.00000000000E+00 0. -1.
          2    1    1    2  501    0 -0.48430434257E+02 -0.46204600682E+02 -0.33818009618E+01  0.67020956903E+02  0.00000000000E+00 0. -1.
          1    1    1    2  502    0  0.84931630845E+01  0.60085195409E+02 -0.13647497203E+03  0.14935790076E+03  0.00000000000E+00 0. -1.
         22    1    1    2    0    0  0.84042815441E+02  0.14103751963E+01  0.14915226375E+02  0.85367722022E+02  0.00000000000E+00 0. -1.
         22    1    1    2    0    0 -0.44105544268E+02 -0.15290969923E+02 -0.16905489606E+02  0.49647843611E+02  0.00000000000E+00 0. -1.
</event>
<event>
 6    1  0.3240171E-005  0.4593365E+03  0.7818608E-02  0.1118262E+00
          2   -1    0    0  502    0  0.00000000000E+00  0.00000000000E+00  0.37843383940E+03  0.37843383940E+03  0.00000000000E+00 0. -1.
          1   -1    0    0  501    0 -0.00000000000E+00 -0.00000000000E+00 -0.58059727793E+03  0.58059727793E+03  0.00000000000E+00 0. -1.
          2    1    1    2  501    0  0.22529086149E+03  0.35217761152E+03 -0.12189422491E+03  0.43548047534E+03  0.00000000000E+00 0. -1.
          1    1    1    2  502    0 -0.19734492207E+03 -0.32939537397E+03 -0.64616314225E+02  0.38938618199E+03  0.00000000000E+00 0. -1.
         22    1    1    2    0    0 -0.29258316230E+02  0.12765220618E+02 -0.65536182642E+02  0.72897127250E+02  0.00000000000E+00 0. -1.
         22    1    1    2    0    0  0.13123768112E+01 -0.35547458170E+02  0.49883283248E+02  0.61267332755E+02  0.00000000000E+00 0.  1.
</event>
<event>
 6    1  0.3240171E-005  0.1951641E+03  0.7818608E-02  0.1263662E+00
          2   -1    0    0  502    0  0.00000000000E+00  0.00000000000E+00  0.12522728350E+03  0.12522728350E+03  0.00000000000E+00 0. -1.
          1   -1    0    0  501    0 -0.00000000000E+00 -0.00000000000E+00 -0.14939917289E+04  0.14939917289E+04  0.00000000000E+00 0. -1.
          2    1    1    2  501    0  0.12687985000E+03 -0.10813222247E+03 -0.29354700384E+03  0.33758097893E+03  0.00000000000E+00 0. -1.
          1    1    1    2  502    0 -0.12775486951E+03  0.14682745058E+03 -0.11257835861E+04  0.11424833870E+04  0.00000000000E+00 0. -1.
         22    1    1    2    0    0  0.69820508409E+01 -0.21191636370E+02 -0.40489921470E+02  0.46230598380E+02  0.00000000000E+00 0. -1.
         22    1    1    2    0    0 -0.61070313295E+01 -0.17503591748E+02  0.91056065988E+02  0.92924048066E+02  0.00000000000E+00 0. -1.
</event>
<event>
 6    1  0.3240171E-005  0.2244786E+03  0.7818608E-02  0.1247788E+00
          2   -1    0    0  502    0  0.00000000000E+00  0.00000000000E+00  0.28126419857E+03  0.28126419857E+03  0.00000000000E+00 0.  1.
          1   -1    0    0  501    0 -0.00000000000E+00 -0.00000000000E+00 -0.27349045892E+03  0.27349045892E+03  0.00000000000E+00 0.  1.
          2    1    1    2  501    0 -0.95542958850E+02  0.28050932818E+02  0.77283043375E+02  0.12604753314E+03  0.00000000000E+00 0.  1.
          1    1    1    2  502    0 -0.15122996778E+02 -0.87672446035E+02 -0.19462285244E+03  0.21399349878E+03  0.00000000000E+00 0.  1.
         22    1    1    2    0    0  0.10310205504E+03  0.74487950932E+02  0.48214255449E+02  0.13602611152E+03  0.00000000000E+00 0. -1.
         22    1    1    2    0    0  0.75639005879E+01 -0.14866437715E+02  0.76899293266E+02  0.78687514050E+02  0.00000000000E+00 0.  1.
</event>
<event>
 6    1  0.3240171E-005  0.1947540E+03  0.7818608E-02  0.1160276E+00
          2   -1    0    0  502    0  0.00000000000E+00  0.00000000000E+00  0.50092070893E+02  0.50092070893E+02  0.00000000000E+00 0.  1.
          1   -1    0    0  501    0 -0.00000000000E+00 -0.00000000000E+00 -0.11826318300E+04  0.11826318300E+04  0.00000000000E+00 0.  1.
          2    1    1    2  501    0  0.11635306751E+03  0.11579162585E+03 -0.28725970570E+03  0.33085325365E+03  0.00000000000E+00 0.  1.
          1    1    1    2  502    0  0.11548789465E+02 -0.17636569994E+02 -0.50741456573E+03  0.50785230594E+03  0.00000000000E+00 0.  1.
         22    1    1    2    0    0  0.16907506837E+02 -0.10712479090E+02 -0.49937541495E+01  0.20629071142E+02  0.00000000000E+00 0. -1.
         22    1    1    2    0    0 -0.14480936381E+03 -0.87442576763E+02 -0.33287173350E+03  0.37338927012E+03  0.00000000000E+00 0.  1.
</event>
<event>
 6    1  0.3240171E-005  0.8934468E+02  0.7818608E-02  0.1340256E+00
          2   -1    0    0  502    0  0.00000000000E+00  0.00000000000E+00  0.28499454477E+03  0.28499454477E+03  0.00000000000E+00 0.  1.
          1   -1    0    0  501    0 -0.00000000000E+00 -0.00000000000E+00 -0.52089254875E+02  0.52089254875E+02  0.00000000000E+00 0.  1.
          2    1    1    2  501    0  0.10532556272E+02  0.19791417922E+02  0.10507448628E+02  0.24759673699E+02  0.00000000000E+00 0.  1.
          1    1    1    2  502    0  0.18647720408E+02 -0.68033749005E+02  0.33057019502E+02  0.77904396657E+02  0.00000000000E+00 0.  1.
         22    1    1    2    0    0 -0.21030351545E+02 -0.42281782179E+02  0.68989822341E+02  0.83603949530E+02  0.00000000000E+00 0.  1.
         22    1    1    2    0    0 -0.81499251361E+01  0.90524113262E+02  0.12035099942E+03  0.15081577976E+03  0.00000000000E+00 0.  1.
</event>
<event>
 6    1  0.3240171E-005  0.1113544E+03  0.7818608E-02  0.1260339E+00
          2   -1    0    0  502    0  0.00000000000E+00  0.00000000000E+00  0.34501475433E+03  0.34501475433E+03  0.00000000000E+00 0.  1.
          1   -1    0    0  501    0 -0.00000000000E+00 -0.00000000000E+00 -0.31922977861E+03  0.31922977861E+03  0.00000000000E+00 0.  1.
          2    1    1    2  501    0 -0.25618176801E+02  0.77128313265E+02  0.11305517130E+03  0.13923555382E+03  0.00000000000E+00 0.  1.
          1    1    1    2  502    0  0.51766655210E+01 -0.25220573608E+02 -0.28344688319E+03  0.28461379233E+03  0.00000000000E+00 0.  1.
         22    1    1    2    0    0  0.34551145572E+02 -0.86334990231E+02  0.96560969342E+02  0.13405794642E+03  0.00000000000E+00 0.  1.
         22    1    1    2    0    0 -0.14109634292E+02  0.34427250573E+02  0.99615718263E+02  0.10633724036E+03  0.00000000000E+00 0. -1.
</event>
<event>
 6    1  0.3240171E-005  0.5186878E+02  0.7818608E-02  0.1497902E+00
          2   -1    0    0  502    0  0.00000000000E+00  0.00000000000E+00  0.51414433018E+02  0.51414433018E+02  0.00000000000E+00 0.  1.
          1   -1    0    0  501    0 -0.00000000000E+00 -0.00000000000E+00 -0.31644327091E+03  0.31644327091E+03  0.00000000000E+00 0.  1.
          2    1    1    2  501    0 -0.30839970933E+02  0.82916017527E+01 -0.18079835856E+03  0.18359711579E+03  0.00000000000E+00 0.  1.
          1    1    1    2  502    0  0.14120010489E+02 -0.23584846938E+02 -0.47751272615E+02  0.55098128259E+02  0.00000000000E+00 0.  1.
         22    1    1    2    0    0  0.17403500804E+02 -0.58206614147E+01 -0.79309979228E+02  0.81405372948E+02  0.00000000000E+00 0. -1.
         22    1    1    2    0    0 -0.68354036008E+00  0.21113906600E+02  0.42830772507E+02  0.47757086939E+02  0.00000000000E+00 0.  1.
</event>
<event>
 6    1  0.3240171E-005  0.7525006E+02  0.7818608E-02  0.1415177E+00
          2   -1    0    0  502    0  0.00000000000E+00  0.00000000000E+00  0.35032080615E+02  0.35032080615E+02  0.00000000000E+00 0.  1.
          1   -1    0    0  501    0 -0.00000000000E+00 -0.00000000000E+00 -0.42581442107E+03  0.42581442107E+03  0.00000000000E+00 0.  1.
          2    1    1    2  501    0 -0.15243147148E+02 -0.17308738792E+02 -0.22353266644E+03  0.22471937820E+03  0.00000000000E+00 0.  1.
          1    1    1    2  502    0  0.20272383720E+02 -0.23820542245E+02 -0.55378499876E+02  0.63601619657E+02  0.00000000000E+00 0.  1.
         22    1    1    2    0    0  0.17948018471E+02  0.38148162437E+02 -0.13400631520E+03  0.14048169339E+03  0.00000000000E+00 0.  1.
         22    1    1    2    0    0 -0.22977255044E+02  0.29811186001E+01  0.22135141061E+02  0.32043810436E+02  0.00000000000E+00 0.  1.
</event>
<event>
 6    1  0.3240171E-005  0.1738972E+03  0.7818608E-02  0.1239827E+00
          2   -1    0    0  502    0  0.00000000000E+00  0.00000000000E+00  0.22911807183E+03  0.22911807183E+03  0.00000000000E+00 0.  1.
          1   -1    0    0  501    0 -0.00000000000E+00 -0.00000000000E+00 -0.86995522634E+03  0.86995522634E+03  0.00000000000E+00 0. -1.
          2    1    1    2  501    0  0.89600340913E+02 -0.62527447908E+02 -0.41707270098E+01  0.10934028442E+03  0.00000000000E+00 0.  1.
          1    1    1    2  502    0 -0.10404269377E+03  0.13930390675E+03 -0.77186395688E+03  0.79120441638E+03  0.00000000000E+00 0. -1.
         22    1    1    2    0    0 -0.53535024854E+01 -0.41790998144E+02  0.14991371549E+03  0.15572176985E+03  0.00000000000E+00 0.  1.
         22    1    1    2    0    0  0.19795855346E+02 -0.34985460697E+02 -0.14716186104E+02  0.42806827523E+02  0.00000000000E+00 0.  1.
</event>
<event>
 6    1  0.3240171E-005  0.1176282E+03  0.7818608E-02  0.1289584E+00
          2   -1    0    0  502    0  0.00000000000E+00  0.00000000000E+00  0.72072858171E+03  0.72072858171E+03  0.00000000000E+00 0.  1.
          1   -1    0    0  501    0 -0.00000000000E+00 -0.00000000000E+00 -0.75793551232E+02  0.75793551232E+02  0.00000000000E+00 0.  1.
          2    1    1    2  501    0 -0.29667322582E+02  0.21033482238E+02  0.12197024336E+03  0.12727646157E+03  0.00000000000E+00 0.  1.
          1    1    1    2  502    0 -0.19524795959E+02  0.60174581056E+01 -0.64108351577E+02  0.67285274772E+02  0.00000000000E+00 0.  1.
         22    1    1    2    0    0  0.18340818020E+02  0.48219022836E+02  0.21599794164E+03  0.22207334501E+03  0.00000000000E+00 0.  1.
         22    1    1    2    0    0  0.30851300521E+02 -0.75269963179E+02  0.37107519705E+03  0.37988705160E+03  0.00000000000E+00 0.  1.
</event>
<event>
 6    1  0.3240171E-005  0.2236552E+03  0.7818608E-02  0.1211746E+00
          2   -1    0    0  502    0  0.00000000000E+00  0.00000000000E+00  0.16754175764E+03  0.16754175764E+03  0.00000000000E+00 0. -1.
          1   -1    0    0  501    0 -0.00000000000E+00 -0.00000000000E+00 -0.16746989846E+04  0.16746989846E+04  0.00000000000E+00 0. -1.
          2    1    1    2  501    0  0.17191960229E+03 -0.77034257007E+02 -0.13657859647E+04  0.13787174938E+04  0.00000000000E+00 0. -1.
          1    1    1    2  502    0 -0.22238289538E+03  0.48948096563E+02  0.43858449216E+02  0.23189142262E+03  0.00000000000E+00 0. -1.
         22    1    1    2    0    0  0.33980007463E+02 -0.33700410091E+01 -0.19239602169E+03  0.19540273091E+03  0.00000000000E+00 0. -1.
         22    1    1    2    0    0  0.16483285627E+02  0.31456201453E+02  0.71663102137E+01  0.36229094896E+02  0.00000000000E+00 0.  1.
</event>
<event>
 6    1  0.3240171E-005  0.8055739E+02  0.7818608E-02  0.1330525E+00
          2   -1    0    0  502    0  0.00000000000E+00  0.00000000000E+00  0.27099519393E+03  0.27099519393E+03  0.00000000000E+00 0.  1.
          1   -1    0    0  501    0 -0.00000000000E+00 -0.00000000000E+00 -0.57317490718E+02  0.57317490718E+02  0.00000000000E+00 0. -1.
          2    1    1    2  501    0 -0.19790221998E+01 -0.47458492088E+02  0.12566714165E+03  0.13434454023E+03  0.00000000000E+00 0.  1.
          1    1    1    2  502    0  0.15992977100E+02  0.15443707468E+02 -0.14595312870E+02  0.26595235939E+02  0.00000000000E+00 0. -1.
         22    1    1    2    0    0 -0.22798339855E+02 -0.29041528457E+02  0.98911089192E+02  0.10557735667E+03  0.00000000000E+00 0. -1.
         22    1    1    2    0    0  0.87843849549E+01  0.61056313078E+02  0.36947852431E+01  0.61795551812E+02  0.00000000000E+00 0.  1.
</event>
<event>
 6    1  0.3240171E-005  0.1192950E+03  0.7818608E-02  0.1288767E+00
          2   -1    0    0  502    0  0.00000000000E+00  0.00000000000E+00  0.13941097874E+03  0.13941097874E+03  0.00000000000E+00 0. -1.
          1   -1    0    0  501    0 -0.00000000000E+00 -0.00000000000E+00 -0.58505861371E+03  0.58505861371E+03  0.00000000000E+00 0. -1.
          2    1    1    2  501    0 -0.45644978688E+02 -0.40408016241E+02 -0.60485188411E+02  0.85876247433E+02  0.00000000000E+00 0. -1.
          1    1    1    2  502    0  0.29061628252E+02  0.32316365664E+02 -0.47732672877E+03  0.47930129535E+03  0.00000000000E+00 0. -1.
         22    1    1    2    0    0 -0.11107193411E+02  0.50683012701E+02 -0.24049831301E+01  0.51941519671E+02  0.00000000000E+00 0.  1.
         22    1    1    2    0    0  0.27690543847E+02 -0.42591362124E+02  0.94569265338E+02  0.10735053001E+03  0.00000000000E+00 0. -1.
</event>
<event>
 6    1  0.3240171E-005  0.1333397E+03  0.7818608E-02  0.1243475E+00
          2   -1    0    0  502    0  0.00000000000E+00  0.00000000000E+00  0.79300751678E+03  0.79300751678E+03  0.00000000000E+00 0. -1.
          1   -1    0    0  501    0 -0.00000000000E+00 -0.00000000000E+00 -0.56507806020E+03  0.56507806020E+03  0.00000000000E+00 0. -1.
          2    1    1    2  501    0  0.36909839911E+02 -0.86207857382E+01  0.33597063055E+02  0.50649944471E+02  0.00000000000E+00 0. -1.
          1    1    1    2  502    0  0.49021215821E+02  0.92830958118E+01 -0.54761703769E+03  0.54988514750E+03  0.00000000000E+00 0. -1.
         22    1    1    2    0    0 -0.82726728016E+02  0.52912447263E+02  0.43525845171E+03  0.44619878797E+03  0.00000000000E+00 0. -1.
         22    1    1    2    0    0 -0.32043277160E+01 -0.53574757337E+02  0.30669097951E+03  0.31135169704E+03  0.00000000000E+00 0.  1.
</event>
<event>
 6    1  0.3240171E-005  0.1017972E+03  0.7818608E-02  0.1335579E+00
          2   -1    0    0  502    0  0.00000000000E+00  0.00000000000E+00  0.26446363125E+03  0.26446363125E+03  0.00000000000E+00 0.  1.
          1   -1    0    0  501    0 -0.00000000000E+00 -0.00000000000E+00 -0.13894602947E+03  0.13894602947E+03  0.00000000000E+00 0. -1.
          2    1    1    2  501    0  0.22385261154E+02 -0.71094422574E+01  0.15072742351E+02  0.27907555395E+02  0.00000000000E+00 0.  1.
          1    1    1    2  502    0 -0.41436357528E+02  0.69717496567E+02 -0.95534065391E+02  0.12531663378E+03  0.00000000000E+00 0. -1.
         22    1    1    2    0    0  0.29972544766E+02 -0.95471145890E+02  0.18316326658E+03  0.20871481826E+03  0.00000000000E+00 0.  1.
         22    1    1    2    0    0 -0.10921448393E+02  0.32863091580E+02  0.22815658243E+02  0.41470653290E+02  0.00000000000E+00 0.  1.
</event>
<event>
 6    1  0.3240171E-005  0.1336175E+03  0.7818608E-02  0.1339865E+00
          2   -1    0    0  502    0  0.00000000000E+00  0.00000000000E+00  0.14351274654E+03  0.14351274654E+03  0.00000000000E+00 0.  1.
          1   -1    0    0  501    0 -0.00000000000E+00 -0.00000000000E+00 -0.22680373260E+03  0.22680373260E+03  0.00000000000E+00 0. -1.
          2    1    1    2  501    0  0.85340548028E+02  0.34234050953E+02 -0.34164558511E+02  0.98092795049E+02  0.00000000000E+00 0.  1.
          1    1    1    2  502    0 -0.11767653596E+03 -0.27760943454E+02 -0.67875946681E+02  0.13865634221E+03  0.00000000000E+00 0. -1.
         22    1    1    2    0    0  0.41404603153E+02  0.44718789441E+01 -0.49020825943E+02  0.64322470722E+02  0.00000000000E+00 0.  1.
         22    1    1    2    0    0 -0.90686152191E+01 -0.10944986443E+02  0.67770345070E+02  0.69244871154E+02  0.00000000000E+00 0.  1.
</event>
<event>
 6    1  0.3240171E-005  0.1253891E+03  0.7818608E-02  0.1262905E+00
          2   -1    0    0  502    0  0.00000000000E+00  0.00000000000E+00  0.29461240652E+03  0.29461240652E+03  0.00000000000E+00 0. -1.
          1   -1    0    0  501    0 -0.00000000000E+00 -0.00000000000E+00 -0.12186296253E+03  0.12186296253E+03  0.00000000000E+00 0.  1.
          2    1    1    2  501    0 -0.35788900162E+02  0.32604916500E+02 -0.28625550749E+01  0.48498661593E+02  0.00000000000E+00 0. -1.
          1    1    1    2  502    0  0.33556087066E+02 -0.52313040563E+01 -0.78232602316E+02  0.85286092573E+02  0.00000000000E+00 0.  1.
         22    1    1    2    0    0  0.61536197757E+02 -0.19153633026E+02  0.12628713725E+03  0.14178154438E+03  0.00000000000E+00 0.  1.
         22    1    1    2    0    0 -0.59303384661E+02 -0.82199794175E+01  0.12755746413E+03  0.14090907050E+03  0.00000000000E+00 0. -1.
</event>
<event>
 6    1  0.3240171E-005  0.1431435E+03  0.7818608E-02  0.1213644E+00
          2   -1    0    0  502    0  0.00000000000E+00  0.00000000000E+00  0.11184973523E+03  0.11184973523E+03  0.00000000000E+00 0. -1.
          1   -1    0    0  501    0 -0.00000000000E+00 -0.00000000000E+00 -0.53631849103E+03  0.53631849103E+03  0.00000000000E+00 0. -1.
          2    1    1    2  501    0  0.27888557724E+02  0.53478901548E+02 -0.16103755218E+03  0.17196179161E+03  0.00000000000E+00 0. -1.
          1    1    1    2  502    0  0.84693936569E+02  0.62780978622E+02 -0.25062150855E+03  0.27189272648E+03  0.00000000000E+00 0. -1.
         22    1    1    2    0    0 -0.11766919961E+03 -0.99775681278E+02  0.30884319420E+02  0.15733743451E+03  0.00000000000E+00 0. -1.
         22    1    1    2    0    0  0.50867053132E+01 -0.16484198892E+02 -0.43694014495E+02  0.46976273657E+02  0.00000000000E+00 0.  1.
</event>
<event>
 6    1  0.3240171E-005  0.1306157E+03  0.7818608E-02  0.1292351E+00
          2   -1    0    0  502    0  0.00000000000E+00  0.00000000000E+00  0.23642220854E+03  0.23642220854E+03  0.00000000000E+00 0. -1.
          1   -1    0    0  501    0 -0.00000000000E+00 -0.00000000000E+00 -0.33738256133E+03  0.33738256133E+03  0.00000000000E+00 0.  1.
          2    1    1    2  501    0  0.47722421714E+02  0.43792187271E+02  0.37236292972E+02  0.74710954448E+02  0.00000000000E+00 0. -1.
          1    1    1    2  502    0 -0.77349425572E+02 -0.94724911588E+02 -0.27874010913E+03  0.30438756701E+03  0.00000000000E+00 0.  1.
         22    1    1    2    0    0  0.28381124993E+01  0.27246724929E+02 -0.17606415763E+02  0.32564164015E+02  0.00000000000E+00 0. -1.
         22    1    1    2    0    0  0.26788891358E+02  0.23685999388E+02  0.15814987913E+03  0.16214208441E+03  0.00000000000E+00 0. -1.
</event>
<event>
 6    1  0.3240171E-005  0.1155621E+03  0.7818608E-02  0.1273531E+00
          2   -1    0    0  502    0  0.00000000000E+00  0.00000000000E+00  0.24050749096E+03  0.24050749096E+03  0.00000000000E+00 0.  1.
          1   -1    0    0  501    0 -0.00000000000E+00 -0.00000000000E+00 -0.80448153713E+02  0.80448153713E+02  0.00000000000E+00 0.  1.
          2    1    1    2  501    0 -0.47363335570E+02 -0.19658362185E+02  0.14113628996E+02  0.53187698611E+02  0.00000000000E+00 0.  1.
          1    1    1    2  502    0  0.14091357400E+02 -0.47845829561E+02 -0.14938141662E+02  0.52066667226E+02  0.00000000000E+00 0.  1.
         22    1    1    2    0    0 -0.27691387861E+02  0.14508447576E+02  0.12220539850E+03  0.12614066527E+03  0.00000000000E+00 0.  1.
         22    1    1    2    0    0  0.60963366032E+02  0.52995744170E+02  0.38678451411E+02  0.89560613562E+02  0.00000000000E+00 0.  1.
</event>
<event>
 6    1  0.3240171E-005  0.1324907E+03  0.7818608E-02  0.1339490E+00
          2   -1    0    0  502    0  0.00000000000E+00  0.00000000000E+00  0.33091517103E+03  0.33091517103E+03  0.00000000000E+00 0. -1.
          1   -1    0    0  501    0 -0.00000000000E+00 -0.00000000000E+00 -0.15452898825E+03  0.15452898825E+03  0.00000000000E+00 0. -1.
          2    1    1    2  501    0 -0.55522688474E+02  0.15639318555E+02 -0.48211293921E+02  0.75177696705E+02  0.00000000000E+00 0. -1.
          1    1    1    2  502    0  0.12869742274E+03  0.30749401435E+02  0.22556213687E+03  0.26150875683E+03  0.00000000000E+00 0. -1.
         22    1    1    2    0    0 -0.77329824700E+01 -0.12471879659E+02  0.54545134433E+02  0.56484674828E+02  0.00000000000E+00 0. -1.
         22    1    1    2    0    0 -0.65441751799E+02 -0.33916840331E+02 -0.55509794601E+02  0.92273030909E+02  0.00000000000E+00 0. -1.
</event>
<event>
 6    1  0.3240171E-005  0.1700556E+03  0.7818608E-02  0.1268800E+00
          2   -1    0    0  502    0  0.00000000000E+00  0.00000000000E+00  0.52637009125E+02  0.52637009125E+02  0.00000000000E+00 0. -1.
          1   -1    0    0  501    0 -0.00000000000E+00 -0.00000000000E+00 -0.62094355060E+03  0.62094355060E+03  0.00000000000E+00 0. -1.
          2    1    1    2  501    0 -0.49080613921E+02 -0.13742872792E+00 -0.18627639747E+02  0.52496804780E+02  0.00000000000E+00 0. -1.
          1    1    1    2  502    0  0.97534314626E+02 -0.80369604555E+02 -0.29457085944E+03  0.32053737239E+03  0.00000000000E+00 0. -1.
         22    1    1    2    0    0 -0.79784886020E+01  0.24067962807E+02  0.94227922996E+01  0.27050177980E+02  0.00000000000E+00 0.  1.
         22    1    1    2    0    0 -0.40475212103E+02  0.56439070476E+02 -0.26453083459E+03  0.27349620458E+03  0.00000000000E+00 0. -1.
</event>
<event>
 6    1  0.3240171E-005  0.2323565E+03  0.7818608E-02  0.1170263E+00
          2   -1    0    0  502    0  0.00000000000E+00  0.00000000000E+00  0.35728915265E+03  0.35728915265E+03  0.00000000000E+00 0. -1.
          1   -1    0    0  501    0 -0.00000000000E+00 -0.00000000000E+00 -0.36119476839E+03  0.36119476839E+03  0.00000000000E+00 0. -1.
          2    1    1    2  501    0  0.54936048500E+02  0.79666283299E+02 -0.33157964687E+02  0.10229436320E+03  0.00000000000E+00 0. -1.
          1    1    1    2  502    0 -0.18513728725E+03 -0.15541185384E+03 -0.20108429030E+03  0.31442574839E+03  0.00000000000E+00 0. -1.
         22    1    1    2    0    0  0.49822118319E+02  0.61430485825E+02  0.19929739836E+03  0.21441875164E+03  0.00000000000E+00 0. -1.
         22    1    1    2    0    0  0.80379120428E+02  0.14315084714E+02  0.31039240881E+02  0.87345057821E+02  0.00000000000E+00 0. -1.
</event>
<event>
 6    1  0.3240171E-005  0.1187399E+03  0.7818608E-02  0.1320075E+00
          2   -1    0    0  502    0  0.00000000000E+00  0.00000000000E+00  0.18185622957E+03  0.18185622957E+03  0.00000000000E+00 0.  1.
          1   -1    0    0  501    0 -0.00000000000E+00 -0.00000000000E+00 -0.31274346747E+03  0.31274346747E+03  0.00000000000E+00 0. -1.
          2    1    1    2  501    0  0.15630083130E+02  0.70244633667E+02 -0.76293162483E+01  0.72365838101E+02  0.00000000000E+00 0.  1.
          1    1    1    2  502    0 -0.64479521943E+01 -0.10443667312E+03 -0.23261391195E+03  0.25506435817E+03  0.00000000000E+00 0. -1.
         22    1    1    2    0    0 -0.31138911507E+02  0.52658806557E+02  0.78396691254E+01  0.61676917318E+02  0.00000000000E+00 0.  1.
         22    1    1    2    0    0  0.21956780572E+02 -0.18466767107E+02  0.10151632117E+03  0.10549258345E+03  0.00000000000E+00 0.  1.
</event>
<event>
 6    1  0.3240171E-005  0.2285102E+03  0.7818608E-02  0.1205700E+00
          2   -1    0    0  502    0  0.00000000000E+00  0.00000000000E+00  0.15495644959E+04  0.15495644959E+04  0.00000000000E+00 0.  1.
          1   -1    0    0  501    0 -0.00000000000E+00 -0.00000000000E+00 -0.47102137963E+02  0.47102137963E+02  0.00000000000E+00 0.  1.
          2    1    1    2  501    0  0.52419934666E+02 -0.10327962443E+03  0.43553011208E+03  0.45066729291E+03  0.00000000000E+00 0.  1.
          1    1    1    2  502    0 -0.16321968286E+03  0.13608866878E+03  0.35205964923E+03  0.41122595645E+03  0.00000000000E+00 0.  1.
         22    1    1    2    0    0  0.50139595483E+01  0.37563477109E+02  0.10066227130E+03  0.10755950663E+03  0.00000000000E+00 0. -1.
         22    1    1    2    0    0  0.10578578865E+03 -0.70372521451E+02  0.61421032528E+03  0.62721387783E+03  0.00000000000E+00 0.  1.
</event>
<event>
 6    1  0.3240171E-005  0.9425254E+02  0.7818608E-02  0.1293969E+00
          2   -1    0    0  502    0  0.00000000000E+00  0.00000000000E+00  0.56034492374E+02  0.56034492374E+02  0.00000000000E+00 0. -1.
          1   -1    0    0  501    0 -0.00000000000E+00 -0.00000000000E+00 -0.72264213480E+03  0.72264213480E+03  0.00000000000E+00 0. -1.
          2    1    1    2  501    0 -0.55457440593E+02  0.30443913457E+02 -0.27125163444E+03  0.27853152204E+03  0.00000000000E+00 0. -1.
          1    1    1    2  502    0 -0.80838217333E+01 -0.91161027143E+02 -0.31612615236E+03  0.32910701185E+03  0.00000000000E+00 0. -1.
         22    1    1    2    0    0  0.79041223438E+02  0.62409859411E+02 -0.11300252075E+02  0.10134200142E+03  0.00000000000E+00 0. -1.
         22    1    1    2    0    0 -0.15499961112E+02 -0.16927457261E+01 -0.67929603548E+02  0.69696091861E+02  0.00000000000E+00 0. -1.
</event>
<event>
 6    1  0.3240171E-005  0.1154081E+03  0.7818608E-02  0.1262687E+00
          2   -1    0    0  502    0  0.00000000000E+00  0.00000000000E+00  0.20536538622E+03  0.20536538622E+03  0.00000000000E+00 0. -1.
          1   -1    0    0  501    0 -0.00000000000E+00 -0.00000000000E+00 -0.57753906970E+03  0.57753906970E+03  0.00000000000E+00 0. -1.
          2    1    1    2  501    0 -0.46274433184E+02  0.55399405736E+02 -0.16105335219E+01  0.72201185175E+02  0.00000000000E+00 0. -1.
          1    1    1    2  502    0  0.27447179589E+02 -0.65121969485E+00 -0.51283523992E+03  0.51356962046E+03  0.00000000000E+00 0. -1.
         22    1    1    2    0    0 -0.49277825002E+02 -0.23686107834E+01  0.39649070894E+02  0.63292678698E+02  0.00000000000E+00 0. -1.
         22    1    1    2    0    0  0.68105078598E+02 -0.52379575257E+02  0.10262301906E+03  0.13384097159E+03  0.00000000000E+00 0. -1.
</event>
<event>
 6    1  0.3240171E-005  0.8160950E+02  0.7818608E-02  0.1374775E+00
          2   -1    0    0  502    0  0.00000000000E+00  0.00000000000E+00  0.59800046940E+02  0.59800046940E+02  0.00000000000E+00 0. -1.
          1   -1    0    0  501    0 -0.00000000000E+00 -0.00000000000E+00 -0.13938846185E+04  0.13938846185E+04  0.00000000000E+00 0. -1.
          2    1    1    2  501    0  0.24095042412E+02  0.17261279609E+02 -0.21036840227E+02  0.36346547144E+02  0.00000000000E+00 0. -1.
          1    1    1    2  502    0 -0.21597113143E+02 -0.60142089219E+01 -0.12932160303E+04  0.12934103397E+04  0.00000000000E+00 0. -1.
         22    1    1    2    0    0  0.20674370822E+02  0.29309519092E+02  0.36213713102E+02  0.50969702128E+02  0.00000000000E+00 0. -1.
         22    1    1    2    0    0 -0.23172300091E+02 -0.40556589780E+02 -0.56045414143E+02  0.72958076404E+02  0.00000000000E+00 0. -1.
</event>
<event>
 6    1  0.3240171E-005  0.4390691E+03  0.7818608E-02  0.1127759E+00
          2   -1    0    0  502    0  0.00000000000E+00  0.00000000000E+00  0.61133149906E+03  0.61133149906E+03  0.00000000000E+00 0.  1.
          1   -1    0    0  501    0 -0.00000000000E+00 -0.00000000000E+00 -0.21175826513E+03  0.21175826513E+03  0.00000000000E+00 0.  1.
          2    1    1    2  501    0  0.12153333533E+03 -0.15716448892E+03  0.45947697211E+02  0.20391718676E+03  0.00000000000E+00 0.  1.
          1    1    1    2  502    0  0.63860402564E+02  0.62671091175E+02 -0.81949105618E+02  0.12133207571E+03  0.00000000000E+00 0.  1.
         22    1    1    2    0    0 -0.18689575230E+03  0.62368856775E+02  0.30303888301E+03  0.36145879591E+03  0.00000000000E+00 0.  1.
         22    1    1    2    0    0  0.15020143977E+01  0.32124540972E+02  0.13253575932E+03  0.13638170581E+03  0.00000000000E+00 0.  1.
</event>
<event>
 6    1  0.3240171E-005  0.8884349E+02  0.7818608E-02  0.1307262E+00
          2   -1    0    0  502    0  0.00000000000E+00  0.00000000000E+00  0.40257056085E+03  0.40257056085E+03  0.00000000000E+00 0. -1.
          1   -1    0    0  501    0 -0.00000000000E+00 -0.00000000000E+00 -0.59076539811E+02  0.59076539811E+02  0.00000000000E+00 0. -1.
          2    1    1    2  501    0 -0.28716507710E+02  0.14078974595E+02  0.13833665866E+02  0.34845740801E+02  0.00000000000E+00 0. -1.
          1    1    1    2  502    0  0.27498395748E+02 -0.70039736589E+02  0.49262525973E+01  0.75405533184E+02  0.00000000000E+00 0. -1.
         22    1    1    2    0    0  0.42011225341E+01  0.71381673588E+02  0.32770073931E+03  0.33541134044E+03  0.00000000000E+00 0. -1.
         22    1    1    2    0    0 -0.29830105715E+01 -0.15420911594E+02 -0.29666367371E+01  0.15984486229E+02  0.00000000000E+00 0.  1.
</event>
<event>
 6    1  0.3240171E-005  0.1085726E+03  0.7818608E-02  0.1333931E+00
          2   -1    0    0  502    0  0.00000000000E+00  0.00000000000E+00  0.37467574958E+02  0.37467574958E+02  0.00000000000E+00 0.  1.
          1   -1    0    0  501    0 -0.00000000000E+00 -0.00000000000E+00 -0.10143598015E+04  0.10143598015E+04  0.00000000000E+00 0.  1.
          2    1    1    2  501    0 -0.56087372132E+02  0.19377267031E+00 -0.15456821294E+03  0.16442981272E+03  0.00000000000E+00 0.  1.
          1    1    1    2  502    0  0.98250314858E+02 -0.42532030323E+02 -0.67293567599E+03  0.68139894481E+03  0.00000000000E+00 0.  1.
         22    1    1    2    0    0 -0.26579126411E+02  0.12511305253E+02  0.18535837669E+02  0.34735572516E+02  0.00000000000E+00 0.  1.
         22    1    1    2    0    0 -0.15583816315E+02  0.29826952400E+02 -0.16792417523E+03  0.17126304636E+03  0.00000000000E+00 0.  1.
</event>
<event>
 6    1  0.3240171E-005  0.5807281E+02  0.7818608E-02  0.1423348E+00
          2   -1    0    0  502    0  0.00000000000E+00  0.00000000000E+00  0.31924327620E+03  0.31924327620E+03  0.00000000000E+00 0. -1.
          1   -1    0    0  501    0 -0.00000000000E+00 -0.00000000000E+00 -0.22067642248E+03  0.22067642248E+03  0.00000000000E+00 0. -1.
          2    1    1    2  501    0  0.24916283905E+02  0.23826198842E+02  0.35050581750E+02  0.49163525463E+02  0.00000000000E+00 0. -1.
          1    1    1    2  502    0 -0.39505164630E+02 -0.41258430402E+01 -0.19578623856E+03  0.19977470266E+03  0.00000000000E+00 0. -1.
         22    1    1    2    0    0  0.22860268909E+01  0.23483091269E+02 -0.39540042636E+01  0.23923119450E+02  0.00000000000E+00 0. -1.
         22    1    1    2    0    0  0.12302853835E+02 -0.43183447071E+02  0.26325651480E+03  0.26705835111E+03  0.00000000000E+00 0. -1.
</event>
<event>
 6    1  0.3240171E-005  0.1061250E+03  0.7818608E-02  0.1310601E+00
          2   -1    0    0  502    0  0.00000000000E+00  0.00000000000E+00  0.19839253931E+03  0.19839253931E+03  0.00000000000E+00 0.  1.
          1   -1    0    0  501    0 -0.00000000000E+00 -0.00000000000E+00 -0.31041844140E+03  0.31041844140E+03  0.00000000000E+00 0.  1.
          2    1    1    2  501    0 -0.79094425123E+02  0.78928829322E+01 -0.24890067717E+03  0.26128484989E+03  0.00000000000E+00 0.  1.
          1    1    1    2  502    0  0.72111642311E+02  0.18959864077E+02  0.35890387265E+02  0.82750741995E+02  0.00000000000E+00 0.  1.
         22    1    1    2    0    0  0.24722374903E+02 -0.40742565776E+02  0.12383303510E+03  0.13268674791E+03  0.00000000000E+00 0.  1.
         22    1    1    2    0    0 -0.17739592091E+02  0.13889818766E+02 -0.22848647291E+02  0.32088640918E+02  0.00000000000E+00 0.  1.
</event>
<event>
 6    1  0.3240171E-005  0.9445103E+02  0.7818608E-02  0.1322659E+00
          2   -1    0    0  502    0  0.00000000000E+00  0.00000000000E+00  0.44327325984E+02  0.44327325984E+02  0.00000000000E+00 0.  1.
          1   -1    0    0  501    0 -0.00000000000E+00 -0.00000000000E+00 -0.45937452209E+03  0.45937452209E+03  0.00000000000E+00 0.  1.
          2    1    1    2  501    0  0.22125596748E+02  0.11251616793E+02 -0.69285121091E+01  0.25771014569E+02  0.00000000000E+00 0.  1.
          1    1    1    2  502    0  0.86805365277E+01  0.20326232419E+02 -0.31164880982E+03  0.31243157347E+03  0.00000000000E+00 0.  1.
         22    1    1    2    0    0  0.45434179541E+01 -0.70198006333E+02 -0.87680256332E+02  0.11241098741E+03  0.00000000000E+00 0.  1.
         22    1    1    2    0    0 -0.35349551229E+02  0.38620157120E+02 -0.87896178399E+01  0.53088272621E+02  0.00000000000E+00 0.  1.
</event>
<event>
 6    1  0.3240171E-005  0.2463156E+03  0.7818608E-02  0.1211758E+00
          2   -1    0    0  502    0  0.00000000000E+00  0.00000000000E+00  0.20268261796E+03  0.20268261796E+03  0.00000000000E+00 0. -1.
          1   -1    0    0  501    0 -0.00000000000E+00 -0.00000000000E+00 -0.11924086921E+04  0.11924086921E+04  0.00000000000E+00 0.  1.
          2    1    1    2  501    0 -0.10009482321E+03 -0.42120667228E+02 -0.20985417791E+01  0.10861642656E+03  0.00000000000E+00 0. -1.
          1    1    1    2  502    0 -0.14570716667E+02  0.18512930072E+02 -0.10898012679E+04  0.10900558875E+04  0.00000000000E+00 0.  1.
         22    1    1    2    0    0  0.13457820604E+03  0.72873882514E+01  0.61181543473E+02  0.14801209691E+03  0.00000000000E+00 0. -1.
         22    1    1    2    0    0 -0.19912666169E+02  0.16320348905E+02  0.40992192109E+02  0.48406899056E+02  0.00000000000E+00 0. -1.
</event>
<event>
 6    1  0.3240171E-005  0.8065976E+02  0.7818608E-02  0.1363048E+00
          2   -1    0    0  502    0  0.00000000000E+00  0.00000000000E+00  0.63132430899E+03  0.63132430899E+03  0.00000000000E+00 0. -1.
          1   -1    0    0  501    0 -0.00000000000E+00 -0.00000000000E+00 -0.20309192308E+02  0.20309192308E+02  0.00000000000E+00 0. -1.
          2    1    1    2  501    0  0.26766732235E+02 -0.16771514202E+02  0.70709500670E+02  0.77444012862E+02  0.00000000000E+00 0. -1.
          1    1    1    2  502    0 -0.32027589899E+02  0.48835729519E+02  0.10906362359E+03  0.12371567800E+03  0.00000000000E+00 0. -1.
         22    1    1    2    0    0  0.16834560056E+02 -0.74039131849E+02  0.17803063876E+03  0.19354612834E+03  0.00000000000E+00 0. -1.
         22    1    1    2    0    0 -0.11573702392E+02  0.41974916532E+02  0.25321135366E+03  0.25692768209E+03  0.00000000000E+00 0. -1.
</event>
<event>
 6    1  0.3240171E-005  0.9093559E+02  0.7818608E-02  0.1356725E+00
          2   -1    0    0  502    0  0.00000000000E+00  0.00000000000E+00  0.23400894066E+02  0.23400894066E+02  0.00000000000E+00 0.  1.
          1   -1    0    0  501    0 -0.00000000000E+00 -0.00000000000E+00 -0.15841032387E+04  0.15841032387E+04  0.00000000000E+00 0.  1.
          2    1    1    2  501    0 -0.20875397367E+02 -0.15432518006E+02 -0.93962521294E+02  0.97482820205E+02  0.00000000000E+00 0.  1.
          1    1    1    2  502    0  0.51603383279E+02  0.67611435863E+02 -0.12579086076E+04  0.12607808218E+04  0.00000000000E+00 0.  1.
         22    1    1    2    0    0 -0.63730334906E+02 -0.59447220047E+02 -0.19332094227E+03  0.21205780881E+03  0.00000000000E+00 0.  1.
         22    1    1    2    0    0  0.33002348994E+02  0.72683021900E+01 -0.15510273439E+02  0.37182681964E+02  0.00000000000E+00 0.  1.
</event>
<event>
 6    1  0.3240171E-005  0.5336783E+02  0.7818608E-02  0.1433805E+00
          2   -1    0    0  502    0  0.00000000000E+00  0.00000000000E+00  0.64569199564E+02  0.64569199564E+02  0.00000000000E+00 0.  1.
          1   -1    0    0  501    0 -0.00000000000E+00 -0.00000000000E+00 -0.24324596079E+03  0.24324596079E+03  0.00000000000E+00 0.  1.
          2    1    1    2  501    0 -0.24370229406E+02 -0.13060925448E+02 -0.11633637329E+02  0.29997289417E+02  0.00000000000E+00 0.  1.
          1    1    1    2  502    0  0.36624374096E+02  0.44294520181E+01 -0.14870647608E+03  0.15321416661E+03  0.00000000000E+00 0.  1.
         22    1    1    2    0    0 -0.54429112765E+02 -0.43776169757E+01 -0.46942087456E+02  0.72008689902E+02  0.00000000000E+00 0.  1.
         22    1    1    2    0    0  0.42174968075E+02  0.13009090406E+02  0.28605439636E+02  0.52595014422E+02  0.00000000000E+00 0.  1.
</event>
<event>
 6    1  0.3240171E-005  0.6724664E+02  0.7818608E-02  0.1374783E+00
          2   -1    0    0  502    0  0.00000000000E+00  0.00000000000E+00  0.24341875914E+02  0.24341875914E+02  0.00000000000E+00 0.  1.
          1   -1    0    0  501    0 -0.00000000000E+00 -0.00000000000E+00 -0.48924510400E+03  0.48924510400E+03  0.00000000000E+00 0.  1.
          2    1    1    2  501    0 -0.58838156810E+01 -0.26431277447E+02 -0.71247581386E+02  0.76219745262E+02  0.00000000000E+00 0.  1.
          1    1    1    2  502    0  0.29662171709E+02  0.38768553711E+02 -0.21327981107E+03  0.21879470514E+03  0.00000000000E+00 0.  1.
         22    1    1    2    0    0 -0.48412111696E+02  0.36589906723E+02 -0.55608114479E+02  0.82309271828E+02  0.00000000000E+00 0.  1.
         22    1    1    2    0    0  0.24633755669E+02 -0.48927182987E+02 -0.12476772116E+03  0.13626325769E+03  0.00000000000E+00 0.  1.
</event>
<event>
 6    1  0.3240171E-005  0.1795523E+03  0.7818608E-02  0.1263284E+00
          2   -1    0    0  502    0  0.00000000000E+00  0.00000000000E+00  0.36861629352E+02  0.36861629352E+02  0.00000000000E+00 0.  1.
          1   -1    0    0  501    0 -0.00000000000E+00 -0.00000000000E+00 -0.63314048903E+03  0.63314048903E+03  0.00000000000E+00 0.  1.
          2    1    1    2  501    0  0.58514635930E+02 -0.50373377465E+01 -0.23703690347E+03  0.24420448603E+03  0.00000000000E+00 0.  1.
          1    1    1    2  502    0  0.14444423857E+02 -0.37996877125E+02 -0.21321922713E+03  0.21705953761E+03  0.00000000000E+00 0.  1.
         22    1    1    2    0    0  0.23946470795E+02 -0.13242351202E+01  0.44036084996E+01  0.24383987164E+02  0.00000000000E+00 0. -1.
         22    1    1    2    0    0 -0.96905530582E+02  0.44358449992E+02 -0.15042633758E+03  0.18435410758E+03  0.00000000000E+00 0.  1.
</event>
<event>
 6    1  0.3240171E-005  0.1513394E+03  0.7818608E-02  0.1215447E+00
          2   -1    0    0  502    0  0.00000000000E+00  0.00000000000E+00  0.19857997356E+03  0.19857997356E+03  0.00000000000E+00 0.  1.
          1   -1    0    0  501    0 -0.00000000000E+00 -0.00000000000E+00 -0.22038068989E+04  0.22038068989E+04  0.00000000000E+00 0.  1.
          2    1    1    2  501    0 -0.12854881632E+02 -0.12423683062E+03  0.10257044829E+03  0.16161910446E+03  0.00000000000E+00 0.  1.
          1    1    1    2  502    0 -0.13024633692E+02  0.74180647367E+02 -0.20983443520E+04  0.20996955563E+04  0.00000000000E+00 0.  1.
         22    1    1    2    0    0  0.67953561077E+02  0.42006624472E+02 -0.39132101225E+02  0.88958216646E+02  0.00000000000E+00 0.  1.
         22    1    1    2    0    0 -0.42074045753E+02  0.80495587801E+01  0.29679079545E+02  0.52113995099E+02  0.00000000000E+00 0.  1.
</event>
<event>
 6    1  0.3240171E-005  0.7969958E+03  0.7818608E-02  0.1078374E+00
          2   -1    0    0  502    0  0.00000000000E+00  0.00000000000E+00  0.94731858319E+03  0.94731858319E+03  0.00000000000E+00 0.  1.
          1   -1    0    0  501    0 -0.00000000000E+00 -0.00000000000E+00 -0.51417120586E+03  0.51417120586E+03  0.00000000000E+00 0.  1.
          2    1    1    2  501    0 -0.58556086853E+02  0.91585114534E+02 -0.16641318646E+03  0.19877121809E+03  0.00000000000E+00 0.  1.
          1    1    1    2  502    0  0.28448983700E+03 -0.28098037063E+03 -0.16544823757E+03  0.43273266037E+03  0.00000000000E+00 0.  1.
         22    1    1    2    0    0 -0.66805356872E+01 -0.18041659979E+02  0.62144547866E+02  0.65054407086E+02  0.00000000000E+00 0. -1.
         22    1    1    2    0    0 -0.21925321446E+03  0.20743691608E+03  0.70286425350E+03  0.76493150351E+03  0.00000000000E+00 0.  1.
</event>
<event>
 6    1  0.3240171E-005  0.2500459E+03  0.7818608E-02  0.1113513E+00
          2   -1    0    0  502    0  0.00000000000E+00  0.00000000000E+00  0.15960576920E+04  0.15960576920E+04  0.00000000000E+00 0.  1.
          1   -1    0    0  501    0 -0.00000000000E+00 -0.00000000000E+00 -0.13328437978E+03  0.13328437978E+03  0.00000000000E+00 0.  1.
          2    1    1    2  501    0 -0.21351190954E+03 -0.26790993181E+02  0.36712834309E+03  0.42554472518E+03  0.00000000000E+00 0.  1.
          1    1    1    2  502    0 -0.25666325889E+02  0.10905488185E+03 -0.51019361065E+02  0.12310443836E+03  0.00000000000E+00 0.  1.
         22    1    1    2    0    0 -0.13626361439E+02  0.20795380614E+01  0.37271499638E+02  0.39738732867E+02  0.00000000000E+00 0. -1.
         22    1    1    2    0    0  0.25280459686E+03 -0.84343426729E+02  0.11093928306E+04  0.11409541754E+04  0.00000000000E+00 0.  1.
</event>
<event>
 6    1  0.3240171E-005  0.1101353E+03  0.7818608E-02  0.1273357E+00
          2   -1    0    0  502    0  0.00000000000E+00  0.00000000000E+00  0.27724987261E+03  0.27724987261E+03  0.00000000000E+00 0. -1.
          1   -1    0    0  501    0 -0.00000000000E+00 -0.00000000000E+00 -0.41326380595E+03  0.41326380595E+03  0.00000000000E+00 0.  1.
          2    1    1    2  501    0  0.29646322847E+02  0.11053400136E+03 -0.94436672951E+02  0.14837437485E+03  0.00000000000E+00 0. -1.
          1    1    1    2  502    0  0.27565930642E+02 -0.88346973438E+02 -0.26389854765E+03  0.27965605965E+03  0.00000000000E+00 0.  1.
         22    1    1    2    0    0 -0.74339859838E+02 -0.42193046525E+02  0.22002644003E+03  0.23604724580E+03  0.00000000000E+00 0. -1.
         22    1    1    2    0    0  0.17127606349E+02  0.20006018606E+02  0.22948472310E+01  0.26435998250E+02  0.00000000000E+00 0.  1.
</event>
<event>
 6    1  0.3240171E-005  0.1014934E+03  0.7818608E-02  0.1286790E+00
          2   -1    0    0  502    0  0.00000000000E+00  0.00000000000E+00  0.42046084258E+03  0.42046084258E+03  0.00000000000E+00 0. -1.
          1   -1    0    0  501    0 -0.00000000000E+00 -0.00000000000E+00 -0.41418961882E+02  0.41418961882E+02  0.00000000000E+00 0. -1.
          2    1    1    2  501    0  0.39791952814E+02 -0.29558540731E+02  0.87227556700E+02  0.10032822876E+03  0.00000000000E+00 0. -1.
          1    1    1    2  502    0  0.29960575329E+02  0.61688427764E+01 -0.59390184262E+01  0.31160273348E+02  0.00000000000E+00 0. -1.
         22    1    1    2    0    0 -0.72568001119E+01 -0.44403532048E+02  0.14646259235E+03  0.15321757655E+03  0.00000000000E+00 0. -1.
         22    1    1    2    0    0 -0.62495728031E+02  0.67793230003E+02  0.15129075008E+03  0.17717372580E+03  0.00000000000E+00 0. -1.
</event>
<event>
 6    1  0.3240171E-005  0.1409970E+03  0.7818608E-02  0.1252041E+00
          2   -1    0    0  502    0  0.00000000000E+00  0.00000000000E+00  0.21245820869E+03  0.21245820869E+03  0.00000000000E+00 0.  1.
          1   -1    0    0  501    0 -0.00000000000E+00 -0.00000000000E+00 -0.25032684243E+03  0.25032684243E+03  0.00000000000E+00 0.  1.
          2    1    1    2  501    0 -0.64154401194E+02 -0.55645004156E+02  0.47185923560E+02  0.97152792354E+02  0.00000000000E+00 0.  1.
          1    1    1    2  502    0  0.17726888082E+02 -0.27441674098E+02 -0.17763779981E+03  0.18061693154E+03  0.00000000000E+00 0.  1.
         22    1    1    2    0    0  0.22290272682E+02  0.69186936119E+02 -0.14712730696E+02  0.74163015246E+02  0.00000000000E+00 0.  1.
         22    1    1    2    0    0  0.24137240429E+02  0.13899742135E+02  0.10729597320E+03  0.11085231199E+03  0.00000000000E+00 0.  1.
</event>
<event>
 6    1  0.3240171E-005  0.8063312E+02  0.7818608E-02  0.1330139E+00
          2   -1    0    0  502    0  0.00000000000E+00  0.00000000000E+00  0.15904854081E+03  0.15904854081E+03  0.00000000000E+00 0. -1.
          1   -1    0    0  501    0 -0.00000000000E+00 -0.00000000000E+00 -0.14372232259E+03  0.14372232259E+03  0.00000000000E+00 0. -1.
          2    1    1    2  501    0 -0.38588220456E+01  0.64138590741E+02 -0.58199934810E+02  0.86694185166E+02  0.00000000000E+00 0. -1.
          1    1    1    2  502    0  0.51422721850E+02 -0.48997910019E+02  0.32423109005E+02  0.78079123370E+02  0.00000000000E+00 0. -1.
         22    1    1    2    0    0 -0.49460674109E+02 -0.56822711739E+02  0.55811831569E+02  0.93755743268E+02  0.00000000000E+00 0. -1.
         22    1    1    2    0    0  0.18967743043E+01  0.41682031017E+02 -0.14708787538E+02  0.44241811596E+02  0.00000000000E+00 0.  1.
</event>
<event>
 6    1  0.3240171E-005  0.5389992E+02  0.7818608E-02  0.1466676E+00
          2   -1    0    0  502    0  0.00000000000E+00  0.00000000000E+00  0.11274173094E+03  0.11274173094E+03  0.00000000000E+00 0. -1.
          1   -1    0    0  501    0 -0.00000000000E+00 -0.00000000000E+00 -0.51788755614E+03  0.51788755614E+03  0.00000000000E+00 0. -1.
          2    1    1    2  501    0  0.13308067746E+02  0.32779933834E+02 -0.38020237345E+02  0.51934258222E+02  0.00000000000E+00 0. -1.
          1    1    1    2  502    0 -0.44537076264E+02 -0.16303188141E+02 -0.43031017764E+03  0.43291592035E+03  0.00000000000E+00 0. -1.
         22    1    1    2    0    0  0.27651270228E+02  0.12527817822E+02 -0.33244231846E+02  0.45019083904E+02  0.00000000000E+00 0.  1.
         22    1    1    2    0    0  0.35777382902E+01 -0.29004563515E+02  0.96428821633E+02  0.10076002460E+03  0.00000000000E+00 0. -1.
</event>
<event>
 6    1  0.3240171E-005  0.7695417E+02  0.7818608E-02  0.1343795E+00
          2   -1    0    0  502    0  0.00000000000E+00  0.00000000000E+00  0.14937999051E+03  0.14937999051E+03  0.00000000000E+00 0. -1.
          1   -1    0    0  501    0 -0.00000000000E+00 -0.00000000000E+00 -0.56995616539E+02  0.56995616539E+02  0.00000000000E+00 0. -1.
          2    1    1    2  501    0 -0.26178315517E+02 -0.13823869466E+02  0.17172728933E+02  0.34224350824E+02  0.00000000000E+00 0. -1.
          1    1    1    2  502    0  0.30296643289E+02  0.23499890992E-01  0.24680703208E+01  0.30397014951E+02  0.00000000000E+00 0. -1.
         22    1    1    2    0    0 -0.15134229730E+02 -0.49942085156E+02  0.52376949976E+02  0.73936470487E+02  0.00000000000E+00 0.  1.
         22    1    1    2    0    0  0.11015901958E+02  0.63742454732E+02  0.20366624741E+02  0.67817770787E+02  0.00000000000E+00 0. -1.
</event>
<event>
 6    1  0.3240171E-005  0.1103769E+03  0.7818608E-02  0.1268968E+00
          2   -1    0    0  502    0  0.00000000000E+00  0.00000000000E+00  0.29124798127E+03  0.29124798127E+03  0.00000000000E+00 0. -1.
          1   -1    0    0  501    0 -0.00000000000E+00 -0.00000000000E+00 -0.60916437943E+03  0.60916437943E+03  0.00000000000E+00 0.  1.
          2    1    1    2  501    0  0.84014484099E+01 -0.11213068266E+03  0.19611162831E+01  0.11246208386E+03  0.00000000000E+00 0. -1.
          1    1    1    2  502    0  0.41658442780E+01  0.47510479683E+02 -0.53220320830E+03  0.53433590078E+03  0.00000000000E+00 0.  1.
         22    1    1    2    0    0 -0.40028928051E+02  0.77907503525E+02  0.20397352853E+03  0.22198444659E+03  0.00000000000E+00 0. -1.
         22    1    1    2    0    0  0.27461635363E+02 -0.13287300545E+02  0.83521653262E+01  0.31629929469E+02  0.00000000000E+00 0.  1.
</event>
<event>
 6    1  0.3240171E-005  0.1881561E+03  0.7818608E-02  0.1287868E+00
          2   -1    0    0  502    0  0.00000000000E+00  0.00000000000E+00  0.12051507578E+03  0.12051507578E+03  0.00000000000E+00 0.  1.
          1   -1    0    0  501    0 -0.00000000000E+00 -0.00000000000E+00 -0.58427091135E+03  0.58427091135E+03  0.00000000000E+00 0.  1.
          2    1    1    2  501    0  0.16199736416E+03  0.13535526482E+02 -0.22879524196E+03  0.28066638419E+03  0.00000000000E+00 0.  1.
          1    1    1    2  502    0 -0.18160964505E+03 -0.14367906361E+02 -0.23740534031E+03  0.29924871848E+03  0.00000000000E+00 0.  1.
         22    1    1    2    0    0  0.15703299044E+02 -0.11576128712E+02 -0.58959639520E+02  0.62103457626E+02  0.00000000000E+00 0.  1.
         22    1    1    2    0    0  0.39089818396E+01  0.12408508591E+02  0.61404386211E+02  0.62767426826E+02  0.00000000000E+00 0.  1.
</event>
<event>
 6    1  0.3240171E-005  0.7948428E+02  0.7818608E-02  0.1423700E+00
          2   -1    0    0  502    0  0.00000000000E+00  0.00000000000E+00  0.68468302699E+02  0.68468302699E+02  0.00000000000E+00 0.  1.
          1   -1    0    0  501    0 -0.00000000000E+00 -0.00000000000E+00 -0.13029963238E+04  0.13029963238E+04  0.00000000000E+00 0. -1.
          2    1    1    2  501    0 -0.22938638800E+02 -0.40996487326E+02 -0.11461253677E+03  0.12386656816E+03  0.00000000000E+00 0.  1.
          1    1    1    2  502    0  0.58537231689E+02  0.22179360503E+02 -0.11130886811E+04  0.11148474978E+04  0.00000000000E+00 0. -1.
         22    1    1    2    0    0  0.35461229833E+01  0.16874535599E+02  0.56059158709E+02  0.58651122879E+02  0.00000000000E+00 0.  1.
         22    1    1    2    0    0 -0.39144715872E+02  0.19425912238E+01 -0.62885961959E+02  0.74099437601E+02  0.00000000000E+00 0. -1.
</event>
<event>
 6    1  0.3240171E-005  0.4003958E+03  0.7818608E-02  0.1101944E+00
          2   -1    0    0  502    0  0.00000000000E+00  0.00000000000E+00  0.60195028912E+02  0.60195028912E+02  0.00000000000E+00 0.  1.
          1   -1    0    0  501    0 -0.00000000000E+00 -0.00000000000E+00 -0.22360812384E+04  0.22360812384E+04  0.00000000000E+00 0.  1.
          2    1    1    2  501    0  0.88186607522E+02 -0.64052526182E+02 -0.51118947091E+03  0.52267990111E+03  0.00000000000E+00 0.  1.
          1    1    1    2  502    0  0.21915054041E+03 -0.30173767741E+02 -0.99839611624E+03  0.10226104931E+04  0.00000000000E+00 0.  1.
         22    1    1    2    0    0 -0.55148546489E+02  0.59845932205E+02 -0.92100863063E+02  0.12290429919E+03  0.00000000000E+00 0.  1.
         22    1    1    2    0    0 -0.25218860145E+03  0.34380361717E+02 -0.57419975927E+03  0.62808157393E+03  0.00000000000E+00 0.  1.
</event>
<event>
 6    1  0.3240171E-005  0.1897092E+03  0.7818608E-02  0.1277280E+00
          2   -1    0    0  502    0  0.00000000000E+00  0.00000000000E+00  0.14805948071E+03  0.14805948071E+03  0.00000000000E+00 0.  1.
          1   -1    0    0  501    0 -0.00000000000E+00 -0.00000000000E+00 -0.33037093844E+03  0.33037093844E+03  0.00000000000E+00 0.  1.
          2    1    1    2  501    0 -0.23632038892E+02 -0.42622925040E+02 -0.26826752956E+02  0.55631480973E+02  0.00000000000E+00 0.  1.
          1    1    1    2  502    0  0.12110649575E+03 -0.52594316864E+02 -0.19163825614E+03  0.23271907248E+03  0.00000000000E+00 0.  1.
         22    1    1    2    0    0 -0.84706401220E+02  0.10402904202E+03 -0.16522065164E+02  0.13516728387E+03  0.00000000000E+00 0.  1.
         22    1    1    2    0    0 -0.12768055642E+02 -0.88118001174E+01  0.52675616530E+02  0.54912581828E+02  0.00000000000E+00 0.  1.
</event>
<event>
 6    1  0.3240171E-005  0.1237547E+03  0.7818608E-02  0.1238034E+00
          2   -1    0    0  502    0  0.00000000000E+00  0.00000000000E+00  0.86308485751E+02  0.86308485751E+02  0.00000000000E+00 0. -1.
          1   -1    0    0  501    0 -0.00000000000E+00 -0.00000000000E+00 -0.11705679376E+04  0.11705679376E+04  0.00000000000E+00 0. -1.
          2    1    1    2  501    0 -0.22714745364E+02  0.71594763058E+02 -0.52362317838E+02  0.91561903015E+02  0.00000000000E+00 0. -1.
          1    1    1    2  502    0 -0.44146676584E+02  0.28074697953E+02 -0.98630584685E+03  0.98769243252E+03  0.00000000000E+00 0. -1.
         22    1    1    2    0    0  0.66978313605E+02 -0.12737139706E+03 -0.39962454405E+02  0.14935382501E+03  0.00000000000E+00 0.  1.
         22    1    1    2    0    0 -0.11689165775E+00  0.27701936046E+02 -0.56288327558E+01  0.28268262815E+02  0.00000000000E+00 0. -1.
</event>
<event>
 6    1  0.3579597E-005  0.1399208E+03  0.7818608E-02  0.1242545E+00
          2   -1    0    0  502    0  0.00000000000E+00  0.00000000000E+00  0.57706365668E+03  0.57706365668E+03  0.00000000000E+00 0. -1.
          1   -1    0    0  501    0 -0.00000000000E+00 -0.00000000000E+00 -0.15590406219E+04  0.15590406219E+04  0.00000000000E+00 0. -1.
          2    1    1    2  501    0 -0.17700284416E+03 -0.46572903261E+02  0.12205473198E+03  0.21999181748E+03  0.00000000000E+00 0. -1.
          1    1    1    2  502    0  0.13417188003E+03  0.77084391915E+01 -0.14959770288E+04  0.15020015926E+04  0.00000000000E+00 0. -1.
         22    1    1    2    0    0  0.69402391820E+02  0.32291630702E+02  0.37311714710E+03  0.38088823408E+03  0.00000000000E+00 0.  1.
         22    1    1    2    0    0 -0.26571427689E+02  0.65728333677E+01  0.18828184502E+02  0.33222634447E+02  0.00000000000E+00 0. -1.
</event>
<event>
 6    1  0.3240171E-005  0.7040644E+02  0.7818608E-02  0.1481440E+00
          2   -1    0    0  502    0  0.00000000000E+00  0.00000000000E+00  0.73366760032E+02  0.73366760032E+02  0.00000000000E+00 0.  1.
          1   -1    0    0  501    0 -0.00000000000E+00 -0.00000000000E+00 -0.35527856137E+03  0.35527856137E+03  0.00000000000E+00 0.  1.
          2    1    1    2  501    0  0.88396600507E+01  0.18353370384E+02 -0.20738084933E+02  0.29069811850E+02  0.00000000000E+00 0.  1.
          1    1    1    2  502    0 -0.48925648410E+02 -0.45970273495E+02 -0.25798730712E+03  0.26657913601E+03  0.00000000000E+00 0.  1.
         22    1    1    2    0    0  0.43133521205E+02  0.37795535738E+02 -0.55384831074E+02  0.79727552868E+02  0.00000000000E+00 0.  1.
         22    1    1    2    0    0 -0.30475328451E+01 -0.10178632627E+02  0.52198421793E+02  0.53268820677E+02  0.00000000000E+00 0.  1.
</event>
<event>
 6    1  0.3240171E-005  0.8134411E+02  0.7818608E-02  0.1330588E+00
          2   -1    0    0  502    0  0.00000000000E+00  0.00000000000E+00  0.45353309096E+03  0.45353309096E+03  0.00000000000E+00 0. -1.
          1   -1    0    0  501    0 -0.00000000000E+00 -0.00000000000E+00 -0.58960721658E+02  0.58960721658E+02  0.00000000000E+00 0. -1.
          2    1    1    2  501    0 -0.40359971455E+02 -0.94486611669E+01  0.12324639953E+03  0.13003030221E+03  0.00000000000E+00 0. -1.
          1    1    1    2  502    0  0.31701707779E+02  0.74912393361E+02  0.60053484924E+01  0.81565490042E+02  0.00000000000E+00 0. -1.
         22    1    1    2    0    0 -0.37765688163E+02  0.14876242999E+02  0.13464483457E+03  0.14062994448E+03  0.00000000000E+00 0. -1.
         22    1    1    2    0    0  0.46423951840E+02 -0.80339975193E+02  0.13067578671E+03  0.16026807589E+03  0.00000000000E+00 0. -1.
</event>
<event>
 6    1  0.3240171E-005  0.1939908E+03  0.7818608E-02  0.1156575E+00
          2   -1    0    0  502    0  0.00000000000E+00  0.00000000000E+00  0.49113034939E+03  0.49113034939E+03  0.00000000000E+00 0. -1.
          1   -1    0    0  501    0 -0.00000000000E+00 -0.00000000000E+00 -0.12377577758E+03  0.12377577758E+03  0.00000000000E+00 0. -1.
          2    1    1    2  501    0  0.45178319835E+02  0.29434144739E+02  0.11914652799E+03  0.13077975604E+03  0.00000000000E+00 0. -1.
          1    1    1    2  502    0  0.10941745395E+02 -0.18930741387E+03  0.19006317703E+03  0.26847910534E+03  0.00000000000E+00 0. -1.
         22    1    1    2    0    0 -0.69987334862E+02  0.16899593095E+03  0.33536237485E+02  0.18596378933E+03  0.00000000000E+00 0. -1.
         22    1    1    2    0    0  0.13867269632E+02 -0.91226618168E+01  0.24608629315E+02  0.29683476252E+02  0.00000000000E+00 0. -1.
</event>
<event>
 6    1  0.3240171E-005  0.6428354E+02  0.7818608E-02  0.1382342E+00
          2   -1    0    0  502    0  0.00000000000E+00  0.00000000000E+00  0.13695120063E+02  0.13695120063E+02  0.00000000000E+00 0.  1.
          1   -1    0    0  501    0 -0.00000000000E+00 -0.00000000000E+00 -0.14169724965E+04  0.14169724965E+04  0.00000000000E+00 0.  1.
          2    1    1    2  501    0 -0.23565393436E+02 -0.10425743483E+02 -0.61318067871E+02  0.66512625436E+02  0.00000000000E+00 0.  1.
          1    1    1    2  502    0 -0.49293752955E+02 -0.78621334544E+01 -0.84687680466E+03  0.84834663286E+03  0.00000000000E+00 0.  1.
         22    1    1    2    0    0  0.96239243689E+02  0.34088842476E+02 -0.45782157737E+03  0.46906783935E+03  0.00000000000E+00 0. -1.
         22    1    1    2    0    0 -0.23380097298E+02 -0.15800965539E+02 -0.37260926529E+02  0.46740518904E+02  0.00000000000E+00 0.  1.
</event>
<event>
 6    1  0.3240171E-005  0.1225840E+03  0.7818608E-02  0.1243010E+00
          2   -1    0    0  502    0  0.00000000000E+00  0.00000000000E+00  0.84805215286E+03  0.84805215286E+03  0.00000000000E+00 0.  1.
          1   -1    0    0  501    0 -0.00000000000E+00 -0.00000000000E+00 -0.83479870227E+03  0.83479870227E+03  0.00000000000E+00 0.  1.
          2    1    1    2  501    0 -0.24551753432E+02 -0.74833244001E+02  0.14891732034E+03  0.16846118633E+03  0.00000000000E+00 0.  1.
          1    1    1    2  502    0 -0.10959131146E+02 -0.22091072614E+02 -0.81542741403E+03  0.81580021181E+03  0.00000000000E+00 0.  1.
         22    1    1    2    0    0 -0.27599376579E+02 -0.51424518593E+01  0.48658088490E+02  0.56176329305E+02  0.00000000000E+00 0. -1.
         22    1    1    2    0    0  0.63110261157E+02  0.10206676847E+03  0.63110545579E+03  0.64241312768E+03  0.00000000000E+00 0.  1.
</event>
<event>
 6    1  0.3240171E-005  0.7320042E+02  0.7818608E-02  0.1361582E+00
          2   -1    0    0  502    0  0.00000000000E+00  0.00000000000E+00  0.22790600378E+03  0.22790600378E+03  0.00000000000E+00 0. -1.
          1   -1    0    0  501    0 -0.00000000000E+00 -0.00000000000E+00 -0.13345289111E+03  0.13345289111E+03  0.00000000000E+00 0. -1.
          2    1    1    2  501    0  0.25030952043E+02 -0.24031800147E+02  0.61957391629E+02  0.71012635185E+02  0.00000000000E+00 0. -1.
          1    1    1    2  502    0 -0.57789578545E+02 -0.44929571276E+02 -0.76293678824E+02  0.10573091881E+03  0.00000000000E+00 0. -1.
         22    1    1    2    0    0  0.96082235682E+01  0.82950178375E+02  0.12299274833E+02  0.84405700127E+02  0.00000000000E+00 0. -1.
         22    1    1    2    0    0  0.23150402934E+02 -0.13988806952E+02  0.96490125031E+02  0.10020964078E+03  0.00000000000E+00 0. -1.
</event>
<event>
 6    1  0.3240171E-005  0.3169436E+03  0.7818608E-02  0.1158934E+00
          2   -1    0    0  502    0  0.00000000000E+00  0.00000000000E+00  0.31110567468E+03  0.31110567468E+03  0.00000000000E+00 0. -1.
          1   -1    0    0  501    0 -0.00000000000E+00 -0.00000000000E+00 -0.78828555445E+03  0.78828555445E+03  0.00000000000E+00 0. -1.
          2    1    1    2  501    0 -0.81169181202E+02  0.25549387507E+03 -0.31080830003E+03  0.41044775007E+03  0.00000000000E+00 0. -1.
          1    1    1    2  502    0  0.40066262254E+02 -0.30638941635E+03 -0.34537039638E+03  0.46342258310E+03  0.00000000000E+00 0. -1.
         22    1    1    2    0    0  0.40333551915E+01  0.34623495235E+02 -0.66697355205E+01  0.35489995046E+02  0.00000000000E+00 0. -1.
         22    1    1    2    0    0  0.37069563756E+02  0.16272046049E+02  0.18566855217E+03  0.19003090092E+03  0.00000000000E+00 0. -1.
</event>
<event>
 6    1  0.3240171E-005  0.6840527E+02  0.7818608E-02  0.1367725E+00
          2   -1    0    0  502    0  0.00000000000E+00  0.00000000000E+00  0.45670830737E+03  0.45670830737E+03  0.00000000000E+00 0.  1.
          1   -1    0    0  501    0 -0.00000000000E+00 -0.00000000000E+00 -0.44635230907E+02  0.44635230907E+02  0.00000000000E+00 0.  1.
          2    1    1    2  501    0 -0.29942107150E+02  0.13065472194E+02  0.12865849131E+03  0.13274126611E+03  0.00000000000E+00 0.  1.
          1    1    1    2  502    0 -0.18278646233E+02 -0.49664955456E+02 -0.30912720270E+00  0.52922700877E+02  0.00000000000E+00 0.  1.
         22    1    1    2    0    0  0.80543797944E+02  0.40034127176E+02  0.12702535085E+03  0.15564534842E+03  0.00000000000E+00 0.  1.
         22    1    1    2    0    0 -0.32323044561E+02 -0.34346439140E+01  0.15669836151E+03  0.16003422287E+03  0.00000000000E+00 0.  1.
</event>
<event>
 6    1  0.3240171E-005  0.1279879E+03  0.7818608E-02  0.1290769E+00
          2   -1    0    0  502    0  0.00000000000E+00  0.00000000000E+00  0.50364040299E+02  0.50364040299E+02  0.00000000000E+00 0.  1.
          1   -1    0    0  501    0 -0.00000000000E+00 -0.00000000000E+00 -0.90105980673E+03  0.90105980673E+03  0.00000000000E+00 0.  1.
          2    1    1    2  501    0 -0.44434599285E+01  0.42573794712E+02 -0.70102912492E+02  0.82138241229E+02  0.00000000000E+00 0.  1.
          1    1    1    2  502    0  0.19605097700E+02  0.75469512045E+01 -0.72372061188E+03  0.72402544181E+03  0.00000000000E+00 0.  1.
         22    1    1    2    0    0  0.10656131105E+02 -0.80321822317E+02 -0.65986553314E+02  0.10449580608E+03  0.00000000000E+00 0.  1.
         22    1    1    2    0    0 -0.25817768876E+02  0.30201076401E+02  0.91143112594E+01  0.40764357903E+02  0.00000000000E+00 0.  1.
</event>
<event>
 6    1  0.3240171E-005  0.1172187E+03  0.7818608E-02  0.1250220E+00
          2   -1    0    0  502    0  0.00000000000E+00  0.00000000000E+00  0.33725841027E+02  0.33725841027E+02  0.00000000000E+00 0.  1.
          1   -1    0    0  501    0 -0.00000000000E+00 -0.00000000000E+00 -0.77221828243E+03  0.77221828243E+03  0.00000000000E+00 0.  1.
          2    1    1    2  501    0 -0.21184478586E+02 -0.95191792943E+02 -0.18578891548E+03  0.20982797881E+03  0.00000000000E+00 0.  1.
          1    1    1    2  502    0  0.66218684755E+02  0.31629179203E+02 -0.25739937344E+03  0.26765604166E+03  0.00000000000E+00 0.  1.
         22    1    1    2    0    0 -0.50608007524E+02  0.93516006863E+02 -0.26477783875E+03  0.28533089188E+03  0.00000000000E+00 0.  1.
         22    1    1    2    0    0  0.55738013542E+01 -0.29953393123E+02 -0.30526313726E+02  0.43129211108E+02  0.00000000000E+00 0.  1.
</event>
<event>
 6    1  0.3240171E-005  0.8150972E+02  0.7818608E-02  0.1331333E+00
          2   -1    0    0  502    0  0.00000000000E+00  0.00000000000E+00  0.12204544013E+03  0.12204544013E+03  0.00000000000E+00 0.  1.
          1   -1    0    0  501    0 -0.00000000000E+00 -0.00000000000E+00 -0.68886689498E+03  0.68886689498E+03  0.00000000000E+00 0.  1.
          2    1    1    2  501    0 -0.29714845000E+02  0.91544068483E+00 -0.95798778688E+01  0.31234341758E+02  0.00000000000E+00 0.  1.
          1    1    1    2  502    0 -0.12977904585E+02  0.20217906871E+02 -0.62779542051E+03  0.62825494807E+03  0.00000000000E+00 0.  1.
         22    1    1    2    0    0 -0.29631664542E+02 -0.38865534310E+02  0.46638012987E-01  0.48872972856E+02  0.00000000000E+00 0.  1.
         22    1    1    2    0    0  0.72324414127E+02  0.17732186754E+02  0.70507205511E+02  0.10255007243E+03  0.00000000000E+00 0.  1.
</event>
<event>
 6    1  0.3240171E-005  0.1083607E+03  0.7818608E-02  0.1345080E+00
          2   -1    0    0  502    0  0.00000000000E+00  0.00000000000E+00  0.11376961238E+03  0.11376961238E+03  0.00000000000E+00 0.  1.
          1   -1    0    0  501    0 -0.00000000000E+00 -0.00000000000E+00 -0.67229485898E+03  0.67229485898E+03  0.00000000000E+00 0.  1.
          2    1    1    2  501    0 -0.36484432024E+02  0.51171233844E+02 -0.23797137413E+02  0.67200540937E+02  0.00000000000E+00 0.  1.
          1    1    1    2  502    0  0.44962796643E+02 -0.37447584616E+02 -0.58258320264E+03  0.58551444276E+03  0.00000000000E+00 0.  1.
         22    1    1    2    0    0 -0.10693291933E+02 -0.37978027244E+02 -0.31407607844E+02  0.50429305728E+02  0.00000000000E+00 0. -1.
         22    1    1    2    0    0  0.22149273142E+01  0.24254378016E+02  0.79262701294E+02  0.82920181936E+02  0.00000000000E+00 0.  1.
</event>
<event>
 6    1  0.3240171E-005  0.2365286E+03  0.7818608E-02  0.1128217E+00
          2   -1    0    0  502    0  0.00000000000E+00  0.00000000000E+00  0.27590013074E+03  0.27590013074E+03  0.00000000000E+00 0. -1.
          1   -1    0    0  501    0 -0.00000000000E+00 -0.00000000000E+00 -0.31952241290E+03  0.31952241290E+03  0.00000000000E+00 0.  1.
          2    1    1    2  501    0  0.13981116435E+03  0.15679511001E+03  0.64143415101E+02  0.21965028090E+03  0.00000000000E+00 0. -1.
          1    1    1    2  502    0 -0.42992996614E+02  0.27206969542E+02 -0.12019743544E+03  0.13052218370E+03  0.00000000000E+00 0.  1.
         22    1    1    2    0    0 -0.10298507623E+03 -0.17380734563E+03 -0.27214849505E+02  0.20385182696E+03  0.00000000000E+00 0.  1.
         22    1    1    2    0    0  0.61669084911E+01 -0.10194733919E+02  0.39646587688E+02  0.41398252081E+02  0.00000000000E+00 0. -1.
</event>
<event>
 6    1  0.3240171E-005  0.7993608E+02  0.7818608E-02  0.1344254E+00
          2   -1    0    0  502    0  0.00000000000E+00  0.00000000000E+00  0.41067056400E+03  0.41067056400E+03  0.00000000000E+00 0. -1.
          1   -1    0    0  501    0 -0.00000000000E+00 -0.00000000000E+00 -0.73536274711E+02  0.73536274711E+02  0.00000000000E+00 0. -1.
          2    1    1    2  501    0 -0.15645110995E+02  0.46426162942E+02  0.13887948823E+03  0.14726734313E+03  0.00000000000E+00 0. -1.
          1    1    1    2  502    0  0.59995505218E+02 -0.41404480865E+02 -0.24359093350E+02  0.76858032181E+02  0.00000000000E+00 0. -1.
         22    1    1    2    0    0 -0.42012541307E+02  0.56473173468E+02  0.14366963892E+03  0.15998511836E+03  0.00000000000E+00 0. -1.
         22    1    1    2    0    0 -0.23378529159E+01 -0.61494855546E+02  0.78944255492E+02  0.10009634504E+03  0.00000000000E+00 0.  1.
</event>
<event>
 6    1  0.3240171E-005  0.3068427E+03  0.7818608E-02  0.1178524E+00
          2   -1    0    0  502    0  0.00000000000E+00  0.00000000000E+00  0.27774481299E+03  0.27774481299E+03  0.00000000000E+00 0.  1.
          1   -1    0    0  501    0 -0.00000000000E+00 -0.00000000000E+00 -0.11619234139E+04  0.11619234139E+04  0.00000000000E+00 0.  1.
          2    1    1    2  501    0 -0.13239058066E+03 -0.18015754284E+02 -0.12572913457E+02  0.13420101119E+03  0.00000000000E+00 0.  1.
          1    1    1    2  502    0  0.27823049247E+03  0.38019625442E+02 -0.10221565576E+04  0.10600291161E+04  0.00000000000E+00 0.  1.
         22    1    1    2    0    0 -0.15855278287E+03 -0.45480505056E+02  0.12241282766E+03  0.20540779360E+03  0.00000000000E+00 0.  1.
         22    1    1    2    0    0  0.12712871065E+02  0.25476633898E+02  0.28138042445E+02  0.40030305996E+02  0.00000000000E+00 0.  1.
</event>
<event>
 6    1  0.3240171E-005  0.6712786E+02  0.7818608E-02  0.1406452E+00
          2   -1    0    0  502    0  0.00000000000E+00  0.00000000000E+00  0.24637131459E+02  0.24637131459E+02  0.00000000000E+00 0.  1.
          1   -1    0    0  501    0 -0.00000000000E+00 -0.00000000000E+00 -0.49059816184E+03  0.49059816184E+03  0.00000000000E+00 0.  1.
          2    1    1    2  501    0 -0.13769525768E+02 -0.18209960719E+02 -0.11756565350E+03  0.11976178602E+03  0.00000000000E+00 0.  1.
          1    1    1    2  502    0  0.37046405215E+02 -0.26639000486E+02 -0.49371893426E+02  0.67228389440E+02  0.00000000000E+00 0.  1.
         22    1    1    2    0    0 -0.46587827134E+02  0.15610275397E+02 -0.28355131968E+03  0.28777674893E+03  0.00000000000E+00 0.  1.
         22    1    1    2    0    0  0.23310947687E+02  0.29238685808E+02 -0.15472163784E+02  0.40468368907E+02  0.00000000000E+00 0.  1.
</event>
<event>
 6    1  0.3240171E-005  0.6267727E+02  0.7818608E-02  0.1390142E+00
          2   -1    0    0  502    0  0.00000000000E+00  0.00000000000E+00  0.33440813513E+02  0.33440813513E+02  0.00000000000E+00 0.  1.
          1   -1    0    0  501    0 -0.00000000000E+00 -0.00000000000E+00 -0.63181680261E+03  0.63181680261E+03  0.00000000000E+00 0. -1.
          2    1    1    2  501    0  0.10255598826E+02 -0.17838723724E+02 -0.46261671633E+02  0.50631409556E+02  0.00000000000E+00 0.  1.
          1    1    1    2  502    0 -0.20949287968E+02  0.10995026355E+01 -0.46289101104E+03  0.46336612918E+03  0.00000000000E+00 0. -1.
         22    1    1    2    0    0 -0.33277791729E+02  0.45870226811E+02 -0.12299092569E+02  0.57989281838E+02  0.00000000000E+00 0.  1.
         22    1    1    2    0    0  0.43971480871E+02 -0.29131005723E+02 -0.76924213853E+02  0.93270795543E+02  0.00000000000E+00 0.  1.
</event>
<event>
 6    1  0.3240171E-005  0.9519716E+02  0.7818608E-02  0.1317806E+00
          2   -1    0    0  502    0  0.00000000000E+00  0.00000000000E+00  0.53267390945E+02  0.53267390945E+02  0.00000000000E+00 0.  1.
          1   -1    0    0  501    0 -0.00000000000E+00 -0.00000000000E+00 -0.21979881833E+04  0.21979881833E+04  0.00000000000E+00 0. -1.
          2    1    1    2  501    0  0.30615476772E+02  0.19889521639E+02 -0.37512615946E+02  0.52345934361E+02  0.00000000000E+00 0.  1.
          1    1    1    2  502    0 -0.21940783532E+02 -0.30198251090E+02 -0.20665822900E+04  0.20669193728E+04  0.00000000000E+00 0. -1.
         22    1    1    2    0    0  0.33269445228E+02 -0.27209637716E+02  0.21591391288E+02  0.48097905861E+02  0.00000000000E+00 0.  1.
         22    1    1    2    0    0 -0.41944138467E+02  0.37518367168E+02 -0.62217277714E+02  0.83892361231E+02  0.00000000000E+00 0.  1.
</event>
<event>
 6    1  0.3240171E-005  0.8986917E+02  0.7818608E-02  0.1349353E+00
          2   -1    0    0  502    0  0.00000000000E+00  0.00000000000E+00  0.40706761980E+03  0.40706761980E+03  0.00000000000E+00 0.  1.
          1   -1    0    0  501    0 -0.00000000000E+00 -0.00000000000E+00 -0.37585472412E+03  0.37585472412E+03  0.00000000000E+00 0. -1.
          2    1    1    2  501    0 -0.23085131287E+02  0.12001218212E+02  0.11057713504E+03  0.11359689837E+03  0.00000000000E+00 0.  1.
          1    1    1    2  502    0  0.60733893279E+02 -0.53016707104E+02 -0.35388833416E+03  0.36295499732E+03  0.00000000000E+00 0. -1.
         22    1    1    2    0    0 -0.16771478522E+02 -0.35962293410E+02  0.31716721690E+02  0.50798813706E+02  0.00000000000E+00 0.  1.
         22    1    1    2    0    0 -0.20877283470E+02  0.76977782303E+02  0.24280737311E+03  0.25557163452E+03  0.00000000000E+00 0. -1.
</event>
<event>
 6    1  0.3240171E-005  0.1426768E+03  0.7818608E-02  0.1274277E+00
          2   -1    0    0  502    0  0.00000000000E+00  0.00000000000E+00  0.26502235333E+03  0.26502235333E+03  0.00000000000E+00 0. -1.
          1   -1    0    0  501    0 -0.00000000000E+00 -0.00000000000E+00 -0.97858963654E+02  0.97858963654E+02  0.00000000000E+00 0. -1.
          2    1    1    2  501    0 -0.56982496436E+02  0.54635065490E+02  0.20352297031E+02  0.81524298682E+02  0.00000000000E+00 0. -1.
          1    1    1    2  502    0  0.47472524608E+02 -0.78282828787E+02  0.12089924276E+03  0.15165246050E+03  0.00000000000E+00 0. -1.
         22    1    1    2    0    0 -0.36913198147E+02  0.11382584422E+02  0.59618415694E+02  0.71038742355E+02  0.00000000000E+00 0. -1.
         22    1    1    2    0    0  0.46423169975E+02  0.12265178875E+02 -0.33706565809E+02  0.58665815446E+02  0.00000000000E+00 0.  1.
</event>
<event>
 6    1  0.3240171E-005  0.9774800E+02  0.7818608E-02  0.1289510E+00
          2   -1    0    0  502    0  0.00000000000E+00  0.00000000000E+00  0.82800875967E+02  0.82800875967E+02  0.00000000000E+00 0.  1.
          1   -1    0    0  501    0 -0.00000000000E+00 -0.00000000000E+00 -0.13310376398E+04  0.13310376398E+04  0.00000000000E+00 0. -1.
          2    1    1    2  501    0  0.12824779400E+02  0.34899157207E+02 -0.30155470024E+02  0.47872523568E+02  0.00000000000E+00 0.  1.
          1    1    1    2  502    0  0.56554639204E+01  0.22967971161E+02 -0.12226794612E+04  0.12229082455E+04  0.00000000000E+00 0. -1.
         22    1    1    2    0    0  0.70927874435E+01  0.40257550600E+02  0.77530829847E+01  0.41606349393E+02  0.00000000000E+00 0.  1.
         22    1    1    2    0    0 -0.25573030764E+02 -0.98124678968E+02 -0.31549155617E+01  0.10145139732E+03  0.00000000000E+00 0.  1.
</event>
<event>
 6    1  0.3240171E-005  0.7595572E+02  0.7818608E-02  0.1343203E+00
          2   -1    0    0  502    0  0.00000000000E+00  0.00000000000E+00  0.10506202762E+03  0.10506202762E+03  0.00000000000E+00 0.  1.
          1   -1    0    0  501    0 -0.00000000000E+00 -0.00000000000E+00 -0.17256081102E+03  0.17256081102E+03  0.00000000000E+00 0.  1.
          2    1    1    2  501    0 -0.55326990334E+02 -0.31097925182E+02 -0.57010339787E+02  0.85313162247E+02  0.00000000000E+00 0.  1.
          1    1    1    2  502    0  0.54478058285E+01  0.52399456469E+02 -0.25322720353E+02  0.58451875869E+02  0.00000000000E+00 0.  1.
         22    1    1    2    0    0  0.71762428606E+02 -0.16025937805E+02  0.52242188553E+02  0.90199352031E+02  0.00000000000E+00 0.  1.
         22    1    1    2    0    0 -0.21883244101E+02 -0.52755934821E+01 -0.37407911811E+02  0.43658448495E+02  0.00000000000E+00 0. -1.
</event>
<event>
 6    1  0.3240171E-005  0.7991751E+02  0.7818608E-02  0.1330483E+00
          2   -1    0    0  502    0  0.00000000000E+00  0.00000000000E+00  0.19476776595E+03  0.19476776595E+03  0.00000000000E+00 0.  1.
          1   -1    0    0  501    0 -0.00000000000E+00 -0.00000000000E+00 -0.34527158288E+03  0.34527158288E+03  0.00000000000E+00 0.  1.
          2    1    1    2  501    0 -0.29730156815E+02 -0.39061817232E+02 -0.23419892736E+03  0.23928820566E+03  0.00000000000E+00 0.  1.
          1    1    1    2  502    0  0.11584298856E+03 -0.74505932543E+01 -0.11931800238E+02  0.11669394670E+03  0.00000000000E+00 0.  1.
         22    1    1    2    0    0 -0.18436431419E+02  0.72276353489E+01 -0.30062801102E+02  0.35998787845E+02  0.00000000000E+00 0. -1.
         22    1    1    2    0    0 -0.67676400331E+02  0.39284775138E+02  0.12568971178E+03  0.14805840863E+03  0.00000000000E+00 0.  1.
</event>
<event>
 6    1  0.3240171E-005  0.1588176E+03  0.7818608E-02  0.1252733E+00
          2   -1    0    0  502    0  0.00000000000E+00  0.00000000000E+00  0.46097842959E+03  0.46097842959E+03  0.00000000000E+00 0.  1.
          1   -1    0    0  501    0 -0.00000000000E+00 -0.00000000000E+00 -0.13080600634E+04  0.13080600634E+04  0.00000000000E+00 0. -1.
          2    1    1    2  501    0  0.63593537750E+02 -0.20718310356E+02  0.12812726613E+03  0.14453367342E+03  0.00000000000E+00 0.  1.
          1    1    1    2  502    0 -0.12841561632E+03 -0.60064201598E+02 -0.12763358400E+04  0.12841851328E+04  0.00000000000E+00 0. -1.
         22    1    1    2    0    0  0.10033263057E+03  0.57121553310E+02  0.23063230447E+03  0.25791620437E+03  0.00000000000E+00 0.  1.
         22    1    1    2    0    0 -0.35510551999E+02  0.23660958644E+02  0.70494635586E+02  0.82403482412E+02  0.00000000000E+00 0. -1.
</event>
<event>
 6    1  0.3593819E-005  0.1055716E+03  0.7818608E-02  0.1371745E+00
          2   -1    0    0  502    0  0.00000000000E+00  0.00000000000E+00  0.43201676236E+03  0.43201676236E+03  0.00000000000E+00 0. -1.
          1   -1    0    0  501    0 -0.00000000000E+00 -0.00000000000E+00 -0.25473198943E+03  0.25473198943E+03  0.00000000000E+00 0. -1.
          2    1    1    2  501    0 -0.85183393851E+02  0.52261065911E+01 -0.22178531221E+03  0.23763890146E+03  0.00000000000E+00 0. -1.
          1    1    1    2  502    0  0.60851476517E+02 -0.15702986058E+02  0.21672783903E+03  0.22565558308E+03  0.00000000000E+00 0. -1.
         22    1    1    2    0    0  0.34310469581E+02  0.23999468426E+02  0.19684934349E+03  0.20125319088E+03  0.00000000000E+00 0. -1.
         22    1    1    2    0    0 -0.99785522468E+01 -0.13522588959E+02 -0.14507097389E+02  0.22201076365E+02  0.00000000000E+00 0.  1.
</event>
<event>
 6    1  0.3240171E-005  0.1246004E+03  0.7818608E-02  0.1252220E+00
          2   -1    0    0  502    0  0.00000000000E+00  0.00000000000E+00  0.35139079525E+03  0.35139079525E+03  0.00000000000E+00 0.  1.
          1   -1    0    0  501    0 -0.00000000000E+00 -0.00000000000E+00 -0.25946375409E+03  0.25946375409E+03  0.00000000000E+00 0.  1.
          2    1    1    2  501    0 -0.12768250510E+03 -0.66079837879E+02  0.12096032609E+03  0.18788498495E+03  0.00000000000E+00 0.  1.
          1    1    1    2  502    0  0.78065812002E+02  0.61479297418E+02 -0.18767408662E+03  0.21235709972E+03  0.00000000000E+00 0.  1.
         22    1    1    2    0    0  0.88419845436E+02 -0.12297309850E+02  0.13581437253E+03  0.16252641841E+03  0.00000000000E+00 0.  1.
         22    1    1    2    0    0 -0.38803152342E+02  0.16897850311E+02  0.22826429153E+02  0.48086046258E+02  0.00000000000E+00 0.  1.
</event>
<event>
 6    1  0.3240171E-005  0.8908112E+02  0.7818608E-02  0.1313513E+00
          2   -1    0    0  502    0  0.00000000000E+00  0.00000000000E+00  0.43802011477E+03  0.43802011477E+03  0.00000000000E+00 0. -1.
          1   -1    0    0  501    0 -0.00000000000E+00 -0.00000000000E+00 -0.35755354712E+03  0.35755354712E+03  0.00000000000E+00 0.  1.
          2    1    1    2  501    0  0.17171582110E+02 -0.47918807300E+02  0.13770545562E+03  0.14681235586E+03  0.00000000000E+00 0. -1.
          1    1    1    2  502    0 -0.89159263150E+01  0.41564662741E+02 -0.33809367478E+03  0.34075570114E+03  0.00000000000E+00 0.  1.
         22    1    1    2    0    0  0.11401934662E+02  0.50933316203E+02  0.50750237148E+02  0.72799679835E+02  0.00000000000E+00 0. -1.
         22    1    1    2    0    0 -0.19657590457E+02 -0.44579171643E+02  0.23010454966E+03  0.23520592506E+03  0.00000000000E+00 0. -1.
</event>
<event>
 6    1  0.3240171E-005  0.3003307E+03  0.7818608E-02  0.1166635E+00
          2   -1    0    0  502    0  0.00000000000E+00  0.00000000000E+00  0.48864685763E+03  0.48864685763E+03  0.00000000000E+00 0. -1.
          1   -1    0    0  501    0 -0.00000000000E+00 -0.00000000000E+00 -0.10532301823E+04  0.10532301823E+04  0.00000000000E+00 0.  1.
          2    1    1    2  501    0  0.15308141760E+03 -0.80800986547E+02  0.16296767312E+03  0.23774183966E+03  0.00000000000E+00 0. -1.
          1    1    1    2  502    0 -0.96088336541E+02 -0.23991070121E+02 -0.98745588322E+03  0.99241002674E+03  0.00000000000E+00 0.  1.
         22    1    1    2    0    0  0.30289466020E+02  0.25827914822E+02  0.13215409322E+03  0.13801897439E+03  0.00000000000E+00 0. -1.
         22    1    1    2    0    0 -0.87282547080E+02  0.78964141846E+02  0.12775079220E+03  0.17370619917E+03  0.00000000000E+00 0. -1.
</event>
<event>
 6    1  0.3240171E-005  0.1051019E+03  0.7818608E-02  0.1295791E+00
          2   -1    0    0  502    0  0.00000000000E+00  0.00000000000E+00  0.74541738659E+02  0.74541738659E+02  0.00000000000E+00 0. -1.
          1   -1    0    0  501    0 -0.00000000000E+00 -0.00000000000E+00 -0.26425729080E+03  0.26425729080E+03  0.00000000000E+00 0. -1.
          2    1    1    2  501    0 -0.59829201147E+02 -0.11805667290E+02 -0.29210316757E+02  0.67617672949E+02  0.00000000000E+00 0. -1.
          1    1    1    2  502    0  0.68058834438E+02  0.21114193781E+02 -0.12098018551E+03  0.14040662168E+03  0.00000000000E+00 0. -1.
         22    1    1    2    0    0  0.10623145885E+02 -0.63494308578E+02 -0.68234190439E+01  0.64737450504E+02  0.00000000000E+00 0.  1.
         22    1    1    2    0    0 -0.18852779177E+02  0.54185782086E+02 -0.32701630831E+02  0.66037284333E+02  0.00000000000E+00 0. -1.
</event>
<event>
 6    1  0.3240171E-005  0.7051162E+02  0.7818608E-02  0.1406575E+00
          2   -1    0    0  502    0  0.00000000000E+00  0.00000000000E+00  0.24863747020E+02  0.24863747020E+02  0.00000000000E+00 0.  1.
          1   -1    0    0  501    0 -0.00000000000E+00 -0.00000000000E+00 -0.63408180835E+03  0.63408180835E+03  0.00000000000E+00 0.  1.
          2    1    1    2  501    0  0.32951370582E+02  0.45294458996E+01 -0.19394917584E+03  0.19678056691E+03  0.00000000000E+00 0.  1.
          1    1    1    2  502    0 -0.51593028960E+02 -0.14251624217E+02 -0.25215754175E+03  0.25777582372E+03  0.00000000000E+00 0.  1.
         22    1    1    2    0    0  0.48367168280E+02  0.22106756998E+02 -0.16376197658E+03  0.17218036080E+03  0.00000000000E+00 0.  1.
         22    1    1    2    0    0 -0.29725509902E+02 -0.12384578681E+02  0.65063284921E+00  0.32208803938E+02  0.00000000000E+00 0.  1.
</event>
<event>
 6    1  0.3240171E-005  0.2320821E+03  0.7818608E-02  0.1161506E+00
          2   -1    0    0  502    0  0.00000000000E+00  0.00000000000E+00  0.71819178335E+02  0.71819178335E+02  0.00000000000E+00 0.  1.
          1   -1    0    0  501    0 -0.00000000000E+00 -0.00000000000E+00 -0.71461611204E+03  0.71461611204E+03  0.00000000000E+00 0.  1.
          2    1    1    2  501    0 -0.42248881280E+02 -0.12686227706E+03 -0.21652329696E+03  0.25448250124E+03  0.00000000000E+00 0.  1.
          1    1    1    2  502    0 -0.76131516697E+02  0.18303653781E+01 -0.23300555515E+03  0.24513454837E+03  0.00000000000E+00 0.  1.
         22    1    1    2    0    0  0.37421515798E+02  0.40583744439E+02  0.62254091828E+01  0.55553270622E+02  0.00000000000E+00 0.  1.
         22    1    1    2    0    0  0.80958882179E+02  0.84448167245E+02 -0.19949349077E+03  0.23126497014E+03  0.00000000000E+00 0.  1.
</event>
<event>
 6    1  0.3240171E-005  0.4121207E+03  0.7818608E-02  0.1152678E+00
          2   -1    0    0  502    0  0.00000000000E+00  0.00000000000E+00  0.11525596951E+03  0.11525596951E+03  0.00000000000E+00 0. -1.
          1   -1    0    0  501    0 -0.00000000000E+00 -0.00000000000E+00 -0.19287795168E+04  0.19287795168E+04  0.00000000000E+00 0. -1.
          2    1    1    2  501    0 -0.15230543171E+03 -0.64862914351E+02 -0.22361023833E+03  0.27821876441E+03  0.00000000000E+00 0. -1.
          1    1    1    2  502    0  0.19414404939E+03 -0.14368480417E+03 -0.14749912420E+04  0.14946358750E+04  0.00000000000E+00 0. -1.
         22    1    1    2    0    0 -0.25961105638E+02  0.22278216914E+03 -0.10569213561E+03  0.24794495644E+03  0.00000000000E+00 0. -1.
         22    1    1    2    0    0 -0.15877512040E+02 -0.14234450620E+02 -0.92299313775E+01  0.23235890477E+02  0.00000000000E+00 0.  1.
</event>
<event>
 6    1  0.3240171E-005  0.9723507E+02  0.7818608E-02  0.1356797E+00
          2   -1    0    0  502    0  0.00000000000E+00  0.00000000000E+00  0.13642077701E+02  0.13642077701E+02  0.00000000000E+00 0. -1.
          1   -1    0    0  501    0 -0.00000000000E+00 -0.00000000000E+00 -0.17369870904E+04  0.17369870904E+04  0.00000000000E+00 0. -1.
          2    1    1    2  501    0 -0.32984729416E+02 -0.15851837152E+02 -0.81048785580E+03  0.81131364929E+03  0.00000000000E+00 0. -1.
          1    1    1    2  502    0  0.40212372538E+02  0.44572489740E+02 -0.58881666781E+03  0.59186891288E+03  0.00000000000E+00 0. -1.
         22    1    1    2    0    0  0.22348343967E+02  0.16209818033E+02 -0.10839162879E+02  0.29659638074E+02  0.00000000000E+00 0. -1.
         22    1    1    2    0    0 -0.29575987090E+02 -0.44930470621E+02 -0.31320132625E+03  0.31778696790E+03  0.00000000000E+00 0. -1.
</event>
<event>
 6    1  0.3240171E-005  0.9838860E+02  0.7818608E-02  0.1286152E+00
          2   -1    0    0  502    0  0.00000000000E+00  0.00000000000E+00  0.19827536922E+03  0.19827536922E+03  0.00000000000E+00 0.  1.
          1   -1    0    0  501    0 -0.00000000000E+00 -0.00000000000E+00 -0.42381328844E+03  0.42381328844E+03  0.00000000000E+00 0.  1.
          2    1    1    2  501    0  0.25834292111E+02 -0.75927201219E+02  0.33797607214E+02  0.87032343340E+02  0.00000000000E+00 0.  1.
          1    1    1    2  502    0 -0.90092539256E+02  0.24911348708E+02 -0.34971684647E+03  0.36199325081E+03  0.00000000000E+00 0.  1.
         22    1    1    2    0    0  0.39884999801E+02  0.85653825238E+02  0.90318927535E+02  0.13070921795E+03  0.00000000000E+00 0.  1.
         22    1    1    2    0    0  0.24373247345E+02 -0.34637972726E+02  0.62392495371E-01  0.42353845558E+02  0.00000000000E+00 0.  1.
</event>
<event>
 6    1  0.3240171E-005  0.1350085E+03  0.7818608E-02  0.1315434E+00
          2   -1    0    0  502    0  0.00000000000E+00  0.00000000000E+00  0.73608043862E+02  0.73608043862E+02  0.00000000000E+00 0.  1.
          1   -1    0    0  501    0 -0.00000000000E+00 -0.00000000000E+00 -0.89077543863E+03  0.89077543863E+03  0.00000000000E+00 0.  1.
          2    1    1    2  501    0 -0.51667938840E+02  0.18384127710E+02 -0.62700930015E+02  0.83300412246E+02  0.00000000000E+00 0.  1.
          1    1    1    2  502    0  0.45728650745E+02 -0.89528582368E+02 -0.72386688449E+03  0.73081443816E+03  0.00000000000E+00 0.  1.
         22    1    1    2    0    0  0.26993025835E+02  0.68556873420E+02 -0.72460418068E+02  0.10334012059E+03  0.00000000000E+00 0.  1.
         22    1    1    2    0    0 -0.21053737741E+02  0.25875812375E+01  0.41860837806E+02  0.46928511497E+02  0.00000000000E+00 0. -1.
</event>
<event>
 6    1  0.3240171E-005  0.2711979E+03  0.7818608E-02  0.1237722E+00
          2   -1    0    0  502    0  0.00000000000E+00  0.00000000000E+00  0.58582969628E+02  0.58582969628E+02  0.00000000000E+00 0. -1.
          1   -1    0    0  501    0 -0.00000000000E+00 -0.00000000000E+00 -0.20289872566E+04  0.20289872566E+04  0.00000000000E+00 0. -1.
          2    1    1    2  501    0  0.18814290746E+03  0.81323797794E+02 -0.53196464280E+03  0.57008569085E+03  0.00000000000E+00 0. -1.
          1    1    1    2  502    0 -0.24119048904E+03 -0.11860131925E+03 -0.12567046820E+04  0.12851248121E+04  0.00000000000E+00 0. -1.
         22    1    1    2    0    0  0.43632315562E+02  0.44043481428E+02 -0.20074093037E+03  0.21009647389E+03  0.00000000000E+00 0. -1.
         22    1    1    2    0    0  0.94152660110E+01 -0.67659599727E+01  0.19005968167E+02  0.22263249412E+02  0.00000000000E+00 0. -1.
</event>
<event>
 6    1  0.3240171E-005  0.1480522E+03  0.7818608E-02  0.1205244E+00
          2   -1    0    0  502    0  0.00000000000E+00  0.00000000000E+00  0.17738266708E+02  0.17738266708E+02  0.00000000000E+00 0.  1.
          1   -1    0    0  501    0 -0.00000000000E+00 -0.00000000000E+00 -0.19292540091E+04  0.19292540091E+04  0.00000000000E+00 0.  1.
          2    1    1    2  501    0  0.93545434134E+01 -0.11062847762E+03 -0.45152651179E+03  0.46497565354E+03  0.00000000000E+00 0.  1.
          1    1    1    2  502    0  0.16019287499E+02 -0.19763815937E+02 -0.70398192750E+03  0.70444146686E+03  0.00000000000E+00 0.  1.
         22    1    1    2    0    0  0.20787949445E+02 -0.16371893465E+02 -0.79285562993E+02  0.83584557407E+02  0.00000000000E+00 0.  1.
         22    1    1    2    0    0 -0.46161780357E+02  0.14676418703E+03 -0.67672174009E+03  0.69399059796E+03  0.00000000000E+00 0.  1.
</event>
<event>
 6    1  0.3240171E-005  0.8490710E+02  0.7818608E-02  0.1348464E+00
          2   -1    0    0  502    0  0.00000000000E+00  0.00000000000E+00  0.36845740302E+03  0.36845740302E+03  0.00000000000E+00 0.  1.
          1   -1    0    0  501    0 -0.00000000000E+00 -0.00000000000E+00 -0.30111194041E+02  0.30111194041E+02  0.00000000000E+00 0.  1.
          2    1    1    2  501    0 -0.25527017659E+01  0.29370243732E+02  0.14312680035E+02  0.32771638850E+02  0.00000000000E+00 0.  1.
          1    1    1    2  502    0  0.11254396527E+02 -0.26712363542E+02  0.14780910987E+02  0.32537472809E+02  0.00000000000E+00 0.  1.
         22    1    1    2    0    0 -0.52826711027E+02 -0.20559460563E+02  0.73896546829E+02  0.93134593197E+02  0.00000000000E+00 0.  1.
         22    1    1    2    0    0  0.44125016266E+02  0.17901580373E+02  0.23535607112E+03  0.24012489220E+03  0.00000000000E+00 0.  1.
</event>
<event>
 6    1  0.3240171E-005  0.9601765E+02  0.7818608E-02  0.1328709E+00
          2   -1    0    0  502    0  0.00000000000E+00  0.00000000000E+00  0.11710242967E+03  0.11710242967E+03  0.00000000000E+00 0. -1.
          1   -1    0    0  501    0 -0.00000000000E+00 -0.00000000000E+00 -0.74446634162E+03  0.74446634162E+03  0.00000000000E+00 0. -1.
          2    1    1    2  501    0 -0.65463931384E+02 -0.45636190126E+02  0.20285400109E+02  0.82338846355E+02  0.00000000000E+00 0. -1.
          1    1    1    2  502    0  0.75171546047E+02  0.24768394400E+02 -0.64942719942E+03  0.65423231504E+03  0.00000000000E+00 0. -1.
         22    1    1    2    0    0 -0.18967464294E+02 -0.24752540430E+02  0.49389644431E+02  0.58410529329E+02  0.00000000000E+00 0. -1.
         22    1    1    2    0    0  0.92598496311E+01  0.45620336156E+02 -0.47611757072E+02  0.66587080561E+02  0.00000000000E+00 0. -1.
</event>
<event>
 6    1  0.3240171E-005  0.1544807E+03  0.7818608E-02  0.1264075E+00
          2   -1    0    0  502    0  0.00000000000E+00  0.00000000000E+00  0.11939064676E+03  0.11939064676E+03  0.00000000000E+00 0.  1.
          1   -1    0    0  501    0 -0.00000000000E+00 -0.00000000000E+00 -0.11265047616E+04  0.11265047616E+04  0.00000000000E+00 0. -1.
          2    1    1    2  501    0 -0.85701227822E+02  0.83912592456E+02 -0.15519230532E+03  0.19613942810E+03  0.00000000000E+00 0.  1.
          1    1    1    2  502    0  0.84802271212E+02 -0.12114617328E+03 -0.90071100771E+03  0.91276948893E+03  0.00000000000E+00 0. -1.
         22    1    1    2    0    0  0.35812719310E+02  0.96108507085E+01  0.76173479406E+02  0.84719055003E+02  0.00000000000E+00 0.  1.
         22    1    1    2    0    0 -0.34913762700E+02  0.27622730117E+02 -0.27384281249E+02  0.52267436368E+02  0.00000000000E+00 0.  1.
</event>
<event>
 6    1  0.3240171E-005  0.1223333E+03  0.7818608E-02  0.1273684E+00
          2   -1    0    0  502    0  0.00000000000E+00  0.00000000000E+00  0.39341808778E+02  0.39341808778E+02  0.00000000000E+00 0. -1.
          1   -1    0    0  501    0 -0.00000000000E+00 -0.00000000000E+00 -0.52393491457E+03  0.52393491457E+03  0.00000000000E+00 0. -1.
          2    1    1    2  501    0  0.78858735962E+01  0.39667613769E+02 -0.11116635728E+03  0.11829482480E+03  0.00000000000E+00 0. -1.
          1    1    1    2  502    0  0.11447984702E+02 -0.20977847396E+02 -0.29108156162E+03  0.29206095588E+03  0.00000000000E+00 0. -1.
         22    1    1    2    0    0 -0.58084912076E+02 -0.22825753786E+02 -0.93472732128E+02  0.11239227597E+03  0.00000000000E+00 0. -1.
         22    1    1    2    0    0  0.38751053778E+02  0.41359874132E+01  0.11127545235E+02  0.40528666691E+02  0.00000000000E+00 0. -1.
</event>
<event>
 6    1  0.3240171E-005  0.2824151E+03  0.7818608E-02  0.1194365E+00
          2   -1    0    0  502    0  0.00000000000E+00  0.00000000000E+00  0.92829011454E+02  0.92829011454E+02  0.00000000000E+00 0.  1.
          1   -1    0    0  501    0 -0.00000000000E+00 -0.00000000000E+00 -0.93766582876E+03  0.93766582876E+03  0.00000000000E+00 0. -1.
          2    1    1    2  501    0  0.46997303737E+02  0.89464133447E+02 -0.14424096594E+03  0.17611937425E+03  0.00000000000E+00 0.  1.
          1    1    1    2  502    0  0.82180142418E+02 -0.35683494152E+02 -0.65182054338E+03  0.65794901651E+03  0.00000000000E+00 0. -1.
         22    1    1    2    0    0  0.25621569924E+02  0.17050447539E+01 -0.39186043703E+01  0.25975516995E+02  0.00000000000E+00 0. -1.
         22    1    1    2    0    0 -0.15479901608E+03 -0.55485684049E+02 -0.44856703615E+02  0.17045093245E+03  0.00000000000E+00 0.  1.
</event>
<event>
 6    1  0.3240171E-005  0.1492250E+03  0.7818608E-02  0.1265527E+00
          2   -1    0    0  502    0  0.00000000000E+00  0.00000000000E+00  0.37033159103E+03  0.37033159103E+03  0.00000000000E+00 0.  1.
          1   -1    0    0  501    0 -0.00000000000E+00 -0.00000000000E+00 -0.12426723597E+04  0.12426723597E+04  0.00000000000E+00 0. -1.
          2    1    1    2  501    0 -0.57451408586E+01 -0.69025538871E+02  0.10527868126E+03  0.12602036497E+03  0.00000000000E+00 0.  1.
          1    1    1    2  502    0 -0.32525465473E+02  0.12365833387E+03 -0.12089398600E+04  0.12156828840E+04  0.00000000000E+00 0. -1.
         22    1    1    2    0    0  0.76563791459E+02 -0.66154387267E+02  0.17646748775E+03  0.20341875860E+03  0.00000000000E+00 0.  1.
         22    1    1    2    0    0 -0.38293185128E+02  0.11521592270E+02  0.54852922319E+02  0.67881943126E+02  0.00000000000E+00 0.  1.
</event>
<event>
 6    1  0.3240171E-005  0.9877919E+02  0.7818608E-02  0.1284673E+00
          2   -1    0    0  502    0  0.00000000000E+00  0.00000000000E+00  0.85307737033E+02  0.85307737033E+02  0.00000000000E+00 0.  1.
          1   -1    0    0  501    0 -0.00000000000E+00 -0.00000000000E+00 -0.19486687400E+03  0.19486687400E+03  0.00000000000E+00 0.  1.
          2    1    1    2  501    0  0.14852717159E+02 -0.22655352080E+02 -0.76585950126E+02  0.81235927653E+02  0.00000000000E+00 0.  1.
          1    1    1    2  502    0  0.46163206360E+02 -0.15826422508E+02 -0.29542635689E+01  0.48890131357E+02  0.00000000000E+00 0.  1.
         22    1    1    2    0    0 -0.83770934681E+02  0.68739914020E+02 -0.28991355890E+02  0.11217505959E+03  0.00000000000E+00 0.  1.
         22    1    1    2    0    0  0.22755011162E+02 -0.30258139433E+02 -0.10275673848E+01  0.37873492440E+02  0.00000000000E+00 0.  1.
</event>
<event>
 6    1  0.3240171E-005  0.1783942E+03  0.7818608E-02  0.1188209E+00
          2   -1    0    0  502    0  0.00000000000E+00  0.00000000000E+00  0.77640368849E+03  0.77640368849E+03  0.00000000000E+00 0.  1.
          1   -1    0    0  501    0 -0.00000000000E+00 -0.00000000000E+00 -0.35147487854E+03  0.35147487854E+03  0.00000000000E+00 0.  1.
          2    1    1    2  501    0  0.19443591106E+03 -0.18336298126E+02  0.22355546294E+03  0.29684775281E+03  0.00000000000E+00 0.  1.
          1    1    1    2  502    0 -0.13913071584E+03 -0.59052144593E+02 -0.28296883273E+03  0.32080503763E+03  0.00000000000E+00 0.  1.
         22    1    1    2    0    0  0.41845664464E+02  0.12751208343E+02  0.13488169044E+03  0.14179817828E+03  0.00000000000E+00 0.  1.
         22    1    1    2    0    0 -0.97150859677E+02  0.64637234375E+02  0.34946048930E+03  0.36842759830E+03  0.00000000000E+00 0.  1.
</event>
<event>
 6    1  0.3240171E-005  0.1382154E+03  0.7818608E-02  0.1229532E+00
          2   -1    0    0  502    0  0.00000000000E+00  0.00000000000E+00  0.19455864240E+03  0.19455864240E+03  0.00000000000E+00 0.  1.
          1   -1    0    0  501    0 -0.00000000000E+00 -0.00000000000E+00 -0.84799644281E+03  0.84799644281E+03  0.00000000000E+00 0. -1.
          2    1    1    2  501    0  0.51528763456E+02  0.15868681614E+02 -0.17686311437E+03  0.18489886355E+03  0.00000000000E+00 0.  1.
          1    1    1    2  502    0 -0.12660514764E+03 -0.11973835537E+03 -0.61074990031E+03  0.63512327771E+03  0.00000000000E+00 0. -1.
         22    1    1    2    0    0  0.46934091051E+02  0.92379158611E+02  0.15445442969E+03  0.18599163610E+03  0.00000000000E+00 0.  1.
         22    1    1    2    0    0  0.28142293133E+02  0.11490515142E+02 -0.20279215425E+02  0.36541307849E+02  0.00000000000E+00 0. -1.
</event>
<event>
 6    1  0.3240171E-005  0.8435967E+02  0.7818608E-02  0.1372219E+00
          2   -1    0    0  502    0  0.00000000000E+00  0.00000000000E+00  0.19629790854E+03  0.19629790854E+03  0.00000000000E+00 0.  1.
          1   -1    0    0  501    0 -0.00000000000E+00 -0.00000000000E+00 -0.37928500158E+03  0.37928500158E+03  0.00000000000E+00 0.  1.
          2    1    1    2  501    0 -0.21420325233E+02 -0.13768064544E+02 -0.92291811602E+02  0.95740108748E+02  0.00000000000E+00 0.  1.
          1    1    1    2  502    0 -0.15520885114E+02  0.59151866935E+02 -0.25571254387E+03  0.26292346097E+03  0.00000000000E+00 0.  1.
         22    1    1    2    0    0  0.68159292645E+01 -0.32714414625E+02 -0.13052408302E+02  0.35875551264E+02  0.00000000000E+00 0.  1.
         22    1    1    2    0    0  0.30125281082E+02 -0.12669387766E+02  0.17806967074E+03  0.18104378913E+03  0.00000000000E+00 0.  1.
</event>
<event>
 6    1  0.3240171E-005  0.1146077E+03  0.7818608E-02  0.1291610E+00
          2   -1    0    0  502    0  0.00000000000E+00  0.00000000000E+00  0.24883249331E+03  0.24883249331E+03  0.00000000000E+00 0. -1.
          1   -1    0    0  501    0 -0.00000000000E+00 -0.00000000000E+00 -0.14095840243E+03  0.14095840243E+03  0.00000000000E+00 0.  1.
          2    1    1    2  501    0  0.41691061187E+01  0.33467363186E+02  0.39305001727E+02  0.51791205867E+02  0.00000000000E+00 0. -1.
          1    1    1    2  502    0  0.85347621073E+01  0.21120135752E+02 -0.11069027748E+03  0.11300991030E+03  0.00000000000E+00 0.  1.
         22    1    1    2    0    0 -0.62671981167E+02 -0.58235402888E+02  0.12029809060E+03  0.14761697048E+03  0.00000000000E+00 0. -1.
         22    1    1    2    0    0  0.49968112941E+02  0.36479039506E+01  0.58961276034E+02  0.77372809085E+02  0.00000000000E+00 0. -1.
</event>
<event>
 6    1  0.3240171E-005  0.1202864E+03  0.7818608E-02  0.1277551E+00
          2   -1    0    0  502    0  0.00000000000E+00  0.00000000000E+00  0.24759637464E+03  0.24759637464E+03  0.00000000000E+00 0.  1.
          1   -1    0    0  501    0 -0.00000000000E+00 -0.00000000000E+00 -0.51843116601E+02  0.51843116601E+02  0.00000000000E+00 0. -1.
          2    1    1    2  501    0  0.23856305561E+02 -0.13418730543E+02 -0.78309279014E+01  0.28469441094E+02  0.00000000000E+00 0.  1.
          1    1    1    2  502    0 -0.99501227989E+01  0.20728982289E+02 -0.83381577363E+01  0.24458547072E+02  0.00000000000E+00 0. -1.
         22    1    1    2    0    0  0.34420550913E+02 -0.29192140044E+02  0.17779149643E+03  0.18343056335E+03  0.00000000000E+00 0.  1.
         22    1    1    2    0    0 -0.48326733676E+02  0.21881888298E+02  0.34130847239E+02  0.63080939724E+02  0.00000000000E+00 0.  1.
</event>
<event>
 6    1  0.3240171E-005  0.9341417E+02  0.7818608E-02  0.1360840E+00
          2   -1    0    0  502    0  0.00000000000E+00  0.00000000000E+00  0.18012701352E+03  0.18012701352E+03  0.00000000000E+00 0. -1.
          1   -1    0    0  501    0 -0.00000000000E+00 -0.00000000000E+00 -0.13538174659E+03  0.13538174659E+03  0.00000000000E+00 0. -1.
          2    1    1    2  501    0 -0.16397807942E+02  0.15663794925E+02 -0.80141702261E+02  0.83288264588E+02  0.00000000000E+00 0. -1.
          1    1    1    2  502    0  0.53503448007E+02 -0.13932027644E+02  0.22735692778E+01  0.55334342502E+02  0.00000000000E+00 0. -1.
         22    1    1    2    0    0 -0.31534407175E+02 -0.30280904002E+02 -0.67994646882E+01  0.44244600836E+02  0.00000000000E+00 0.  1.
         22    1    1    2    0    0 -0.55712328898E+01  0.28549136721E+02  0.12941286460E+03  0.13264155219E+03  0.00000000000E+00 0. -1.
</event>
<event>
 6    1  0.3240171E-005  0.8887847E+02  0.7818608E-02  0.1343131E+00
          2   -1    0    0  502    0  0.00000000000E+00  0.00000000000E+00  0.78739747264E+02  0.78739747264E+02  0.00000000000E+00 0. -1.
          1   -1    0    0  501    0 -0.00000000000E+00 -0.00000000000E+00 -0.97739718529E+03  0.97739718529E+03  0.00000000000E+00 0. -1.
          2    1    1    2  501    0  0.98857079637E+01 -0.53534364157E+02 -0.10292398530E+03  0.11643454005E+03  0.00000000000E+00 0. -1.
          1    1    1    2  502    0 -0.18820855524E+02 -0.19652076576E+02 -0.79274465173E+03  0.79321151754E+03  0.00000000000E+00 0. -1.
         22    1    1    2    0    0  0.47768389239E+01  0.46308197299E+02  0.61132137638E+02  0.76840130007E+02  0.00000000000E+00 0. -1.
         22    1    1    2    0    0  0.41583086368E+01  0.26878243434E+02 -0.64120938638E+02  0.69650744954E+02  0.00000000000E+00 0. -1.
</event>
<event>
 6    1  0.3240171E-005  0.1155273E+03  0.7818608E-02  0.1353779E+00
          2   -1    0    0  502    0  0.00000000000E+00  0.00000000000E+00  0.10242339572E+03  0.10242339572E+03  0.00000000000E+00 0. -1.
          1   -1    0    0  501    0 -0.00000000000E+00 -0.00000000000E+00 -0.35171113798E+03  0.35171113798E+03  0.00000000000E+00 0. -1.
          2    1    1    2  501    0 -0.40019418469E+02  0.47308591313E+02 -0.14355897695E+03  0.15636123730E+03  0.00000000000E+00 0. -1.
          1    1    1    2  502    0  0.48767951545E+02 -0.10802429856E+03 -0.10959675046E+03  0.16142803316E+03  0.00000000000E+00 0. -1.
         22    1    1    2    0    0  0.36010505509E+01  0.16945309640E+02  0.60948148844E+02  0.63362354213E+02  0.00000000000E+00 0. -1.
         22    1    1    2    0    0 -0.12349583627E+02  0.43770397611E+02 -0.57080163698E+02  0.72982909031E+02  0.00000000000E+00 0. -1.
</event>
<event>
 6    1  0.3240171E-005  0.1313753E+03  0.7818608E-02  0.1297769E+00
          2   -1    0    0  502    0  0.00000000000E+00  0.00000000000E+00  0.16359601653E+03  0.16359601653E+03  0.00000000000E+00 0.  1.
          1   -1    0    0  501    0 -0.00000000000E+00 -0.00000000000E+00 -0.22779097658E+03  0.22779097658E+03  0.00000000000E+00 0. -1.
          2    1    1    2  501    0  0.16362395897E+02 -0.50740673914E+02  0.24675691650E+02  0.58747202037E+02  0.00000000000E+00 0.  1.
          1    1    1    2  502    0  0.53768524237E+02  0.18364983685E+01 -0.15989096193E+03  0.16869957508E+03  0.00000000000E+00 0. -1.
         22    1    1    2    0    0 -0.31599358349E+02  0.33469799917E+01  0.94591531099E+02  0.99786168775E+02  0.00000000000E+00 0.  1.
         22    1    1    2    0    0 -0.38531561785E+02  0.45557195554E+02 -0.23571220869E+02  0.64154047211E+02  0.00000000000E+00 0.  1.
</event>
<event>
 6    1  0.3240171E-005  0.1120682E+03  0.7818608E-02  0.1315355E+00
          2   -1    0    0  502    0  0.00000000000E+00  0.00000000000E+00  0.17629538267E+02  0.17629538267E+02  0.00000000000E+00 0. -1.
          1   -1    0    0  501    0 -0.00000000000E+00 -0.00000000000E+00 -0.75775619528E+03  0.75775619528E+03  0.00000000000E+00 0. -1.
          2    1    1    2  501    0  0.11609417885E+02 -0.37969428966E+02 -0.23590785481E+03  0.23922577637E+03  0.00000000000E+00 0. -1.
          1    1    1    2  502    0  0.28003404557E+02  0.20959882632E+02 -0.42758870249E+02  0.55243355543E+02  0.00000000000E+00 0. -1.
         22    1    1    2    0    0  0.21273196313E+02 -0.30426454850E+02 -0.49978267027E+02  0.62258695867E+02  0.00000000000E+00 0. -1.
         22    1    1    2    0    0 -0.60886018755E+02  0.47436001184E+02 -0.41148166492E+03  0.41865790576E+03  0.00000000000E+00 0. -1.
</event>
<event>
 6    1  0.3240171E-005  0.6938534E+02  0.7818608E-02  0.1365616E+00
          2   -1    0    0  502    0  0.00000000000E+00  0.00000000000E+00  0.22293649227E+02  0.22293649227E+02  0.00000000000E+00 0.  1.
          1   -1    0    0  501    0 -0.00000000000E+00 -0.00000000000E+00 -0.66892490338E+03  0.66892490338E+03  0.00000000000E+00 0.  1.
          2    1    1    2  501    0 -0.12706995709E+02 -0.22169824972E+02 -0.12192722797E+03  0.12457615261E+03  0.00000000000E+00 0.  1.
          1    1    1    2  502    0 -0.26595625328E+02 -0.25291018701E+00 -0.31762709785E+03  0.31873870888E+03  0.00000000000E+00 0.  1.
         22    1    1    2    0    0  0.31166769151E+02  0.60027086087E+02 -0.44798266991E+02  0.81126464787E+02  0.00000000000E+00 0.  1.
         22    1    1    2    0    0  0.81358518866E+01 -0.37604350928E+02 -0.16227866134E+03  0.16677722633E+03  0.00000000000E+00 0.  1.
</event>
<event>
 6    1  0.3240171E-005  0.1061014E+03  0.7818608E-02  0.1375291E+00
          2   -1    0    0  502    0  0.00000000000E+00  0.00000000000E+00  0.55651368440E+02  0.55651368440E+02  0.00000000000E+00 0. -1.
          1   -1    0    0  501    0 -0.00000000000E+00 -0.00000000000E+00 -0.42717285152E+03  0.42717285152E+03  0.00000000000E+00 0. -1.
          2    1    1    2  501    0 -0.98588979224E+01 -0.27107399642E+02 -0.62838151784E+02  0.69142189025E+02  0.00000000000E+00 0. -1.
          1    1    1    2  502    0  0.28489577640E+02  0.95724952769E+02 -0.22414731939E+03  0.24539140859E+03  0.00000000000E+00 0. -1.
         22    1    1    2    0    0 -0.32634724973E+02 -0.75527518575E+02 -0.11063586941E+03  0.13787576631E+03  0.00000000000E+00 0. -1.
         22    1    1    2    0    0  0.14004045256E+02  0.69099654486E+01  0.26099857505E+02  0.30414856038E+02  0.00000000000E+00 0. -1.
</event>
<event>
 6    1  0.3240171E-005  0.1785737E+03  0.7818608E-02  0.1243305E+00
          2   -1    0    0  502    0  0.00000000000E+00  0.00000000000E+00  0.51112253377E+02  0.51112253377E+02  0.00000000000E+00 0. -1.
          1   -1    0    0  501    0 -0.00000000000E+00 -0.00000000000E+00 -0.84321675216E+03  0.84321675216E+03  0.00000000000E+00 0. -1.
          2    1    1    2  501    0  0.40803282698E+02 -0.95683375082E+01 -0.11163517657E+03  0.11924291849E+03  0.00000000000E+00 0. -1.
          1    1    1    2  502    0 -0.13875691038E+03  0.70486789131E+02 -0.50583847229E+03  0.52923948046E+03  0.00000000000E+00 0. -1.
         22    1    1    2    0    0  0.34376708559E+01  0.36098565601E+02 -0.50155049646E+02  0.61890653772E+02  0.00000000000E+00 0.  1.
         22    1    1    2    0    0  0.94515956824E+02 -0.97017017224E+02 -0.12447580027E+03  0.18395595282E+03  0.00000000000E+00 0. -1.
</event>
<event>
 6    1  0.3318340E-005  0.1159595E+03  0.7818608E-02  0.1289330E+00
          2   -1    0    0  502    0  0.00000000000E+00  0.00000000000E+00  0.20748707110E+03  0.20748707110E+03  0.00000000000E+00 0. -1.
          1   -1    0    0  501    0 -0.00000000000E+00 -0.00000000000E+00 -0.37957709788E+03  0.37957709788E+03  0.00000000000E+00 0.  1.
          2    1    1    2  501    0  0.10959765505E+02  0.21564461846E+02 -0.53761383443E+01  0.24779938218E+02  0.00000000000E+00 0. -1.
          1    1    1    2  502    0  0.12770145843E+01 -0.70945085668E+02 -0.33677151469E+03  0.34416549660E+03  0.00000000000E+00 0.  1.
         22    1    1    2    0    0 -0.41585193174E+02  0.34564114269E+02  0.10341582756E+02  0.55054106299E+02  0.00000000000E+00 0. -1.
         22    1    1    2    0    0  0.29348413085E+02  0.14816509554E+02  0.15971604350E+03  0.16306462786E+03  0.00000000000E+00 0. -1.
</event>
<event>
 6    1  0.3240171E-005  0.1238452E+03  0.7818608E-02  0.1263816E+00
          2   -1    0    0  502    0  0.00000000000E+00  0.00000000000E+00  0.48418580595E+03  0.48418580595E+03  0.00000000000E+00 0.  1.
          1   -1    0    0  501    0 -0.00000000000E+00 -0.00000000000E+00 -0.32904124461E+02  0.32904124461E+02  0.00000000000E+00 0.  1.
          2    1    1    2  501    0 -0.31858369767E+01  0.20808193779E+02 -0.17535364372E+01  0.21123573932E+02  0.00000000000E+00 0.  1.
          1    1    1    2  502    0  0.21595573806E+02  0.18929682791E+01 -0.26785022391E+01  0.21843225750E+02  0.00000000000E+00 0.  1.
         22    1    1    2    0    0  0.32616907628E+02  0.35444054750E+02  0.24422600135E+03  0.24893067994E+03  0.00000000000E+00 0.  1.
         22    1    1    2    0    0 -0.51026644457E+02 -0.58145216809E+02  0.21148771881E+03  0.22519245078E+03  0.00000000000E+00 0. -1.
</event>
<event>
 6    1  0.3240171E-005  0.6613065E+02  0.7818608E-02  0.1481119E+00
          2   -1    0    0  502    0  0.00000000000E+00  0.00000000000E+00  0.21378244109E+03  0.21378244109E+03  0.00000000000E+00 0. -1.
          1   -1    0    0  501    0 -0.00000000000E+00 -0.00000000000E+00 -0.12935136158E+03  0.12935136158E+03  0.00000000000E+00 0. -1.
          2    1    1    2  501    0 -0.32544403712E+02  0.27910526694E+02 -0.59965986049E+02  0.73716044361E+02  0.00000000000E+00 0. -1.
          1    1    1    2  502    0  0.44539611413E+02 -0.38573094249E+02  0.12998776944E+03  0.14271818660E+03  0.00000000000E+00 0. -1.
         22    1    1    2    0    0 -0.45936773704E+01  0.21204068386E+02 -0.53420228545E+02  0.57657915378E+02  0.00000000000E+00 0. -1.
         22    1    1    2    0    0 -0.74015303298E+01 -0.10541500831E+02  0.67829524668E+02  0.69041656322E+02  0.00000000000E+00 0. -1.
</event>
<event>
 6    1  0.3240171E-005  0.4830620E+03  0.7818608E-02  0.1125045E+00
          2   -1    0    0  502    0  0.00000000000E+00  0.00000000000E+00  0.19340963836E+03  0.19340963836E+03  0.00000000000E+00 0. -1.
          1   -1    0    0  501    0 -0.00000000000E+00 -0.00000000000E+00 -0.56357063197E+03  0.56357063197E+03  0.00000000000E+00 0. -1.
          2    1    1    2  501    0 -0.46786502422E+02 -0.61535880399E+01 -0.31557264121E+03  0.31908139296E+03  0.00000000000E+00 0. -1.
          1    1    1    2  502    0  0.11153063036E+02  0.30282105655E+02 -0.22316286478E+03  0.22548405920E+03  0.00000000000E+00 0. -1.
         22    1    1    2    0    0 -0.13388891899E+02  0.22083606144E+02 -0.49282089872E+01  0.26291354671E+02  0.00000000000E+00 0.  1.
         22    1    1    2    0    0  0.49022331285E+02 -0.46212123759E+02  0.17350272136E+03  0.18612346350E+03  0.00000000000E+00 0. -1.
</event>
<event>
 6    1  0.3240171E-005  0.8239962E+02  0.7818608E-02  0.1335250E+00
          2   -1    0    0  502    0  0.00000000000E+00  0.00000000000E+00  0.10157343730E+03  0.10157343730E+03  0.00000000000E+00 0.  1.
          1   -1    0    0  501    0 -0.00000000000E+00 -0.00000000000E+00 -0.11379876495E+03  0.11379876495E+03  0.00000000000E+00 0.  1.
          2    1    1    2  501    0  0.18845739834E+02 -0.23458862781E+02 -0.73064611254E+01  0.30965537732E+02  0.00000000000E+00 0.  1.
          1    1    1    2  502    0 -0.68516150282E+01  0.51198872218E+02 -0.73031495232E+01  0.52169005529E+02  0.00000000000E+00 0.  1.
         22    1    1    2    0    0  0.41331315225E+02  0.23075424911E+02 -0.25145895299E+02  0.53601015881E+02  0.00000000000E+00 0.  1.
         22    1    1    2    0    0 -0.53325440032E+02 -0.50815434348E+02  0.27530178294E+02  0.78636643109E+02  0.00000000000E+00 0.  1.
</event>
<event>
 6    1  0.4626764E-005  0.6440919E+03  0.7818608E-02  0.1107700E+00
          2   -1    0    0  502    0  0.00000000000E+00  0.00000000000E+00  0.70709685760E+03  0.70709685760E+03  0.00000000000E+00 0.  1.
          1   -1    0    0  501    0 -0.00000000000E+00 -0.00000000000E+00 -0.92098997840E+03  0.92098997840E+03  0.00000000000E+00 0. -1.
          2    1    1    2  501    0 -0.14251385581E+03  0.16336434822E+02 -0.87928646137E+02  0.16825137447E+03  0.00000000000E+00 0.  1.
          1    1    1    2  502    0 -0.95809638096E+02  0.90754480024E+01 -0.76242531061E+03  0.76847524668E+03  0.00000000000E+00 0. -1.
         22    1    1    2    0    0  0.24058439336E+03 -0.42119734343E+02  0.62484886783E+03  0.67088823956E+03  0.00000000000E+00 0.  1.
         22    1    1    2    0    0 -0.22608994591E+01  0.16707851518E+02  0.11611968115E+02  0.20471975289E+02  0.00000000000E+00 0.  1.
</event>
<event>
 6    1  0.3240171E-005  0.8719957E+02  0.7818608E-02  0.1350956E+00
          2   -1    0    0  502    0  0.00000000000E+00  0.00000000000E+00  0.11391441542E+03  0.11391441542E+03  0.00000000000E+00 0. -1.
          1   -1    0    0  501    0 -0.00000000000E+00 -0.00000000000E+00 -0.27740380903E+03  0.27740380903E+03  0.00000000000E+00 0. -1.
          2    1    1    2  501    0 -0.41995418673E+02  0.78882951596E+02 -0.63197323231E+02  0.10945335493E+03  0.00000000000E+00 0. -1.
          1    1    1    2  502    0  0.38676158274E+02 -0.60529781347E+02 -0.13434875522E+03  0.15234594737E+03  0.00000000000E+00 0. -1.
         22    1    1    2    0    0 -0.75817514184E+01  0.22482768620E+02 -0.38689620619E+02  0.45385510716E+02  0.00000000000E+00 0. -1.
         22    1    1    2    0    0  0.10901011818E+02 -0.40835938868E+02  0.72746305466E+02  0.84133411442E+02  0.00000000000E+00 0. -1.
</event>
<event>
 6    1  0.3240171E-005  0.2089945E+03  0.7818608E-02  0.1221125E+00
          2   -1    0    0  502    0  0.00000000000E+00  0.00000000000E+00  0.34459897364E+03  0.34459897364E+03  0.00000000000E+00 0.  1.
          1   -1    0    0  501    0 -0.00000000000E+00 -0.00000000000E+00 -0.65702214681E+03  0.65702214681E+03  0.00000000000E+00 0.  1.
          2    1    1    2  501    0 -0.10395755100E+03  0.11337923498E+03  0.15594162575E+03  0.21904295007E+03  0.00000000000E+00 0.  1.
          1    1    1    2  502    0  0.13502627492E+03 -0.14339590305E+03 -0.57863721247E+03  0.61124095379E+03  0.00000000000E+00 0.  1.
         22    1    1    2    0    0  0.33512145417E+02 -0.12309735630E+02  0.81427112716E+02  0.88909887903E+02  0.00000000000E+00 0.  1.
         22    1    1    2    0    0 -0.64580869342E+02  0.42326403698E+02  0.28845300831E+02  0.82427328690E+02  0.00000000000E+00 0.  1.
</event>
<event>
 6    1  0.3240171E-005  0.1757706E+03  0.7818608E-02  0.1230632E+00
          2   -1    0    0  502    0  0.00000000000E+00  0.00000000000E+00  0.13835469784E+04  0.13835469784E+04  0.00000000000E+00 0.  1.
          1   -1    0    0  501    0 -0.00000000000E+00 -0.00000000000E+00 -0.28865288630E+02  0.28865288630E+02  0.00000000000E+00 0.  1.
          2    1    1    2  501    0 -0.95283537099E+02  0.56889564858E+00  0.38518839267E+03  0.39679890868E+03  0.00000000000E+00 0.  1.
          1    1    1    2  502    0  0.11178155682E+03  0.85633068940E+02  0.36756421817E+03  0.39361350767E+03  0.00000000000E+00 0.  1.
         22    1    1    2    0    0  0.48325398217E+02 -0.95004372300E+01  0.29433718604E+03  0.29842919011E+03  0.00000000000E+00 0. -1.
         22    1    1    2    0    0 -0.64823417937E+02 -0.76701527359E+02  0.30759189287E+03  0.32357066055E+03  0.00000000000E+00 0.  1.
</event>
<event>
 6    1  0.3240171E-005  0.8432232E+02  0.7818608E-02  0.1359141E+00
          2   -1    0    0  502    0  0.00000000000E+00  0.00000000000E+00  0.16341800108E+03  0.16341800108E+03  0.00000000000E+00 0. -1.
          1   -1    0    0  501    0 -0.00000000000E+00 -0.00000000000E+00 -0.94461404715E+03  0.94461404715E+03  0.00000000000E+00 0. -1.
          2    1    1    2  501    0  0.21734384744E+02 -0.79517785956E+00 -0.27822566539E+03  0.27907442855E+03  0.00000000000E+00 0. -1.
          1    1    1    2  502    0 -0.37887523957E+02  0.50586473647E+02 -0.63659449585E+03  0.63972416551E+03  0.00000000000E+00 0. -1.
         22    1    1    2    0    0  0.18627116982E+02 -0.91739551204E+01 -0.20888235934E+02  0.29452492934E+02  0.00000000000E+00 0.  1.
         22    1    1    2    0    0 -0.24739777679E+01 -0.40617340667E+02  0.15451235111E+03  0.15978096124E+03  0.00000000000E+00 0. -1.
</event>
<event>
 6    1  0.3240171E-005  0.1211257E+03  0.7818608E-02  0.1270004E+00
          2   -1    0    0  502    0  0.00000000000E+00  0.00000000000E+00  0.35168186750E+02  0.35168186750E+02  0.00000000000E+00 0. -1.
          1   -1    0    0  501    0 -0.00000000000E+00 -0.00000000000E+00 -0.72694350145E+03  0.72694350145E+03  0.00000000000E+00 0. -1.
          2    1    1    2  501    0 -0.12452138044E+02  0.74301174628E+02 -0.43554154726E+03  0.44200923032E+03  0.00000000000E+00 0. -1.
          1    1    1    2  502    0 -0.13085479605E+02  0.23365459898E+02 -0.64488597491E+02  0.69828029466E+02  0.00000000000E+00 0. -1.
         22    1    1    2    0    0  0.28680127634E+02 -0.64249263539E+02 -0.17066417252E+02  0.72400139394E+02  0.00000000000E+00 0. -1.
         22    1    1    2    0    0 -0.31425099852E+01 -0.33417370987E+02 -0.17467875269E+03  0.17787428902E+03  0.00000000000E+00 0. -1.
</event>
<event>
 6    1  0.3240171E-005  0.2399274E+03  0.7818608E-02  0.1146373E+00
          2   -1    0    0  502    0  0.00000000000E+00  0.00000000000E+00  0.20014523543E+03  0.20014523543E+03  0.00000000000E+00 0. -1.
          1   -1    0    0  501    0 -0.00000000000E+00 -0.00000000000E+00 -0.71809423583E+03  0.71809423583E+03  0.00000000000E+00 0. -1.
          2    1    1    2  501    0 -0.28924103362E+03 -0.87102281013E+02 -0.23345351797E+03  0.38176920769E+03  0.00000000000E+00 0. -1.
          1    1    1    2  502    0  0.18742530553E+03  0.69911541340E+02 -0.31446947594E+03  0.37270218682E+03  0.00000000000E+00 0. -1.
         22    1    1    2    0    0  0.12530698396E+03  0.69198100064E+01  0.45851142965E+02  0.13361156878E+03  0.00000000000E+00 0. -1.
         22    1    1    2    0    0 -0.23491255871E+02  0.10270929667E+02 -0.15877149452E+02  0.30156507976E+02  0.00000000000E+00 0.  1.
</event>
<event>
 6    1  0.3240171E-005  0.9134038E+02  0.7818608E-02  0.1303418E+00
          2   -1    0    0  502    0  0.00000000000E+00  0.00000000000E+00  0.36941028021E+03  0.36941028021E+03  0.00000000000E+00 0.  1.
          1   -1    0    0  501    0 -0.00000000000E+00 -0.00000000000E+00 -0.66079785401E+03  0.66079785401E+03  0.00000000000E+00 0.  1.
          2    1    1    2  501    0 -0.12333770930E+02 -0.46212743523E+02  0.25308169606E+02  0.54113242539E+02  0.00000000000E+00 0.  1.
          1    1    1    2  502    0 -0.29334386541E+02  0.91608241752E+01 -0.63169682163E+03  0.63244391166E+03  0.00000000000E+00 0.  1.
         22    1    1    2    0    0 -0.29144154132E+02 -0.17207540885E+02  0.30744071362E+02  0.45723944573E+02  0.00000000000E+00 0.  1.
         22    1    1    2    0    0  0.70812311603E+02  0.54259460232E+02  0.28425700687E+03  0.29792703545E+03  0.00000000000E+00 0.  1.
</event>
<event>
 6    1  0.3240171E-005  0.2448749E+03  0.7818608E-02  0.1171493E+00
          2   -1    0    0  502    0  0.00000000000E+00  0.00000000000E+00  0.57140693365E+03  0.57140693365E+03  0.00000000000E+00 0. -1.
          1   -1    0    0  501    0 -0.00000000000E+00 -0.00000000000E+00 -0.37265789465E+03  0.37265789465E+03  0.00000000000E+00 0. -1.
          2    1    1    2  501    0 -0.94793492987E+02  0.13961689851E+02  0.27206594796E+03  0.28844516833E+03  0.00000000000E+00 0. -1.
          1    1    1    2  502    0 -0.74635481778E+02 -0.76774928848E+01 -0.32214992926E+03  0.33077178834E+03  0.00000000000E+00 0. -1.
         22    1    1    2    0    0  0.75434090579E+02  0.15460845523E+02  0.20479884991E+03  0.21879650064E+03  0.00000000000E+00 0. -1.
         22    1    1    2    0    0  0.93994884186E+02 -0.21745042490E+02  0.44034170387E+02  0.10605137098E+03  0.00000000000E+00 0. -1.
</event>
<event>
 6    1  0.3240171E-005  0.8024687E+02  0.7818608E-02  0.1330861E+00
          2   -1    0    0  502    0  0.00000000000E+00  0.00000000000E+00  0.61565984386E+02  0.61565984386E+02  0.00000000000E+00 0. -1.
          1   -1    0    0  501    0 -0.00000000000E+00 -0.00000000000E+00 -0.16568796931E+03  0.16568796931E+03  0.00000000000E+00 0. -1.
          2    1    1    2  501    0 -0.37650495372E+01 -0.27597604633E+02 -0.48676233829E+02  0.56081896538E+02  0.00000000000E+00 0. -1.
          1    1    1    2  502    0  0.20923144414E+02 -0.17266820935E+02 -0.23098935151E+02  0.35629789257E+02  0.00000000000E+00 0. -1.
         22    1    1    2    0    0 -0.61586705074E+02  0.58712612614E+02 -0.20748529225E+02  0.87581930710E+02  0.00000000000E+00 0. -1.
         22    1    1    2    0    0  0.44428610197E+02 -0.13848187046E+02 -0.11598286718E+02  0.47960337189E+02  0.00000000000E+00 0. -1.
</event>
<event>
 6    1  0.3240171E-005  0.1045311E+03  0.7818608E-02  0.1337724E+00
          2   -1    0    0  502    0  0.00000000000E+00  0.00000000000E+00  0.95988357170E+02  0.95988357170E+02  0.00000000000E+00 0. -1.
          1   -1    0    0  501    0 -0.00000000000E+00 -0.00000000000E+00 -0.24665976775E+03  0.24665976775E+03  0.00000000000E+00 0. -1.
          2    1    1    2  501    0 -0.39748433596E+02  0.58166989420E+02 -0.12555829805E+03  0.14397299344E+03  0.00000000000E+00 0. -1.
          1    1    1    2  502    0  0.29055077381E+02 -0.57215646351E+02  0.16324081440E+02  0.66214072098E+02  0.00000000000E+00 0. -1.
         22    1    1    2    0    0 -0.19105899771E+02 -0.24171631809E+02  0.35344666323E+02  0.46888683366E+02  0.00000000000E+00 0. -1.
         22    1    1    2    0    0  0.29799255986E+02  0.23220288740E+02 -0.76781860292E+02  0.85572376013E+02  0.00000000000E+00 0.  1.
</event>
<event>
 6    1  0.3240171E-005  0.7880783E+02  0.7818608E-02  0.1334833E+00
          2   -1    0    0  502    0  0.00000000000E+00  0.00000000000E+00  0.22273012050E+03  0.22273012050E+03  0.00000000000E+00 0.  1.
          1   -1    0    0  501    0 -0.00000000000E+00 -0.00000000000E+00 -0.10609339649E+03  0.10609339649E+03  0.00000000000E+00 0. -1.
          2    1    1    2  501    0  0.12970097648E+02 -0.23735938986E+02  0.14468196395E+02  0.30674858426E+02  0.00000000000E+00 0.  1.
          1    1    1    2  502    0  0.10734958972E+02  0.21007127781E+02 -0.75355572697E+02  0.78962023139E+02  0.00000000000E+00 0. -1.
         22    1    1    2    0    0  0.38109036977E+02 -0.38100667206E+02  0.64513707387E+02  0.84059371765E+02  0.00000000000E+00 0.  1.
         22    1    1    2    0    0 -0.61814093596E+02  0.40829478411E+02  0.11301039293E+03  0.13512726366E+03  0.00000000000E+00 0.  1.
</event>
<event>
 6    1  0.3240171E-005  0.9359446E+02  0.7818608E-02  0.1322254E+00
          2   -1    0    0  502    0  0.00000000000E+00  0.00000000000E+00  0.48020420261E+03  0.48020420261E+03  0.00000000000E+00 0.  1.
          1   -1    0    0  501    0 -0.00000000000E+00 -0.00000000000E+00 -0.37926675730E+02  0.37926675730E+02  0.00000000000E+00 0.  1.
          2    1    1    2  501    0  0.77997858079E+01  0.34025858080E+02  0.12511069893E+02  0.37082644816E+02  0.00000000000E+00 0.  1.
          1    1    1    2  502    0 -0.81523595068E+01 -0.55833450601E+02  0.32827169827E+02  0.65279845668E+02  0.00000000000E+00 0.  1.
         22    1    1    2    0    0  0.56641515184E+02  0.19169400948E+02  0.13215112504E+03  0.14505049819E+03  0.00000000000E+00 0. -1.
         22    1    1    2    0    0 -0.56288941485E+02  0.26381915731E+01  0.26478816212E+03  0.27071788967E+03  0.00000000000E+00 0.  1.
</event>
<event>
 6    1  0.3240171E-005  0.2246678E+03  0.7818608E-02  0.1164344E+00
          2   -1    0    0  502    0  0.00000000000E+00  0.00000000000E+00  0.44484440959E+03  0.44484440959E+03  0.00000000000E+00 0. -1.
          1   -1    0    0  501    0 -0.00000000000E+00 -0.00000000000E+00 -0.43825319539E+03  0.43825319539E+03  0.00000000000E+00 0.  1.
          2    1    1    2  501    0  0.56358492536E+02 -0.45102979506E+02  0.64192381125E+02  0.96598241370E+02  0.00000000000E+00 0. -1.
          1    1    1    2  502    0  0.27892532754E+01  0.21515768928E+03 -0.35549071704E+03  0.41554092589E+03  0.00000000000E+00 0.  1.
         22    1    1    2    0    0 -0.81147561928E+02 -0.58856976653E+02  0.92681352844E+02  0.13652437025E+03  0.00000000000E+00 0. -1.
         22    1    1    2    0    0  0.21999816117E+02 -0.11119773312E+03  0.20520819727E+03  0.23443406746E+03  0.00000000000E+00 0. -1.
</event>
<event>
 6    1  0.3240171E-005  0.4454962E+03  0.7818608E-02  0.1137926E+00
          2   -1    0    0  502    0  0.00000000000E+00  0.00000000000E+00  0.96648903833E+03  0.96648903833E+03  0.00000000000E+00 0.  1.
          1   -1    0    0  501    0 -0.00000000000E+00 -0.00000000000E+00 -0.27733835490E+03  0.27733835490E+03  0.00000000000E+00 0. -1.
          2    1    1    2  501    0  0.10697788749E+03 -0.14487296194E+03  0.11928398009E+03  0.21601183166E+03  0.00000000000E+00 0.  1.
          1    1    1    2  502    0 -0.37461757528E+02  0.26916665014E+02 -0.21598215663E+03  0.22085330451E+03  0.00000000000E+00 0. -1.
         22    1    1    2    0    0 -0.88767615894E+02  0.13231307982E+03  0.67730407674E+03  0.69579253596E+03  0.00000000000E+00 0.  1.
         22    1    1    2    0    0  0.19251485929E+02 -0.14356782895E+02  0.10854478322E+03  0.11116972111E+03  0.00000000000E+00 0. -1.
</event>
<event>
 6    1  0.3240171E-005  0.1728973E+03  0.7818608E-02  0.1176433E+00
          2   -1    0    0  502    0  0.00000000000E+00  0.00000000000E+00  0.11669834001E+04  0.11669834001E+04  0.00000000000E+00 0. -1.
          1   -1    0    0  501    0 -0.00000000000E+00 -0.00000000000E+00 -0.34711696099E+02  0.34711696099E+02  0.00000000000E+00 0. -1.
          2    1    1    2  501    0  0.21035484585E+02 -0.14098871258E+03  0.40338926491E+03  0.42783549143E+03  0.00000000000E+00 0. -1.
          1    1    1    2  502    0 -0.35902914252E+02 -0.81561567627E+01  0.29920376771E+02  0.47442292219E+02  0.00000000000E+00 0. -1.
         22    1    1    2    0    0 -0.13859714363E+02 -0.21049223706E+02  0.92518305933E+02  0.95889511593E+02  0.00000000000E+00 0. -1.
         22    1    1    2    0    0  0.28727144030E+02  0.17019409305E+03  0.60644375643E+03  0.63052780099E+03  0.00000000000E+00 0. -1.
</event>
<event>
 6    1  0.3240171E-005  0.1630085E+03  0.7818608E-02  0.1187375E+00
          2   -1    0    0  502    0  0.00000000000E+00  0.00000000000E+00  0.79842960130E+03  0.79842960130E+03  0.00000000000E+00 0.  1.
          1   -1    0    0  501    0 -0.00000000000E+00 -0.00000000000E+00 -0.73646034277E+02  0.73646034277E+02  0.00000000000E+00 0.  1.
          2    1    1    2  501    0 -0.98246853003E+02 -0.76748600168E+01  0.13690991981E+03  0.16868809603E+03  0.00000000000E+00 0.  1.
          1    1    1    2  502    0 -0.89004835125E+02 -0.30821959935E+02  0.27272489586E+02  0.98059382917E+02  0.00000000000E+00 0.  1.
         22    1    1    2    0    0  0.20450953987E+03  0.35649416262E+02  0.48199050472E+03  0.52479508326E+03  0.00000000000E+00 0.  1.
         22    1    1    2    0    0 -0.17257851742E+02  0.28474036902E+01  0.78610652912E+02  0.80533073366E+02  0.00000000000E+00 0.  1.
</event>
<event>
 6    1  0.3240171E-005  0.6514606E+02  0.7818608E-02  0.1423153E+00
          2   -1    0    0  502    0  0.00000000000E+00  0.00000000000E+00  0.16109661961E+03  0.16109661961E+03  0.00000000000E+00 0.  1.
          1   -1    0    0  501    0 -0.00000000000E+00 -0.00000000000E+00 -0.12264102640E+03  0.12264102640E+03  0.00000000000E+00 0.  1.
          2    1    1    2  501    0  0.25765627101E+02 -0.53781601951E+01 -0.36298099395E+02  0.44836861696E+02  0.00000000000E+00 0.  1.
          1    1    1    2  502    0 -0.55795520818E+02 -0.14244724834E+02 -0.36742799349E+02  0.68308752243E+02  0.00000000000E+00 0.  1.
         22    1    1    2    0    0 -0.80901246618E+01  0.30527669082E+02  0.12482845001E+03  0.12876152619E+03  0.00000000000E+00 0.  1.
         22    1    1    2    0    0  0.38120018379E+02 -0.10904784054E+02 -0.13331958050E+02  0.41830505877E+02  0.00000000000E+00 0. -1.
</event>
<event>
 6    1  0.3240171E-005  0.2066685E+03  0.7818608E-02  0.1223805E+00
          2   -1    0    0  502    0  0.00000000000E+00  0.00000000000E+00  0.66661399519E+02  0.66661399519E+02  0.00000000000E+00 0. -1.
          1   -1    0    0  501    0 -0.00000000000E+00 -0.00000000000E+00 -0.15475812709E+04  0.15475812709E+04  0.00000000000E+00 0. -1.
          2    1    1    2  501    0  0.25918143876E+02 -0.96714435395E+02 -0.89129248969E+02  0.13405019663E+03  0.00000000000E+00 0. -1.
          1    1    1    2  502    0 -0.11150237310E+03  0.11600835439E+03 -0.12801687159E+04  0.12902413180E+04  0.00000000000E+00 0. -1.
         22    1    1    2    0    0 -0.32885052335E+02 -0.11710684252E+02 -0.27877129933E+02  0.44673271271E+02  0.00000000000E+00 0. -1.
         22    1    1    2    0    0  0.11846928156E+03 -0.75832347435E+01 -0.83744776558E+02  0.14527788450E+03  0.00000000000E+00 0. -1.
</event>
<event>
 6    1  0.3240171E-005  0.3435708E+03  0.7818608E-02  0.1065496E+00
          2   -1    0    0  502    0  0.00000000000E+00  0.00000000000E+00  0.44753142306E+03  0.44753142306E+03  0.00000000000E+00 0.  1.
          1   -1    0    0  501    0 -0.00000000000E+00 -0.00000000000E+00 -0.75438243490E+03  0.75438243490E+03  0.00000000000E+00 0.  1.
          2    1    1    2  501    0 -0.41181925987E+03 -0.16438705165E+02  0.10144956387E+03  0.42444946441E+03  0.00000000000E+00 0.  1.
          1    1    1    2  502    0  0.14345460142E+03 -0.59066966934E+00 -0.45679335648E+03  0.47878987258E+03  0.00000000000E+00 0.  1.
         22    1    1    2    0    0 -0.12004289498E+02  0.36358420428E+01  0.84985955562E+01  0.15150856086E+02  0.00000000000E+00 0.  1.
         22    1    1    2    0    0  0.28036894795E+03  0.13393532792E+02  0.39994185223E+02  0.28352366488E+03  0.00000000000E+00 0.  1.
</event>
<event>
 6    1  0.3240171E-005  0.1729243E+03  0.7818608E-02  0.1176184E+00
          2   -1    0    0  502    0  0.00000000000E+00  0.00000000000E+00  0.14533092450E+03  0.14533092450E+03  0.00000000000E+00 0.  1.
          1   -1    0    0  501    0 -0.00000000000E+00 -0.00000000000E+00 -0.43980109303E+03  0.43980109303E+03  0.00000000000E+00 0.  1.
          2    1    1    2  501    0  0.14084521990E+03  0.71258727977E+02 -0.24779715509E+03  0.29380029331E+03  0.00000000000E+00 0.  1.
          1    1    1    2  502    0 -0.49996644490E+02  0.60121569961E+02 -0.34747258371E+02  0.85566579920E+02  0.00000000000E+00 0.  1.
         22    1    1    2    0    0  0.27224493549E+01  0.12617272388E+02 -0.30418065357E+02  0.33043395604E+02  0.00000000000E+00 0.  1.
         22    1    1    2    0    0 -0.93571024762E+02 -0.14399757033E+03  0.18492310287E+02  0.17272174870E+03  0.00000000000E+00 0.  1.
</event>
<event>
 6    1  0.3240171E-005  0.7162775E+02  0.7818608E-02  0.1390719E+00
          2   -1    0    0  502    0  0.00000000000E+00  0.00000000000E+00  0.12509120147E+03  0.12509120147E+03  0.00000000000E+00 0. -1.
          1   -1    0    0  501    0 -0.00000000000E+00 -0.00000000000E+00 -0.42803697020E+03  0.42803697020E+03  0.00000000000E+00 0.  1.
          2    1    1    2  501    0 -0.33130093344E+02  0.40726282847E+02 -0.50423787279E+02  0.72792798566E+02  0.00000000000E+00 0. -1.
          1    1    1    2  502    0  0.25014026365E+02 -0.60202716559E+02 -0.32960608301E+03  0.33599142631E+03  0.00000000000E+00 0.  1.
         22    1    1    2    0    0 -0.30850395828E+02  0.25999923329E+02 -0.15860347477E+02  0.43350819576E+02  0.00000000000E+00 0.  1.
         22    1    1    2    0    0  0.38966462806E+02 -0.65234896178E+01  0.92944449027E+02  0.10099312722E+03  0.00000000000E+00 0. -1.
</event>
<event>
 6    1  0.3240171E-005  0.1604371E+03  0.7818608E-02  0.1241325E+00
          2   -1    0    0  502    0  0.00000000000E+00  0.00000000000E+00  0.91483453347E+03  0.91483453347E+03  0.00000000000E+00 0.  1.
          1   -1    0    0  501    0 -0.00000000000E+00 -0.00000000000E+00 -0.39210855284E+02  0.39210855284E+02  0.00000000000E+00 0.  1.
          2    1    1    2  501    0 -0.32757226646E+02 -0.79211523780E+02  0.12772192650E+03  0.15381934828E+03  0.00000000000E+00 0.  1.
          1    1    1    2  502    0  0.72781868473E+02  0.12529935191E+03  0.36795458305E+03  0.39545885141E+03  0.00000000000E+00 0.  1.
         22    1    1    2    0    0 -0.35943354736E+02  0.37640673821E+02  0.19283977814E+03  0.19973964330E+03  0.00000000000E+00 0.  1.
         22    1    1    2    0    0 -0.40812870920E+01 -0.83728501947E+02  0.18710739050E+03  0.20502754576E+03  0.00000000000E+00 0.  1.
</event>
<event>
 6    1  0.3240171E-005  0.9780732E+02  0.7818608E-02  0.1368622E+00
          2   -1    0    0  502    0  0.00000000000E+00  0.00000000000E+00  0.59792311537E+02  0.59792311537E+02  0.00000000000E+00 0. -1.
          1   -1    0    0  501    0 -0.00000000000E+00 -0.00000000000E+00 -0.11809008778E+04  0.11809008778E+04  0.00000000000E+00 0. -1.
          2    1    1    2  501    0 -0.54493520798E+02 -0.30762277796E+02 -0.54406056663E+03  0.54764747941E+03  0.00000000000E+00 0. -1.
          1    1    1    2  502    0  0.91118240892E+02  0.15331871932E+02 -0.55537542284E+03  0.56300928981E+03  0.00000000000E+00 0. -1.
         22    1    1    2    0    0 -0.22249284381E+02  0.51528527334E+00  0.50373866348E+02  0.55071068495E+02  0.00000000000E+00 0. -1.
         22    1    1    2    0    0 -0.14375435713E+02  0.14915120591E+02 -0.72046443157E+02  0.74965351635E+02  0.00000000000E+00 0. -1.
</event>
<event>
 6    1  0.3240171E-005  0.5109543E+02  0.7818608E-02  0.1440769E+00
          2   -1    0    0  502    0  0.00000000000E+00  0.00000000000E+00  0.86622661216E+02  0.86622661216E+02  0.00000000000E+00 0. -1.
          1   -1    0    0  501    0 -0.00000000000E+00 -0.00000000000E+00 -0.36611113287E+03  0.36611113287E+03  0.00000000000E+00 0. -1.
          2    1    1    2  501    0  0.32355963283E+02 -0.12359457945E+02 -0.20627757822E+03  0.20916525485E+03  0.00000000000E+00 0. -1.
          1    1    1    2  502    0  0.36001204631E+02  0.12184532284E+02 -0.91891263385E+02  0.99441208000E+02  0.00000000000E+00 0. -1.
         22    1    1    2    0    0  0.10055718024E+02  0.38160282778E+01 -0.42981885367E+02  0.44307132683E+02  0.00000000000E+00 0.  1.
         22    1    1    2    0    0 -0.78412885939E+02 -0.36411026174E+01  0.61662255314E+02  0.99820198557E+02  0.00000000000E+00 0. -1.
</event>
<event>
 6    1  0.3240171E-005  0.4934150E+03  0.7818608E-02  0.1109234E+00
          2   -1    0    0  502    0  0.00000000000E+00  0.00000000000E+00  0.12793338867E+04  0.12793338867E+04  0.00000000000E+00 0. -1.
          1   -1    0    0  501    0 -0.00000000000E+00 -0.00000000000E+00 -0.67420788735E+03  0.67420788735E+03  0.00000000000E+00 0.  1.
          2    1    1    2  501    0  0.20868322340E+03  0.13684208552E+03  0.45002184409E+03  0.51458148457E+03  0.00000000000E+00 0. -1.
          1    1    1    2  502    0 -0.34744707482E+03 -0.32773732980E+03 -0.52453579707E+03  0.70941456819E+03  0.00000000000E+00 0.  1.
         22    1    1    2    0    0  0.35433200946E+02 -0.67051436547E+01  0.16120767341E+03  0.16519196302E+03  0.00000000000E+00 0. -1.
         22    1    1    2    0    0  0.10333065047E+03  0.19760038794E+03  0.51843227888E+03  0.56435375823E+03  0.00000000000E+00 0. -1.
</event>
<event>
 6    1  0.3240171E-005  0.3437894E+03  0.7818608E-02  0.1136315E+00
          2   -1    0    0  502    0  0.00000000000E+00  0.00000000000E+00  0.74400993591E+03  0.74400993591E+03  0.00000000000E+00 0.  1.
          1   -1    0    0  501    0 -0.00000000000E+00 -0.00000000000E+00 -0.22552730071E+03  0.22552730071E+03  0.00000000000E+00 0.  1.
          2    1    1    2  501    0 -0.87060847289E+02  0.88865518530E+02  0.11038349507E+03  0.16631652804E+03  0.00000000000E+00 0.  1.
          1    1    1    2  502    0  0.20689042407E+03 -0.27443190588E+03  0.25751274099E+02  0.34464423200E+03  0.00000000000E+00 0.  1.
         22    1    1    2    0    0 -0.65518552792E+02  0.18382221103E+03  0.26350209047E+03  0.32789729750E+03  0.00000000000E+00 0.  1.
         22    1    1    2    0    0 -0.54311023985E+02  0.17441763130E+01  0.11884577556E+03  0.13067917908E+03  0.00000000000E+00 0. -1.
</event>
<event>
 6    1  0.3240171E-005  0.1047434E+03  0.7818608E-02  0.1271640E+00
          2   -1    0    0  502    0  0.00000000000E+00  0.00000000000E+00  0.11183756425E+03  0.11183756425E+03  0.00000000000E+00 0. -1.
          1   -1    0    0  501    0 -0.00000000000E+00 -0.00000000000E+00 -0.29939150244E+03  0.29939150244E+03  0.00000000000E+00 0. -1.
          2    1    1    2  501    0  0.20459015963E+02 -0.64225360964E+02  0.27349256261E+02  0.72742354534E+02  0.00000000000E+00 0. -1.
          1    1    1    2  502    0  0.27351425256E+02  0.13002142403E+02 -0.19269453091E+03  0.19505983291E+03  0.00000000000E+00 0. -1.
         22    1    1    2    0    0  0.16611967485E+02 -0.31801634596E+02  0.63773660085E+00  0.35884650405E+02  0.00000000000E+00 0.  1.
         22    1    1    2    0    0 -0.64422408704E+02  0.83024853156E+02 -0.22846400139E+02  0.10754222884E+03  0.00000000000E+00 0. -1.
</event>
<event>
 6    1  0.3240171E-005  0.9856280E+02  0.7818608E-02  0.1286485E+00
          2   -1    0    0  502    0  0.00000000000E+00  0.00000000000E+00  0.46994736958E+03  0.46994736958E+03  0.00000000000E+00 0.  1.
          1   -1    0    0  501    0 -0.00000000000E+00 -0.00000000000E+00 -0.29698447631E+02  0.29698447631E+02  0.00000000000E+00 0.  1.
          2    1    1    2  501    0 -0.19789881319E+02 -0.48159153473E+02  0.73247048860E+02  0.89866977432E+02  0.00000000000E+00 0.  1.
          1    1    1    2  502    0  0.36501076647E+02 -0.15117618650E+02  0.75940643140E+02  0.85602875364E+02  0.00000000000E+00 0.  1.
         22    1    1    2    0    0 -0.11999561406E+02  0.10077321303E+03  0.17715750636E+03  0.20416662802E+03  0.00000000000E+00 0.  1.
         22    1    1    2    0    0 -0.47116339216E+01 -0.37496440902E+02  0.11390372359E+03  0.12000933640E+03  0.00000000000E+00 0.  1.
</event>
<event>
 6    1  0.3240171E-005  0.1067844E+03  0.7818608E-02  0.1272124E+00
          2   -1    0    0  502    0  0.00000000000E+00  0.00000000000E+00  0.74622833931E+03  0.74622833931E+03  0.00000000000E+00 0. -1.
          1   -1    0    0  501    0 -0.00000000000E+00 -0.00000000000E+00 -0.87749086510E+02  0.87749086510E+02  0.00000000000E+00 0. -1.
          2    1    1    2  501    0  0.48757974513E+02  0.56401343735E+02  0.22900531937E+03  0.24083581120E+03  0.00000000000E+00 0. -1.
          1    1    1    2  502    0 -0.29779727807E+01 -0.38235162549E+02 -0.68363497919E+02  0.78385992529E+02  0.00000000000E+00 0. -1.
         22    1    1    2    0    0  0.90991089050E+01  0.41877632640E+02  0.25708110231E+03  0.26062851545E+03  0.00000000000E+00 0.  1.
         22    1    1    2    0    0 -0.54879110638E+02 -0.60043813826E+02  0.24075632904E+03  0.25412710665E+03  0.00000000000E+00 0. -1.
</event>
<event>
 6    1  0.3240171E-005  0.9825896E+02  0.7818608E-02  0.1289078E+00
          2   -1    0    0  502    0  0.00000000000E+00  0.00000000000E+00  0.10449154509E+04  0.10449154509E+04  0.00000000000E+00 0.  1.
          1   -1    0    0  501    0 -0.00000000000E+00 -0.00000000000E+00 -0.29180056332E+02  0.29180056332E+02  0.00000000000E+00 0. -1.
          2    1    1    2  501    0 -0.95532308430E+01  0.58473602750E+02  0.17201956606E+03  0.18193723518E+03  0.00000000000E+00 0.  1.
          1    1    1    2  502    0  0.56583194548E+02 -0.34646059728E+02  0.41821891975E+02  0.78428808536E+02  0.00000000000E+00 0. -1.
         22    1    1    2    0    0 -0.15016721517E+02  0.52967401080E+02  0.32708697157E+03  0.33168800774E+03  0.00000000000E+00 0.  1.
         22    1    1    2    0    0 -0.32013242189E+02 -0.76794944102E+02  0.47480696492E+03  0.48204145574E+03  0.00000000000E+00 0.  1.
</event>
<event>
 6    1  0.3240171E-005  0.2488687E+03  0.7818608E-02  0.1183763E+00
          2   -1    0    0  502    0  0.00000000000E+00  0.00000000000E+00  0.22859000108E+03  0.22859000108E+03  0.00000000000E+00 0.  1.
          1   -1    0    0  501    0 -0.00000000000E+00 -0.00000000000E+00 -0.46080166521E+03  0.46080166521E+03  0.00000000000E+00 0. -1.
          2    1    1    2  501    0 -0.48043731993E+02 -0.11674974775E+02 -0.95364534218E+01  0.50353243825E+02  0.00000000000E+00 0.  1.
          1    1    1    2  502    0  0.23978464624E+03  0.52750355447E+02 -0.30499424231E+03  0.39153641519E+03  0.00000000000E+00 0. -1.
         22    1    1    2    0    0 -0.59199353632E+01 -0.47077721656E+02  0.18700612884E+02  0.51000690517E+02  0.00000000000E+00 0.  1.
         22    1    1    2    0    0 -0.18582097888E+03  0.60023409839E+01  0.63618418715E+02  0.19650131676E+03  0.00000000000E+00 0.  1.
</event>
<event>
 6    1  0.3240171E-005  0.2908334E+03  0.7818608E-02  0.1138782E+00
          2   -1    0    0  502    0  0.00000000000E+00  0.00000000000E+00  0.83585067359E+03  0.83585067359E+03  0.00000000000E+00 0.  1.
          1   -1    0    0  501    0 -0.00000000000E+00 -0.00000000000E+00 -0.12068433011E+03  0.12068433011E+03  0.00000000000E+00 0.  1.
          2    1    1    2  501    0  0.22842087655E+03  0.10840122924E+03  0.19740489250E+03  0.32077346357E+03  0.00000000000E+00 0.  1.
          1    1    1    2  502    0 -0.17538035840E+03 -0.76379800668E+01  0.14715095812E+03  0.22906333912E+03  0.00000000000E+00 0.  1.
         22    1    1    2    0    0  0.25021164337E+02 -0.68286147030E+02  0.10327982439E+03  0.12631618529E+03  0.00000000000E+00 0.  1.
         22    1    1    2    0    0 -0.78061682485E+02 -0.32477102140E+02  0.26733066847E+03  0.28038201572E+03  0.00000000000E+00 0.  1.
</event>
<event>
 6    1  0.3240171E-005  0.1298369E+03  0.7818608E-02  0.1277938E+00
          2   -1    0    0  502    0  0.00000000000E+00  0.00000000000E+00  0.13698534309E+04  0.13698534309E+04  0.00000000000E+00 0. -1.
          1   -1    0    0  501    0 -0.00000000000E+00 -0.00000000000E+00 -0.34782246188E+02  0.34782246188E+02  0.00000000000E+00 0.  1.
          2    1    1    2  501    0 -0.32395530683E+02 -0.41046826914E+02  0.73877944638E+03  0.74062769513E+03  0.00000000000E+00 0. -1.
          1    1    1    2  502    0  0.86870859788E+01  0.66115637200E+02  0.15492291661E+02  0.68459871794E+02  0.00000000000E+00 0.  1.
         22    1    1    2    0    0 -0.32126642434E+02  0.35378187498E+02  0.17006656958E+03  0.17665326318E+03  0.00000000000E+00 0. -1.
         22    1    1    2    0    0  0.55835087138E+02 -0.60446997785E+02  0.41073287708E+03  0.41889484696E+03  0.00000000000E+00 0.  1.
</event>
<event>
 6    1  0.3240171E-005  0.7455645E+02  0.7818608E-02  0.1352059E+00
          2   -1    0    0  502    0  0.00000000000E+00  0.00000000000E+00  0.25481023833E+02  0.25481023833E+02  0.00000000000E+00 0.  1.
          1   -1    0    0  501    0 -0.00000000000E+00 -0.00000000000E+00 -0.95987329092E+03  0.95987329092E+03  0.00000000000E+00 0. -1.
          2    1    1    2  501    0  0.20201195301E+02 -0.67100294666E+00 -0.36106943153E+02  0.41379341227E+02  0.00000000000E+00 0.  1.
          1    1    1    2  502    0 -0.15798397726E+01 -0.31165056296E+02 -0.74199628858E+03  0.74265217222E+03  0.00000000000E+00 0. -1.
         22    1    1    2    0    0 -0.38807217916E+02  0.71374075047E+02 -0.11419709957E+03  0.14014719512E+03  0.00000000000E+00 0.  1.
         22    1    1    2    0    0  0.20185862387E+02 -0.39538015805E+02 -0.42091935780E+02  0.61175606183E+02  0.00000000000E+00 0.  1.
</event>
<event>
 6    1  0.3240171E-005  0.9786627E+02  0.7818608E-02  0.1319961E+00
          2   -1    0    0  502    0  0.00000000000E+00  0.00000000000E+00  0.14907180615E+03  0.14907180615E+03  0.00000000000E+00 0.  1.
          1   -1    0    0  501    0 -0.00000000000E+00 -0.00000000000E+00 -0.21821688713E+03  0.21821688713E+03  0.00000000000E+00 0. -1.
          2    1    1    2  501    0 -0.42523182894E+01  0.60669864076E+02  0.41030770775E+01  0.60956950870E+02  0.00000000000E+00 0.  1.
          1    1    1    2  502    0 -0.92051515481E+00 -0.56578385356E+02 -0.14992108321E+03  0.16024447644E+03  0.00000000000E+00 0. -1.
         22    1    1    2    0    0  0.55031436046E+02  0.81788492695E+01  0.22640426072E+01  0.55681939779E+02  0.00000000000E+00 0.  1.
         22    1    1    2    0    0 -0.49858602601E+02 -0.12270327990E+02  0.74408882544E+02  0.90405326192E+02  0.00000000000E+00 0.  1.
</event>
<event>
 6    1  0.3240171E-005  0.9262851E+03  0.7818608E-02  0.1031897E+00
          2   -1    0    0  502    0  0.00000000000E+00  0.00000000000E+00  0.14659500793E+04  0.14659500793E+04  0.00000000000E+00 0. -1.
          1   -1    0    0  501    0 -0.00000000000E+00 -0.00000000000E+00 -0.18478838234E+04  0.18478838234E+04  0.00000000000E+00 0. -1.
          2    1    1    2  501    0  0.46479212546E+03 -0.11423618763E+03  0.33351766587E+03  0.58336580281E+03  0.00000000000E+00 0. -1.
          1    1    1    2  502    0 -0.84241930213E+03  0.26394898172E+03 -0.15560652068E+04  0.17890439551E+04  0.00000000000E+00 0. -1.
         22    1    1    2    0    0  0.36181180184E+02 -0.27724225915E+02  0.20179817273E+03  0.20688212348E+03  0.00000000000E+00 0.  1.
         22    1    1    2    0    0  0.34144599649E+03 -0.12198856818E+03  0.63881562418E+03  0.73454202125E+03  0.00000000000E+00 0. -1.
</event>
<event>
 6    1  0.3240171E-005  0.1681891E+03  0.7818608E-02  0.1231667E+00
          2   -1    0    0  502    0  0.00000000000E+00  0.00000000000E+00  0.15235077259E+03  0.15235077259E+03  0.00000000000E+00 0.  1.
          1   -1    0    0  501    0 -0.00000000000E+00 -0.00000000000E+00 -0.70474447987E+03  0.70474447987E+03  0.00000000000E+00 0. -1.
          2    1    1    2  501    0 -0.51832592285E+02 -0.34947471434E+02 -0.70216298222E+02  0.94012083897E+02  0.00000000000E+00 0.  1.
          1    1    1    2  502    0  0.25256869587E+02 -0.96090754195E+01 -0.58895003389E+03  0.58956966189E+03  0.00000000000E+00 0. -1.
         22    1    1    2    0    0  0.42514252639E+02 -0.31642808199E+02  0.68946654936E+02  0.86961889440E+02  0.00000000000E+00 0.  1.
         22    1    1    2    0    0 -0.15938529940E+02  0.76199355053E+02  0.37825969905E+02  0.86551617237E+02  0.00000000000E+00 0.  1.
</event>
<event>
 6    1  0.3240171E-005  0.2022351E+03  0.7818608E-02  0.1241123E+00
          2   -1    0    0  502    0  0.00000000000E+00  0.00000000000E+00  0.27133578635E+02  0.27133578635E+02  0.00000000000E+00 0.  1.
          1   -1    0    0  501    0 -0.00000000000E+00 -0.00000000000E+00 -0.11080521976E+04  0.11080521976E+04  0.00000000000E+00 0.  1.
          2    1    1    2  501    0  0.82591390115E+02  0.15253858029E+02 -0.50693323953E+03  0.51384367977E+03  0.00000000000E+00 0.  1.
          1    1    1    2  502    0  0.20650801758E+02 -0.32713100928E+01 -0.30502387759E+03  0.30573963267E+03  0.00000000000E+00 0.  1.
         22    1    1    2    0    0 -0.71918151378E+01  0.25221490011E+02  0.14201129112E+01  0.26265233371E+02  0.00000000000E+00 0.  1.
         22    1    1    2    0    0 -0.96050376735E+02 -0.37204037947E+02 -0.27038161476E+03  0.28933723043E+03  0.00000000000E+00 0.  1.
</event>
<event>
 6    1  0.3240171E-005  0.1035539E+03  0.7818608E-02  0.1290843E+00
          2   -1    0    0  502    0  0.00000000000E+00  0.00000000000E+00  0.27055553328E+03  0.27055553328E+03  0.00000000000E+00 0. -1.
          1   -1    0    0  501    0 -0.00000000000E+00 -0.00000000000E+00 -0.12798676003E+03  0.12798676003E+03  0.00000000000E+00 0. -1.
          2    1    1    2  501    0 -0.11961093725E+02  0.73306243975E+02  0.40426401590E+01  0.74385590730E+02  0.00000000000E+00 0. -1.
          1    1    1    2  502    0  0.54877287446E+02 -0.77425977737E+02 -0.37379358226E+02  0.10199762315E+03  0.00000000000E+00 0. -1.
         22    1    1    2    0    0 -0.68050209815E+02 -0.28577338635E+02  0.16302363135E+03  0.17895306568E+03  0.00000000000E+00 0. -1.
         22    1    1    2    0    0  0.25134016094E+02  0.32697072397E+02  0.12881859972E+02  0.43206013756E+02  0.00000000000E+00 0.  1.
</event>
<event>
 6    1  0.3240171E-005  0.5464629E+02  0.7818608E-02  0.1439283E+00
          2   -1    0    0  502    0  0.00000000000E+00  0.00000000000E+00  0.10250537825E+03  0.10250537825E+03  0.00000000000E+00 0.  1.
          1   -1    0    0  501    0 -0.00000000000E+00 -0.00000000000E+00 -0.34775820352E+03  0.34775820352E+03  0.00000000000E+00 0. -1.
          2    1    1    2  501    0  0.37526327865E+01 -0.26794323756E+02 -0.16430592322E+02  0.31654105617E+02  0.00000000000E+00 0.  1.
          1    1    1    2  502    0 -0.28635776210E+00  0.48737184864E+02 -0.27869367024E+03  0.28292323521E+03  0.00000000000E+00 0. -1.
         22    1    1    2    0    0 -0.44696241258E+01  0.41678581453E+02  0.57976571947E+02  0.71542746568E+02  0.00000000000E+00 0. -1.
         22    1    1    2    0    0  0.10033491013E+01 -0.63621442561E+02 -0.81051346504E+01  0.64143494376E+02  0.00000000000E+00 0.  1.
</event>
<event>
 6    1  0.3240171E-005  0.9935845E+02  0.7818608E-02  0.1396817E+00
          2   -1    0    0  502    0  0.00000000000E+00  0.00000000000E+00  0.64370695374E+02  0.64370695374E+02  0.00000000000E+00 0. -1.
          1   -1    0    0  501    0 -0.00000000000E+00 -0.00000000000E+00 -0.22781050844E+03  0.22781050844E+03  0.00000000000E+00 0.  1.
          2    1    1    2  501    0  0.22606190410E+02 -0.74982300035E+01  0.82397107751E+01  0.25202304095E+02  0.00000000000E+00 0. -1.
          1    1    1    2  502    0  0.21840201107E+02 -0.54485396195E+01 -0.12453833311E+03  0.12655622222E+03  0.00000000000E+00 0.  1.
         22    1    1    2    0    0  0.11577434546E+02 -0.68018069607E+01  0.35896098979E+02  0.38325337448E+02  0.00000000000E+00 0. -1.
         22    1    1    2    0    0 -0.56023826062E+02  0.19748576584E+02 -0.83037289710E+02  0.10209734005E+03  0.00000000000E+00 0.  1.
</event>
<event>
 6    1  0.3240171E-005  0.1367692E+03  0.7818608E-02  0.1219221E+00
          2   -1    0    0  502    0  0.00000000000E+00  0.00000000000E+00  0.60294493954E+03  0.60294493954E+03  0.00000000000E+00 0. -1.
          1   -1    0    0  501    0 -0.00000000000E+00 -0.00000000000E+00 -0.42098543862E+03  0.42098543862E+03  0.00000000000E+00 0.  1.
          2    1    1    2  501    0 -0.17865729260E+01  0.10652828001E+03  0.27621232248E+03  0.29604849835E+03  0.00000000000E+00 0. -1.
          1    1    1    2  502    0 -0.58506571710E+02  0.10847922573E+02 -0.38347576734E+03  0.38806489211E+03  0.00000000000E+00 0.  1.
         22    1    1    2    0    0  0.44876187142E+02 -0.13952565656E+03  0.20972154948E+03  0.25586013626E+03  0.00000000000E+00 0.  1.
         22    1    1    2    0    0  0.15416957494E+02  0.22149453978E+02  0.79501396301E+02  0.83956851440E+02  0.00000000000E+00 0. -1.
</event>
<event>
 6    1  0.3240171E-005  0.1800668E+03  0.7818608E-02  0.1266244E+00
          2   -1    0    0  502    0  0.00000000000E+00  0.00000000000E+00  0.12473176985E+03  0.12473176985E+03  0.00000000000E+00 0. -1.
          1   -1    0    0  501    0 -0.00000000000E+00 -0.00000000000E+00 -0.13059881970E+04  0.13059881970E+04  0.00000000000E+00 0. -1.
          2    1    1    2  501    0  0.85448964019E+02 -0.10854239039E+03 -0.13792234197E+03  0.19520642504E+03  0.00000000000E+00 0. -1.
          1    1    1    2  502    0 -0.10731196910E+03  0.14463306748E+03 -0.10840465135E+04  0.10989046484E+04  0.00000000000E+00 0. -1.
         22    1    1    2    0    0  0.58725700458E+01 -0.20340968581E+02 -0.44077577037E+02  0.48898618377E+02  0.00000000000E+00 0. -1.
         22    1    1    2    0    0  0.15990435039E+02 -0.15749708511E+02  0.84790005355E+02  0.87710274992E+02  0.00000000000E+00 0. -1.
</event>
<event>
 6    1  0.3240171E-005  0.1809943E+03  0.7818608E-02  0.1204518E+00
          2   -1    0    0  502    0  0.00000000000E+00  0.00000000000E+00  0.11951182921E+03  0.11951182921E+03  0.00000000000E+00 0.  1.
          1   -1    0    0  501    0 -0.00000000000E+00 -0.00000000000E+00 -0.48625000107E+03  0.48625000107E+03  0.00000000000E+00 0.  1.
          2    1    1    2  501    0  0.12454719072E+03  0.11879051338E+03 -0.16353729117E+03  0.23741869006E+03  0.00000000000E+00 0.  1.
          1    1    1    2  502    0 -0.78466155859E+02 -0.14140763979E+03 -0.16478936107E+03  0.23088653431E+03  0.00000000000E+00 0.  1.
         22    1    1    2    0    0  0.31610815142E+02  0.13447479321E+02 -0.47585418445E+02  0.58689440129E+02  0.00000000000E+00 0.  1.
         22    1    1    2    0    0 -0.77691850002E+02  0.91696470938E+01  0.91738988229E+01  0.78767165775E+02  0.00000000000E+00 0.  1.
</event>
<event>
 6    1  0.3240171E-005  0.2640769E+03  0.7818608E-02  0.1148319E+00
          2   -1    0    0  502    0  0.00000000000E+00  0.00000000000E+00  0.44258909957E+03  0.44258909957E+03  0.00000000000E+00 0.  1.
          1   -1    0    0  501    0 -0.00000000000E+00 -0.00000000000E+00 -0.21703824104E+04  0.21703824104E+04  0.00000000000E+00 0.  1.
          2    1    1    2  501    0 -0.12652595973E+03 -0.27280453864E+02  0.13792661977E+03  0.18914754582E+03  0.00000000000E+00 0.  1.
          1    1    1    2  502    0  0.24086818275E+03  0.10232302469E+03 -0.21059317307E+04  0.21221300471E+04  0.00000000000E+00 0.  1.
         22    1    1    2    0    0 -0.48742540253E+02 -0.75490354314E+02  0.21204927744E+03  0.23030311523E+03  0.00000000000E+00 0.  1.
         22    1    1    2    0    0 -0.65599682770E+02  0.44778348824E+00  0.28162522647E+02  0.71390801729E+02  0.00000000000E+00 0.  1.
</event>
<event>
 6    1  0.3240171E-005  0.2051324E+03  0.7818608E-02  0.1164604E+00
          2   -1    0    0  502    0  0.00000000000E+00  0.00000000000E+00  0.25829386636E+04  0.25829386636E+04  0.00000000000E+00 0.  1.
          1   -1    0    0  501    0 -0.00000000000E+00 -0.00000000000E+00 -0.46230045738E+02  0.46230045738E+02  0.00000000000E+00 0.  1.
          2    1    1    2  501    0  0.22961581038E+03  0.10301361533E+03  0.13461399425E+04  0.13694626575E+04  0.00000000000E+00 0.  1.
          1    1    1    2  502    0 -0.15872678307E+03 -0.20960053410E+01  0.21091271289E+03  0.26397491805E+03  0.00000000000E+00 0.  1.
         22    1    1    2    0    0 -0.10832184928E+03 -0.73510880119E+02  0.76485079971E+03  0.77597307836E+03  0.00000000000E+00 0.  1.
         22    1    1    2    0    0  0.37432821964E+02 -0.27406729867E+02  0.21480516270E+03  0.21975805543E+03  0.00000000000E+00 0. -1.
</event>
<event>
 6    1  0.3240171E-005  0.1977238E+03  0.7818608E-02  0.1238062E+00
          2   -1    0    0  502    0  0.00000000000E+00  0.00000000000E+00  0.14966339330E+03  0.14966339330E+03  0.00000000000E+00 0.  1.
          1   -1    0    0  501    0 -0.00000000000E+00 -0.00000000000E+00 -0.16553383543E+04  0.16553383543E+04  0.00000000000E+00 0.  1.
          2    1    1    2  501    0  0.70053263059E+02  0.16444026937E+03 -0.15206912697E+03  0.23467654598E+03  0.00000000000E+00 0.  1.
          1    1    1    2  502    0 -0.89977368319E+02 -0.15182146000E+03 -0.14152264898E+04  0.14261878207E+04  0.00000000000E+00 0.  1.
         22    1    1    2    0    0 -0.21728647571E+02 -0.20263030834E+02  0.88920118214E+02  0.93752397127E+02  0.00000000000E+00 0.  1.
         22    1    1    2    0    0  0.41652752831E+02  0.76442214628E+01 -0.27299462451E+02  0.50384983778E+02  0.00000000000E+00 0.  1.
</event>
<event>
 6    1  0.3240171E-005  0.4647812E+03  0.7818608E-02  0.1133124E+00
          2   -1    0    0  502    0  0.00000000000E+00  0.00000000000E+00  0.22451514315E+03  0.22451514315E+03  0.00000000000E+00 0. -1.
          1   -1    0    0  501    0 -0.00000000000E+00 -0.00000000000E+00 -0.99655445207E+03  0.99655445207E+03  0.00000000000E+00 0.  1.
          2    1    1    2  501    0 -0.28323852313E+03  0.27242257120E+03 -0.38091826357E+03  0.54729959054E+03  0.00000000000E+00 0. -1.
          1    1    1    2  502    0  0.25822218410E+03 -0.31990203312E+03 -0.32668203707E+03  0.52510680866E+03  0.00000000000E+00 0.  1.
         22    1    1    2    0    0  0.46305523885E+02  0.36911882128E+02 -0.93775005964E+02  0.11090735020E+03  0.00000000000E+00 0.  1.
         22    1    1    2    0    0 -0.21289184857E+02  0.10567579789E+02  0.29335997679E+02  0.37755845829E+02  0.00000000000E+00 0. -1.
</event>
<event>
 6    1  0.3240171E-005  0.4971511E+02  0.7818608E-02  0.1472594E+00
          2   -1    0    0  502    0  0.00000000000E+00  0.00000000000E+00  0.24812018647E+03  0.24812018647E+03  0.00000000000E+00 0. -1.
          1   -1    0    0  501    0 -0.00000000000E+00 -0.00000000000E+00 -0.86305121471E+02  0.86305121471E+02  0.00000000000E+00 0. -1.
          2    1    1    2  501    0  0.21241945165E+02  0.29805223719E+02  0.28177828335E+01  0.36708466263E+02  0.00000000000E+00 0. -1.
          1    1    1    2  502    0 -0.34634708032E+02 -0.17405280748E+02 -0.43849075791E+02  0.58525620425E+02  0.00000000000E+00 0. -1.
         22    1    1    2    0    0  0.37319718130E+02  0.12056374865E+02  0.63393274666E+01  0.39727882009E+02  0.00000000000E+00 0. -1.
         22    1    1    2    0    0 -0.23926955264E+02 -0.24456317835E+02  0.19650703049E+03  0.19946333924E+03  0.00000000000E+00 0. -1.
</event>
<event>
 6    1  0.3240171E-005  0.6276806E+02  0.7818608E-02  0.1404240E+00
          2   -1    0    0  502    0  0.00000000000E+00  0.00000000000E+00  0.12300407861E+03  0.12300407861E+03  0.00000000000E+00 0.  1.
          1   -1    0    0  501    0 -0.00000000000E+00 -0.00000000000E+00 -0.86977412957E+03  0.86977412957E+03  0.00000000000E+00 0. -1.
          2    1    1    2  501    0 -0.29525844047E+02  0.92830903387E+01 -0.73676785441E+02  0.79913828252E+02  0.00000000000E+00 0.  1.
          1    1    1    2  502    0  0.24607461788E+02  0.84097802173E+01 -0.75730880382E+03  0.75775515566E+03  0.00000000000E+00 0. -1.
         22    1    1    2    0    0  0.99237070533E+01 -0.46431631100E+02  0.10767262957E+03  0.11767655453E+03  0.00000000000E+00 0.  1.
         22    1    1    2    0    0 -0.50053247949E+01  0.28738760544E+02 -0.23457091264E+02  0.37432669748E+02  0.00000000000E+00 0.  1.
</event>
<event>
 6    1  0.3240171E-005  0.1195436E+03  0.7818608E-02  0.1273246E+00
          2   -1    0    0  502    0  0.00000000000E+00  0.00000000000E+00  0.12422078137E+03  0.12422078137E+03  0.00000000000E+00 0. -1.
          1   -1    0    0  501    0 -0.00000000000E+00 -0.00000000000E+00 -0.95214795803E+03  0.95214795803E+03  0.00000000000E+00 0.  1.
          2    1    1    2  501    0  0.10711289153E+03 -0.26980638314E+02 -0.20516383700E+03  0.23300928391E+03  0.00000000000E+00 0. -1.
          1    1    1    2  502    0 -0.60436374794E+02 -0.50290268011E+02 -0.67323883425E+03  0.67781427722E+03  0.00000000000E+00 0.  1.
         22    1    1    2    0    0 -0.39899301358E+02  0.53808721674E+02  0.94124869233E+02  0.11552845444E+03  0.00000000000E+00 0. -1.
         22    1    1    2    0    0 -0.67772153830E+01  0.23462184651E+02 -0.43649374628E+02  0.50016723827E+02  0.00000000000E+00 0. -1.
</event>
<event>
 6    1  0.3240171E-005  0.9853863E+02  0.7818608E-02  0.1305013E+00
          2   -1    0    0  502    0  0.00000000000E+00  0.00000000000E+00  0.25658575476E+02  0.25658575476E+02  0.00000000000E+00 0. -1.
          1   -1    0    0  501    0 -0.00000000000E+00 -0.00000000000E+00 -0.71352986478E+03  0.71352986478E+03  0.00000000000E+00 0. -1.
          2    1    1    2  501    0 -0.49779888762E+02 -0.91070460265E+01 -0.12799502413E+03  0.13763612103E+03  0.00000000000E+00 0. -1.
          1    1    1    2  502    0  0.49388266802E+02  0.58884313723E+02 -0.14231820037E+03  0.16174372772E+03  0.00000000000E+00 0. -1.
         22    1    1    2    0    0 -0.63090762306E+02 -0.32052532722E+02 -0.24772371648E+03  0.25763316721E+03  0.00000000000E+00 0. -1.
         22    1    1    2    0    0  0.63482384265E+02 -0.17724734974E+02 -0.16983434833E+03  0.18217542428E+03  0.00000000000E+00 0. -1.
</event>
<event>
 6    1  0.3240171E-005  0.8714350E+02  0.7818608E-02  0.1314137E+00
          2   -1    0    0  502    0  0.00000000000E+00  0.00000000000E+00  0.26400375342E+03  0.26400375342E+03  0.00000000000E+00 0.  1.
          1   -1    0    0  501    0 -0.00000000000E+00 -0.00000000000E+00 -0.10530886631E+03  0.10530886631E+03  0.00000000000E+00 0. -1.
          2    1    1    2  501    0 -0.45298973043E+02 -0.42876796495E+02  0.25904962408E+02  0.67538757123E+02  0.00000000000E+00 0.  1.
          1    1    1    2  502    0  0.23585948919E+02  0.22342652167E+02 -0.59703580913E+02  0.67970645621E+02  0.00000000000E+00 0. -1.
         22    1    1    2    0    0  0.33837185114E+02  0.66466182959E+02  0.15916370196E+03  0.17577199036E+03  0.00000000000E+00 0.  1.
         22    1    1    2    0    0 -0.12124160990E+02 -0.45932038632E+02  0.33329803649E+02  0.58031226627E+02  0.00000000000E+00 0.  1.
</event>
<event>
 6    1  0.3240171E-005  0.9055487E+02  0.7818608E-02  0.1426687E+00
          2   -1    0    0  502    0  0.00000000000E+00  0.00000000000E+00  0.50922009992E+02  0.50922009992E+02  0.00000000000E+00 0.  1.
          1   -1    0    0  501    0 -0.00000000000E+00 -0.00000000000E+00 -0.13310007685E+04  0.13310007685E+04  0.00000000000E+00 0. -1.
          2    1    1    2  501    0  0.95724330889E+01 -0.32470247755E+02 -0.33214511727E+02  0.47425228031E+02  0.00000000000E+00 0.  1.
          1    1    1    2  502    0 -0.53282700744E+01 -0.21708978405E+02 -0.11815091377E+04  0.11817205730E+04  0.00000000000E+00 0. -1.
         22    1    1    2    0    0  0.68340261928E+01  0.55360518269E+02 -0.10102830479E+03  0.11540454613E+03  0.00000000000E+00 0.  1.
         22    1    1    2    0    0 -0.11078189207E+02 -0.11812921079E+01  0.35673195737E+02  0.37372431300E+02  0.00000000000E+00 0.  1.
</event>
<event>
 6    1  0.3240171E-005  0.2512079E+03  0.7818608E-02  0.1112890E+00
          2   -1    0    0  502    0  0.00000000000E+00  0.00000000000E+00  0.10541379146E+04  0.10541379146E+04  0.00000000000E+00 0. -1.
          1   -1    0    0  501    0 -0.00000000000E+00 -0.00000000000E+00 -0.59145307016E+03  0.59145307016E+03  0.00000000000E+00 0.  1.
          2    1    1    2  501    0 -0.12084547222E+03  0.24571009779E+03  0.58150936670E+03  0.64275207030E+03  0.00000000000E+00 0. -1.
          1    1    1    2  502    0  0.63574674740E+02 -0.57952242357E+02 -0.52661051713E+03  0.53359051567E+03  0.00000000000E+00 0.  1.
         22    1    1    2    0    0 -0.60046313596E+01  0.14845886501E+02  0.57353588861E+02  0.59547376928E+02  0.00000000000E+00 0.  1.
         22    1    1    2    0    0  0.63275428840E+02 -0.20260374193E+03  0.35043240606E+03  0.40970102191E+03  0.00000000000E+00 0. -1.
</event>
<event>
 6    1  0.3240171E-005  0.2439256E+03  0.7818608E-02  0.1202815E+00
          2   -1    0    0  502    0  0.00000000000E+00  0.00000000000E+00  0.87743837367E+02  0.87743837367E+02  0.00000000000E+00 0.  1.
          1   -1    0    0  501    0 -0.00000000000E+00 -0.00000000000E+00 -0.47480391927E+03  0.47480391927E+03  0.00000000000E+00 0.  1.
          2    1    1    2  501    0 -0.14173738272E+02 -0.17131323268E+02 -0.18863799334E+03  0.18994385914E+03  0.00000000000E+00 0.  1.
          1    1    1    2  502    0  0.72112898139E+00  0.49272256154E+02 -0.23235718576E+03  0.23752502400E+03  0.00000000000E+00 0.  1.
         22    1    1    2    0    0  0.30741157977E+02 -0.60432818849E+02  0.61821083413E+02  0.91755058401E+02  0.00000000000E+00 0.  1.
         22    1    1    2    0    0 -0.17288548687E+02  0.28291885962E+02 -0.27885986216E+02  0.43323815093E+02  0.00000000000E+00 0. -1.
</event>
<event>
 6    1  0.3240171E-005  0.2144589E+03  0.7818608E-02  0.1218556E+00
          2   -1    0    0  502    0  0.00000000000E+00  0.00000000000E+00  0.56078942840E+03  0.56078942840E+03  0.00000000000E+00 0. -1.
          1   -1    0    0  501    0 -0.00000000000E+00 -0.00000000000E+00 -0.30621997565E+03  0.30621997565E+03  0.00000000000E+00 0. -1.
          2    1    1    2  501    0  0.11333482083E+03 -0.12859967282E+03 -0.23895464714E+03  0.29407818833E+03  0.00000000000E+00 0. -1.
          1    1    1    2  502    0 -0.11728396823E+03  0.10440457026E+03  0.32126930032E+03  0.35758887961E+03  0.00000000000E+00 0. -1.
         22    1    1    2    0    0 -0.87379241567E+01  0.56678025808E+02  0.17109529625E+03  0.18045040961E+03  0.00000000000E+00 0.  1.
         22    1    1    2    0    0  0.12687071557E+02 -0.32482923245E+02  0.11595033233E+01  0.34891926505E+02  0.00000000000E+00 0.  1.
</event>
<event>
 6    1  0.3240171E-005  0.3146120E+03  0.7818608E-02  0.1191118E+00
          2   -1    0    0  502    0  0.00000000000E+00  0.00000000000E+00  0.20499438819E+03  0.20499438819E+03  0.00000000000E+00 0. -1.
          1   -1    0    0  501    0 -0.00000000000E+00 -0.00000000000E+00 -0.63937763405E+03  0.63937763405E+03  0.00000000000E+00 0. -1.
          2    1    1    2  501    0 -0.14233136150E+03  0.19655307987E+03 -0.30351832451E+03  0.38860610261E+03  0.00000000000E+00 0. -1.
          1    1    1    2  502    0  0.14786723741E+03 -0.26044135874E+03 -0.79860243480E+02  0.30995496404E+03  0.00000000000E+00 0. -1.
         22    1    1    2    0    0 -0.19163096925E+02 -0.55442579017E+01  0.31397092843E+02  0.37198662858E+02  0.00000000000E+00 0. -1.
         22    1    1    2    0    0  0.13627221019E+02  0.69432536774E+02 -0.82401770708E+02  0.10861229273E+03  0.00000000000E+00 0.  1.
</event>
<event>
 6    1  0.3240171E-005  0.6123314E+03  0.7818608E-02  0.1121559E+00
          2   -1    0    0  502    0  0.00000000000E+00  0.00000000000E+00  0.29398883791E+04  0.29398883791E+04  0.00000000000E+00 0. -1.
          1   -1    0    0  501    0 -0.00000000000E+00 -0.00000000000E+00 -0.71589906249E+03  0.71589906249E+03  0.00000000000E+00 0. -1.
          2    1    1    2  501    0 -0.26602970953E+03 -0.52519825817E+02  0.14033252824E+04  0.14292837321E+04  0.00000000000E+00 0. -1.
          1    1    1    2  502    0 -0.31080594867E+02 -0.97597528459E+02 -0.67839260287E+03  0.68608148537E+03  0.00000000000E+00 0. -1.
         22    1    1    2    0    0 -0.16260515641E+01 -0.13731000912E+02  0.54257593980E+02  0.55991704155E+02  0.00000000000E+00 0.  1.
         22    1    1    2    0    0  0.29873635596E+03  0.16384835519E+03  0.14447990431E+04  0.14844305200E+04  0.00000000000E+00 0. -1.
</event>
<event>
 6    1  0.3240171E-005  0.8117104E+02  0.7818608E-02  0.1369221E+00
          2   -1    0    0  502    0  0.00000000000E+00  0.00000000000E+00  0.66541147032E+02  0.66541147032E+02  0.00000000000E+00 0.  1.
          1   -1    0    0  501    0 -0.00000000000E+00 -0.00000000000E+00 -0.49713219812E+03  0.49713219812E+03  0.00000000000E+00 0.  1.
          2    1    1    2  501    0  0.11462058572E+02 -0.25450760088E+02 -0.21015075841E+03  0.21199637081E+03  0.00000000000E+00 0.  1.
          1    1    1    2  502    0 -0.14637764368E+02  0.27461398643E+02 -0.22673231549E+03  0.22885789357E+03  0.00000000000E+00 0.  1.
         22    1    1    2    0    0 -0.27956082247E+02  0.25525402625E+02  0.49862251831E+02  0.62604575483E+02  0.00000000000E+00 0.  1.
         22    1    1    2    0    0  0.31131788042E+02 -0.27536041180E+02 -0.43570229017E+02  0.60214505289E+02  0.00000000000E+00 0.  1.
</event>
<event>
 6    1  0.3240171E-005  0.1196459E+03  0.7818608E-02  0.1285241E+00
          2   -1    0    0  502    0  0.00000000000E+00  0.00000000000E+00  0.26748166583E+03  0.26748166583E+03  0.00000000000E+00 0.  1.
          1   -1    0    0  501    0 -0.00000000000E+00 -0.00000000000E+00 -0.87676007709E+02  0.87676007709E+02  0.00000000000E+00 0.  1.
          2    1    1    2  501    0  0.34193447194E+02  0.52223360697E+00 -0.85661182463E+01  0.35253977659E+02  0.00000000000E+00 0.  1.
          1    1    1    2  502    0 -0.68704094308E+02  0.24113748510E+02 -0.19829119796E+02  0.75464689980E+02  0.00000000000E+00 0.  1.
         22    1    1    2    0    0  0.26182876387E+02  0.46269276848E+02  0.11784646271E+03  0.12928332363E+03  0.00000000000E+00 0.  1.
         22    1    1    2    0    0  0.83277707265E+01 -0.70905258964E+02  0.90354433451E+02  0.11515568227E+03  0.00000000000E+00 0.  1.
</event>
<event>
 6    1  0.3240171E-005  0.2251223E+03  0.7818608E-02  0.1237337E+00
          2   -1    0    0  502    0  0.00000000000E+00  0.00000000000E+00  0.41466835826E+03  0.41466835826E+03  0.00000000000E+00 0. -1.
          1   -1    0    0  501    0 -0.00000000000E+00 -0.00000000000E+00 -0.71302186946E+02  0.71302186946E+02  0.00000000000E+00 0. -1.
          2    1    1    2  501    0  0.14124533453E+02 -0.17859277841E+02 -0.32092507838E+02  0.39349527439E+02  0.00000000000E+00 0. -1.
          1    1    1    2  502    0  0.40181509523E+02  0.72801279485E+02  0.71235131000E+02  0.10949440118E+03  0.00000000000E+00 0. -1.
         22    1    1    2    0    0 -0.50802393858E+02 -0.75068594276E+02  0.30343258614E+03  0.31668203517E+03  0.00000000000E+00 0. -1.
         22    1    1    2    0    0 -0.35036491185E+01  0.20126592632E+02  0.79096200908E+00  0.20444581410E+02  0.00000000000E+00 0. -1.
</event>
<event>
 6    1  0.3240171E-005  0.7892640E+02  0.7818608E-02  0.1334221E+00
          2   -1    0    0  502    0  0.00000000000E+00  0.00000000000E+00  0.50754359160E+02  0.50754359160E+02  0.00000000000E+00 0. -1.
          1   -1    0    0  501    0 -0.00000000000E+00 -0.00000000000E+00 -0.25821287641E+04  0.25821287641E+04  0.00000000000E+00 0. -1.
          2    1    1    2  501    0  0.27794441088E+02 -0.24738050125E+02 -0.20334689357E+02  0.42402849794E+02  0.00000000000E+00 0. -1.
          1    1    1    2  502    0  0.50171333543E+02  0.33197603535E+02 -0.24133839532E+04  0.24141336644E+04  0.00000000000E+00 0. -1.
         22    1    1    2    0    0 -0.10121259504E+03  0.15511192305E+02 -0.99670168878E+02  0.14289411830E+03  0.00000000000E+00 0. -1.
         22    1    1    2    0    0  0.23246820406E+02 -0.23970745716E+02  0.20144065186E+01  0.33452490831E+02  0.00000000000E+00 0. -1.
</event>
<event>
 6    1  0.3240171E-005  0.9737529E+02  0.7818608E-02  0.1332793E+00
          2   -1    0    0  502    0  0.00000000000E+00  0.00000000000E+00  0.24424754464E+03  0.24424754464E+03  0.00000000000E+00 0. -1.
          1   -1    0    0  501    0 -0.00000000000E+00 -0.00000000000E+00 -0.24821896946E+03  0.24821896946E+03  0.00000000000E+00 0. -1.
          2    1    1    2  501    0  0.10923192021E+01 -0.30097391953E+02  0.13161466827E+02  0.32867466781E+02  0.00000000000E+00 0. -1.
          1    1    1    2  502    0 -0.17907472038E+01  0.87181278527E+02 -0.20681395048E+03  0.22444552171E+03  0.00000000000E+00 0. -1.
         22    1    1    2    0    0 -0.11620344625E+02 -0.96755082732E+02  0.13300733493E+03  0.16488641420E+03  0.00000000000E+00 0. -1.
         22    1    1    2    0    0  0.12318772626E+02  0.39671196157E+02  0.56673723913E+02  0.70267111409E+02  0.00000000000E+00 0.  1.
</event>
<event>
 6    1  0.3240171E-005  0.8071793E+02  0.7818608E-02  0.1330558E+00
          2   -1    0    0  502    0  0.00000000000E+00  0.00000000000E+00  0.47636770151E+02  0.47636770151E+02  0.00000000000E+00 0.  1.
          1   -1    0    0  501    0 -0.00000000000E+00 -0.00000000000E+00 -0.51556826798E+03  0.51556826798E+03  0.00000000000E+00 0. -1.
          2    1    1    2  501    0  0.43171376249E+02 -0.18007965377E+02 -0.98124623379E+02  0.10870370857E+03  0.00000000000E+00 0.  1.
          1    1    1    2  502    0 -0.20777461531E+02  0.59443451723E+02 -0.30057909824E+03  0.30710425129E+03  0.00000000000E+00 0. -1.
         22    1    1    2    0    0  0.43759259674E+02 -0.91396093998E+00 -0.51929629821E+02  0.67914612457E+02  0.00000000000E+00 0.  1.
         22    1    1    2    0    0 -0.66153174392E+02 -0.40521525406E+02 -0.17298146389E+02  0.79482465814E+02  0.00000000000E+00 0.  1.
</event>
<event>
 6    1  0.3240171E-005  0.1747384E+03  0.7818608E-02  0.1228818E+00
          2   -1    0    0  502    0  0.00000000000E+00  0.00000000000E+00  0.50400495082E+03  0.50400495082E+03  0.00000000000E+00 0.  1.
          1   -1    0    0  501    0 -0.00000000000E+00 -0.00000000000E+00 -0.11759221132E+03  0.11759221132E+03  0.00000000000E+00 0.  1.
          2    1    1    2  501    0  0.12223277282E+02 -0.24486874139E+02  0.49546409102E+02  0.56602669261E+02  0.00000000000E+00 0.  1.
          1    1    1    2  502    0 -0.74846437596E+02  0.17472974134E+03  0.25971607277E+02  0.19185149495E+03  0.00000000000E+00 0.  1.
         22    1    1    2    0    0  0.32439999643E+02 -0.40694284847E+02  0.22435215221E+03  0.23030906755E+03  0.00000000000E+00 0.  1.
         22    1    1    2    0    0  0.30183160671E+02 -0.10954858236E+03  0.86542570919E+02  0.14283393037E+03  0.00000000000E+00 0.  1.
</event>
<event>
 6    1  0.3240171E-005  0.7003643E+02  0.7818608E-02  0.1392485E+00
          2   -1    0    0  502    0  0.00000000000E+00  0.00000000000E+00  0.37069365955E+03  0.37069365955E+03  0.00000000000E+00 0. -1.
          1   -1    0    0  501    0 -0.00000000000E+00 -0.00000000000E+00 -0.84470602182E+02  0.84470602182E+02  0.00000000000E+00 0. -1.
          2    1    1    2  501    0 -0.26570886213E+02  0.37964273750E+01 -0.64664733572E+02  0.70013945917E+02  0.00000000000E+00 0. -1.
          1    1    1    2  502    0  0.52326194299E+01  0.26560845166E+02  0.10934851329E+03  0.11264970555E+03  0.00000000000E+00 0. -1.
         22    1    1    2    0    0  0.18008777017E+02  0.11140613350E+02 -0.55801209122E+01  0.21899019724E+02  0.00000000000E+00 0. -1.
         22    1    1    2    0    0  0.33294897663E+01 -0.41497885891E+02  0.24711939856E+03  0.25060159054E+03  0.00000000000E+00 0. -1.
</event>
<event>
 6    1  0.3240171E-005  0.1338356E+03  0.7818608E-02  0.1272381E+00
          2   -1    0    0  502    0  0.00000000000E+00  0.00000000000E+00  0.18278512560E+03  0.18278512560E+03  0.00000000000E+00 0.  1.
          1   -1    0    0  501    0 -0.00000000000E+00 -0.00000000000E+00 -0.94913112425E+03  0.94913112425E+03  0.00000000000E+00 0.  1.
          2    1    1    2  501    0 -0.56185435227E+00  0.50608702391E+02 -0.14472650002E+02  0.52640422074E+02  0.00000000000E+00 0.  1.
          1    1    1    2  502    0 -0.10382602543E+03 -0.30305085639E+02 -0.87060871452E+03  0.87730141661E+03  0.00000000000E+00 0.  1.
         22    1    1    2    0    0  0.57062532654E+02 -0.95170622269E+01 -0.14948870702E+02  0.59750948457E+02  0.00000000000E+00 0.  1.
         22    1    1    2    0    0  0.47325347131E+02 -0.10786554525E+02  0.13368423658E+03  0.14222346272E+03  0.00000000000E+00 0.  1.
</event>
<event>
 6    1  0.3240171E-005  0.1695860E+03  0.7818608E-02  0.1243388E+00
          2   -1    0    0  502    0  0.00000000000E+00  0.00000000000E+00  0.95072514789E+02  0.95072514789E+02  0.00000000000E+00 0.  1.
          1   -1    0    0  501    0 -0.00000000000E+00 -0.00000000000E+00 -0.15136508598E+04  0.15136508598E+04  0.00000000000E+00 0. -1.
          2    1    1    2  501    0  0.29266930705E+02 -0.86693780597E+02 -0.69667020162E+02  0.11500373266E+03  0.00000000000E+00 0.  1.
          1    1    1    2  502    0  0.63702526683E+01  0.49920971611E+02 -0.13544117479E+04  0.13553464009E+04  0.00000000000E+00 0. -1.
         22    1    1    2    0    0 -0.43825328062E+02 -0.46931572900E+01  0.56805809729E+02  0.71899827010E+02  0.00000000000E+00 0.  1.
         22    1    1    2    0    0  0.81881446887E+01  0.41465966276E+02 -0.51305386694E+02  0.66473414057E+02  0.00000000000E+00 0.  1.
</event>
<event>
 6    1  0.3240171E-005  0.8735555E+02  0.7818608E-02  0.1311778E+00
          2   -1    0    0  502    0  0.00000000000E+00  0.00000000000E+00  0.53354510918E+03  0.53354510918E+03  0.00000000000E+00 0. -1.
          1   -1    0    0  501    0 -0.00000000000E+00 -0.00000000000E+00 -0.49692156360E+02  0.49692156360E+02  0.00000000000E+00 0. -1.
          2    1    1    2  501    0 -0.24731794138E+02  0.45373737480E+02  0.10863529214E+03  0.12029989357E+03  0.00000000000E+00 0. -1.
          1    1    1    2  502    0 -0.25086540722E+02 -0.81767381976E+02  0.28671823086E+02  0.90207054711E+02  0.00000000000E+00 0. -1.
         22    1    1    2    0    0 -0.33821390551E+02  0.35385940555E+02  0.17744356022E+03  0.18407136744E+03  0.00000000000E+00 0. -1.
         22    1    1    2    0    0  0.83639725411E+02  0.10077039406E+01  0.16910227738E+03  0.18865894983E+03  0.00000000000E+00 0. -1.
</event>
<event>
 6    1  0.3240171E-005  0.2167801E+03  0.7818608E-02  0.1231467E+00
          2   -1    0    0  502    0  0.00000000000E+00  0.00000000000E+00  0.73944372466E+03  0.73944372466E+03  0.00000000000E+00 0.  1.
          1   -1    0    0  501    0 -0.00000000000E+00 -0.00000000000E+00 -0.10737135060E+03  0.10737135060E+03  0.00000000000E+00 0.  1.
          2    1    1    2  501    0 -0.44334308587E+02 -0.18575997690E+01  0.33128966926E+02  0.55376078268E+02  0.00000000000E+00 0.  1.
          1    1    1    2  502    0 -0.19546901172E+02 -0.95723421251E+02 -0.57071513073E+02  0.11314686176E+03  0.00000000000E+00 0.  1.
         22    1    1    2    0    0 -0.25692161018E+02 -0.24160844251E+01  0.38470898998E+02  0.46324234170E+02  0.00000000000E+00 0. -1.
         22    1    1    2    0    0  0.89573370777E+02  0.99997105445E+02  0.61754402120E+03  0.63196790106E+03  0.00000000000E+00 0.  1.
</event>
<event>
 6    1  0.3240171E-005  0.8956208E+02  0.7818608E-02  0.1346790E+00
          2   -1    0    0  502    0  0.00000000000E+00  0.00000000000E+00  0.13310434326E+03  0.13310434326E+03  0.00000000000E+00 0.  1.
          1   -1    0    0  501    0 -0.00000000000E+00 -0.00000000000E+00 -0.24818593607E+03  0.24818593607E+03  0.00000000000E+00 0.  1.
          2    1    1    2  501    0  0.72171221060E+02 -0.24931029326E+02 -0.41779221451E+02  0.87038754113E+02  0.00000000000E+00 0.  1.
          1    1    1    2  502    0 -0.77930683354E+02 -0.13996437657E+02 -0.13220527935E+03  0.15410167930E+03  0.00000000000E+00 0.  1.
         22    1    1    2    0    0  0.30732968483E+02  0.52983254459E+01 -0.29120239866E+02  0.42668208003E+02  0.00000000000E+00 0.  1.
         22    1    1    2    0    0 -0.24973506189E+02  0.33629141537E+02  0.88023147853E+02  0.97481637911E+02  0.00000000000E+00 0.  1.
</event>
<event>
 6    1  0.3240171E-005  0.8519348E+02  0.7818608E-02  0.1420301E+00
          2   -1    0    0  502    0  0.00000000000E+00  0.00000000000E+00  0.28094151890E+02  0.28094151890E+02  0.00000000000E+00 0. -1.
          1   -1    0    0  501    0 -0.00000000000E+00 -0.00000000000E+00 -0.11161235201E+04  0.11161235201E+04  0.00000000000E+00 0.  1.
          2    1    1    2  501    0 -0.24909634809E+01  0.25935885900E+02 -0.85454167084E+02  0.89338064388E+02  0.00000000000E+00 0. -1.
          1    1    1    2  502    0 -0.20838148535E+01  0.25361515377E+02 -0.85386248682E+03  0.85424159062E+03  0.00000000000E+00 0.  1.
         22    1    1    2    0    0  0.15660241800E+02 -0.61032086604E+02 -0.16620927938E+03  0.17775174632E+03  0.00000000000E+00 0. -1.
         22    1    1    2    0    0 -0.11085463466E+02  0.97346853270E+01  0.17496565033E+02  0.22886270702E+02  0.00000000000E+00 0. -1.
</event>
<event>
 6    1  0.3240171E-005  0.1507900E+03  0.7818608E-02  0.1204479E+00
          2   -1    0    0  502    0  0.00000000000E+00  0.00000000000E+00  0.29865371661E+02  0.29865371661E+02  0.00000000000E+00 0.  1.
          1   -1    0    0  501    0 -0.00000000000E+00 -0.00000000000E+00 -0.21227008603E+04  0.21227008603E+04  0.00000000000E+00 0.  1.
          2    1    1    2  501    0 -0.96874351803E+02 -0.57227267229E+02 -0.15318032633E+04  0.15359299586E+04  0.00000000000E+00 0.  1.
          1    1    1    2  502    0 -0.25585084756E+02  0.72315210556E+02 -0.23533882541E+03  0.24752464318E+03  0.00000000000E+00 0.  1.
         22    1    1    2    0    0 -0.14917447305E+02  0.12015932622E+02 -0.11201191245E+03  0.11363793997E+03  0.00000000000E+00 0. -1.
         22    1    1    2    0    0  0.13737688386E+03 -0.27103875949E+02 -0.21368148747E+03  0.25547369023E+03  0.00000000000E+00 0.  1.
</event>
<event>
 6    1  0.3240171E-005  0.7201524E+03  0.7818608E-02  0.1004841E+00
          2   -1    0    0  502    0  0.00000000000E+00  0.00000000000E+00  0.10922690346E+04  0.10922690346E+04  0.00000000000E+00 0. -1.
          1   -1    0    0  501    0 -0.00000000000E+00 -0.00000000000E+00 -0.21320668247E+04  0.21320668247E+04  0.00000000000E+00 0.  1.
          2    1    1    2  501    0  0.50031741487E+03 -0.70118995143E+02  0.30262339748E+03  0.58891010333E+03  0.00000000000E+00 0. -1.
          1    1    1    2  502    0 -0.60639882974E+03 -0.25760150828E+03 -0.18755861900E+04  0.19879390418E+04  0.00000000000E+00 0.  1.
         22    1    1    2    0    0  0.59794010854E+01  0.22054348864E+03  0.31248284366E+03  0.38251890306E+03  0.00000000000E+00 0.  1.
         22    1    1    2    0    0  0.10010201379E+03  0.10717701478E+03  0.22068215878E+03  0.26496781100E+03  0.00000000000E+00 0. -1.
</event>
<event>
 6    1  0.3240171E-005  0.8605670E+02  0.7818608E-02  0.1323464E+00
          2   -1    0    0  502    0  0.00000000000E+00  0.00000000000E+00  0.29013134418E+03  0.29013134418E+03  0.00000000000E+00 0. -1.
          1   -1    0    0  501    0 -0.00000000000E+00 -0.00000000000E+00 -0.13927808499E+03  0.13927808499E+03  0.00000000000E+00 0. -1.
          2    1    1    2  501    0 -0.35651317398E+02 -0.37068082320E+02 -0.35661662319E+02  0.62584449494E+02  0.00000000000E+00 0. -1.
          1    1    1    2  502    0  0.92927609190E+02  0.63586422511E+02 -0.24825885828E+02  0.11530437236E+03  0.00000000000E+00 0. -1.
         22    1    1    2    0    0 -0.70374797183E+02 -0.90106010080E+01  0.21752035965E+03  0.22879884150E+03  0.00000000000E+00 0. -1.
         22    1    1    2    0    0  0.13098505392E+02 -0.17507739184E+02 -0.61795523133E+01  0.22721765812E+02  0.00000000000E+00 0. -1.
</event>
<event>
 6    1  0.3240171E-005  0.8154507E+02  0.7818608E-02  0.1328194E+00
          2   -1    0    0  502    0  0.00000000000E+00  0.00000000000E+00  0.33267848534E+03  0.33267848534E+03  0.00000000000E+00 0.  1.
          1   -1    0    0  501    0 -0.00000000000E+00 -0.00000000000E+00 -0.41986323227E+03  0.41986323227E+03  0.00000000000E+00 0.  1.
          2    1    1    2  501    0  0.46544408291E+02  0.26295130346E+02  0.49764828469E+02  0.73036661860E+02  0.00000000000E+00 0.  1.
          1    1    1    2  502    0 -0.92685872055E+01 -0.18875832373E+02 -0.39297832367E+03  0.39354055272E+03  0.00000000000E+00 0.  1.
         22    1    1    2    0    0  0.36964699950E+02 -0.39967479016E+01  0.29214877862E+02  0.47285009513E+02  0.00000000000E+00 0.  1.
         22    1    1    2    0    0 -0.74240521035E+02 -0.34225500720E+01  0.22681387042E+03  0.23867949352E+03  0.00000000000E+00 0.  1.
</event>
<event>
 6    1  0.3240171E-005  0.2413244E+03  0.7818608E-02  0.1193895E+00
          2   -1    0    0  502    0  0.00000000000E+00  0.00000000000E+00  0.24342006563E+03  0.24342006563E+03  0.00000000000E+00 0.  1.
          1   -1    0    0  501    0 -0.00000000000E+00 -0.00000000000E+00 -0.10751023008E+04  0.10751023008E+04  0.00000000000E+00 0. -1.
          2    1    1    2  501    0 -0.13874902469E+03 -0.28311119255E+02  0.59973727730E+02  0.15378445742E+03  0.00000000000E+00 0.  1.
          1    1    1    2  502    0  0.19923033271E+03 -0.27523061899E+02 -0.97548026681E+03  0.99599798963E+03  0.00000000000E+00 0. -1.
         22    1    1    2    0    0 -0.41515551577E+02 -0.23620377586E+01  0.97522031746E+02  0.10601729539E+03  0.00000000000E+00 0. -1.
         22    1    1    2    0    0 -0.18965756442E+02  0.58196218913E+02 -0.13697727832E+02  0.62722623996E+02  0.00000000000E+00 0.  1.
</event>
<event>
 6    1  0.3240171E-005  0.1698553E+03  0.7818608E-02  0.1179702E+00
          2   -1    0    0  502    0  0.00000000000E+00  0.00000000000E+00  0.75731459833E+03  0.75731459833E+03  0.00000000000E+00 0. -1.
          1   -1    0    0  501    0 -0.00000000000E+00 -0.00000000000E+00 -0.16185278875E+03  0.16185278875E+03  0.00000000000E+00 0.  1.
          2    1    1    2  501    0 -0.85467900022E+02 -0.11488247416E+03  0.29762085705E+03  0.33027400648E+03  0.00000000000E+00 0. -1.
          1    1    1    2  502    0 -0.22037008120E+02  0.16075409177E+02 -0.12316586339E+03  0.12615022161E+03  0.00000000000E+00 0.  1.
         22    1    1    2    0    0 -0.19383387319E+02 -0.86186290622E+01  0.88261413732E+02  0.90774851280E+02  0.00000000000E+00 0.  1.
         22    1    1    2    0    0  0.12688829546E+03  0.10742569405E+03  0.33274540219E+03  0.37196830772E+03  0.00000000000E+00 0. -1.
</event>
<event>
 6    1  0.3240171E-005  0.1299967E+03  0.7818608E-02  0.1282239E+00
          2   -1    0    0  502    0  0.00000000000E+00  0.00000000000E+00  0.10229755664E+03  0.10229755664E+03  0.00000000000E+00 0. -1.
          1   -1    0    0  501    0 -0.00000000000E+00 -0.00000000000E+00 -0.14655201959E+04  0.14655201959E+04  0.00000000000E+00 0.  1.
          2    1    1    2  501    0 -0.26762217468E+02 -0.55437103732E+02  0.28875932714E+01  0.61626511737E+02  0.00000000000E+00 0. -1.
          1    1    1    2  502    0  0.10387967495E+03  0.49864711346E+02 -0.13562513920E+04  0.13611375076E+04  0.00000000000E+00 0.  1.
         22    1    1    2    0    0 -0.83386944099E+02 -0.37848517925E+02 -0.30566175684E+02  0.96541099285E+02  0.00000000000E+00 0.  1.
         22    1    1    2    0    0  0.62694866214E+01  0.43420910311E+02  0.20707335195E+02  0.48512633876E+02  0.00000000000E+00 0. -1.
</event>
<event>
 6    1  0.3240171E-005  0.1344226E+03  0.7818608E-02  0.1242529E+00
          2   -1    0    0  502    0  0.00000000000E+00  0.00000000000E+00  0.27376727340E+03  0.27376727340E+03  0.00000000000E+00 0.  1.
          1   -1    0    0  501    0 -0.00000000000E+00 -0.00000000000E+00 -0.19731942850E+03  0.19731942850E+03  0.00000000000E+00 0.  1.
          2    1    1    2  501    0  0.10887299630E+03  0.80675336283E+02 -0.20555550206E+01  0.13552145407E+03  0.00000000000E+00 0.  1.
          1    1    1    2  502    0 -0.32631044924E+02 -0.86597119371E+02 -0.79136306171E+02  0.12176371024E+03  0.00000000000E+00 0.  1.
         22    1    1    2    0    0 -0.13603389626E+01  0.48934586002E+02  0.23582154929E+02  0.54337484855E+02  0.00000000000E+00 0.  1.
         22    1    1    2    0    0 -0.74881612410E+02 -0.43012802913E+02  0.13405755116E+03  0.15946405274E+03  0.00000000000E+00 0.  1.
</event>
<event>
 6    1  0.3240171E-005  0.8225880E+02  0.7818608E-02  0.1426787E+00
          2   -1    0    0  502    0  0.00000000000E+00  0.00000000000E+00  0.76502859564E+02  0.76502859564E+02  0.00000000000E+00 0. -1.
          1   -1    0    0  501    0 -0.00000000000E+00 -0.00000000000E+00 -0.12275614382E+03  0.12275614382E+03  0.00000000000E+00 0.  1.
          2    1    1    2  501    0  0.23443504895E+02  0.26030663831E+02 -0.73321943064E+01  0.35790424063E+02  0.00000000000E+00 0. -1.
          1    1    1    2  502    0 -0.39445126679E-01 -0.25529930145E+02 -0.31944232259E+02  0.40892699394E+02  0.00000000000E+00 0.  1.
         22    1    1    2    0    0  0.10016741783E+02  0.10950138231E+02  0.51863248539E+02  0.53944760563E+02  0.00000000000E+00 0. -1.
         22    1    1    2    0    0 -0.33420801551E+02 -0.11450871918E+02 -0.58840106226E+02  0.68631119360E+02  0.00000000000E+00 0.  1.
</event>
<event>
 6    1  0.3240171E-005  0.9453216E+02  0.7818608E-02  0.1301977E+00
          2   -1    0    0  502    0  0.00000000000E+00  0.00000000000E+00  0.48707024007E+02  0.48707024007E+02  0.00000000000E+00 0.  1.
          1   -1    0    0  501    0 -0.00000000000E+00 -0.00000000000E+00 -0.48361900690E+03  0.48361900690E+03  0.00000000000E+00 0. -1.
          2    1    1    2  501    0  0.75007603623E+02 -0.62981549507E+00 -0.73684015980E+02  0.10514690428E+03  0.00000000000E+00 0.  1.
          1    1    1    2  502    0 -0.56119347972E+02 -0.21196126667E+02 -0.25662618623E+03  0.26354441079E+03  0.00000000000E+00 0. -1.
         22    1    1    2    0    0 -0.47832041305E+02  0.54326385201E+02 -0.32338338405E+02  0.79278171240E+02  0.00000000000E+00 0.  1.
         22    1    1    2    0    0  0.28943785654E+02 -0.32500443038E+02 -0.72263442278E+02  0.84356544592E+02  0.00000000000E+00 0.  1.
</event>
<event>
 6    1  0.3240171E-005  0.1574435E+03  0.7818608E-02  0.1232563E+00
          2   -1    0    0  502    0  0.00000000000E+00  0.00000000000E+00  0.23360570201E+02  0.23360570201E+02  0.00000000000E+00 0. -1.
          1   -1    0    0  501    0 -0.00000000000E+00 -0.00000000000E+00 -0.20058741876E+04  0.20058741876E+04  0.00000000000E+00 0.  1.
          2    1    1    2  501    0  0.64652371839E+02  0.75018707053E+02 -0.81166668751E+03  0.81768609332E+03  0.00000000000E+00 0. -1.
          1    1    1    2  502    0 -0.10604678476E+03 -0.11193668881E+03 -0.81739245406E+03  0.83180897255E+03  0.00000000000E+00 0.  1.
         22    1    1    2    0    0  0.65725688837E+02 -0.41411442583E+01 -0.87376267466E+02  0.10941493209E+03  0.00000000000E+00 0. -1.
         22    1    1    2    0    0 -0.24331275917E+02  0.41059126016E+02 -0.26607820838E+03  0.27032475985E+03  0.00000000000E+00 0. -1.
</event>
<event>
 6    1  0.3240171E-005  0.8095711E+02  0.7818608E-02  0.1340472E+00
          2   -1    0    0  502    0  0.00000000000E+00  0.00000000000E+00  0.51399030715E+03  0.51399030715E+03  0.00000000000E+00 0. -1.
          1   -1    0    0  501    0 -0.00000000000E+00 -0.00000000000E+00 -0.53788889983E+02  0.53788889983E+02  0.00000000000E+00 0.  1.
          2    1    1    2  501    0  0.74798662814E+01 -0.31640836459E+02  0.16417373717E+03  0.16736220275E+03  0.00000000000E+00 0. -1.
          1    1    1    2  502    0 -0.72021152558E+01  0.29354480322E+02 -0.35142196480E+02  0.46352237838E+02  0.00000000000E+00 0.  1.
         22    1    1    2    0    0 -0.46839403405E+02 -0.25654667245E+02  0.25492772586E+03  0.26046158464E+03  0.00000000000E+00 0.  1.
         22    1    1    2    0    0  0.46561652379E+02  0.27941023382E+02  0.76242150616E+02  0.93603171904E+02  0.00000000000E+00 0. -1.
</event>
<event>
 6    1  0.3240171E-005  0.5943969E+02  0.7818608E-02  0.1467125E+00
          2   -1    0    0  502    0  0.00000000000E+00  0.00000000000E+00  0.51300723082E+02  0.51300723082E+02  0.00000000000E+00 0. -1.
          1   -1    0    0  501    0 -0.00000000000E+00 -0.00000000000E+00 -0.59165277142E+03  0.59165277142E+03  0.00000000000E+00 0. -1.
          2    1    1    2  501    0 -0.21625605803E+02  0.20563713927E+02 -0.56252162508E+02  0.63677617289E+02  0.00000000000E+00 0. -1.
          1    1    1    2  502    0  0.10653264483E+02 -0.33370729413E+02 -0.44361960061E+03  0.44500050300E+03  0.00000000000E+00 0. -1.
         22    1    1    2    0    0 -0.14793488303E+02 -0.15808440125E+02  0.39760825585E+02  0.45273362218E+02  0.00000000000E+00 0. -1.
         22    1    1    2    0    0  0.25765829623E+02  0.28615455610E+02 -0.80241110810E+02  0.89002012000E+02  0.00000000000E+00 0. -1.
</event>
<event>
 6    1  0.3240171E-005  0.4782119E+03  0.7818608E-02  0.1146553E+00
          2   -1    0    0  502    0  0.00000000000E+00  0.00000000000E+00  0.94035315763E+03  0.94035315763E+03  0.00000000000E+00 0. -1.
          1   -1    0    0  501    0 -0.00000000000E+00 -0.00000000000E+00 -0.30039430412E+03  0.30039430412E+03  0.00000000000E+00 0.  1.
          2    1    1    2  501    0 -0.65729434715E+01  0.19898167739E+03  0.51955978769E+03  0.55639849434E+03  0.00000000000E+00 0. -1.
          1    1    1    2  502    0 -0.19948947547E+03 -0.84134430300E+02 -0.18105122223E+03  0.28223075356E+03  0.00000000000E+00 0.  1.
         22    1    1    2    0    0  0.20201531152E+03 -0.13010105785E+03  0.24364688841E+03  0.34219917822E+03  0.00000000000E+00 0. -1.
         22    1    1    2    0    0  0.40471074215E+01  0.15253810758E+02  0.57803399637E+02  0.59919035629E+02  0.00000000000E+00 0. -1.
</event>
<event>
 6    1  0.3240171E-005  0.3456801E+03  0.7818608E-02  0.1174334E+00
          2   -1    0    0  502    0  0.00000000000E+00  0.00000000000E+00  0.67776980336E+03  0.67776980336E+03  0.00000000000E+00 0.  1.
          1   -1    0    0  501    0 -0.00000000000E+00 -0.00000000000E+00 -0.30934180621E+03  0.30934180621E+03  0.00000000000E+00 0.  1.
          2    1    1    2  501    0 -0.10003053750E+03  0.13219331089E+03  0.25401333704E+03  0.30332153776E+03  0.00000000000E+00 0.  1.
          1    1    1    2  502    0  0.13481281906E+03  0.56041180091E+02 -0.22957369647E+03  0.27206468378E+03  0.00000000000E+00 0.  1.
         22    1    1    2    0    0 -0.53123212957E+02 -0.17627981955E+03  0.22493492597E+03  0.29067571528E+03  0.00000000000E+00 0.  1.
         22    1    1    2    0    0  0.18340931396E+02 -0.11954671438E+02  0.11905343061E+03  0.12104967275E+03  0.00000000000E+00 0.  1.
</event>
<event>
 6    1  0.3240171E-005  0.8311423E+02  0.7818608E-02  0.1325147E+00
          2   -1    0    0  502    0  0.00000000000E+00  0.00000000000E+00  0.17120116637E+02  0.17120116637E+02  0.00000000000E+00 0.  1.
          1   -1    0    0  501    0 -0.00000000000E+00 -0.00000000000E+00 -0.10236305462E+04  0.10236305462E+04  0.00000000000E+00 0.  1.
          2    1    1    2  501    0  0.33337825543E+02  0.43540187153E+02 -0.39687702392E+03  0.40064763899E+03  0.00000000000E+00 0.  1.
          1    1    1    2  502    0 -0.26011313080E+02 -0.11639358944E+02 -0.34342295449E+03  0.34460323382E+03  0.00000000000E+00 0.  1.
         22    1    1    2    0    0 -0.40646932323E+02 -0.59974571946E+02 -0.98832375818E+02  0.12254371015E+03  0.00000000000E+00 0.  1.
         22    1    1    2    0    0  0.33320419859E+02  0.28073743738E+02 -0.16737807535E+03  0.17295607990E+03  0.00000000000E+00 0.  1.
</event>
<event>
 6    1  0.3240171E-005  0.1197715E+03  0.7818608E-02  0.1267466E+00
          2   -1    0    0  502    0  0.00000000000E+00  0.00000000000E+00  0.57706640942E+02  0.57706640942E+02  0.00000000000E+00 0. -1.
          1   -1    0    0  501    0 -0.00000000000E+00 -0.00000000000E+00 -0.10764478611E+04  0.10764478611E+04  0.00000000000E+00 0. -1.
          2    1    1    2  501    0  0.14637125438E+02  0.84133355171E+02 -0.28108049846E+03  0.29376676720E+03  0.00000000000E+00 0. -1.
          1    1    1    2  502    0  0.61744712289E+02 -0.10676937702E+03 -0.66535023828E+03  0.67668533969E+03  0.00000000000E+00 0. -1.
         22    1    1    2    0    0 -0.73239653233E+02 -0.13523709806E+02  0.86497173022E+01  0.74978364493E+02  0.00000000000E+00 0. -1.
         22    1    1    2    0    0 -0.31421844940E+01  0.36159731660E+02 -0.80960200685E+02  0.88724030634E+02  0.00000000000E+00 0. -1.
</event>
<event>
 6    1  0.3240171E-005  0.2664736E+03  0.7818608E-02  0.1207303E+00
          2   -1    0    0  502    0  0.00000000000E+00  0.00000000000E+00  0.19885349923E+03  0.19885349923E+03  0.00000000000E+00 0. -1.
          1   -1    0    0  501    0 -0.00000000000E+00 -0.00000000000E+00 -0.79805198842E+03  0.79805198842E+03  0.00000000000E+00 0.  1.
          2    1    1    2  501    0  0.35497911366E+02 -0.73458290026E+02 -0.36541915699E+02  0.89395378448E+02  0.00000000000E+00 0. -1.
          1    1    1    2  502    0 -0.80301714560E+01 -0.66724935299E+02 -0.67973591505E+03  0.68305022864E+03  0.00000000000E+00 0.  1.
         22    1    1    2    0    0  0.70485801492E+01 -0.21986539802E+02  0.27836387429E+02  0.36165658845E+02  0.00000000000E+00 0.  1.
         22    1    1    2    0    0 -0.34516320060E+02  0.16216976513E+03  0.89242954125E+02  0.18829422172E+03  0.00000000000E+00 0. -1.
</event>
<event>
 6    1  0.3240171E-005  0.1083862E+03  0.7818608E-02  0.1308083E+00
          2   -1    0    0  502    0  0.00000000000E+00  0.00000000000E+00  0.23812698140E+03  0.23812698140E+03  0.00000000000E+00 0. -1.
          1   -1    0    0  501    0 -0.00000000000E+00 -0.00000000000E+00 -0.21812454444E+03  0.21812454444E+03  0.00000000000E+00 0. -1.
          2    1    1    2  501    0 -0.26900019881E+02 -0.13444434330E+02  0.11648037399E+02  0.32249661383E+02  0.00000000000E+00 0. -1.
          1    1    1    2  502    0 -0.22389011356E+01 -0.31016968132E+02 -0.18374530785E+03  0.18635826557E+03  0.00000000000E+00 0. -1.
         22    1    1    2    0    0  0.76604026015E+01 -0.42211207556E+02  0.10264207647E+03  0.11124685916E+03  0.00000000000E+00 0. -1.
         22    1    1    2    0    0  0.21478518415E+02  0.86672610018E+02  0.89457630930E+02  0.12639673972E+03  0.00000000000E+00 0. -1.
</event>
<event>
 6    1  0.3240171E-005  0.1032565E+03  0.7818608E-02  0.1279271E+00
          2   -1    0    0  502    0  0.00000000000E+00  0.00000000000E+00  0.53790219653E+03  0.53790219653E+03  0.00000000000E+00 0. -1.
          1   -1    0    0  501    0 -0.00000000000E+00 -0.00000000000E+00 -0.25150075306E+03  0.25150075306E+03  0.00000000000E+00 0. -1.
          2    1    1    2  501    0  0.18065292428E+02  0.65951453949E+02  0.18439481294E+03  0.19666569631E+03  0.00000000000E+00 0. -1.
          1    1    1    2  502    0  0.36198985383E+01 -0.21132830005E+02 -0.23199571528E+03  0.23298436016E+03  0.00000000000E+00 0. -1.
         22    1    1    2    0    0 -0.12579000616E+02  0.35149833219E+02  0.19986443900E+03  0.20332126305E+03  0.00000000000E+00 0. -1.
         22    1    1    2    0    0 -0.91061903499E+01 -0.79968457163E+02  0.13413790681E+03  0.15643163007E+03  0.00000000000E+00 0.  1.
</event>
<event>
 6    1  0.3240171E-005  0.1239465E+03  0.7818608E-02  0.1237563E+00
          2   -1    0    0  502    0  0.00000000000E+00  0.00000000000E+00  0.23898271208E+03  0.23898271208E+03  0.00000000000E+00 0.  1.
          1   -1    0    0  501    0 -0.00000000000E+00 -0.00000000000E+00 -0.12712483565E+03  0.12712483565E+03  0.00000000000E+00 0.  1.
          2    1    1    2  501    0  0.28787371363E+02 -0.57578577033E+02 -0.31179850986E+02  0.71527535891E+02  0.00000000000E+00 0.  1.
          1    1    1    2  502    0  0.92644128350E+01 -0.66852169589E+02  0.50781707191E+01  0.67681827264E+02  0.00000000000E+00 0.  1.
         22    1    1    2    0    0 -0.15140741668E+01 -0.11878977893E+02 -0.14728481573E+02  0.18982378824E+02  0.00000000000E+00 0.  1.
         22    1    1    2    0    0 -0.36537710031E+02  0.13630972452E+03  0.15268803827E+03  0.20791580575E+03  0.00000000000E+00 0.  1.
</event>
<event>
 6    1  0.3240171E-005  0.9974495E+02  0.7818608E-02  0.1394051E+00
          2   -1    0    0  502    0  0.00000000000E+00  0.00000000000E+00  0.67490724884E+02  0.67490724884E+02  0.00000000000E+00 0. -1.
          1   -1    0    0  501    0 -0.00000000000E+00 -0.00000000000E+00 -0.83191340900E+03  0.83191340900E+03  0.00000000000E+00 0.  1.
          2    1    1    2  501    0 -0.29333495905E+02  0.27323989695E+02 -0.67120004217E+02  0.78180236383E+02  0.00000000000E+00 0. -1.
          1    1    1    2  502    0  0.28601617847E+02 -0.86207851638E+02 -0.67257683493E+03  0.67868213849E+03  0.00000000000E+00 0.  1.
         22    1    1    2    0    0 -0.10735135779E+02  0.87832792846E+01  0.49977012216E+02  0.51866086080E+02  0.00000000000E+00 0. -1.
         22    1    1    2    0    0  0.11467013837E+02  0.50100582659E+02 -0.74702857188E+02  0.90675672929E+02  0.00000000000E+00 0. -1.
</event>
<event>
 6    1  0.3240171E-005  0.9023265E+02  0.7818608E-02  0.1310908E+00
          2   -1    0    0  502    0  0.00000000000E+00  0.00000000000E+00  0.10816882470E+03  0.10816882470E+03  0.00000000000E+00 0. -1.
          1   -1    0    0  501    0 -0.00000000000E+00 -0.00000000000E+00 -0.27859035679E+03  0.27859035679E+03  0.00000000000E+00 0.  1.
          2    1    1    2  501    0 -0.12222845071E+02 -0.56224605279E+02 -0.11216768737E+02  0.58620986696E+02  0.00000000000E+00 0. -1.
          1    1    1    2  502    0  0.55381213841E+01  0.57010661352E+02 -0.19344446707E+03  0.20174649473E+03  0.00000000000E+00 0.  1.
         22    1    1    2    0    0  0.15794959569E+02 -0.59107421637E+02  0.27163513536E+02  0.66940454943E+02  0.00000000000E+00 0.  1.
         22    1    1    2    0    0 -0.91102358819E+01  0.58321365563E+02  0.70761901812E+01  0.59451245121E+02  0.00000000000E+00 0.  1.
</event>
<event>
 6    1  0.3240171E-005  0.6329304E+02  0.7818608E-02  0.1404631E+00
          2   -1    0    0  502    0  0.00000000000E+00  0.00000000000E+00  0.72996331523E+02  0.72996331523E+02  0.00000000000E+00 0. -1.
          1   -1    0    0  501    0 -0.00000000000E+00 -0.00000000000E+00 -0.55595259218E+03  0.55595259218E+03  0.00000000000E+00 0.  1.
          2    1    1    2  501    0 -0.24600537389E+02  0.22128690813E+01 -0.18648423561E+01  0.24770160807E+02  0.00000000000E+00 0. -1.
          1    1    1    2  502    0  0.11878101873E+02  0.18804973091E+02 -0.48023580169E+03  0.48075060222E+03  0.00000000000E+00 0.  1.
         22    1    1    2    0    0 -0.23837932363E+02 -0.63188745924E+01  0.51970179437E+02  0.57524557766E+02  0.00000000000E+00 0. -1.
         22    1    1    2    0    0  0.36560367880E+02 -0.14698967580E+02 -0.52825796052E+02  0.65903602905E+02  0.00000000000E+00 0.  1.
</event>
<event>
 6    1  0.3240171E-005  0.8847270E+02  0.7818608E-02  0.1341315E+00
          2   -1    0    0  502    0  0.00000000000E+00  0.00000000000E+00  0.19992365182E+03  0.19992365182E+03  0.00000000000E+00 0.  1.
          1   -1    0    0  501    0 -0.00000000000E+00 -0.00000000000E+00 -0.16390197708E+04  0.16390197708E+04  0.00000000000E+00 0. -1.
          2    1    1    2  501    0 -0.26451971877E+02 -0.60225293666E+01 -0.59064633763E+02  0.64996989451E+02  0.00000000000E+00 0.  1.
          1    1    1    2  502    0  0.44104947476E+02  0.32512090988E+02 -0.15554680092E+04  0.15564327836E+04  0.00000000000E+00 0. -1.
         22    1    1    2    0    0 -0.40460067112E+02  0.15461302753E+02  0.88364821387E+01  0.44205795209E+02  0.00000000000E+00 0. -1.
         22    1    1    2    0    0  0.22807091513E+02 -0.41950864374E+02  0.16660004180E+03  0.17330785433E+03  0.00000000000E+00 0.  1.
</event>
<event>
 6    1  0.3240171E-005  0.1745911E+03  0.7818608E-02  0.1191200E+00
          2   -1    0    0  502    0  0.00000000000E+00  0.00000000000E+00  0.89034374989E+02  0.89034374989E+02  0.00000000000E+00 0. -1.
          1   -1    0    0  501    0 -0.00000000000E+00 -0.00000000000E+00 -0.47358618903E+03  0.47358618903E+03  0.00000000000E+00 0. -1.
          2    1    1    2  501    0  0.83022195350E+02 -0.85025197703E+02 -0.32537088855E+03  0.34639310657E+03  0.00000000000E+00 0. -1.
          1    1    1    2  502    0 -0.56659954866E+02  0.51531601522E+01 -0.29854514053E+02  0.64251050997E+02  0.00000000000E+00 0. -1.
         22    1    1    2    0    0 -0.11150412643E+02 -0.33196558347E+02 -0.60192430300E+01  0.35532724000E+02  0.00000000000E+00 0. -1.
         22    1    1    2    0    0 -0.15211827842E+02  0.11306859590E+03 -0.23307168414E+02  0.11644368246E+03  0.00000000000E+00 0. -1.
</event>
<event>
 6    1  0.3240171E-005  0.5346224E+02  0.7818608E-02  0.1530845E+00
          2   -1    0    0  502    0  0.00000000000E+00  0.00000000000E+00  0.70818039584E+02  0.70818039584E+02  0.00000000000E+00 0. -1.
          1   -1    0    0  501    0 -0.00000000000E+00 -0.00000000000E+00 -0.28546538858E+03  0.28546538858E+03  0.00000000000E+00 0. -1.
          2    1    1    2  501    0 -0.51871512907E+01 -0.36144050891E+02 -0.12595273825E+03  0.13113882425E+03  0.00000000000E+00 0. -1.
          1    1    1    2  502    0 -0.14307885853E+02  0.52355927532E+02 -0.77990653011E+02  0.95017896748E+02  0.00000000000E+00 0. -1.
         22    1    1    2    0    0  0.12091376354E+02 -0.62956303908E+01 -0.69100989069E+02  0.70432826398E+02  0.00000000000E+00 0. -1.
         22    1    1    2    0    0  0.74036607899E+01 -0.99162462501E+01  0.58397031332E+02  0.59693880768E+02  0.00000000000E+00 0. -1.
</event>
<event>
 6    1  0.3240171E-005  0.1815222E+03  0.7818608E-02  0.1249296E+00
          2   -1    0    0  502    0  0.00000000000E+00  0.00000000000E+00  0.25786113808E+03  0.25786113808E+03  0.00000000000E+00 0. -1.
          1   -1    0    0  501    0 -0.00000000000E+00 -0.00000000000E+00 -0.50316417206E+03  0.50316417206E+03  0.00000000000E+00 0. -1.
          2    1    1    2  501    0 -0.67787547501E+02  0.35111618635E+01 -0.12237279750E+01  0.67889449578E+02  0.00000000000E+00 0. -1.
          1    1    1    2  502    0  0.34680898483E+02  0.24769090979E+02 -0.44699751497E+03  0.44902455499E+03  0.00000000000E+00 0. -1.
         22    1    1    2    0    0  0.98313939222E+01 -0.48155345698E+02  0.20743080066E+03  0.21317394468E+03  0.00000000000E+00 0. -1.
         22    1    1    2    0    0  0.23275255096E+02  0.19875092855E+02 -0.45125916946E+01  0.30937360902E+02  0.00000000000E+00 0.  1.
</event>
<event>
 6    1  0.3240171E-005  0.7407631E+02  0.7818608E-02  0.1353651E+00
          2   -1    0    0  502    0  0.00000000000E+00  0.00000000000E+00  0.18681586965E+03  0.18681586965E+03  0.00000000000E+00 0.  1.
          1   -1    0    0  501    0 -0.00000000000E+00 -0.00000000000E+00 -0.21151146347E+03  0.21151146347E+03  0.00000000000E+00 0. -1.
          2    1    1    2  501    0 -0.12496439010E+02  0.40563448013E+02 -0.94827022663E+02  0.10389282232E+03  0.00000000000E+00 0.  1.
          1    1    1    2  502    0  0.74620411729E+02 -0.47515298016E+02 -0.55465419613E+02  0.10441418565E+03  0.00000000000E+00 0. -1.
         22    1    1    2    0    0 -0.63332820305E+02 -0.18056086570E+02  0.14440006035E+03  0.15870868224E+03  0.00000000000E+00 0.  1.
         22    1    1    2    0    0  0.12088475859E+01  0.25007936574E+02 -0.18803211895E+02  0.31311642910E+02  0.00000000000E+00 0.  1.
</event>
<event>
 6    1  0.3240171E-005  0.1730040E+03  0.7818608E-02  0.1176866E+00
          2   -1    0    0  502    0  0.00000000000E+00  0.00000000000E+00  0.61447725805E+03  0.61447725805E+03  0.00000000000E+00 0.  1.
          1   -1    0    0  501    0 -0.00000000000E+00 -0.00000000000E+00 -0.47399363958E+03  0.47399363958E+03  0.00000000000E+00 0.  1.
          2    1    1    2  501    0  0.16164125667E+03  0.14537465139E+02  0.19606861711E+03  0.25452335131E+03  0.00000000000E+00 0.  1.
          1    1    1    2  502    0 -0.29469599200E+02  0.30884054626E+01 -0.42223879661E+03  0.42327721045E+03  0.00000000000E+00 0.  1.
         22    1    1    2    0    0  0.22644150001E+02 -0.18116483838E+02  0.42598741545E+02  0.51532681836E+02  0.00000000000E+00 0.  1.
         22    1    1    2    0    0 -0.15481580747E+03  0.49061323635E+00  0.32405505642E+03  0.35913765402E+03  0.00000000000E+00 0.  1.
</event>
<event>
 6    1  0.3240171E-005  0.1620769E+03  0.7818608E-02  0.1220560E+00
          2   -1    0    0  502    0  0.00000000000E+00  0.00000000000E+00  0.37866249872E+03  0.37866249872E+03  0.00000000000E+00 0.  1.
          1   -1    0    0  501    0 -0.00000000000E+00 -0.00000000000E+00 -0.15114344289E+03  0.15114344289E+03  0.00000000000E+00 0.  1.
          2    1    1    2  501    0 -0.27366809851E+02  0.82901886023E+02  0.19024471174E+03  0.20931964870E+03  0.00000000000E+00 0.  1.
          1    1    1    2  502    0  0.54146068428E+02 -0.11048231753E+03 -0.77424440256E+02  0.14537084702E+03  0.00000000000E+00 0.  1.
         22    1    1    2    0    0  0.50389633964E+02  0.20879187596E+02  0.41443666727E+02  0.68502797005E+02  0.00000000000E+00 0. -1.
         22    1    1    2    0    0 -0.77168892541E+02  0.67012439140E+01  0.73255117613E+02  0.10661264889E+03  0.00000000000E+00 0.  1.
</event>
<event>
 6    1  0.3240171E-005  0.7571728E+02  0.7818608E-02  0.1396509E+00
          2   -1    0    0  502    0  0.00000000000E+00  0.00000000000E+00  0.81242376826E+02  0.81242376826E+02  0.00000000000E+00 0.  1.
          1   -1    0    0  501    0 -0.00000000000E+00 -0.00000000000E+00 -0.84934908319E+03  0.84934908319E+03  0.00000000000E+00 0. -1.
          2    1    1    2  501    0 -0.25502792588E+02  0.27777217330E+02 -0.17662875824E+03  0.18060920373E+03  0.00000000000E+00 0.  1.
          1    1    1    2  502    0  0.57885893496E+01 -0.51181277889E+02 -0.62023331924E+03  0.62236838068E+03  0.00000000000E+00 0. -1.
         22    1    1    2    0    0 -0.86718749209E+01  0.34533789160E+02 -0.39305877389E+02  0.53035233625E+02  0.00000000000E+00 0.  1.
         22    1    1    2    0    0  0.28386078159E+02 -0.11129728601E+02  0.68061248507E+02  0.74578641985E+02  0.00000000000E+00 0.  1.
</event>
<event>
 6    1  0.3240171E-005  0.3024071E+03  0.7818608E-02  0.1186573E+00
          2   -1    0    0  502    0  0.00000000000E+00  0.00000000000E+00  0.25591414954E+03  0.25591414954E+03  0.00000000000E+00 0. -1.
          1   -1    0    0  501    0 -0.00000000000E+00 -0.00000000000E+00 -0.42833292315E+03  0.42833292315E+03  0.00000000000E+00 0. -1.
          2    1    1    2  501    0 -0.16286587762E+03 -0.14132565034E+03 -0.52565840353E+02  0.22194909576E+03  0.00000000000E+00 0. -1.
          1    1    1    2  502    0  0.21866305178E+03  0.19741628547E+03 -0.10059226917E+03  0.31129652199E+03  0.00000000000E+00 0. -1.
         22    1    1    2    0    0 -0.33341073663E+02 -0.66710993575E+02 -0.65014794269E+02  0.98938907062E+02  0.00000000000E+00 0. -1.
         22    1    1    2    0    0 -0.22456100505E+02  0.10620358437E+02  0.45754130183E+02  0.52062547883E+02  0.00000000000E+00 0. -1.
</event>
<event>
 6    1  0.3240171E-005  0.2500306E+03  0.7818608E-02  0.1194394E+00
          2   -1    0    0  502    0  0.00000000000E+00  0.00000000000E+00  0.13396545090E+03  0.13396545090E+03  0.00000000000E+00 0. -1.
          1   -1    0    0  501    0 -0.00000000000E+00 -0.00000000000E+00 -0.40294946375E+03  0.40294946375E+03  0.00000000000E+00 0. -1.
          2    1    1    2  501    0 -0.59687605637E+02 -0.56306197967E+02 -0.12025704455E+02  0.82931391908E+02  0.00000000000E+00 0. -1.
          1    1    1    2  502    0 -0.90728240655E+02 -0.41951289290E+02 -0.20987303066E+03  0.23246120821E+03  0.00000000000E+00 0. -1.
         22    1    1    2    0    0  0.35528483393E+02 -0.10263178023E+02  0.28163755175E+02  0.46484438912E+02  0.00000000000E+00 0. -1.
         22    1    1    2    0    0  0.11488736290E+03  0.10852066528E+03 -0.75249032908E+02  0.17503787562E+03  0.00000000000E+00 0. -1.
</event>
<event>
 6    1  0.3240171E-005  0.1973554E+03  0.7818608E-02  0.1251784E+00
          2   -1    0    0  502    0  0.00000000000E+00  0.00000000000E+00  0.13843249803E+03  0.13843249803E+03  0.00000000000E+00 0.  1.
          1   -1    0    0  501    0 -0.00000000000E+00 -0.00000000000E+00 -0.45433509726E+03  0.45433509726E+03  0.00000000000E+00 0. -1.
          2    1    1    2  501    0 -0.12493631671E+03  0.65654352327E+02 -0.47580459782E+02  0.14894118761E+03  0.00000000000E+00 0.  1.
          1    1    1    2  502    0  0.16867004077E+03 -0.61809238529E+02 -0.24938493998E+03  0.30734803222E+03  0.00000000000E+00 0. -1.
         22    1    1    2    0    0  0.21788393505E+02 -0.62295597109E+01  0.41514849659E+02  0.47297190698E+02  0.00000000000E+00 0.  1.
         22    1    1    2    0    0 -0.65522117558E+02  0.23844459126E+01 -0.60452049129E+02  0.89181184761E+02  0.00000000000E+00 0.  1.
</event>
<event>
 6    1  0.3240171E-005  0.1720924E+03  0.7818608E-02  0.1290067E+00
          2   -1    0    0  502    0  0.00000000000E+00  0.00000000000E+00  0.11766580999E+03  0.11766580999E+03  0.00000000000E+00 0. -1.
          1   -1    0    0  501    0 -0.00000000000E+00 -0.00000000000E+00 -0.12772623376E+04  0.12772623376E+04  0.00000000000E+00 0. -1.
          2    1    1    2  501    0 -0.12646658810E+02 -0.16050593553E+02 -0.14252394620E+01  0.20483916618E+02  0.00000000000E+00 0. -1.
          1    1    1    2  502    0 -0.31678236947E+02  0.16243736675E+03 -0.11634602288E+04  0.11751719504E+04  0.00000000000E+00 0. -1.
         22    1    1    2    0    0  0.12446312790E+01 -0.16268749098E+02  0.51974456227E+02  0.54475365114E+02  0.00000000000E+00 0.  1.
         22    1    1    2    0    0  0.43080264478E+02 -0.13011802409E+03 -0.46685515556E+02  0.14479691552E+03  0.00000000000E+00 0. -1.
</event>
<event>
 6    1  0.3240171E-005  0.7976573E+02  0.7818608E-02  0.1393028E+00
          2   -1    0    0  502    0  0.00000000000E+00  0.00000000000E+00  0.17288862567E+03  0.17288862567E+03  0.00000000000E+00 0. -1.
          1   -1    0    0  501    0 -0.00000000000E+00 -0.00000000000E+00 -0.22971802644E+03  0.22971802644E+03  0.00000000000E+00 0. -1.
          2    1    1    2  501    0  0.36121530346E+01  0.46215599332E+02 -0.11728000543E+03  0.12610919453E+03  0.00000000000E+00 0. -1.
          1    1    1    2  502    0  0.40198557184E+02 -0.56517659805E+02 -0.64936563278E+02  0.95010142195E+02  0.00000000000E+00 0. -1.
         22    1    1    2    0    0 -0.26092364525E+02 -0.89002712912E+01  0.14576702691E+03  0.14835111206E+03  0.00000000000E+00 0. -1.
         22    1    1    2    0    0 -0.17718345693E+02  0.19202331764E+02 -0.20379858973E+02  0.33136203329E+02  0.00000000000E+00 0. -1.
</event>
<event>
 6    1  0.3240171E-005  0.1189182E+03  0.7818608E-02  0.1314409E+00
          2   -1    0    0  502    0  0.00000000000E+00  0.00000000000E+00  0.92075832362E+02  0.92075832362E+02  0.00000000000E+00 0.  1.
          1   -1    0    0  501    0 -0.00000000000E+00 -0.00000000000E+00 -0.26721500862E+03  0.26721500862E+03  0.00000000000E+00 0.  1.
          2    1    1    2  501    0 -0.26363148234E+02  0.41450940448E+01 -0.37354827035E+02  0.45908392395E+02  0.00000000000E+00 0.  1.
          1    1    1    2  502    0 -0.30333552348E+02  0.37215280959E+02 -0.16008617626E+03  0.16713074333E+03  0.00000000000E+00 0.  1.
         22    1    1    2    0    0 -0.29141550158E+02 -0.12266784198E+02  0.42912815019E+02  0.53303035871E+02  0.00000000000E+00 0.  1.
         22    1    1    2    0    0  0.85838250740E+02 -0.29093590805E+02 -0.20610987983E+02  0.92948669392E+02  0.00000000000E+00 0.  1.
</event>
<event>
 6    1  0.3240171E-005  0.8923777E+02  0.7818608E-02  0.1333494E+00
          2   -1    0    0  502    0  0.00000000000E+00  0.00000000000E+00  0.23513320981E+03  0.23513320981E+03  0.00000000000E+00 0. -1.
          1   -1    0    0  501    0 -0.00000000000E+00 -0.00000000000E+00 -0.25973391769E+03  0.25973391769E+03  0.00000000000E+00 0. -1.
          2    1    1    2  501    0  0.29830151745E+02 -0.19218011059E+02 -0.65175595014E+01  0.36078365873E+02  0.00000000000E+00 0. -1.
          1    1    1    2  502    0 -0.34243649570E+02  0.97207350371E+02 -0.20015925270E+03  0.22513467734E+03  0.00000000000E+00 0. -1.
         22    1    1    2    0    0  0.11947375705E+02 -0.25210879438E+02 -0.13463166285E+02  0.30977170218E+02  0.00000000000E+00 0. -1.
         22    1    1    2    0    0 -0.75338778800E+01 -0.52778459873E+02  0.19553927061E+03  0.20267691406E+03  0.00000000000E+00 0. -1.
</event>
<event>
 6    1  0.3240171E-005  0.8424513E+02  0.7818608E-02  0.1319398E+00
          2   -1    0    0  502    0  0.00000000000E+00  0.00000000000E+00  0.29381494032E+03  0.29381494032E+03  0.00000000000E+00 0.  1.
          1   -1    0    0  501    0 -0.00000000000E+00 -0.00000000000E+00 -0.96152072361E+03  0.96152072361E+03  0.00000000000E+00 0.  1.
          2    1    1    2  501    0 -0.47543529119E+02 -0.13947265449E+02 -0.43810243921E+02  0.66138119469E+02  0.00000000000E+00 0.  1.
          1    1    1    2  502    0 -0.86754617480E+01 -0.23396087082E+02 -0.88787683410E+03  0.88822739941E+03  0.00000000000E+00 0.  1.
         22    1    1    2    0    0 -0.19081039622E+02  0.29297686879E+01 -0.46612936543E+01  0.19859437961E+02  0.00000000000E+00 0.  1.
         22    1    1    2    0    0  0.75300030488E+02  0.34413583843E+02  0.26864258839E+03  0.28111070709E+03  0.00000000000E+00 0.  1.
</event>
<event>
 6    1  0.3240171E-005  0.1389586E+03  0.7818608E-02  0.1335512E+00
          2   -1    0    0  502    0  0.00000000000E+00  0.00000000000E+00  0.96201023717E+02  0.96201023717E+02  0.00000000000E+00 0. -1.
          1   -1    0    0  501    0 -0.00000000000E+00 -0.00000000000E+00 -0.38252153036E+03  0.38252153036E+03  0.00000000000E+00 0. -1.
          2    1    1    2  501    0  0.16557983779E+02  0.79544018368E+02 -0.21982841750E+03  0.23436286145E+03  0.00000000000E+00 0. -1.
          1    1    1    2  502    0 -0.61199610236E+02 -0.74556504340E+02 -0.45146771291E+02  0.10650021404E+03  0.00000000000E+00 0. -1.
         22    1    1    2    0    0 -0.25269504182E+01  0.13394187850E+02  0.49186788675E+02  0.51040473418E+02  0.00000000000E+00 0.  1.
         22    1    1    2    0    0  0.47168576875E+02 -0.18381701878E+02 -0.70532106532E+02  0.86819005179E+02  0.00000000000E+00 0. -1.
</event>
<event>
 6    1  0.3240171E-005  0.6758848E+02  0.7818608E-02  0.1370799E+00
          2   -1    0    0  502    0  0.00000000000E+00  0.00000000000E+00  0.30361714181E+03  0.30361714181E+03  0.00000000000E+00 0. -1.
          1   -1    0    0  501    0 -0.00000000000E+00 -0.00000000000E+00 -0.27877636761E+02  0.27877636761E+02  0.00000000000E+00 0. -1.
          2    1    1    2  501    0  0.12661592645E+02 -0.22937031387E+02  0.29013419754E+02  0.39092222538E+02  0.00000000000E+00 0. -1.
          1    1    1    2  502    0 -0.24408967946E+02 -0.39624661605E+01  0.17717901065E+02  0.30420763837E+02  0.00000000000E+00 0. -1.
         22    1    1    2    0    0  0.42483393150E+02 -0.27800491124E+02  0.45978309853E+02  0.68496065414E+02  0.00000000000E+00 0. -1.
         22    1    1    2    0    0 -0.30736017848E+02  0.54699988671E+02  0.18302987437E+03  0.19348572678E+03  0.00000000000E+00 0. -1.
</event>
<event>
 6    1  0.3240171E-005  0.9502590E+02  0.7818608E-02  0.1297504E+00
          2   -1    0    0  502    0  0.00000000000E+00  0.00000000000E+00  0.64105295900E+03  0.64105295900E+03  0.00000000000E+00 0. -1.
          1   -1    0    0  501    0 -0.00000000000E+00 -0.00000000000E+00 -0.42371294794E+02  0.42371294794E+02  0.00000000000E+00 0. -1.
          2    1    1    2  501    0 -0.74019780639E+02 -0.17754850499E+02  0.38947550724E+02  0.85504820621E+02  0.00000000000E+00 0. -1.
          1    1    1    2  502    0  0.67143073077E+02 -0.35839566929E+02  0.16575582287E+03  0.18239424233E+03  0.00000000000E+00 0. -1.
         22    1    1    2    0    0 -0.27199847513E+02 -0.23687896874E+02  0.52090820157E+02  0.63359306401E+02  0.00000000000E+00 0. -1.
         22    1    1    2    0    0  0.34076555075E+02  0.77282314302E+02  0.34188747045E+03  0.35216588443E+03  0.00000000000E+00 0.  1.
</event>
<event>
 6    1  0.3240171E-005  0.3267879E+03  0.7818608E-02  0.1162926E+00
          2   -1    0    0  502    0  0.00000000000E+00  0.00000000000E+00  0.38701406323E+03  0.38701406323E+03  0.00000000000E+00 0. -1.
          1   -1    0    0  501    0 -0.00000000000E+00 -0.00000000000E+00 -0.24434116367E+03  0.24434116367E+03  0.00000000000E+00 0. -1.
          2    1    1    2  501    0  0.57063512179E+02 -0.48060304553E+02 -0.52043553495E+02  0.90964656632E+02  0.00000000000E+00 0. -1.
          1    1    1    2  502    0 -0.42271206108E+02  0.13380346783E+02 -0.15773347411E+03  0.16384668871E+03  0.00000000000E+00 0. -1.
         22    1    1    2    0    0 -0.38648296685E+02  0.58428351943E+02  0.32679821293E+03  0.33422243360E+03  0.00000000000E+00 0. -1.
         22    1    1    2    0    0  0.23855990613E+02 -0.23748394173E+02  0.25651714225E+02  0.42321447951E+02  0.00000000000E+00 0. -1.
</event>
<event>
 6    1  0.3240171E-005  0.2007434E+03  0.7818608E-02  0.1275350E+00
          2   -1    0    0  502    0  0.00000000000E+00  0.00000000000E+00  0.44291528499E+02  0.44291528499E+02  0.00000000000E+00 0.  1.
          1   -1    0    0  501    0 -0.00000000000E+00 -0.00000000000E+00 -0.13065629302E+04  0.13065629302E+04  0.00000000000E+00 0.  1.
          2    1    1    2  501    0 -0.13110186875E+03  0.83392839687E+02 -0.40234101352E+03  0.43130077308E+03  0.00000000000E+00 0.  1.
          1    1    1    2  502    0  0.88422404218E+02 -0.10688469673E+03 -0.68343660580E+03  0.69737253610E+03  0.00000000000E+00 0.  1.
         22    1    1    2    0    0  0.75892563043E+01 -0.11268995034E+02  0.17410887821E+02  0.22084521164E+02  0.00000000000E+00 0.  1.
         22    1    1    2    0    0  0.35090208226E+02  0.34760852078E+02 -0.19390467015E+03  0.20009662830E+03  0.00000000000E+00 0.  1.
</event>
<event>
 6    1  0.5657191E-005  0.4263207E+03  0.7818608E-02  0.1172932E+00
          2   -1    0    0  502    0  0.00000000000E+00  0.00000000000E+00  0.22194529697E+04  0.22194529697E+04  0.00000000000E+00 0. -1.
          1   -1    0    0  501    0 -0.00000000000E+00 -0.00000000000E+00 -0.19372819047E+03  0.19372819047E+03  0.00000000000E+00 0.  1.
          2    1    1    2  501    0  0.96602267883E+02 -0.70847971380E+02  0.40813765709E+03  0.42535606302E+03  0.00000000000E+00 0. -1.
          1    1    1    2  502    0  0.15465821306E+03 -0.72749888301E+02 -0.12850313900E+03  0.21383350029E+03  0.00000000000E+00 0.  1.
         22    1    1    2    0    0 -0.26280954483E+03  0.14703380679E+03  0.16900978142E+04  0.17167173381E+04  0.00000000000E+00 0. -1.
         22    1    1    2    0    0  0.11549063893E+02 -0.34359471131E+01  0.55992446853E+02  0.57274258738E+02  0.00000000000E+00 0. -1.
</event>
<event>
 6    1  0.3240171E-005  0.1195024E+03  0.7818608E-02  0.1310355E+00
          2   -1    0    0  502    0  0.00000000000E+00  0.00000000000E+00  0.18331624960E+02  0.18331624960E+02  0.00000000000E+00 0.  1.
          1   -1    0    0  501    0 -0.00000000000E+00 -0.00000000000E+00 -0.13706430731E+04  0.13706430731E+04  0.00000000000E+00 0. -1.
          2    1    1    2  501    0 -0.78082282205E+02 -0.54489889803E+01 -0.74055656389E+03  0.74468151487E+03  0.00000000000E+00 0.  1.
          1    1    1    2  502    0  0.34043037772E+02  0.17402508840E+02 -0.31696247609E+03  0.31926006168E+03  0.00000000000E+00 0. -1.
         22    1    1    2    0    0  0.17101930958E+02  0.28836527837E+02 -0.84858847167E+01  0.34583690081E+02  0.00000000000E+00 0.  1.
         22    1    1    2    0    0  0.26937313476E+02 -0.40790047697E+02 -0.28630652342E+03  0.29044943140E+03  0.00000000000E+00 0. -1.
</event>
<event>
 6    1  0.3240171E-005  0.8408385E+02  0.7818608E-02  0.1320672E+00
          2   -1    0    0  502    0  0.00000000000E+00  0.00000000000E+00  0.13093447585E+03  0.13093447585E+03  0.00000000000E+00 0.  1.
          1   -1    0    0  501    0 -0.00000000000E+00 -0.00000000000E+00 -0.28579838620E+04  0.28579838620E+04  0.00000000000E+00 0.  1.
          2    1    1    2  501    0 -0.28149306637E+02  0.57204276305E+02 -0.43199333714E+02  0.77012305024E+02  0.00000000000E+00 0.  1.
          1    1    1    2  502    0 -0.35525438713E+02 -0.56527978534E+02 -0.27530676731E+04  0.27538770999E+04  0.00000000000E+00 0.  1.
         22    1    1    2    0    0 -0.19292609039E+02  0.10142750705E+02 -0.24234242829E+02  0.32594151023E+02  0.00000000000E+00 0.  1.
         22    1    1    2    0    0  0.82967354389E+02 -0.10819048476E+02  0.93451863479E+02  0.12543478183E+03  0.00000000000E+00 0.  1.
</event>
<event>
 6    1  0.3240171E-005  0.1164846E+03  0.7818608E-02  0.1252581E+00
          2   -1    0    0  502    0  0.00000000000E+00  0.00000000000E+00  0.15272855997E+03  0.15272855997E+03  0.00000000000E+00 0.  1.
          1   -1    0    0  501    0 -0.00000000000E+00 -0.00000000000E+00 -0.13866662181E+03  0.13866662181E+03  0.00000000000E+00 0. -1.
          2    1    1    2  501    0  0.60098811714E+02  0.67088640491E+02  0.41052251050E+02  0.98985050228E+02  0.00000000000E+00 0.  1.
          1    1    1    2  502    0 -0.10951557363E+02 -0.23261549542E+02 -0.40628154694E+02  0.48079967238E+02  0.00000000000E+00 0. -1.
         22    1    1    2    0    0  0.54552274130E+01  0.30789673774E+02  0.37512761240E+02  0.48836162555E+02  0.00000000000E+00 0.  1.
         22    1    1    2    0    0 -0.54602481764E+02 -0.74616764724E+02 -0.23874919440E+02  0.95494001753E+02  0.00000000000E+00 0. -1.
</event>
<event>
 6    1  0.3240171E-005  0.8789066E+02  0.7818608E-02  0.1347907E+00
          2   -1    0    0  502    0  0.00000000000E+00  0.00000000000E+00  0.13537774842E+03  0.13537774842E+03  0.00000000000E+00 0. -1.
          1   -1    0    0  501    0 -0.00000000000E+00 -0.00000000000E+00 -0.42787261145E+03  0.42787261145E+03  0.00000000000E+00 0. -1.
          2    1    1    2  501    0 -0.19813329531E+02 -0.55884221036E+02 -0.16263646046E+03  0.17310757481E+03  0.00000000000E+00 0. -1.
          1    1    1    2  502    0  0.62458778933E+02  0.80117706101E+02 -0.20919271349E+03  0.23255437487E+03  0.00000000000E+00 0. -1.
         22    1    1    2    0    0 -0.43224302375E+02 -0.47387713814E+01  0.11166384188E+03  0.11983158955E+03  0.00000000000E+00 0. -1.
         22    1    1    2    0    0  0.57885297268E+00 -0.19494713684E+02 -0.32329530964E+02  0.37756820638E+02  0.00000000000E+00 0. -1.
</event>
<event>
 6    1  0.3240171E-005  0.7927829E+02  0.7818608E-02  0.1337662E+00
          2   -1    0    0  502    0  0.00000000000E+00  0.00000000000E+00  0.68491997187E+02  0.68491997187E+02  0.00000000000E+00 0. -1.
          1   -1    0    0  501    0 -0.00000000000E+00 -0.00000000000E+00 -0.20351075302E+03  0.20351075302E+03  0.00000000000E+00 0. -1.
          2    1    1    2  501    0 -0.28834080747E+02 -0.86628308166E+01 -0.29846708909E+02  0.42394278894E+02  0.00000000000E+00 0. -1.
          1    1    1    2  502    0  0.29278938830E+02 -0.31910420330E+00 -0.97926784436E+02  0.10221063152E+03  0.00000000000E+00 0. -1.
         22    1    1    2    0    0 -0.62958284973E+02  0.87418113574E+01 -0.12069624223E+02  0.64698073707E+02  0.00000000000E+00 0. -1.
         22    1    1    2    0    0  0.62513426890E+02  0.24012366253E+00  0.48243617311E+01  0.62699766084E+02  0.00000000000E+00 0. -1.
</event>
<event>
 6    1  0.3240171E-005  0.1086274E+03  0.7818608E-02  0.1295263E+00
          2   -1    0    0  502    0  0.00000000000E+00  0.00000000000E+00  0.77631160101E+03  0.77631160101E+03  0.00000000000E+00 0. -1.
          1   -1    0    0  501    0 -0.00000000000E+00 -0.00000000000E+00 -0.35977610004E+02  0.35977610004E+02  0.00000000000E+00 0. -1.
          2    1    1    2  501    0  0.53162865152E+01  0.21637702892E+02 -0.19516254790E+02  0.29619879976E+02  0.00000000000E+00 0. -1.
          1    1    1    2  502    0 -0.29221073234E+02  0.99386749836E+01  0.34027946259E+03  0.34167639814E+03  0.00000000000E+00 0. -1.
         22    1    1    2    0    0  0.52969689233E+02  0.19092778607E+02  0.89103905060E+02  0.10540316916E+03  0.00000000000E+00 0. -1.
         22    1    1    2    0    0 -0.29064902514E+02 -0.50669156482E+02  0.33046687814E+03  0.33558976374E+03  0.00000000000E+00 0. -1.
</event>
<event>
 6    1  0.3240171E-005  0.8618391E+02  0.7818608E-02  0.1316054E+00
          2   -1    0    0  502    0  0.00000000000E+00  0.00000000000E+00  0.63467075936E+02  0.63467075936E+02  0.00000000000E+00 0. -1.
          1   -1    0    0  501    0 -0.00000000000E+00 -0.00000000000E+00 -0.12455939826E+04  0.12455939826E+04  0.00000000000E+00 0. -1.
          2    1    1    2  501    0 -0.38981684432E+02  0.29735539445E+01 -0.68424876450E+01  0.39689209886E+02  0.00000000000E+00 0. -1.
          1    1    1    2  502    0  0.13168885920E+02  0.19157509945E+02 -0.11331420747E+04  0.11333805147E+04  0.00000000000E+00 0. -1.
         22    1    1    2    0    0  0.59420260713E+02 -0.55906524343E+02 -0.28656288249E+02  0.86472479457E+02  0.00000000000E+00 0.  1.
         22    1    1    2    0    0 -0.33607462201E+02  0.33775460453E+02 -0.13486056163E+02  0.49518854543E+02  0.00000000000E+00 0. -1.
</event>
<event>
 6    1  0.3240171E-005  0.4056531E+03  0.7818608E-02  0.1121807E+00
          2   -1    0    0  502    0  0.00000000000E+00  0.00000000000E+00  0.27466762768E+04  0.27466762768E+04  0.00000000000E+00 0. -1.
          1   -1    0    0  501    0 -0.00000000000E+00 -0.00000000000E+00 -0.67369735740E+02  0.67369735740E+02  0.00000000000E+00 0. -1.
          2    1    1    2  501    0  0.15610498074E+03  0.24547262859E+03  0.71569733299E+03  0.77255954389E+03  0.00000000000E+00 0. -1.
          1    1    1    2  502    0 -0.87213797961E+02 -0.34569951469E+03  0.15885359386E+04  0.16280543078E+04  0.00000000000E+00 0. -1.
         22    1    1    2    0    0 -0.27042941471E+02  0.12219591157E+03  0.24660030086E+03  0.27654090090E+03  0.00000000000E+00 0.  1.
         22    1    1    2    0    0 -0.41848241308E+02 -0.21969025467E+02  0.12847296866E+03  0.13689125997E+03  0.00000000000E+00 0. -1.
</event>
<event>
 6    1  0.3240171E-005  0.1091438E+03  0.7818608E-02  0.1278197E+00
          2   -1    0    0  502    0  0.00000000000E+00  0.00000000000E+00  0.89397889436E+03  0.89397889436E+03  0.00000000000E+00 0. -1.
          1   -1    0    0  501    0 -0.00000000000E+00 -0.00000000000E+00 -0.30201097005E+02  0.30201097005E+02  0.00000000000E+00 0. -1.
          2    1    1    2  501    0 -0.61078161108E+02  0.21811793973E+02  0.14394114854E+03  0.15787764364E+03  0.00000000000E+00 0. -1.
          1    1    1    2  502    0  0.24829535958E+02 -0.10034050596E+03  0.20681550639E+03  0.23120851341E+03  0.00000000000E+00 0. -1.
         22    1    1    2    0    0 -0.37199442108E+02  0.46691713847E+02  0.12031428416E+03  0.13431098841E+03  0.00000000000E+00 0. -1.
         22    1    1    2    0    0  0.73448067258E+02  0.31836998135E+02  0.39270685826E+03  0.40078284589E+03  0.00000000000E+00 0. -1.
</event>
<event>
 6    1  0.3240171E-005  0.7525088E+02  0.7818608E-02  0.1447856E+00
          2   -1    0    0  502    0  0.00000000000E+00  0.00000000000E+00  0.10531497406E+03  0.10531497406E+03  0.00000000000E+00 0.  1.
          1   -1    0    0  501    0 -0.00000000000E+00 -0.00000000000E+00 -0.60678306244E+03  0.60678306244E+03  0.00000000000E+00 0.  1.
          2    1    1    2  501    0 -0.23820294440E+02 -0.21925058085E+02 -0.94655189121E+01  0.33729966610E+02  0.00000000000E+00 0.  1.
          1    1    1    2  502    0  0.31190513585E+02 -0.20104742446E+02 -0.53853341161E+03  0.53981041508E+03  0.00000000000E+00 0.  1.
         22    1    1    2    0    0 -0.21348099231E+02  0.44105530477E+02 -0.32157770684E+02  0.58610249742E+02  0.00000000000E+00 0.  1.
         22    1    1    2    0    0  0.13977880086E+02 -0.20757299459E+01  0.78688612830E+02  0.79947405059E+02  0.00000000000E+00 0.  1.
</event>
<event>
 6    1  0.3240171E-005  0.8591118E+02  0.7818608E-02  0.1337445E+00
          2   -1    0    0  502    0  0.00000000000E+00  0.00000000000E+00  0.14996697176E+02  0.14996697176E+02  0.00000000000E+00 0.  1.
          1   -1    0    0  501    0 -0.00000000000E+00 -0.00000000000E+00 -0.50559347485E+03  0.50559347485E+03  0.00000000000E+00 0.  1.
          2    1    1    2  501    0 -0.11958566719E+02  0.17763566984E+02 -0.49631636124E+02  0.54054148169E+02  0.00000000000E+00 0.  1.
          1    1    1    2  502    0  0.36378488698E+01 -0.21800395952E+02 -0.11020375797E+03  0.11239821831E+03  0.00000000000E+00 0.  1.
         22    1    1    2    0    0  0.64306643963E+02  0.73600492467E+01 -0.22868647923E+03  0.23766998246E+03  0.00000000000E+00 0.  1.
         22    1    1    2    0    0 -0.55985926114E+02 -0.33232202790E+01 -0.10207490436E+03  0.11646782309E+03  0.00000000000E+00 0.  1.
</event>
<event>
 6    1  0.3240171E-005  0.7752656E+02  0.7818608E-02  0.1370279E+00
          2   -1    0    0  502    0  0.00000000000E+00  0.00000000000E+00  0.53400659354E+02  0.53400659354E+02  0.00000000000E+00 0. -1.
          1   -1    0    0  501    0 -0.00000000000E+00 -0.00000000000E+00 -0.21707673178E+04  0.21707673178E+04  0.00000000000E+00 0. -1.
          2    1    1    2  501    0 -0.19549738296E+02  0.18180939929E+02  0.20802279351E+01  0.26778091650E+02  0.00000000000E+00 0. -1.
          1    1    1    2  502    0  0.42497239148E+02 -0.53396570479E+02 -0.20500036556E+04  0.20511392437E+04  0.00000000000E+00 0. -1.
         22    1    1    2    0    0 -0.37529332138E+02  0.76175299569E+02 -0.50723045664E+02  0.98913873630E+02  0.00000000000E+00 0. -1.
         22    1    1    2    0    0  0.14581831286E+02 -0.40959669018E+02 -0.18720185107E+02  0.47336768164E+02  0.00000000000E+00 0. -1.
</event>
<event>
 6    1  0.3240171E-005  0.1370599E+03  0.7818608E-02  0.1265557E+00
          2   -1    0    0  502    0  0.00000000000E+00  0.00000000000E+00  0.84951600271E+03  0.84951600271E+03  0.00000000000E+00 0.  1.
          1   -1    0    0  501    0 -0.00000000000E+00 -0.00000000000E+00 -0.40672151155E+02  0.40672151155E+02  0.00000000000E+00 0.  1.
          2    1    1    2  501    0  0.67233244406E+02  0.30490575966E+02  0.58782440664E+02  0.94368213433E+02  0.00000000000E+00 0.  1.
          1    1    1    2  502    0 -0.11178491345E+03 -0.32706311047E+02  0.50370397339E+03  0.51699445109E+03  0.00000000000E+00 0.  1.
         22    1    1    2    0    0  0.42343379747E+02  0.53748432771E+02  0.83273410405E+02  0.10777901797E+03  0.00000000000E+00 0.  1.
         22    1    1    2    0    0  0.22082892945E+01 -0.51532697690E+02  0.16308402710E+03  0.17104647137E+03  0.00000000000E+00 0.  1.
</event>
<event>
 6    1  0.3240171E-005  0.5029899E+03  0.7818608E-02  0.1013001E+00
          2   -1    0    0  502    0  0.00000000000E+00  0.00000000000E+00  0.31647491945E+03  0.31647491945E+03  0.00000000000E+00 0. -1.
          1   -1    0    0  501    0 -0.00000000000E+00 -0.00000000000E+00 -0.79653148187E+03  0.79653148187E+03  0.00000000000E+00 0.  1.
          2    1    1    2  501    0 -0.18951707536E+02 -0.45173981186E+02 -0.21401011852E+01  0.49035046933E+02  0.00000000000E+00 0. -1.
          1    1    1    2  502    0  0.30602248205E+02  0.47898369708E+03 -0.34837312639E+03  0.59306468016E+03  0.00000000000E+00 0.  1.
         22    1    1    2    0    0 -0.11193791359E+02 -0.57426458343E+02 -0.67696347745E+02  0.89475664740E+02  0.00000000000E+00 0.  1.
         22    1    1    2    0    0 -0.45674930975E+00 -0.37638325755E+03 -0.61846987103E+02  0.38143100949E+03  0.00000000000E+00 0. -1.
</event>
<event>
 6    1  0.3240171E-005  0.1185743E+03  0.7818608E-02  0.1294722E+00
          2   -1    0    0  502    0  0.00000000000E+00  0.00000000000E+00  0.11881520509E+03  0.11881520509E+03  0.00000000000E+00 0. -1.
          1   -1    0    0  501    0 -0.00000000000E+00 -0.00000000000E+00 -0.57112914430E+03  0.57112914430E+03  0.00000000000E+00 0. -1.
          2    1    1    2  501    0  0.43848314787E+02 -0.61483128505E+01 -0.70095179596E+01  0.44828671658E+02  0.00000000000E+00 0. -1.
          1    1    1    2  502    0 -0.70304801405E+02  0.60596337648E+02 -0.48964309634E+03  0.49836236117E+03  0.00000000000E+00 0. -1.
         22    1    1    2    0    0  0.38545958143E+02 -0.10343938109E+02  0.79574693438E+02  0.89022018515E+02  0.00000000000E+00 0. -1.
         22    1    1    2    0    0 -0.12089471526E+02 -0.44104086689E+02 -0.35236018354E+02  0.57731298044E+02  0.00000000000E+00 0.  1.
</event>
<event>
 6    1  0.3240171E-005  0.6642500E+02  0.7818608E-02  0.1393165E+00
          2   -1    0    0  502    0  0.00000000000E+00  0.00000000000E+00  0.73046746042E+02  0.73046746042E+02  0.00000000000E+00 0.  1.
          1   -1    0    0  501    0 -0.00000000000E+00 -0.00000000000E+00 -0.71771571033E+03  0.71771571033E+03  0.00000000000E+00 0. -1.
          2    1    1    2  501    0 -0.45791294990E+02  0.43555126506E+01 -0.14123557531E+02  0.48117440337E+02  0.00000000000E+00 0.  1.
          1    1    1    2  502    0  0.28404246660E+02 -0.13343578758E+02 -0.61717618781E+03  0.61797354241E+03  0.00000000000E+00 0. -1.
         22    1    1    2    0    0  0.42367882865E+02 -0.13899827330E+02  0.41023224894E+02  0.60589996525E+02  0.00000000000E+00 0.  1.
         22    1    1    2    0    0 -0.24980834536E+02  0.22887893437E+02 -0.54392443845E+02  0.64081477102E+02  0.00000000000E+00 0.  1.
</event>
<event>
 6    1  0.3240171E-005  0.1077852E+03  0.7818608E-02  0.1313485E+00
          2   -1    0    0  502    0  0.00000000000E+00  0.00000000000E+00  0.20009377914E+03  0.20009377914E+03  0.00000000000E+00 0.  1.
          1   -1    0    0  501    0 -0.00000000000E+00 -0.00000000000E+00 -0.94446128991E+03  0.94446128991E+03  0.00000000000E+00 0. -1.
          2    1    1    2  501    0 -0.34189010046E+01 -0.75677905204E+02 -0.62468333889E+03  0.62925996862E+03  0.00000000000E+00 0.  1.
          1    1    1    2  502    0 -0.79621420346E+01  0.30760844242E+02 -0.29277403641E+03  0.29449322851E+03  0.00000000000E+00 0. -1.
         22    1    1    2    0    0 -0.13569490155E+02  0.97730524110E+01 -0.18200302318E+02  0.24716282507E+02  0.00000000000E+00 0. -1.
         22    1    1    2    0    0  0.24950533194E+02  0.35144008551E+02  0.19129016685E+03  0.19608558941E+03  0.00000000000E+00 0.  1.
</event>
<event>
 6    1  0.3240171E-005  0.2769846E+03  0.7818608E-02  0.1177998E+00
          2   -1    0    0  502    0  0.00000000000E+00  0.00000000000E+00  0.51568195546E+02  0.51568195546E+02  0.00000000000E+00 0.  1.
          1   -1    0    0  501    0 -0.00000000000E+00 -0.00000000000E+00 -0.16195948212E+04  0.16195948212E+04  0.00000000000E+00 0.  1.
          2    1    1    2  501    0  0.12857035164E+02 -0.12856132489E+03 -0.40576715642E+03  0.42584070125E+03  0.00000000000E+00 0.  1.
          1    1    1    2  502    0  0.20835057601E+02  0.25609634699E+03 -0.80861558103E+03  0.84845659668E+03  0.00000000000E+00 0.  1.
         22    1    1    2    0    0  0.38544350599E+02 -0.69755665070E+01 -0.88327775886E+02  0.96623607282E+02  0.00000000000E+00 0.  1.
         22    1    1    2    0    0 -0.72236443363E+02 -0.12055945559E+03 -0.26531611229E+03  0.30024211151E+03  0.00000000000E+00 0.  1.
</event>
<event>
 6    1  0.3240171E-005  0.1452243E+03  0.7818608E-02  0.1309683E+00
          2   -1    0    0  502    0  0.00000000000E+00  0.00000000000E+00  0.37510761242E+02  0.37510761242E+02  0.00000000000E+00 0.  1.
          1   -1    0    0  501    0 -0.00000000000E+00 -0.00000000000E+00 -0.16482087329E+04  0.16482087329E+04  0.00000000000E+00 0.  1.
          2    1    1    2  501    0 -0.15148092586E+02  0.15705159655E+02 -0.33067337620E+03  0.33139251422E+03  0.00000000000E+00 0.  1.
          1    1    1    2  502    0  0.64116134584E+02  0.23080537887E+02 -0.11786090097E+04  0.11805773112E+04  0.00000000000E+00 0.  1.
         22    1    1    2    0    0  0.13854718227E+02  0.12869909758E+02  0.20055124837E+02  0.27564394180E+02  0.00000000000E+00 0.  1.
         22    1    1    2    0    0 -0.62822760224E+02 -0.51655607300E+02 -0.12147071063E+03  0.14618527459E+03  0.00000000000E+00 0.  1.
</event>
<event>
 6    1  0.3240171E-005  0.4894787E+02  0.7818608E-02  0.1486749E+00
          2   -1    0    0  502    0  0.00000000000E+00  0.00000000000E+00  0.38812786899E+02  0.38812786899E+02  0.00000000000E+00 0.  1.
          1   -1    0    0  501    0 -0.00000000000E+00 -0.00000000000E+00 -0.13760657351E+04  0.13760657351E+04  0.00000000000E+00 0. -1.
          2    1    1    2  501    0 -0.26453165631E+02 -0.65156014945E+01 -0.22330655265E+03  0.22496230683E+03  0.00000000000E+00 0.  1.
          1    1    1    2  502    0  0.78102203305E+01  0.23111429762E+02 -0.10505977658E+04  0.10508809653E+04  0.00000000000E+00 0. -1.
         22    1    1    2    0    0  0.26671705734E+02  0.11509643917E+02  0.29675507406E+02  0.41526949438E+02  0.00000000000E+00 0.  1.
         22    1    1    2    0    0 -0.80287604333E+01 -0.28105472184E+02 -0.93024137218E+02  0.97508300498E+02  0.00000000000E+00 0. -1.
</event>
<event>
 6    1  0.3240171E-005  0.1417836E+03  0.7818608E-02  0.1216962E+00
          2   -1    0    0  502    0  0.00000000000E+00  0.00000000000E+00  0.73470320813E+03  0.73470320813E+03  0.00000000000E+00 0.  1.
          1   -1    0    0  501    0 -0.00000000000E+00 -0.00000000000E+00 -0.79484359053E+02  0.79484359053E+02  0.00000000000E+00 0.  1.
          2    1    1    2  501    0  0.42697692730E+02  0.16177376539E+03  0.17564310181E+03  0.24257853027E+03  0.00000000000E+00 0.  1.
          1    1    1    2  502    0 -0.25880909355E+02 -0.54164946570E+02 -0.43301136904E+01  0.60186483454E+02  0.00000000000E+00 0.  1.
         22    1    1    2    0    0 -0.95737571317E+01  0.87760696366E+01 -0.67840165445E+00  0.13005247121E+02  0.00000000000E+00 0. -1.
         22    1    1    2    0    0 -0.72430262428E+01 -0.11638488846E+03  0.48458426261E+03  0.49841730634E+03  0.00000000000E+00 0.  1.
</event>
<event>
 6    1  0.3240171E-005  0.1155716E+03  0.7818608E-02  0.1370823E+00
          2   -1    0    0  502    0  0.00000000000E+00  0.00000000000E+00  0.19198077472E+03  0.19198077472E+03  0.00000000000E+00 0. -1.
          1   -1    0    0  501    0 -0.00000000000E+00 -0.00000000000E+00 -0.41168796947E+03  0.41168796947E+03  0.00000000000E+00 0. -1.
          2    1    1    2  501    0  0.36362454802E+02 -0.33200262229E+01 -0.25718418775E+03  0.25976327131E+03  0.00000000000E+00 0. -1.
          1    1    1    2  502    0 -0.58195931755E+02 -0.61525231876E+02  0.14321158455E+03  0.16637811930E+03  0.00000000000E+00 0. -1.
         22    1    1    2    0    0  0.30529063786E+02  0.55172919892E+02 -0.13307084482E+03  0.14725462494E+03  0.00000000000E+00 0. -1.
         22    1    1    2    0    0 -0.86955868335E+01  0.96723382065E+01  0.27336253264E+02  0.30272728639E+02  0.00000000000E+00 0.  1.
</event>
<event>
 6    1  0.3240171E-005  0.1548872E+03  0.7818608E-02  0.1285017E+00
          2   -1    0    0  502    0  0.00000000000E+00  0.00000000000E+00  0.13570190553E+03  0.13570190553E+03  0.00000000000E+00 0.  1.
          1   -1    0    0  501    0 -0.00000000000E+00 -0.00000000000E+00 -0.16545276281E+03  0.16545276281E+03  0.00000000000E+00 0.  1.
          2    1    1    2  501    0 -0.78041786693E+01 -0.38361328425E+02  0.43105528872E+02  0.58228715790E+02  0.00000000000E+00 0.  1.
          1    1    1    2  502    0  0.23295093557E+02 -0.45466703871E+02 -0.77696717589E+02  0.92987431779E+02  0.00000000000E+00 0.  1.
         22    1    1    2    0    0  0.24049878882E+02 -0.52175828528E+01  0.39490163028E+02  0.46530557927E+02  0.00000000000E+00 0.  1.
         22    1    1    2    0    0 -0.39540793770E+02  0.89045615149E+02 -0.34649831590E+02  0.10340796284E+03  0.00000000000E+00 0.  1.
</event>
<event>
 6    1  0.3240171E-005  0.6569177E+02  0.7818608E-02  0.1439449E+00
          2   -1    0    0  502    0  0.00000000000E+00  0.00000000000E+00  0.76650450991E+02  0.76650450991E+02  0.00000000000E+00 0.  1.
          1   -1    0    0  501    0 -0.00000000000E+00 -0.00000000000E+00 -0.59722560243E+03  0.59722560243E+03  0.00000000000E+00 0.  1.
          2    1    1    2  501    0  0.57184470754E+02 -0.15692676971E+02 -0.32569892299E+03  0.33105303540E+03  0.00000000000E+00 0.  1.
          1    1    1    2  502    0 -0.52032635949E+02  0.39072277450E+01 -0.21033776399E+03  0.21671325892E+03  0.00000000000E+00 0.  1.
         22    1    1    2    0    0 -0.57708321977E+00 -0.11845063329E+02 -0.52598614200E+02  0.53918946263E+02  0.00000000000E+00 0.  1.
         22    1    1    2    0    0 -0.45747515854E+01  0.23630512555E+02  0.68060149743E+02  0.72190812841E+02  0.00000000000E+00 0.  1.
</event>
<event>
 6    1  0.3240171E-005  0.6908315E+02  0.7818608E-02  0.1366173E+00
          2   -1    0    0  502    0  0.00000000000E+00  0.00000000000E+00  0.24738037565E+03  0.24738037565E+03  0.00000000000E+00 0. -1.
          1   -1    0    0  501    0 -0.00000000000E+00 -0.00000000000E+00 -0.53350244854E+02  0.53350244854E+02  0.00000000000E+00 0. -1.
          2    1    1    2  501    0 -0.17904948339E+02  0.31637423958E+02  0.11116465867E+03  0.11695766374E+03  0.00000000000E+00 0. -1.
          1    1    1    2  502    0  0.37860906154E+01 -0.33175182752E+02  0.20434221770E+02  0.39146962233E+02  0.00000000000E+00 0. -1.
         22    1    1    2    0    0 -0.87699455276E+01 -0.54429064940E+02  0.63573505096E+02  0.84148830087E+02  0.00000000000E+00 0. -1.
         22    1    1    2    0    0  0.22888803251E+02  0.55966823734E+02 -0.11422547446E+01  0.60477164442E+02  0.00000000000E+00 0. -1.
</event>
<event>
 6    1  0.3240171E-005  0.1290523E+03  0.7818608E-02  0.1275336E+00
          2   -1    0    0  502    0  0.00000000000E+00  0.00000000000E+00  0.17440179049E+03  0.17440179049E+03  0.00000000000E+00 0. -1.
          1   -1    0    0  501    0 -0.00000000000E+00 -0.00000000000E+00 -0.95156561100E+03  0.95156561100E+03  0.00000000000E+00 0.  1.
          2    1    1    2  501    0 -0.53032888739E+02  0.55315082666E+02  0.96135194478E+01  0.77231246361E+02  0.00000000000E+00 0. -1.
          1    1    1    2  502    0  0.96203860791E+02 -0.71251377271E+02 -0.87837364341E+03  0.88649433107E+03  0.00000000000E+00 0.  1.
         22    1    1    2    0    0  0.55141209910E+01 -0.50850744159E+02  0.31764662052E+02  0.60209612746E+02  0.00000000000E+00 0. -1.
         22    1    1    2    0    0 -0.48685093043E+02  0.66787038764E+02  0.59831641400E+02  0.10203221131E+03  0.00000000000E+00 0. -1.
</event>
<event>
 6    1  0.3240171E-005  0.7057621E+02  0.7818608E-02  0.1442911E+00
          2   -1    0    0  502    0  0.00000000000E+00  0.00000000000E+00  0.10678956791E+03  0.10678956791E+03  0.00000000000E+00 0. -1.
          1   -1    0    0  501    0 -0.00000000000E+00 -0.00000000000E+00 -0.59479441599E+03  0.59479441599E+03  0.00000000000E+00 0.  1.
          2    1    1    2  501    0 -0.47990447599E+02  0.27826454261E+01 -0.35607020919E+03  0.35930045930E+03  0.00000000000E+00 0. -1.
          1    1    1    2  502    0  0.49967065035E+02 -0.66950750316E+00 -0.19253585908E+03  0.19891508957E+03  0.00000000000E+00 0.  1.
         22    1    1    2    0    0  0.13179738086E+02 -0.12886400755E+02  0.99001458136E+02  0.10070279804E+03  0.00000000000E+00 0. -1.
         22    1    1    2    0    0 -0.15156355522E+02  0.10773262832E+02 -0.38400237952E+02  0.42665636988E+02  0.00000000000E+00 0. -1.
</event>
<event>
 6    1  0.3240171E-005  0.9975811E+02  0.7818608E-02  0.1297001E+00
          2   -1    0    0  502    0  0.00000000000E+00  0.00000000000E+00  0.12166506508E+03  0.12166506508E+03  0.00000000000E+00 0. -1.
          1   -1    0    0  501    0 -0.00000000000E+00 -0.00000000000E+00 -0.47869449897E+03  0.47869449897E+03  0.00000000000E+00 0. -1.
          2    1    1    2  501    0 -0.10989519502E+02  0.67326731725E+02 -0.23616198151E+03  0.24581728957E+03  0.00000000000E+00 0. -1.
          1    1    1    2  502    0  0.12356928028E+03 -0.10124637113E+03 -0.72985744308E+02  0.17563346369E+03  0.00000000000E+00 0. -1.
         22    1    1    2    0    0  0.16443762878E+01  0.12978857858E+02 -0.60683306158E+02  0.62077519046E+02  0.00000000000E+00 0. -1.
         22    1    1    2    0    0 -0.11422413706E+03  0.20940781543E+02  0.12801598085E+02  0.11683129175E+03  0.00000000000E+00 0. -1.
</event>
<event>
 6    1  0.3240171E-005  0.1543698E+03  0.7818608E-02  0.1243055E+00
          2   -1    0    0  502    0  0.00000000000E+00  0.00000000000E+00  0.64463496467E+02  0.64463496467E+02  0.00000000000E+00 0. -1.
          1   -1    0    0  501    0 -0.00000000000E+00 -0.00000000000E+00 -0.68804241652E+03  0.68804241652E+03  0.00000000000E+00 0. -1.
          2    1    1    2  501    0  0.55277227440E+02  0.34161041990E+02 -0.12504866517E+02  0.66173411200E+02  0.00000000000E+00 0. -1.
          1    1    1    2  502    0 -0.12336323869E+03 -0.51839479152E+02 -0.45662165792E+03  0.47582471431E+03  0.00000000000E+00 0. -1.
         22    1    1    2    0    0  0.46521475064E+02  0.69811561799E+02 -0.11183453489E+03  0.13980295060E+03  0.00000000000E+00 0. -1.
         22    1    1    2    0    0  0.21564536187E+02 -0.52133124637E+02 -0.42617860715E+02  0.70704836874E+02  0.00000000000E+00 0. -1.
</event>
<event>
 6    1  0.3240171E-005  0.1702583E+03  0.7818608E-02  0.1296326E+00
          2   -1    0    0  502    0  0.00000000000E+00  0.00000000000E+00  0.71135898307E+02  0.71135898307E+02  0.00000000000E+00 0.  1.
          1   -1    0    0  501    0 -0.00000000000E+00 -0.00000000000E+00 -0.13197751422E+04  0.13197751422E+04  0.00000000000E+00 0. -1.
          2    1    1    2  501    0  0.18368186258E+02 -0.95003381483E+02 -0.95546005353E+02  0.13598555768E+03  0.00000000000E+00 0.  1.
          1    1    1    2  502    0 -0.65654630272E+02  0.60412159077E+02 -0.11036997786E+04  0.11073000319E+04  0.00000000000E+00 0. -1.
         22    1    1    2    0    0  0.47169956114E+02  0.49585197989E+02 -0.84919737748E+02  0.10906446937E+03  0.00000000000E+00 0. -1.
         22    1    1    2    0    0  0.11648790102E+00 -0.14993975583E+02  0.35526277860E+02  0.38560981468E+02  0.00000000000E+00 0.  1.
</event>
<event>
 6    1  0.3240171E-005  0.3464199E+03  0.7818608E-02  0.1179358E+00
          2   -1    0    0  502    0  0.00000000000E+00  0.00000000000E+00  0.16172423907E+03  0.16172423907E+03  0.00000000000E+00 0. -1.
          1   -1    0    0  501    0 -0.00000000000E+00 -0.00000000000E+00 -0.19464572635E+04  0.19464572635E+04  0.00000000000E+00 0. -1.
          2    1    1    2  501    0  0.11284627140E+03  0.91544069780E+02 -0.69916573582E+02  0.16125422457E+03  0.00000000000E+00 0. -1.
          1    1    1    2  502    0 -0.30249098204E+03 -0.12421263703E+03 -0.16843248238E+04  0.17157737862E+04  0.00000000000E+00 0. -1.
         22    1    1    2    0    0  0.20716973048E+03  0.24305823177E+02 -0.34224921178E+02  0.21137978971E+03  0.00000000000E+00 0. -1.
         22    1    1    2    0    0 -0.17525019844E+02  0.83627440782E+01  0.37332941137E+01  0.19773702081E+02  0.00000000000E+00 0. -1.
</event>
<event>
 6    1  0.3240171E-005  0.6105392E+02  0.7818608E-02  0.1407959E+00
          2   -1    0    0  502    0  0.00000000000E+00  0.00000000000E+00  0.30428580621E+03  0.30428580621E+03  0.00000000000E+00 0. -1.
          1   -1    0    0  501    0 -0.00000000000E+00 -0.00000000000E+00 -0.18041380293E+03  0.18041380293E+03  0.00000000000E+00 0. -1.
          2    1    1    2  501    0 -0.19370214886E+02  0.11540599132E+02 -0.14780996656E+03  0.14951982098E+03  0.00000000000E+00 0. -1.
          1    1    1    2  502    0  0.19190127370E+02  0.55264415121E+02  0.81592916599E+02  0.10039830978E+03  0.00000000000E+00 0. -1.
         22    1    1    2    0    0 -0.44812889979E+01 -0.18488089173E+02 -0.14874513051E+02  0.24148344268E+02  0.00000000000E+00 0. -1.
         22    1    1    2    0    0  0.46613765132E+01 -0.48316925079E+02  0.20496356629E+03  0.21063313412E+03  0.00000000000E+00 0. -1.
</event>
<event>
 6    1  0.3240171E-005  0.9784735E+02  0.7818608E-02  0.1370662E+00
          2   -1    0    0  502    0  0.00000000000E+00  0.00000000000E+00  0.44217262808E+02  0.44217262808E+02  0.00000000000E+00 0.  1.
          1   -1    0    0  501    0 -0.00000000000E+00 -0.00000000000E+00 -0.74631691286E+03  0.74631691286E+03  0.00000000000E+00 0.  1.
          2    1    1    2  501    0 -0.36661957361E+02  0.13894703865E+02 -0.45049374382E+03  0.45219661115E+03  0.00000000000E+00 0.  1.
          1    1    1    2  502    0  0.17475345637E+02  0.21145095348E+02 -0.19036807562E+03  0.19233436245E+03  0.00000000000E+00 0.  1.
         22    1    1    2    0    0 -0.12486168538E+02 -0.17489480690E+02  0.36175958209E+02  0.42077146907E+02  0.00000000000E+00 0.  1.
         22    1    1    2    0    0  0.31672780262E+02 -0.17550318523E+02 -0.97413788817E+02  0.10392605516E+03  0.00000000000E+00 0.  1.
</event>
<event>
 6    1  0.3240171E-005  0.1236973E+03  0.7818608E-02  0.1339050E+00
          2   -1    0    0  502    0  0.00000000000E+00  0.00000000000E+00  0.87895542449E+02  0.87895542449E+02  0.00000000000E+00 0. -1.
          1   -1    0    0  501    0 -0.00000000000E+00 -0.00000000000E+00 -0.16900893868E+04  0.16900893868E+04  0.00000000000E+00 0.  1.
          2    1    1    2  501    0 -0.40973295799E+02 -0.13163325454E+02 -0.86167196937E+01  0.43889998449E+02  0.00000000000E+00 0. -1.
          1    1    1    2  502    0  0.71387514958E+01  0.73168348907E+02 -0.15927194730E+04  0.15944152185E+04  0.00000000000E+00 0.  1.
         22    1    1    2    0    0  0.50066379658E+02 -0.68170784072E+02 -0.42197720269E+02  0.94522726204E+02  0.00000000000E+00 0. -1.
         22    1    1    2    0    0 -0.16231835355E+02  0.81657606186E+01  0.41340068625E+02  0.45156986164E+02  0.00000000000E+00 0. -1.
</event>
<event>
 6    1  0.3240171E-005  0.1195257E+03  0.7818608E-02  0.1245233E+00
          2   -1    0    0  502    0  0.00000000000E+00  0.00000000000E+00  0.35036084127E+03  0.35036084127E+03  0.00000000000E+00 0.  1.
          1   -1    0    0  501    0 -0.00000000000E+00 -0.00000000000E+00 -0.30523893955E+03  0.30523893955E+03  0.00000000000E+00 0. -1.
          2    1    1    2  501    0 -0.33340852179E+02 -0.86971527546E+02  0.15814738855E+03  0.18353815825E+03  0.00000000000E+00 0.  1.
          1    1    1    2  502    0  0.48491012573E+02  0.10458425249E+02 -0.26007540327E+03  0.26476399367E+03  0.00000000000E+00 0. -1.
         22    1    1    2    0    0 -0.18308636250E+02  0.10990422753E+03  0.10141070549E+03  0.15065947225E+03  0.00000000000E+00 0.  1.
         22    1    1    2    0    0  0.31584758559E+01 -0.33391125229E+02  0.45639210935E+02  0.56638156649E+02  0.00000000000E+00 0.  1.
</event>
<event>
 6    1  0.3240171E-005  0.2167435E+03  0.7818608E-02  0.1136732E+00
          2   -1    0    0  502    0  0.00000000000E+00  0.00000000000E+00  0.99610844156E+03  0.99610844156E+03  0.00000000000E+00 0.  1.
          1   -1    0    0  501    0 -0.00000000000E+00 -0.00000000000E+00 -0.16589622446E+03  0.16589622446E+03  0.00000000000E+00 0. -1.
          2    1    1    2  501    0  0.12015155778E+03 -0.19763615018E+03  0.29527718469E+03  0.37508007211E+03  0.00000000000E+00 0.  1.
          1    1    1    2  502    0 -0.14352414920E+03  0.43919841913E+01 -0.54466516399E+02  0.15357432187E+03  0.00000000000E+00 0. -1.
         22    1    1    2    0    0  0.10353882996E+02 -0.17516238460E+02  0.43210011147E+02  0.47761140755E+02  0.00000000000E+00 0. -1.
         22    1    1    2    0    0  0.13018708423E+02  0.21076040445E+03  0.54619153766E+03  0.58558913128E+03  0.00000000000E+00 0. -1.
</event>
<event>
 6    1  0.3240171E-005  0.1622551E+03  0.7818608E-02  0.1298447E+00
          2   -1    0    0  502    0  0.00000000000E+00  0.00000000000E+00  0.19132021959E+02  0.19132021959E+02  0.00000000000E+00 0.  1.
          1   -1    0    0  501    0 -0.00000000000E+00 -0.00000000000E+00 -0.18421427020E+04  0.18421427020E+04  0.00000000000E+00 0. -1.
          2    1    1    2  501    0 -0.49300965285E+02  0.70471061225E+02 -0.39498098428E+03  0.40423598750E+03  0.00000000000E+00 0.  1.
          1    1    1    2  502    0 -0.14696209462E+02 -0.41956684355E+02 -0.10938446743E+04  0.10947476939E+04  0.00000000000E+00 0. -1.
         22    1    1    2    0    0  0.57901606255E+02 -0.44016449347E+02 -0.33755007035E+03  0.34529710948E+03  0.00000000000E+00 0. -1.
         22    1    1    2    0    0  0.60955684928E+01  0.15502072478E+02  0.33650488680E+01  0.16993933042E+02  0.00000000000E+00 0.  1.
</event>
<event>
 6    1  0.3240171E-005  0.9975980E+02  0.7818608E-02  0.1409416E+00
          2   -1    0    0  502    0  0.00000000000E+00  0.00000000000E+00  0.53072779639E+02  0.53072779639E+02  0.00000000000E+00 0. -1.
          1   -1    0    0  501    0 -0.00000000000E+00 -0.00000000000E+00 -0.35697800526E+03  0.35697800526E+03  0.00000000000E+00 0. -1.
          2    1    1    2  501    0  0.22441846051E+02 -0.51178420982E+01 -0.24809230321E+02  0.33842675293E+02  0.00000000000E+00 0. -1.
          1    1    1    2  502    0 -0.43874506393E+02 -0.63727312168E+02 -0.18796364819E+03  0.20326454602E+03  0.00000000000E+00 0. -1.
         22    1    1    2    0    0  0.27702911036E+02  0.77732460264E+02 -0.11798027036E+03  0.14397614682E+03  0.00000000000E+00 0. -1.
         22    1    1    2    0    0 -0.62702506930E+01 -0.88873059980E+01  0.26847923247E+02  0.28967416770E+02  0.00000000000E+00 0. -1.
</event>
<event>
 6    1  0.3240171E-005  0.4749906E+02  0.7818608E-02  0.1526841E+00
          2   -1    0    0  502    0  0.00000000000E+00  0.00000000000E+00  0.27936756730E+03  0.27936756730E+03  0.00000000000E+00 0. -1.
          1   -1    0    0  501    0 -0.00000000000E+00 -0.00000000000E+00 -0.13479756828E+03  0.13479756828E+03  0.00000000000E+00 0. -1.
          2    1    1    2  501    0 -0.39316831042E+01  0.24741701757E+02 -0.89438052303E+02  0.92880434633E+02  0.00000000000E+00 0. -1.
          1    1    1    2  502    0 -0.12850773570E+02 -0.30247291042E+02  0.18822982201E+03  0.19107722756E+03  0.00000000000E+00 0. -1.
         22    1    1    2    0    0  0.51466792598E+01  0.20022483929E+02 -0.38608061417E+02  0.43794640955E+02  0.00000000000E+00 0. -1.
         22    1    1    2    0    0  0.11635777414E+02 -0.14516894644E+02  0.84386290725E+02  0.86412832429E+02  0.00000000000E+00 0. -1.
</event>
<event>
 6    1  0.3240171E-005  0.1850351E+03  0.7818608E-02  0.1168492E+00
          2   -1    0    0  502    0  0.00000000000E+00  0.00000000000E+00  0.32532017064E+03  0.32532017064E+03  0.00000000000E+00 0. -1.
          1   -1    0    0  501    0 -0.00000000000E+00 -0.00000000000E+00 -0.50658777448E+03  0.50658777448E+03  0.00000000000E+00 0. -1.
          2    1    1    2  501    0 -0.15427032803E+03  0.21852089912E+03  0.50002821540E+02  0.27212313320E+03  0.00000000000E+00 0. -1.
          1    1    1    2  502    0  0.14303000101E+02 -0.16331618054E+03 -0.30988530741E+03  0.35057902730E+03  0.00000000000E+00 0. -1.
         22    1    1    2    0    0  0.13320323978E+01  0.30720488549E+02  0.13567510391E+02  0.33609523430E+02  0.00000000000E+00 0. -1.
         22    1    1    2    0    0  0.13863529553E+03 -0.85925207129E+02  0.65047371634E+02  0.17559626119E+03  0.00000000000E+00 0. -1.
</event>
<event>
 6    1  0.3240171E-005  0.5273515E+02  0.7818608E-02  0.1504897E+00
          2   -1    0    0  502    0  0.00000000000E+00  0.00000000000E+00  0.66436283828E+02  0.66436283828E+02  0.00000000000E+00 0.  1.
          1   -1    0    0  501    0 -0.00000000000E+00 -0.00000000000E+00 -0.49225725584E+03  0.49225725584E+03  0.00000000000E+00 0.  1.
          2    1    1    2  501    0  0.12472353085E+02 -0.25931397088E+02 -0.11123652335E+03  0.11489804643E+03  0.00000000000E+00 0.  1.
          1    1    1    2  502    0 -0.21359268486E+02  0.23103751673E+02 -0.31521153885E+03  0.31677802309E+03  0.00000000000E+00 0.  1.
         22    1    1    2    0    0 -0.16693035432E+02 -0.74049704948E+01  0.59380537981E+02  0.62125190631E+02  0.00000000000E+00 0.  1.
         22    1    1    2    0    0  0.25579950832E+02  0.10232615910E+02 -0.58753447802E+02  0.64892279522E+02  0.00000000000E+00 0.  1.
</event>
<event>
 6    1  0.3240171E-005  0.7188182E+02  0.7818608E-02  0.1355732E+00
          2   -1    0    0  502    0  0.00000000000E+00  0.00000000000E+00  0.35918779438E+03  0.35918779438E+03  0.00000000000E+00 0. -1.
          1   -1    0    0  501    0 -0.00000000000E+00 -0.00000000000E+00 -0.11854318751E+03  0.11854318751E+03  0.00000000000E+00 0. -1.
          2    1    1    2  501    0 -0.25494017841E+01 -0.24598847131E+02  0.65706563869E+02  0.70206518679E+02  0.00000000000E+00 0. -1.
          1    1    1    2  502    0 -0.58013352981E+01  0.33075019045E+02 -0.99352308743E+02  0.10487370323E+03  0.00000000000E+00 0. -1.
         22    1    1    2    0    0 -0.20189536852E+00  0.47872568851E+02  0.42695893597E+02  0.64146417984E+02  0.00000000000E+00 0. -1.
         22    1    1    2    0    0  0.85526324507E+01 -0.56348740764E+02  0.23159445815E+03  0.23850434200E+03  0.00000000000E+00 0. -1.
</event>
<event>
 6    1  0.3240171E-005  0.1020146E+03  0.7818608E-02  0.1282009E+00
          2   -1    0    0  502    0  0.00000000000E+00  0.00000000000E+00  0.47059368251E+03  0.47059368251E+03  0.00000000000E+00 0. -1.
          1   -1    0    0  501    0 -0.00000000000E+00 -0.00000000000E+00 -0.34494934841E+03  0.34494934841E+03  0.00000000000E+00 0. -1.
          2    1    1    2  501    0 -0.43048285926E+02  0.65134051137E+02  0.88752133152E+02  0.11820550189E+03  0.00000000000E+00 0. -1.
          1    1    1    2  502    0  0.20228895999E+02 -0.19379655799E+02 -0.31737207367E+03  0.31860604583E+03  0.00000000000E+00 0. -1.
         22    1    1    2    0    0  0.13850769987E+02 -0.84861443137E+02  0.29413331910E+03  0.30644366165E+03  0.00000000000E+00 0. -1.
         22    1    1    2    0    0  0.89686199401E+01  0.39107047799E+02  0.60130955516E+02  0.72287821536E+02  0.00000000000E+00 0.  1.
</event>
<event>
 6    1  0.3240171E-005  0.1892480E+03  0.7818608E-02  0.1160257E+00
          2   -1    0    0  502    0  0.00000000000E+00  0.00000000000E+00  0.41343127747E+03  0.41343127747E+03  0.00000000000E+00 0. -1.
          1   -1    0    0  501    0 -0.00000000000E+00 -0.00000000000E+00 -0.26271195415E+03  0.26271195415E+03  0.00000000000E+00 0. -1.
          2    1    1    2  501    0 -0.54819672447E+02 -0.16471334528E+03  0.13493243491E+03  0.21986915334E+03  0.00000000000E+00 0. -1.
          1    1    1    2  502    0  0.20650549766E+02  0.96825604042E+01 -0.17693626779E+03  0.17840022433E+03  0.00000000000E+00 0. -1.
         22    1    1    2    0    0  0.34718995436E+02  0.17438350111E+03  0.15681055017E+03  0.23707501502E+03  0.00000000000E+00 0. -1.
         22    1    1    2    0    0 -0.54987275539E+00 -0.19352716230E+02  0.35912606033E+02  0.40798838925E+02  0.00000000000E+00 0.  1.
</event>
<event>
 6    1  0.3240171E-005  0.2054983E+03  0.7818608E-02  0.1234848E+00
          2   -1    0    0  502    0  0.00000000000E+00  0.00000000000E+00  0.93049342115E+03  0.93049342115E+03  0.00000000000E+00 0.  1.
          1   -1    0    0  501    0 -0.00000000000E+00 -0.00000000000E+00 -0.14295823201E+03  0.14295823201E+03  0.00000000000E+00 0.  1.
          2    1    1    2  501    0 -0.85953637710E+02  0.34694904185E+02  0.23498116041E+03  0.25260227623E+03  0.00000000000E+00 0.  1.
          1    1    1    2  502    0  0.17813479543E+03  0.40023975636E+00 -0.59776861861E+02  0.18789741549E+03  0.00000000000E+00 0.  1.
         22    1    1    2    0    0 -0.11743976730E+03 -0.47771332104E+02  0.55137010803E+03  0.56575895498E+03  0.00000000000E+00 0.  1.
         22    1    1    2    0    0  0.25258609585E+02  0.12676188163E+02  0.60960782569E+02  0.67193006451E+02  0.00000000000E+00 0.  1.
</event>
<event>
 6    1  0.3240171E-005  0.7923022E+02  0.7818608E-02  0.1333992E+00
          2   -1    0    0  502    0  0.00000000000E+00  0.00000000000E+00  0.22674075736E+03  0.22674075736E+03  0.00000000000E+00 0.  1.
          1   -1    0    0  501    0 -0.00000000000E+00 -0.00000000000E+00 -0.10674300077E+04  0.10674300077E+04  0.00000000000E+00 0. -1.
          2    1    1    2  501    0 -0.30241018339E+02 -0.89451424914E+01 -0.45750601030E+01  0.31866376313E+02  0.00000000000E+00 0.  1.
          1    1    1    2  502    0 -0.39196140915E+01  0.79133206193E+02 -0.10205819226E+04  0.10236527187E+04  0.00000000000E+00 0. -1.
         22    1    1    2    0    0 -0.36682587240E+02 -0.25091590686E+02  0.10787224139E+02  0.45733623675E+02  0.00000000000E+00 0.  1.
         22    1    1    2    0    0  0.70843219671E+02 -0.45096473016E+02  0.17368050828E+03  0.19291804635E+03  0.00000000000E+00 0.  1.
</event>
<event>
 6    1  0.3240171E-005  0.1882164E+03  0.7818608E-02  0.1231805E+00
          2   -1    0    0  502    0  0.00000000000E+00  0.00000000000E+00  0.60268717365E+03  0.60268717365E+03  0.00000000000E+00 0. -1.
          1   -1    0    0  501    0 -0.00000000000E+00 -0.00000000000E+00 -0.70017856627E+03  0.70017856627E+03  0.00000000000E+00 0. -1.
          2    1    1    2  501    0  0.42042066384E+02  0.82180056573E+02  0.18443081130E+03  0.20624214215E+03  0.00000000000E+00 0. -1.
          1    1    1    2  502    0 -0.51162574874E+02 -0.16520110282E+03 -0.66464351808E+03  0.68677508659E+03  0.00000000000E+00 0. -1.
         22    1    1    2    0    0  0.32798347315E+02 -0.21385037441E+02  0.89292027825E+02  0.97499321259E+02  0.00000000000E+00 0.  1.
         22    1    1    2    0    0 -0.23677838825E+02  0.10440608368E+03  0.29342928634E+03  0.31234918992E+03  0.00000000000E+00 0. -1.
</event>
<event>
 6    1  0.3240171E-005  0.1813928E+03  0.7818608E-02  0.1168038E+00
          2   -1    0    0  502    0  0.00000000000E+00  0.00000000000E+00  0.34925739526E+03  0.34925739526E+03  0.00000000000E+00 0.  1.
          1   -1    0    0  501    0 -0.00000000000E+00 -0.00000000000E+00 -0.29546516088E+03  0.29546516088E+03  0.00000000000E+00 0.  1.
          2    1    1    2  501    0 -0.18535612676E+03 -0.74569951637E+02 -0.18693195941E+03  0.27360761843E+03  0.00000000000E+00 0.  1.
          1    1    1    2  502    0  0.33410308198E+02  0.93174593569E+01 -0.17574343980E+02  0.38883432322E+02  0.00000000000E+00 0.  1.
         22    1    1    2    0    0  0.15367110353E+03  0.76645484090E+02  0.26723204493E+03  0.31765123033E+03  0.00000000000E+00 0. -1.
         22    1    1    2    0    0 -0.17252849638E+01 -0.11392991809E+02 -0.89335071669E+01  0.14580275062E+02  0.00000000000E+00 0. -1.
</event>
<event>
 6    1  0.3240171E-005  0.2033806E+03  0.7818608E-02  0.1253644E+00
          2   -1    0    0  502    0  0.00000000000E+00  0.00000000000E+00  0.42092664582E+02  0.42092664582E+02  0.00000000000E+00 0. -1.
          1   -1    0    0  501    0 -0.00000000000E+00 -0.00000000000E+00 -0.69241493663E+03  0.69241493663E+03  0.00000000000E+00 0. -1.
          2    1    1    2  501    0 -0.51270837248E+02 -0.63658265429E+02 -0.17881416065E+03  0.19661021733E+03  0.00000000000E+00 0. -1.
          1    1    1    2  502    0 -0.53711605059E+02  0.39727107773E+02 -0.27550279607E+03  0.28348716065E+03  0.00000000000E+00 0. -1.
         22    1    1    2    0    0  0.12429709260E+03  0.18919210502E+02 -0.19779830890E+03  0.23437549948E+03  0.00000000000E+00 0. -1.
         22    1    1    2    0    0 -0.19314650290E+02  0.50119471544E+01  0.17929935640E+01  0.20034723758E+02  0.00000000000E+00 0.  1.
</event>
<event>
 6    1  0.3240171E-005  0.1006593E+03  0.7818608E-02  0.1284533E+00
          2   -1    0    0  502    0  0.00000000000E+00  0.00000000000E+00  0.66908540574E+03  0.66908540574E+03  0.00000000000E+00 0. -1.
          1   -1    0    0  501    0 -0.00000000000E+00 -0.00000000000E+00 -0.22405575791E+03  0.22405575791E+03  0.00000000000E+00 0.  1.
          2    1    1    2  501    0 -0.67295319738E+02  0.37451598373E+02  0.15612250000E+03  0.17408479912E+03  0.00000000000E+00 0. -1.
          1    1    1    2  502    0  0.55769999228E+02 -0.31260966514E+01 -0.20321252407E+03  0.21074960316E+03  0.00000000000E+00 0.  1.
         22    1    1    2    0    0  0.60677288970E+02 -0.46630062706E+02  0.28827832884E+03  0.29826245326E+03  0.00000000000E+00 0.  1.
         22    1    1    2    0    0 -0.49151968461E+02  0.12304560985E+02  0.20384134306E+03  0.21004430810E+03  0.00000000000E+00 0.  1.
</event>
<event>
 6    1  0.3240171E-005  0.1434945E+03  0.7818608E-02  0.1212590E+00
          2   -1    0    0  502    0  0.00000000000E+00  0.00000000000E+00  0.10619913092E+03  0.10619913092E+03  0.00000000000E+00 0.  1.
          1   -1    0    0  501    0 -0.00000000000E+00 -0.00000000000E+00 -0.12895392474E+04  0.12895392474E+04  0.00000000000E+00 0.  1.
          2    1    1    2  501    0 -0.54126933298E+01 -0.11401808037E+03 -0.77456300532E+02  0.13794527318E+03  0.00000000000E+00 0.  1.
          1    1    1    2  502    0  0.64703116310E+02  0.11774513131E+02 -0.10842484753E+04  0.10862411743E+04  0.00000000000E+00 0.  1.
         22    1    1    2    0    0 -0.30829928623E+02  0.12771190403E+03 -0.10650096488E+02  0.13181137843E+03  0.00000000000E+00 0.  1.
         22    1    1    2    0    0 -0.28460494358E+02 -0.25468336791E+02 -0.10985244089E+02  0.39740552408E+02  0.00000000000E+00 0.  1.
</event>
<event>
 6    1  0.3240171E-005  0.2167842E+03  0.7818608E-02  0.1140837E+00
          2   -1    0    0  502    0  0.00000000000E+00  0.00000000000E+00  0.17602353217E+03  0.17602353217E+03  0.00000000000E+00 0.  1.
          1   -1    0    0  501    0 -0.00000000000E+00 -0.00000000000E+00 -0.18102290635E+04  0.18102290635E+04  0.00000000000E+00 0.  1.
          2    1    1    2  501    0  0.33416583976E+02  0.19668240667E+03 -0.46388178832E+02  0.20482309516E+03  0.00000000000E+00 0.  1.
          1    1    1    2  502    0 -0.52772449737E+01 -0.30353041856E+02 -0.15684384913E+04  0.15687410422E+04  0.00000000000E+00 0.  1.
         22    1    1    2    0    0 -0.12657567261E+02 -0.17965528061E+03 -0.39098810195E+02  0.18429582421E+03  0.00000000000E+00 0.  1.
         22    1    1    2    0    0 -0.15481771741E+02  0.13325915801E+02  0.19719948940E+02  0.28392634157E+02  0.00000000000E+00 0.  1.
</event>
<event>
 6    1  0.3240171E-005  0.1992305E+03  0.7818608E-02  0.1177073E+00
          2   -1    0    0  502    0  0.00000000000E+00  0.00000000000E+00  0.15811834013E+03  0.15811834013E+03  0.00000000000E+00 0. -1.
          1   -1    0    0  501    0 -0.00000000000E+00 -0.00000000000E+00 -0.19009485648E+04  0.19009485648E+04  0.00000000000E+00 0. -1.
          2    1    1    2  501    0  0.11368693436E+03 -0.11192160342E+03 -0.26475134560E+02  0.16171610033E+03  0.00000000000E+00 0. -1.
          1    1    1    2  502    0 -0.13045939504E+03  0.31723641085E+01 -0.17271430233E+04  0.17320660324E+04  0.00000000000E+00 0. -1.
         22    1    1    2    0    0  0.46402238214E+02  0.96948075016E+02  0.46758500315E+02  0.11721115268E+03  0.00000000000E+00 0. -1.
         22    1    1    2    0    0 -0.29629777529E+02  0.11801164298E+02 -0.35970567165E+02  0.48073619558E+02  0.00000000000E+00 0.  1.
</event>
<event>
 6    1  0.3240171E-005  0.8260704E+02  0.7818608E-02  0.1348401E+00
          2   -1    0    0  502    0  0.00000000000E+00  0.00000000000E+00  0.58881251353E+03  0.58881251353E+03  0.00000000000E+00 0.  1.
          1   -1    0    0  501    0 -0.00000000000E+00 -0.00000000000E+00 -0.20628560713E+02  0.20628560713E+02  0.00000000000E+00 0.  1.
          2    1    1    2  501    0 -0.23623098173E+01  0.26033306540E+02  0.67720058371E+02  0.72590081022E+02  0.00000000000E+00 0.  1.
          1    1    1    2  502    0 -0.90513536021E+01 -0.52840310024E+02  0.21941523493E+03  0.22586958778E+03  0.00000000000E+00 0.  1.
         22    1    1    2    0    0  0.38676563218E+02  0.71006442165E+02  0.16025837388E+03  0.17950080158E+03  0.00000000000E+00 0.  1.
         22    1    1    2    0    0 -0.27262899799E+02 -0.44199438682E+02  0.12079028565E+03  0.13148060386E+03  0.00000000000E+00 0.  1.
</event>
<event>
 6    1  0.3240171E-005  0.9426667E+02  0.7818608E-02  0.1294294E+00
          2   -1    0    0  502    0  0.00000000000E+00  0.00000000000E+00  0.10071042667E+03  0.10071042667E+03  0.00000000000E+00 0. -1.
          1   -1    0    0  501    0 -0.00000000000E+00 -0.00000000000E+00 -0.30825206555E+03  0.30825206555E+03  0.00000000000E+00 0. -1.
          2    1    1    2  501    0  0.63818742068E+02  0.10794516443E+02 -0.44479760087E+02  0.78535358163E+02  0.00000000000E+00 0. -1.
          1    1    1    2  502    0 -0.14728749153E+02  0.49991097480E+02 -0.17813059080E+03  0.18559782665E+03  0.00000000000E+00 0. -1.
         22    1    1    2    0    0  0.30215986270E+02 -0.93000349900E+01 -0.26777009077E+02  0.41430721599E+02  0.00000000000E+00 0.  1.
         22    1    1    2    0    0 -0.79305979186E+02 -0.51485578932E+02  0.41845721082E+02  0.10339858580E+03  0.00000000000E+00 0. -1.
</event>
<event>
 6    1  0.3240171E-005  0.8468505E+02  0.7818608E-02  0.1344591E+00
          2   -1    0    0  502    0  0.00000000000E+00  0.00000000000E+00  0.29177543992E+03  0.29177543992E+03  0.00000000000E+00 0.  1.
          1   -1    0    0  501    0 -0.00000000000E+00 -0.00000000000E+00 -0.16084070410E+03  0.16084070410E+03  0.00000000000E+00 0.  1.
          2    1    1    2  501    0  0.31291488744E+02 -0.28959913460E+02  0.50703167281E+02  0.66246849192E+02  0.00000000000E+00 0.  1.
          1    1    1    2  502    0 -0.65903832912E+02  0.31102632137E+02 -0.12357557286E+03  0.14346292596E+03  0.00000000000E+00 0.  1.
         22    1    1    2    0    0  0.42477803198E+01  0.51281176894E+02  0.32376895320E+02  0.60795280177E+02  0.00000000000E+00 0.  1.
         22    1    1    2    0    0  0.30364563848E+02 -0.53423895570E+02  0.17143024607E+03  0.18211108869E+03  0.00000000000E+00 0.  1.
</event>
<event>
 6    1  0.3240171E-005  0.8965869E+02  0.7818608E-02  0.1377315E+00
          2   -1    0    0  502    0  0.00000000000E+00  0.00000000000E+00  0.16487887083E+04  0.16487887083E+04  0.00000000000E+00 0. -1.
          1   -1    0    0  501    0 -0.00000000000E+00 -0.00000000000E+00 -0.77032010031E+02  0.77032010031E+02  0.00000000000E+00 0. -1.
          2    1    1    2  501    0 -0.25194821224E+02 -0.62754375049E+02 -0.26771963189E+02  0.72729833063E+02  0.00000000000E+00 0. -1.
          1    1    1    2  502    0  0.20425734781E+02  0.99280334935E+02  0.14688979972E+04  0.14723909541E+04  0.00000000000E+00 0. -1.
         22    1    1    2    0    0 -0.94028385120E+01 -0.23201904495E+02  0.15026862677E+03  0.15233975822E+03  0.00000000000E+00 0. -1.
         22    1    1    2    0    0  0.14171924956E+02 -0.13324055391E+02 -0.20637962548E+02  0.28360172904E+02  0.00000000000E+00 0. -1.
</event>
<event>
 6    1  0.3240171E-005  0.4611234E+02  0.7818608E-02  0.1493513E+00
          2   -1    0    0  502    0  0.00000000000E+00  0.00000000000E+00  0.31243227293E+03  0.31243227293E+03  0.00000000000E+00 0. -1.
          1   -1    0    0  501    0 -0.00000000000E+00 -0.00000000000E+00 -0.23560512128E+03  0.23560512128E+03  0.00000000000E+00 0.  1.
          2    1    1    2  501    0 -0.17900480372E+02  0.16252414724E+02  0.54062828731E+02  0.59222948528E+02  0.00000000000E+00 0. -1.
          1    1    1    2  502    0  0.28922584421E+02 -0.17029364035E+02 -0.21735568722E+03  0.21993183011E+03  0.00000000000E+00 0.  1.
         22    1    1    2    0    0  0.29733254253E+02 -0.11681937282E+02  0.80668999921E+01  0.32948580282E+02  0.00000000000E+00 0. -1.
         22    1    1    2    0    0 -0.40755358301E+02  0.12458886594E+02  0.23205311014E+03  0.23593403530E+03  0.00000000000E+00 0. -1.
</event>
<event>
 6    1  0.3240171E-005  0.1104496E+03  0.7818608E-02  0.1326229E+00
          2   -1    0    0  502    0  0.00000000000E+00  0.00000000000E+00  0.10686282734E+03  0.10686282734E+03  0.00000000000E+00 0. -1.
          1   -1    0    0  501    0 -0.00000000000E+00 -0.00000000000E+00 -0.22172648656E+03  0.22172648656E+03  0.00000000000E+00 0. -1.
          2    1    1    2  501    0  0.66681126792E+02  0.45117953259E+02 -0.66683303061E+02  0.10454025676E+03  0.00000000000E+00 0. -1.
          1    1    1    2  502    0 -0.65809640120E+02 -0.68497861043E+02 -0.29361248112E+02  0.99423078763E+02  0.00000000000E+00 0. -1.
         22    1    1    2    0    0  0.29038895160E+02  0.12138040712E+02 -0.62810300716E+02  0.70254703334E+02  0.00000000000E+00 0. -1.
         22    1    1    2    0    0 -0.29910381832E+02  0.11241867072E+02  0.43991192674E+02  0.54371275040E+02  0.00000000000E+00 0. -1.
</event>
<event>
 6    1  0.3240171E-005  0.7522201E+02  0.7818608E-02  0.1373341E+00
          2   -1    0    0  502    0  0.00000000000E+00  0.00000000000E+00  0.22826756414E+03  0.22826756414E+03  0.00000000000E+00 0. -1.
          1   -1    0    0  501    0 -0.00000000000E+00 -0.00000000000E+00 -0.14079267507E+03  0.14079267507E+03  0.00000000000E+00 0. -1.
          2    1    1    2  501    0 -0.56218925891E+02 -0.28619158733E+02  0.40362006622E+02  0.74891357668E+02  0.00000000000E+00 0. -1.
          1    1    1    2  502    0  0.58723434491E+02  0.24887828289E+02 -0.90061511262E+02  0.11035815134E+03  0.00000000000E+00 0. -1.
         22    1    1    2    0    0 -0.47234182880E+02 -0.31219847119E+01  0.94020736829E+01  0.48261929203E+02  0.00000000000E+00 0. -1.
         22    1    1    2    0    0  0.44729674279E+02  0.68533151557E+01  0.12777232002E+03  0.13554880101E+03  0.00000000000E+00 0. -1.
</event>
<event>
 6    1  0.3240171E-005  0.7128498E+02  0.7818608E-02  0.1361955E+00
          2   -1    0    0  502    0  0.00000000000E+00  0.00000000000E+00  0.31310464080E+03  0.31310464080E+03  0.00000000000E+00 0.  1.
          1   -1    0    0  501    0 -0.00000000000E+00 -0.00000000000E+00 -0.41713604791E+03  0.41713604791E+03  0.00000000000E+00 0. -1.
          2    1    1    2  501    0 -0.18073567199E+02  0.42459655861E+02  0.14143387445E+03  0.14877169438E+03  0.00000000000E+00 0.  1.
          1    1    1    2  502    0 -0.90900482658E+01 -0.21122336598E+02 -0.38668026015E+03  0.38736340259E+03  0.00000000000E+00 0. -1.
         22    1    1    2    0    0  0.49023648546E+02 -0.31359362262E+02  0.80064183162E+01  0.58743769478E+02  0.00000000000E+00 0.  1.
         22    1    1    2    0    0 -0.21860033081E+02  0.10022042999E+02  0.13320856028E+03  0.13536182225E+03  0.00000000000E+00 0.  1.
</event>
<event>
 6    1  0.3240171E-005  0.2895297E+03  0.7818608E-02  0.1199222E+00
          2   -1    0    0  502    0  0.00000000000E+00  0.00000000000E+00  0.32804843163E+03  0.32804843163E+03  0.00000000000E+00 0.  1.
          1   -1    0    0  501    0 -0.00000000000E+00 -0.00000000000E+00 -0.33897832967E+03  0.33897832967E+03  0.00000000000E+00 0.  1.
          2    1    1    2  501    0 -0.52022720310E+02 -0.97508664706E+02 -0.40148433376E+02  0.11758486222E+03  0.00000000000E+00 0.  1.
          1    1    1    2  502    0  0.70301865594E+02  0.28130868840E+03  0.11223075427E+03  0.31092229364E+03  0.00000000000E+00 0.  1.
         22    1    1    2    0    0 -0.18586775829E+02 -0.10673608834E+02  0.26180227743E+02  0.33834870858E+02  0.00000000000E+00 0. -1.
         22    1    1    2    0    0  0.30763054538E+00 -0.17312641486E+03 -0.10919244668E+03  0.20468473458E+03  0.00000000000E+00 0.  1.
</event>
<event>
 6    1  0.3240171E-005  0.7231807E+02  0.7818608E-02  0.1462002E+00
          2   -1    0    0  502    0  0.00000000000E+00  0.00000000000E+00  0.30013458467E+02  0.30013458467E+02  0.00000000000E+00 0. -1.
          1   -1    0    0  501    0 -0.00000000000E+00 -0.00000000000E+00 -0.12405783403E+04  0.12405783403E+04  0.00000000000E+00 0.  1.
          2    1    1    2  501    0  0.10106983492E+02 -0.37152866948E+02 -0.23568492559E+03  0.23880927702E+03  0.00000000000E+00 0. -1.
          1    1    1    2  502    0 -0.80014672214E+01  0.75148096530E+02 -0.84595053656E+03  0.84931947475E+03  0.00000000000E+00 0.  1.
         22    1    1    2    0    0 -0.57571852368E+01 -0.25576810707E+02 -0.15294795143E+03  0.15517858832E+03  0.00000000000E+00 0.  1.
         22    1    1    2    0    0  0.36516689665E+01 -0.12418418876E+02  0.24018531789E+02  0.27284458633E+02  0.00000000000E+00 0. -1.
</event>
<event>
 6    1  0.3240171E-005  0.1770785E+03  0.7818608E-02  0.1193243E+00
          2   -1    0    0  502    0  0.00000000000E+00  0.00000000000E+00  0.97928148485E+02  0.97928148485E+02  0.00000000000E+00 0.  1.
          1   -1    0    0  501    0 -0.00000000000E+00 -0.00000000000E+00 -0.57565944689E+03  0.57565944689E+03  0.00000000000E+00 0.  1.
          2    1    1    2  501    0 -0.39370485761E+02  0.11611143929E+03 -0.12525587042E+03  0.17527388442E+03  0.00000000000E+00 0.  1.
          1    1    1    2  502    0  0.13365166953E+03 -0.13824169474E+03 -0.20491900213E+03  0.28100770873E+03  0.00000000000E+00 0.  1.
         22    1    1    2    0    0 -0.10305191649E+03 -0.27910965598E+02 -0.83446116667E+02  0.13550636103E+03  0.00000000000E+00 0.  1.
         22    1    1    2    0    0  0.87707327307E+01  0.50041221038E+02 -0.64110309185E+02  0.81799641193E+02  0.00000000000E+00 0.  1.
</event>
<event>
 6    1  0.3240171E-005  0.6998299E+02  0.7818608E-02  0.1383475E+00
          2   -1    0    0  502    0  0.00000000000E+00  0.00000000000E+00  0.55484810910E+02  0.55484810910E+02  0.00000000000E+00 0.  1.
          1   -1    0    0  501    0 -0.00000000000E+00 -0.00000000000E+00 -0.30737068531E+03  0.30737068531E+03  0.00000000000E+00 0.  1.
          2    1    1    2  501    0  0.41853992280E+02 -0.25241902268E+02 -0.85733898483E+02  0.98687444232E+02  0.00000000000E+00 0.  1.
          1    1    1    2  502    0 -0.29889385292E+02  0.55856811526E+02 -0.10204188717E+03  0.12010789102E+03  0.00000000000E+00 0.  1.
         22    1    1    2    0    0 -0.31556430828E+02 -0.35655306433E+02  0.24236042145E+02  0.53427473665E+02  0.00000000000E+00 0.  1.
         22    1    1    2    0    0  0.19591823840E+02  0.50403971748E+01 -0.88346130886E+02  0.90632687302E+02  0.00000000000E+00 0.  1.
</event>
<event>
 6    1  0.3240171E-005  0.1070205E+03  0.7818608E-02  0.1299690E+00
          2   -1    0    0  502    0  0.00000000000E+00  0.00000000000E+00  0.37273303657E+03  0.37273303657E+03  0.00000000000E+00 0.  1.
          1   -1    0    0  501    0 -0.00000000000E+00 -0.00000000000E+00 -0.61083641841E+02  0.61083641841E+02  0.00000000000E+00 0.  1.
          2    1    1    2  501    0 -0.38108782177E+02  0.98601257292E+01  0.86804946438E+02  0.95313168473E+02  0.00000000000E+00 0.  1.
          1    1    1    2  502    0  0.19384594820E+02 -0.56907534664E+01 -0.40029809962E+02  0.44838966056E+02  0.00000000000E+00 0.  1.
         22    1    1    2    0    0  0.49974241707E+02  0.45213549154E+02  0.15985856432E+03  0.17348328578E+03  0.00000000000E+00 0.  1.
         22    1    1    2    0    0 -0.31250054350E+02 -0.49382921417E+02  0.10501569394E+03  0.12018125810E+03  0.00000000000E+00 0. -1.
</event>
<event>
 6    1  0.3240171E-005  0.5978123E+02  0.7818608E-02  0.1409729E+00
          2   -1    0    0  502    0  0.00000000000E+00  0.00000000000E+00  0.20077339719E+03  0.20077339719E+03  0.00000000000E+00 0.  1.
          1   -1    0    0  501    0 -0.00000000000E+00 -0.00000000000E+00 -0.84071348424E+02  0.84071348424E+02  0.00000000000E+00 0.  1.
          2    1    1    2  501    0  0.25914784921E+02  0.12136189267E+02 -0.26270169802E+02  0.38845655984E+02  0.00000000000E+00 0.  1.
          1    1    1    2  502    0 -0.37635229665E+02 -0.45286437834E+02  0.14341225538E+02  0.60604807677E+02  0.00000000000E+00 0.  1.
         22    1    1    2    0    0 -0.18678097674E+02  0.46699667113E+02  0.14114434431E+03  0.14983809987E+03  0.00000000000E+00 0. -1.
         22    1    1    2    0    0  0.30398542418E+02 -0.13549418546E+02 -0.12513351282E+02  0.35556182084E+02  0.00000000000E+00 0.  1.
</event>
<event>
 6    1  0.3240171E-005  0.1102708E+03  0.7818608E-02  0.1275802E+00
          2   -1    0    0  502    0  0.00000000000E+00  0.00000000000E+00  0.45417910004E+03  0.45417910004E+03  0.00000000000E+00 0. -1.
          1   -1    0    0  501    0 -0.00000000000E+00 -0.00000000000E+00 -0.43666474997E+03  0.43666474997E+03  0.00000000000E+00 0.  1.
          2    1    1    2  501    0  0.40428888933E+02  0.21683420595E+02  0.40101235332E+02  0.60932543556E+02  0.00000000000E+00 0. -1.
          1    1    1    2  502    0 -0.23867436215E+02 -0.14539254978E+02 -0.41516419842E+03  0.41610378044E+03  0.00000000000E+00 0.  1.
         22    1    1    2    0    0  0.41289868745E+02  0.34502530812E+02  0.23135374690E+03  0.23752859638E+03  0.00000000000E+00 0. -1.
         22    1    1    2    0    0 -0.57851321463E+02 -0.41646696429E+02  0.16122356626E+03  0.17627892964E+03  0.00000000000E+00 0. -1.
</event>
<event>
 6    1  0.3240171E-005  0.1261484E+03  0.7818608E-02  0.1256968E+00
          2   -1    0    0  502    0  0.00000000000E+00  0.00000000000E+00  0.41525207278E+02  0.41525207278E+02  0.00000000000E+00 0. -1.
          1   -1    0    0  501    0 -0.00000000000E+00 -0.00000000000E+00 -0.54653223796E+03  0.54653223796E+03  0.00000000000E+00 0. -1.
          2    1    1    2  501    0 -0.54793673611E+02 -0.25409847197E+02 -0.11662370018E+03  0.13133580793E+03  0.00000000000E+00 0. -1.
          1    1    1    2  502    0  0.72656093999E+01  0.25949262411E+02 -0.28421412463E+03  0.28548874223E+03  0.00000000000E+00 0. -1.
         22    1    1    2    0    0  0.13102124279E+02 -0.60640935270E+02 -0.27356067509E+02  0.67803710227E+02  0.00000000000E+00 0. -1.
         22    1    1    2    0    0  0.34425939933E+02  0.60101520056E+02 -0.76813138367E+02  0.10342918485E+03  0.00000000000E+00 0. -1.
</event>
<event>
 6    1  0.3240171E-005  0.5531074E+02  0.7818608E-02  0.1496413E+00
          2   -1    0    0  502    0  0.00000000000E+00  0.00000000000E+00  0.12025282280E+03  0.12025282280E+03  0.00000000000E+00 0. -1.
          1   -1    0    0  501    0 -0.00000000000E+00 -0.00000000000E+00 -0.10245410015E+04  0.10245410015E+04  0.00000000000E+00 0.  1.
          2    1    1    2  501    0 -0.22428827455E+02 -0.24187153244E+02 -0.23927179650E+02  0.40750222197E+02  0.00000000000E+00 0. -1.
          1    1    1    2  502    0  0.49498994266E+02  0.10338519994E+02 -0.95675527464E+03  0.95809064862E+03  0.00000000000E+00 0.  1.
         22    1    1    2    0    0  0.22221402793E+01  0.17643549965E+02  0.10400863060E+03  0.10551790371E+03  0.00000000000E+00 0. -1.
         22    1    1    2    0    0 -0.29292307090E+02 -0.37949167141E+01 -0.27614355017E+02  0.40435049777E+02  0.00000000000E+00 0. -1.
</event>
<event>
 6    1  0.3240171E-005  0.1467830E+03  0.7818608E-02  0.1287219E+00
          2   -1    0    0  502    0  0.00000000000E+00  0.00000000000E+00  0.44800421569E+02  0.44800421569E+02  0.00000000000E+00 0.  1.
          1   -1    0    0  501    0 -0.00000000000E+00 -0.00000000000E+00 -0.56600420098E+03  0.56600420098E+03  0.00000000000E+00 0.  1.
          2    1    1    2  501    0 -0.37389949649E+02 -0.43463674088E+02 -0.18969638955E+03  0.19817118739E+03  0.00000000000E+00 0.  1.
          1    1    1    2  502    0 -0.37092820979E+02  0.25998426649E+02 -0.22831148982E+03  0.23276153450E+03  0.00000000000E+00 0.  1.
         22    1    1    2    0    0  0.87113590522E+02 -0.72318853370E+01 -0.11922307152E+03  0.14783510612E+03  0.00000000000E+00 0.  1.
         22    1    1    2    0    0 -0.12630819895E+02  0.24697132776E+02  0.16027171489E+02  0.32036794541E+02  0.00000000000E+00 0.  1.
</event>
<event>
 6    1  0.3240171E-005  0.8180754E+02  0.7818608E-02  0.1421550E+00
          2   -1    0    0  502    0  0.00000000000E+00  0.00000000000E+00  0.30206203407E+02  0.30206203407E+02  0.00000000000E+00 0.  1.
          1   -1    0    0  501    0 -0.00000000000E+00 -0.00000000000E+00 -0.84234298965E+03  0.84234298965E+03  0.00000000000E+00 0.  1.
          2    1    1    2  501    0 -0.94821302525E+01 -0.26550931344E+02 -0.51440985703E+03  0.51518187445E+03  0.00000000000E+00 0.  1.
          1    1    1    2  502    0  0.32758951431E+02  0.42804849320E+02 -0.36404065906E+02  0.65043524187E+02  0.00000000000E+00 0.  1.
         22    1    1    2    0    0  0.12394992033E+02  0.10655111616E+02  0.87771222148E+01  0.18552765439E+02  0.00000000000E+00 0.  1.
         22    1    1    2    0    0 -0.35671813212E+02 -0.26909029592E+02 -0.27009998552E+03  0.27377102898E+03  0.00000000000E+00 0.  1.
</event>
<event>
 6    1  0.3240171E-005  0.1219832E+03  0.7818608E-02  0.1294016E+00
          2   -1    0    0  502    0  0.00000000000E+00  0.00000000000E+00  0.21241625322E+03  0.21241625322E+03  0.00000000000E+00 0. -1.
          1   -1    0    0  501    0 -0.00000000000E+00 -0.00000000000E+00 -0.24720186032E+03  0.24720186032E+03  0.00000000000E+00 0. -1.
          2    1    1    2  501    0 -0.22696932982E+01 -0.72821549149E+02 -0.18072327846E+03  0.19485644178E+03  0.00000000000E+00 0. -1.
          1    1    1    2  502    0 -0.18268106090E+02  0.39050340676E+02 -0.24050084251E+02  0.49366581403E+02  0.00000000000E+00 0. -1.
         22    1    1    2    0    0 -0.14276724891E+02  0.40092453226E+02  0.17460004502E+03  0.17971200683E+03  0.00000000000E+00 0. -1.
         22    1    1    2    0    0  0.34814524279E+02 -0.63212447526E+01 -0.46122894109E+01  0.35683083521E+02  0.00000000000E+00 0. -1.
</event>
<event>
 6    1  0.3240171E-005  0.1635076E+03  0.7818608E-02  0.1218680E+00
          2   -1    0    0  502    0  0.00000000000E+00  0.00000000000E+00  0.94240695487E+03  0.94240695487E+03  0.00000000000E+00 0. -1.
          1   -1    0    0  501    0 -0.00000000000E+00 -0.00000000000E+00 -0.83268829012E+03  0.83268829012E+03  0.00000000000E+00 0. -1.
          2    1    1    2  501    0  0.61332275791E+02  0.12376712929E+03  0.64768349440E+03  0.66224909156E+03  0.00000000000E+00 0. -1.
          1    1    1    2  502    0 -0.15612223275E+01 -0.10699352625E+03 -0.80380419027E+03  0.81089532516E+03  0.00000000000E+00 0. -1.
         22    1    1    2    0    0 -0.31577802049E+02  0.56470762746E+02  0.11853266893E+03  0.13504109830E+03  0.00000000000E+00 0. -1.
         22    1    1    2    0    0 -0.28193251415E+02 -0.73244365780E+02  0.14730669169E+03  0.16690972997E+03  0.00000000000E+00 0. -1.
</event>
<event>
 6    1  0.3240171E-005  0.8576726E+02  0.7818608E-02  0.1348001E+00
          2   -1    0    0  502    0  0.00000000000E+00  0.00000000000E+00  0.87975333762E+02  0.87975333762E+02  0.00000000000E+00 0.  1.
          1   -1    0    0  501    0 -0.00000000000E+00 -0.00000000000E+00 -0.15080717816E+04  0.15080717816E+04  0.00000000000E+00 0.  1.
          2    1    1    2  501    0 -0.27904444377E+02  0.23320645171E+02 -0.13321699171E+03  0.13809155437E+03  0.00000000000E+00 0.  1.
          1    1    1    2  502    0  0.34334634312E+02 -0.23544560540E+02 -0.13255717829E+04  0.13262253824E+04  0.00000000000E+00 0.  1.
         22    1    1    2    0    0  0.17236218073E+02 -0.41907508403E+02  0.63026828219E+02  0.77625431074E+02  0.00000000000E+00 0.  1.
         22    1    1    2    0    0 -0.23666408008E+02  0.42131423771E+02 -0.24334501431E+02  0.54104747452E+02  0.00000000000E+00 0.  1.
</event>
<event>
 6    1  0.3240171E-005  0.3014538E+03  0.7818608E-02  0.1176231E+00
          2   -1    0    0  502    0  0.00000000000E+00  0.00000000000E+00  0.70413658067E+02  0.70413658067E+02  0.00000000000E+00 0. -1.
          1   -1    0    0  501    0 -0.00000000000E+00 -0.00000000000E+00 -0.19480008364E+04  0.19480008364E+04  0.00000000000E+00 0. -1.
          2    1    1    2  501    0 -0.13835388352E+03  0.16510654304E+03 -0.12773542280E+04  0.12953902082E+04  0.00000000000E+00 0. -1.
          1    1    1    2  502    0  0.18309331870E+03 -0.19016615247E+03 -0.37357275525E+03  0.45743079516E+03  0.00000000000E+00 0. -1.
         22    1    1    2    0    0 -0.74678551948E+02  0.14878935640E+02 -0.22063038144E+03  0.23340101556E+03  0.00000000000E+00 0. -1.
         22    1    1    2    0    0  0.29939116765E+02  0.10180673783E+02 -0.60298136438E+01  0.32192475579E+02  0.00000000000E+00 0. -1.
</event>
<event>
 6    1  0.3240171E-005  0.9046829E+02  0.7818608E-02  0.1303046E+00
          2   -1    0    0  502    0  0.00000000000E+00  0.00000000000E+00  0.78949518947E+02  0.78949518947E+02  0.00000000000E+00 0.  1.
          1   -1    0    0  501    0 -0.00000000000E+00 -0.00000000000E+00 -0.21904739848E+03  0.21904739848E+03  0.00000000000E+00 0. -1.
          2    1    1    2  501    0 -0.45313515410E+02  0.45754161890E+02  0.90756257812E+01  0.65031722969E+02  0.00000000000E+00 0.  1.
          1    1    1    2  502    0  0.19320371514E+02  0.83043792387E+01 -0.75076126614E+02  0.77965789019E+02  0.00000000000E+00 0. -1.
         22    1    1    2    0    0  0.44786062316E+02 -0.71620332551E+02 -0.91046074958E+02  0.12419601917E+03  0.00000000000E+00 0. -1.
         22    1    1    2    0    0 -0.18792918420E+02  0.17561791422E+02  0.16948696258E+02  0.30803386268E+02  0.00000000000E+00 0.  1.
</event>
<event>
 6    1  0.3240171E-005  0.1058086E+03  0.7818608E-02  0.1273759E+00
          2   -1    0    0  502    0  0.00000000000E+00  0.00000000000E+00  0.84313160829E+03  0.84313160829E+03  0.00000000000E+00 0.  1.
          1   -1    0    0  501    0 -0.00000000000E+00 -0.00000000000E+00 -0.99943329258E+02  0.99943329258E+02  0.00000000000E+00 0.  1.
          2    1    1    2  501    0  0.41427206761E+02  0.39595056393E+02  0.30470154285E+03  0.31004356495E+03  0.00000000000E+00 0.  1.
          1    1    1    2  502    0  0.10291611648E+02  0.28382184588E+02 -0.83659471551E+02  0.88940276885E+02  0.00000000000E+00 0.  1.
         22    1    1    2    0    0 -0.45747674517E+02 -0.10520737563E+03  0.37239646753E+03  0.38966725631E+03  0.00000000000E+00 0.  1.
         22    1    1    2    0    0 -0.59711438927E+01  0.37230134653E+02  0.14974974021E+03  0.15442383941E+03  0.00000000000E+00 0. -1.
</event>
<event>
 6    1  0.3240171E-005  0.1472390E+03  0.7818608E-02  0.1295718E+00
          2   -1    0    0  502    0  0.00000000000E+00  0.00000000000E+00  0.12325659589E+03  0.12325659589E+03  0.00000000000E+00 0. -1.
          1   -1    0    0  501    0 -0.00000000000E+00 -0.00000000000E+00 -0.32031453453E+03  0.32031453453E+03  0.00000000000E+00 0. -1.
          2    1    1    2  501    0  0.82961303215E+02 -0.23909193038E+02 -0.12803620688E+03  0.15442635013E+03  0.00000000000E+00 0. -1.
          1    1    1    2  502    0 -0.10602785833E+03  0.78055867803E+02 -0.65286622705E+02  0.14695907030E+03  0.00000000000E+00 0. -1.
         22    1    1    2    0    0 -0.21667400401E+02 -0.89593680240E+01  0.52375074452E+02  0.57383751528E+02  0.00000000000E+00 0. -1.
         22    1    1    2    0    0  0.44733955515E+02 -0.45187306740E+02 -0.56110183504E+02  0.84801958464E+02  0.00000000000E+00 0. -1.
</event>
<event>
 6    1  0.3240171E-005  0.1683052E+03  0.7818608E-02  0.1227615E+00
          2   -1    0    0  502    0  0.00000000000E+00  0.00000000000E+00  0.28200345750E+03  0.28200345750E+03  0.00000000000E+00 0. -1.
          1   -1    0    0  501    0 -0.00000000000E+00 -0.00000000000E+00 -0.15583843266E+04  0.15583843266E+04  0.00000000000E+00 0. -1.
          2    1    1    2  501    0  0.26362128011E+02 -0.17514033856E+02 -0.28268013966E+02  0.42435642905E+02  0.00000000000E+00 0. -1.
          1    1    1    2  502    0 -0.30791217339E+02 -0.11898853740E+02 -0.15077536662E+04  0.15081149823E+04  0.00000000000E+00 0. -1.
         22    1    1    2    0    0 -0.59939689237E+02  0.21134477367E+02  0.13922774781E+03  0.15304835262E+03  0.00000000000E+00 0. -1.
         22    1    1    2    0    0  0.64368778565E+02  0.82784102296E+01  0.12041306325E+03  0.13678880631E+03  0.00000000000E+00 0.  1.
</event>
<event>
 6    1  0.3240171E-005  0.7967245E+02  0.7818608E-02  0.1364265E+00
          2   -1    0    0  502    0  0.00000000000E+00  0.00000000000E+00  0.22789421481E+02  0.22789421481E+02  0.00000000000E+00 0. -1.
          1   -1    0    0  501    0 -0.00000000000E+00 -0.00000000000E+00 -0.49034463785E+03  0.49034463785E+03  0.00000000000E+00 0. -1.
          2    1    1    2  501    0  0.27689383980E+02 -0.82878612110E+01 -0.15175206374E+03  0.15448002938E+03  0.00000000000E+00 0. -1.
          1    1    1    2  502    0 -0.12140533955E+02  0.15991636600E+02 -0.15420533231E+03  0.15550694364E+03  0.00000000000E+00 0. -1.
         22    1    1    2    0    0  0.82011592371E+01  0.42289558641E+02 -0.13654969485E+02  0.45189865839E+02  0.00000000000E+00 0. -1.
         22    1    1    2    0    0 -0.23750009262E+02 -0.49993334030E+02 -0.14794285083E+03  0.15795722047E+03  0.00000000000E+00 0. -1.
</event>
<event>
 6    1  0.3240171E-005  0.1520780E+03  0.7818608E-02  0.1269108E+00
          2   -1    0    0  502    0  0.00000000000E+00  0.00000000000E+00  0.73468353703E+02  0.73468353703E+02  0.00000000000E+00 0. -1.
          1   -1    0    0  501    0 -0.00000000000E+00 -0.00000000000E+00 -0.43632722999E+03  0.43632722999E+03  0.00000000000E+00 0. -1.
          2    1    1    2  501    0 -0.34278483018E+02  0.48925366853E+02 -0.11952677465E+03  0.13362393415E+03  0.00000000000E+00 0. -1.
          1    1    1    2  502    0  0.68143164818E+02 -0.11418837405E+03 -0.16250629748E+03  0.20997802837E+03  0.00000000000E+00 0. -1.
         22    1    1    2    0    0 -0.13682065380E+02  0.94153049912E+02 -0.88708140821E+02  0.13008124372E+03  0.00000000000E+00 0.  1.
         22    1    1    2    0    0 -0.20182616421E+02 -0.28890042718E+02  0.78823366594E+01  0.36112377449E+02  0.00000000000E+00 0. -1.
</event>
<event>
 6    1  0.3240171E-005  0.1642536E+03  0.7818608E-02  0.1185227E+00
          2   -1    0    0  502    0  0.00000000000E+00  0.00000000000E+00  0.65957738328E+03  0.65957738328E+03  0.00000000000E+00 0. -1.
          1   -1    0    0  501    0 -0.00000000000E+00 -0.00000000000E+00 -0.50033697846E+02  0.50033697846E+02  0.00000000000E+00 0. -1.
          2    1    1    2  501    0  0.13235975520E+03  0.46563425479E+02  0.20311603615E+03  0.24686713336E+03  0.00000000000E+00 0. -1.
          1    1    1    2  502    0 -0.15258778373E+02  0.27892299298E+02  0.43481910989E+02  0.53865455171E+02  0.00000000000E+00 0. -1.
         22    1    1    2    0    0 -0.14349984369E+03 -0.67109699262E+02  0.32978770013E+03  0.36586314932E+03  0.00000000000E+00 0.  1.
         22    1    1    2    0    0  0.26398866859E+02 -0.73460255148E+01  0.33158038164E+02  0.43015343277E+02  0.00000000000E+00 0. -1.
</event>
<event>
 6    1  0.3240171E-005  0.1045523E+03  0.7818608E-02  0.1345700E+00
          2   -1    0    0  502    0  0.00000000000E+00  0.00000000000E+00  0.32114467334E+02  0.32114467334E+02  0.00000000000E+00 0.  1.
          1   -1    0    0  501    0 -0.00000000000E+00 -0.00000000000E+00 -0.15909312800E+04  0.15909312800E+04  0.00000000000E+00 0.  1.
          2    1    1    2  501    0  0.59526016404E+02 -0.16477930831E+02 -0.24304716859E+03  0.25077239680E+03  0.00000000000E+00 0.  1.
          1    1    1    2  502    0 -0.93836465986E+02  0.37701909879E+02 -0.11660107654E+04  0.11703878935E+04  0.00000000000E+00 0.  1.
         22    1    1    2    0    0  0.83750564814E+01 -0.28085473019E+02 -0.16728986930E+03  0.16983767467E+03  0.00000000000E+00 0. -1.
         22    1    1    2    0    0  0.25935393100E+02  0.68614939705E+01  0.17530990668E+02  0.32047782273E+02  0.00000000000E+00 0.  1.
</event>
<event>
 6    1  0.3240171E-005  0.7820247E+02  0.7818608E-02  0.1437696E+00
          2   -1    0    0  502    0  0.00000000000E+00  0.00000000000E+00  0.18337564151E+03  0.18337564151E+03  0.00000000000E+00 0. -1.
          1   -1    0    0  501    0 -0.00000000000E+00 -0.00000000000E+00 -0.14569941691E+03  0.14569941691E+03  0.00000000000E+00 0. -1.
          2    1    1    2  501    0  0.20759520101E+02 -0.21985857726E+02 -0.86004161895E+02  0.91164968480E+02  0.00000000000E+00 0. -1.
          1    1    1    2  502    0 -0.32317016419E+02  0.46487821669E+02  0.87493474009E+02  0.10421427497E+03  0.00000000000E+00 0. -1.
         22    1    1    2    0    0  0.19724375369E+02 -0.36660287078E+02 -0.39030926516E+02  0.57065233348E+02  0.00000000000E+00 0. -1.
         22    1    1    2    0    0 -0.81668790514E+01  0.12158323136E+02  0.75217839003E+02  0.76630581618E+02  0.00000000000E+00 0.  1.
</event>
<event>
 6    1  0.3240171E-005  0.8364330E+02  0.7818608E-02  0.1427024E+00
          2   -1    0    0  502    0  0.00000000000E+00  0.00000000000E+00  0.57484243082E+02  0.57484243082E+02  0.00000000000E+00 0. -1.
          1   -1    0    0  501    0 -0.00000000000E+00 -0.00000000000E+00 -0.22644859621E+04  0.22644859621E+04  0.00000000000E+00 0. -1.
          2    1    1    2  501    0  0.35529621949E+02 -0.18432031429E+02 -0.41004982980E+03  0.41199873391E+03  0.00000000000E+00 0. -1.
          1    1    1    2  502    0 -0.40796618161E+02 -0.16856177700E+01 -0.17862793864E+04  0.17867459952E+04  0.00000000000E+00 0. -1.
         22    1    1    2    0    0  0.19055834198E+02  0.22890943797E+02 -0.62654825308E+02  0.69373966726E+02  0.00000000000E+00 0. -1.
         22    1    1    2    0    0 -0.13788837985E+02 -0.27732945982E+01  0.51982322414E+02  0.53851509352E+02  0.00000000000E+00 0. -1.
</event>
<event>
 6    1  0.3240171E-005  0.1526513E+03  0.7818608E-02  0.1262721E+00
          2   -1    0    0  502    0  0.00000000000E+00  0.00000000000E+00  0.24985237922E+03  0.24985237922E+03  0.00000000000E+00 0.  1.
          1   -1    0    0  501    0 -0.00000000000E+00 -0.00000000000E+00 -0.30344791832E+03  0.30344791832E+03  0.00000000000E+00 0.  1.
          2    1    1    2  501    0  0.13319007509E+03  0.69907529356E+02 -0.10683791036E+03  0.18450202669E+03  0.00000000000E+00 0.  1.
          1    1    1    2  502    0 -0.11614116022E+03 -0.64924505773E+02 -0.10410112362E+03  0.16894083132E+03  0.00000000000E+00 0.  1.
         22    1    1    2    0    0  0.22390399521E+02 -0.37078393331E+01 -0.12210982951E+02  0.25771809557E+02  0.00000000000E+00 0.  1.
         22    1    1    2    0    0 -0.39439314390E+02 -0.12751842492E+01  0.16955447783E+03  0.17408562998E+03  0.00000000000E+00 0.  1.
</event>
<event>
 6    1  0.3240171E-005  0.9271417E+02  0.7818608E-02  0.1324674E+00
          2   -1    0    0  502    0  0.00000000000E+00  0.00000000000E+00  0.25568160901E+02  0.25568160901E+02  0.00000000000E+00 0.  1.
          1   -1    0    0  501    0 -0.00000000000E+00 -0.00000000000E+00 -0.54794147807E+03  0.54794147807E+03  0.00000000000E+00 0.  1.
          2    1    1    2  501    0 -0.14873019534E+02 -0.29387786511E+02 -0.17538400950E+03  0.17844999157E+03  0.00000000000E+00 0.  1.
          1    1    1    2  502    0 -0.15744430756E+02 -0.33534361856E+02 -0.39623348725E+02  0.54244357210E+02  0.00000000000E+00 0.  1.
         22    1    1    2    0    0 -0.25491432147E+02  0.46776352883E+02 -0.26065670808E+03  0.26604465747E+03  0.00000000000E+00 0.  1.
         22    1    1    2    0    0  0.56108882436E+02  0.16145795484E+02 -0.46709250870E+02  0.74770632717E+02  0.00000000000E+00 0.  1.
</event>
<event>
 6    1  0.3240171E-005  0.2627987E+03  0.7818608E-02  0.1110836E+00
          2   -1    0    0  502    0  0.00000000000E+00  0.00000000000E+00  0.90109718949E+03  0.90109718949E+03  0.00000000000E+00 0. -1.
          1   -1    0    0  501    0 -0.00000000000E+00 -0.00000000000E+00 -0.18296154109E+03  0.18296154109E+03  0.00000000000E+00 0. -1.
          2    1    1    2  501    0 -0.28004543045E+02 -0.20588572296E+03 -0.37548196721E+02  0.21114699246E+03  0.00000000000E+00 0. -1.
          1    1    1    2  502    0  0.16159066259E+03  0.15324942835E+02  0.37672359842E+03  0.41020368808E+03  0.00000000000E+00 0. -1.
         22    1    1    2    0    0 -0.15046893208E+03  0.19625041581E+03  0.34676298816E+03  0.42591043094E+03  0.00000000000E+00 0. -1.
         22    1    1    2    0    0  0.16882812530E+02 -0.56896356846E+01  0.32197258539E+02  0.36797619089E+02  0.00000000000E+00 0.  1.
</event>
<event>
 6    1  0.3240171E-005  0.1090029E+03  0.7818608E-02  0.1263129E+00
          2   -1    0    0  502    0  0.00000000000E+00  0.00000000000E+00  0.94971189467E+02  0.94971189467E+02  0.00000000000E+00 0.  1.
          1   -1    0    0  501    0 -0.00000000000E+00 -0.00000000000E+00 -0.12569279251E+04  0.12569279251E+04  0.00000000000E+00 0.  1.
          2    1    1    2  501    0  0.47740462254E+02 -0.53373696689E+02 -0.94640705472E+02  0.11867925837E+03  0.00000000000E+00 0.  1.
          1    1    1    2  502    0 -0.16107549231E+02 -0.24596293706E+02 -0.10817829123E+04  0.10821823784E+04  0.00000000000E+00 0.  1.
         22    1    1    2    0    0  0.14897419753E+02 -0.22765660984E+02 -0.21191361111E+02  0.34485971366E+02  0.00000000000E+00 0.  1.
         22    1    1    2    0    0 -0.46530332776E+02  0.10073565138E+03  0.35658243282E+02  0.11655150639E+03  0.00000000000E+00 0.  1.
</event>
<event>
 6    1  0.3240171E-005  0.6522193E+02  0.7818608E-02  0.1378898E+00
          2   -1    0    0  502    0  0.00000000000E+00  0.00000000000E+00  0.68106828942E+02  0.68106828942E+02  0.00000000000E+00 0. -1.
          1   -1    0    0  501    0 -0.00000000000E+00 -0.00000000000E+00 -0.57353217553E+03  0.57353217553E+03  0.00000000000E+00 0. -1.
          2    1    1    2  501    0 -0.96897820475E+01  0.31911172049E+02 -0.72201252715E+02  0.79531350242E+02  0.00000000000E+00 0. -1.
          1    1    1    2  502    0  0.19121277378E+02  0.67781532204E+01 -0.43068252834E+03  0.43116007100E+03  0.00000000000E+00 0. -1.
         22    1    1    2    0    0  0.56917632139E+01  0.24183292517E+02 -0.46523963817E+02  0.52741890511E+02  0.00000000000E+00 0. -1.
         22    1    1    2    0    0 -0.15123258545E+02 -0.62872617786E+02  0.43982398276E+02  0.78205692724E+02  0.00000000000E+00 0. -1.
</event>
<event>
 6    1  0.3240171E-005  0.1231955E+03  0.7818608E-02  0.1307843E+00
          2   -1    0    0  502    0  0.00000000000E+00  0.00000000000E+00  0.73707779638E+02  0.73707779638E+02  0.00000000000E+00 0.  1.
          1   -1    0    0  501    0 -0.00000000000E+00 -0.00000000000E+00 -0.49255592391E+03  0.49255592391E+03  0.00000000000E+00 0. -1.
          2    1    1    2  501    0 -0.42501798518E+02 -0.22490447983E+02 -0.29404134145E+02  0.56363341211E+02  0.00000000000E+00 0.  1.
          1    1    1    2  502    0  0.10839686129E+03  0.32928845458E+02 -0.34348289269E+03  0.36168312923E+03  0.00000000000E+00 0. -1.
         22    1    1    2    0    0 -0.88430192731E+02 -0.33200227586E+02 -0.28376559570E+01  0.94499769256E+02  0.00000000000E+00 0.  1.
         22    1    1    2    0    0  0.22535129956E+02  0.22761830110E+02 -0.43123461483E+02  0.53717463848E+02  0.00000000000E+00 0. -1.
</event>
<event>
 6    1  0.3240171E-005  0.8596358E+02  0.7818608E-02  0.1352879E+00
          2   -1    0    0  502    0  0.00000000000E+00  0.00000000000E+00  0.93074913570E+02  0.93074913570E+02  0.00000000000E+00 0.  1.
          1   -1    0    0  501    0 -0.00000000000E+00 -0.00000000000E+00 -0.19757513948E+03  0.19757513948E+03  0.00000000000E+00 0. -1.
          2    1    1    2  501    0  0.23138534159E+02  0.25178686763E+02  0.11829408452E+02  0.36184153085E+02  0.00000000000E+00 0.  1.
          1    1    1    2  502    0 -0.21160259579E+02 -0.14397045864E+02 -0.12431946515E+03  0.12692659662E+03  0.00000000000E+00 0. -1.
         22    1    1    2    0    0 -0.18429524212E+02  0.37103591071E+02 -0.40137535334E+02  0.57683148109E+02  0.00000000000E+00 0.  1.
         22    1    1    2    0    0  0.16451249632E+02 -0.47885231970E+02  0.48127366117E+02  0.69856155238E+02  0.00000000000E+00 0.  1.
</event>
<event>
 6    1  0.3240171E-005  0.3491120E+03  0.7818608E-02  0.1172386E+00
          2   -1    0    0  502    0  0.00000000000E+00  0.00000000000E+00  0.52966491166E+03  0.52966491166E+03  0.00000000000E+00 0.  1.
          1   -1    0    0  501    0 -0.00000000000E+00 -0.00000000000E+00 -0.60899361514E+03  0.60899361514E+03  0.00000000000E+00 0. -1.
          2    1    1    2  501    0 -0.53196251616E+02 -0.16181237040E+02  0.13358095600E+02  0.57184896049E+02  0.00000000000E+00 0.  1.
          1    1    1    2  502    0  0.25511420862E+03  0.19828490816E+03 -0.48882573457E+03  0.58596140062E+03  0.00000000000E+00 0. -1.
         22    1    1    2    0    0 -0.18017400241E+03 -0.18666163088E+03  0.39585586989E+03  0.47329388895E+03  0.00000000000E+00 0.  1.
         22    1    1    2    0    0 -0.21743954594E+02  0.45579597567E+01  0.28306558709E+00  0.22218341177E+02  0.00000000000E+00 0. -1.
</event>
<event>
 6    1  0.3240171E-005  0.1089259E+03  0.7818608E-02  0.1297646E+00
          2   -1    0    0  502    0  0.00000000000E+00  0.00000000000E+00  0.31829136309E+03  0.31829136309E+03  0.00000000000E+00 0. -1.
          1   -1    0    0  501    0 -0.00000000000E+00 -0.00000000000E+00 -0.82760716957E+02  0.82760716957E+02  0.00000000000E+00 0. -1.
          2    1    1    2  501    0 -0.70927888439E+02  0.43778403773E+02  0.52980256297E+02  0.98763462640E+02  0.00000000000E+00 0. -1.
          1    1    1    2  502    0  0.42057834415E+01 -0.65978471603E+02 -0.65875509842E+01  0.66439770901E+02  0.00000000000E+00 0. -1.
         22    1    1    2    0    0  0.52921918396E+02  0.17932625810E+02  0.20611685261E+03  0.21355670311E+03  0.00000000000E+00 0.  1.
         22    1    1    2    0    0  0.13800186602E+02  0.42674420206E+01 -0.16978911788E+02  0.22292143395E+02  0.00000000000E+00 0.  1.
</event>
<event>
 6    1  0.3240171E-005  0.2261813E+03  0.7818608E-02  0.1213429E+00
          2   -1    0    0  502    0  0.00000000000E+00  0.00000000000E+00  0.19916402445E+03  0.19916402445E+03  0.00000000000E+00 0.  1.
          1   -1    0    0  501    0 -0.00000000000E+00 -0.00000000000E+00 -0.97120767056E+03  0.97120767056E+03  0.00000000000E+00 0.  1.
          2    1    1    2  501    0 -0.61133869424E+01 -0.90593634467E+02 -0.10803110869E+03  0.14112158074E+03  0.00000000000E+00 0.  1.
          1    1    1    2  502    0  0.50465593598E+02  0.12526940160E+03 -0.81402703137E+03  0.82515405042E+03  0.00000000000E+00 0.  1.
         22    1    1    2    0    0 -0.73454926180E+02 -0.50506305288E+02  0.58131066835E+02  0.10642243178E+03  0.00000000000E+00 0. -1.
         22    1    1    2    0    0  0.29102719524E+02  0.15830538156E+02  0.91883427125E+02  0.97673632073E+02  0.00000000000E+00 0.  1.
</event>
<event>
 6    1  0.3240171E-005  0.6446686E+02  0.7818608E-02  0.1383498E+00
          2   -1    0    0  502    0  0.00000000000E+00  0.00000000000E+00  0.12468094702E+03  0.12468094702E+03  0.00000000000E+00 0.  1.
          1   -1    0    0  501    0 -0.00000000000E+00 -0.00000000000E+00 -0.20741398980E+03  0.20741398980E+03  0.00000000000E+00 0.  1.
          2    1    1    2  501    0 -0.65405318852E+01 -0.19624706966E+02 -0.45146919681E+02  0.49660366869E+02  0.00000000000E+00 0.  1.
          1    1    1    2  502    0  0.24072662592E+02 -0.16373032645E+02 -0.12470471317E+03  0.12805793520E+03  0.00000000000E+00 0.  1.
         22    1    1    2    0    0  0.43661618153E+01 -0.23517546014E+02 -0.19138915668E+02  0.30633909847E+02  0.00000000000E+00 0. -1.
         22    1    1    2    0    0 -0.21898292522E+02  0.59515285626E+02  0.10625750574E+03  0.12374272489E+03  0.00000000000E+00 0.  1.
</event>
<event>
 6    1  0.3240171E-005  0.1772696E+03  0.7818608E-02  0.1238472E+00
          2   -1    0    0  502    0  0.00000000000E+00  0.00000000000E+00  0.22575140415E+03  0.22575140415E+03  0.00000000000E+00 0. -1.
          1   -1    0    0  501    0 -0.00000000000E+00 -0.00000000000E+00 -0.30479439997E+03  0.30479439997E+03  0.00000000000E+00 0.  1.
          2    1    1    2  501    0 -0.14464556231E+03 -0.28441861074E+02  0.28476664719E+02  0.15014059608E+03  0.00000000000E+00 0. -1.
          1    1    1    2  502    0  0.15271784714E+03  0.27050073154E+02 -0.17871990794E+03  0.23663316079E+03  0.00000000000E+00 0.  1.
         22    1    1    2    0    0 -0.40773487729E+02  0.25931140295E+02 -0.13113401603E+02  0.50068579370E+02  0.00000000000E+00 0.  1.
         22    1    1    2    0    0  0.32701202901E+02 -0.24539352374E+02  0.84313648997E+02  0.93703467883E+02  0.00000000000E+00 0. -1.
</event>
<event>
 6    1  0.3240171E-005  0.5358650E+02  0.7818608E-02  0.1519749E+00
          2   -1    0    0  502    0  0.00000000000E+00  0.00000000000E+00  0.91482797245E+02  0.91482797245E+02  0.00000000000E+00 0.  1.
          1   -1    0    0  501    0 -0.00000000000E+00 -0.00000000000E+00 -0.30318248634E+03  0.30318248634E+03  0.00000000000E+00 0.  1.
          2    1    1    2  501    0  0.33620025316E+02  0.10855016565E+02 -0.22266328185E+03  0.22544860739E+03  0.00000000000E+00 0.  1.
          1    1    1    2  502    0 -0.43426139185E+02 -0.14188332474E+01  0.18111866037E+02  0.47073159483E+02  0.00000000000E+00 0.  1.
         22    1    1    2    0    0 -0.72184696113E+01 -0.12275136331E+02  0.55429327858E+02  0.57229325194E+02  0.00000000000E+00 0.  1.
         22    1    1    2    0    0  0.17024583481E+02  0.28389530134E+01 -0.62577601137E+02  0.64914191522E+02  0.00000000000E+00 0.  1.
</event>
<event>
 6    1  0.3240171E-005  0.5486002E+02  0.7818608E-02  0.1424537E+00
          2   -1    0    0  502    0  0.00000000000E+00  0.00000000000E+00  0.62289688790E+02  0.62289688790E+02  0.00000000000E+00 0. -1.
          1   -1    0    0  501    0 -0.00000000000E+00 -0.00000000000E+00 -0.30592523245E+03  0.30592523245E+03  0.00000000000E+00 0.  1.
          2    1    1    2  501    0 -0.91271151271E+00 -0.29722245188E+02 -0.26519807879E+02  0.39844009728E+02  0.00000000000E+00 0. -1.
          1    1    1    2  502    0  0.80538077100E+01  0.28339631744E+02 -0.20540881502E+03  0.20751091497E+03  0.00000000000E+00 0.  1.
         22    1    1    2    0    0  0.16861980825E+02  0.44775130106E+02  0.29651186449E+02  0.56287934153E+02  0.00000000000E+00 0. -1.
         22    1    1    2    0    0 -0.24003077023E+02 -0.43392516663E+02 -0.41358107216E+02  0.64572062391E+02  0.00000000000E+00 0. -1.
</event>
<event>
 6    1  0.3240171E-005  0.4399009E+02  0.7818608E-02  0.1485469E+00
          2   -1    0    0  502    0  0.00000000000E+00  0.00000000000E+00  0.22760486553E+03  0.22760486553E+03  0.00000000000E+00 0. -1.
          1   -1    0    0  501    0 -0.00000000000E+00 -0.00000000000E+00 -0.84458516355E+02  0.84458516355E+02  0.00000000000E+00 0.  1.
          2    1    1    2  501    0  0.12126437052E+02  0.31749968928E+02  0.72255046550E+01  0.34746495076E+02  0.00000000000E+00 0. -1.
          1    1    1    2  502    0  0.47849508112E+01 -0.27071016401E+02 -0.48117531488E+02  0.55416897421E+02  0.00000000000E+00 0.  1.
         22    1    1    2    0    0 -0.30331910256E+02 -0.26424420493E+02  0.19118072129E+03  0.19536720035E+03  0.00000000000E+00 0. -1.
         22    1    1    2    0    0  0.13420522393E+02  0.21745467966E+02 -0.71423452807E+01  0.26532789044E+02  0.00000000000E+00 0. -1.
</event>
<event>
 6    1  0.3240171E-005  0.1496612E+03  0.7818608E-02  0.1267686E+00
          2   -1    0    0  502    0  0.00000000000E+00  0.00000000000E+00  0.11348217375E+03  0.11348217375E+03  0.00000000000E+00 0. -1.
          1   -1    0    0  501    0 -0.00000000000E+00 -0.00000000000E+00 -0.11738924716E+04  0.11738924716E+04  0.00000000000E+00 0. -1.
          2    1    1    2  501    0 -0.24447616670E+02  0.11287223777E+02 -0.47136455659E+02  0.54285659557E+02  0.00000000000E+00 0. -1.
          1    1    1    2  502    0 -0.13262267176E+02 -0.50859888025E+02 -0.10808929494E+04  0.10821701271E+04  0.00000000000E+00 0. -1.
         22    1    1    2    0    0 -0.20768888643E+02 -0.31834627419E+02  0.27576991086E+01  0.38110302317E+02  0.00000000000E+00 0. -1.
         22    1    1    2    0    0  0.58478772489E+02  0.71407291667E+02  0.64861408089E+02  0.11280855639E+03  0.00000000000E+00 0. -1.
</event>
<event>
 6    1  0.3240171E-005  0.9443214E+02  0.7818608E-02  0.1313414E+00
          2   -1    0    0  502    0  0.00000000000E+00  0.00000000000E+00  0.36862105573E+03  0.36862105573E+03  0.00000000000E+00 0. -1.
          1   -1    0    0  501    0 -0.00000000000E+00 -0.00000000000E+00 -0.12171684983E+04  0.12171684983E+04  0.00000000000E+00 0.  1.
          2    1    1    2  501    0 -0.24475486414E+02 -0.29835681133E+02  0.76696896425E+01  0.39345157809E+02  0.00000000000E+00 0. -1.
          1    1    1    2  502    0  0.17923730242E+02  0.37145111167E+02 -0.11891538220E+04  0.11898688297E+04  0.00000000000E+00 0.  1.
         22    1    1    2    0    0  0.60614597662E+02 -0.17116249877E+02  0.24431313143E+03  0.25230141031E+03  0.00000000000E+00 0. -1.
         22    1    1    2    0    0 -0.54062841491E+02  0.98068198428E+01  0.88623558419E+02  0.10427415621E+03  0.00000000000E+00 0. -1.
</event>
<event>
 6    1  0.3240171E-005  0.6942423E+02  0.7818608E-02  0.1370078E+00
          2   -1    0    0  502    0  0.00000000000E+00  0.00000000000E+00  0.47125910732E+03  0.47125910732E+03  0.00000000000E+00 0.  1.
          1   -1    0    0  501    0 -0.00000000000E+00 -0.00000000000E+00 -0.92945005065E+02  0.92945005065E+02  0.00000000000E+00 0. -1.
          2    1    1    2  501    0  0.78172875583E+01  0.43836627757E+02  0.43920448501E+02  0.62544110150E+02  0.00000000000E+00 0.  1.
          1    1    1    2  502    0 -0.52062872777E+01 -0.33789804611E+02 -0.70954744959E+02  0.78761869931E+02  0.00000000000E+00 0. -1.
         22    1    1    2    0    0  0.32560844237E+02  0.34363869483E+02  0.82503861569E+02  0.95120824623E+02  0.00000000000E+00 0.  1.
         22    1    1    2    0    0 -0.35171844518E+02 -0.44410692629E+02  0.32284453714E+03  0.32777730768E+03  0.00000000000E+00 0.  1.
</event>
<event>
 6    1  0.3240171E-005  0.9307827E+02  0.7818608E-02  0.1400975E+00
          2   -1    0    0  502    0  0.00000000000E+00  0.00000000000E+00  0.28694904743E+03  0.28694904743E+03  0.00000000000E+00 0. -1.
          1   -1    0    0  501    0 -0.00000000000E+00 -0.00000000000E+00 -0.30203965444E+03  0.30203965444E+03  0.00000000000E+00 0.  1.
          2    1    1    2  501    0  0.40522455119E+02  0.39235826840E+02  0.11291956782E+03  0.12622340620E+03  0.00000000000E+00 0. -1.
          1    1    1    2  502    0 -0.19234303564E+02 -0.22307534077E+02 -0.27117389565E+03  0.27276888788E+03  0.00000000000E+00 0.  1.
         22    1    1    2    0    0 -0.29943488834E+02 -0.43231223676E+01  0.16252974249E+03  0.16532156273E+03  0.00000000000E+00 0.  1.
         22    1    1    2    0    0  0.86553372791E+01 -0.12605170396E+02 -0.19366021656E+02  0.24674845063E+02  0.00000000000E+00 0.  1.
</event>
<event>
 6    1  0.3506960E-005  0.1610207E+03  0.7818608E-02  0.1187940E+00
          2   -1    0    0  502    0  0.00000000000E+00  0.00000000000E+00  0.32367609600E+03  0.32367609600E+03  0.00000000000E+00 0.  1.
          1   -1    0    0  501    0 -0.00000000000E+00 -0.00000000000E+00 -0.99194170819E+03  0.99194170819E+03  0.00000000000E+00 0. -1.
          2    1    1    2  501    0 -0.16824562234E+03  0.12575275677E+03 -0.20939671532E+03  0.29659286852E+03  0.00000000000E+00 0.  1.
          1    1    1    2  502    0  0.43533884554E+02 -0.57454062840E+02 -0.70515620999E+03  0.70883104399E+03  0.00000000000E+00 0. -1.
         22    1    1    2    0    0 -0.10937773142E+02  0.58459857312E+01 -0.64100050583E+01  0.13960608702E+02  0.00000000000E+00 0.  1.
         22    1    1    2    0    0  0.13564951092E+03 -0.74144679659E+02  0.25269731817E+03  0.29623328298E+03  0.00000000000E+00 0.  1.
</event>
<event>
 6    1  0.3240171E-005  0.9588205E+02  0.7818608E-02  0.1302804E+00
          2   -1    0    0  502    0  0.00000000000E+00  0.00000000000E+00  0.20592710451E+03  0.20592710451E+03  0.00000000000E+00 0.  1.
          1   -1    0    0  501    0 -0.00000000000E+00 -0.00000000000E+00 -0.46805855629E+03  0.46805855629E+03  0.00000000000E+00 0.  1.
          2    1    1    2  501    0 -0.29311773563E+02  0.49155364935E+01  0.16606136633E+01  0.29767435331E+02  0.00000000000E+00 0.  1.
          1    1    1    2  502    0  0.24775541823E+02  0.33556030071E+01 -0.43139339068E+03  0.43211728161E+03  0.00000000000E+00 0.  1.
         22    1    1    2    0    0  0.50561110616E+02 -0.44944938697E+02  0.64975821471E+02  0.93799417893E+02  0.00000000000E+00 0.  1.
         22    1    1    2    0    0 -0.46024878876E+02  0.36673799196E+02  0.10262550377E+03  0.11830152597E+03  0.00000000000E+00 0. -1.
</event>
<event>
 6    1  0.4092263E-005  0.3069285E+03  0.7818608E-02  0.1184443E+00
          2   -1    0    0  502    0  0.00000000000E+00  0.00000000000E+00  0.14401055596E+03  0.14401055596E+03  0.00000000000E+00 0.  1.
          1   -1    0    0  501    0 -0.00000000000E+00 -0.00000000000E+00 -0.17216636503E+04  0.17216636503E+04  0.00000000000E+00 0.  1.
          2    1    1    2  501    0 -0.44838487824E+02 -0.24442527058E+02 -0.15225474316E+03  0.16059088995E+03  0.00000000000E+00 0.  1.
          1    1    1    2  502    0 -0.26202661647E+02 -0.29927214436E+02 -0.15216004131E+04  0.15221202433E+04  0.00000000000E+00 0.  1.
         22    1    1    2    0    0 -0.40914074939E+01  0.24574643060E+02 -0.26283155772E+02  0.36214043880E+02  0.00000000000E+00 0. -1.
         22    1    1    2    0    0  0.75132556966E+02  0.29795098434E+02  0.12248521772E+03  0.14674902919E+03  0.00000000000E+00 0.  1.
</event>
<event>
 6    1  0.3240171E-005  0.8117461E+02  0.7818608E-02  0.1412100E+00
          2   -1    0    0  502    0  0.00000000000E+00  0.00000000000E+00  0.56260488481E+02  0.56260488481E+02  0.00000000000E+00 0. -1.
          1   -1    0    0  501    0 -0.00000000000E+00 -0.00000000000E+00 -0.28728670926E+03  0.28728670926E+03  0.00000000000E+00 0. -1.
          2    1    1    2  501    0 -0.15858232267E+02 -0.22290414472E+02 -0.10809108530E+03  0.11149900820E+03  0.00000000000E+00 0. -1.
          1    1    1    2  502    0  0.32323709916E+02  0.60298685103E+02 -0.36177986166E+02  0.77392508235E+02  0.00000000000E+00 0. -1.
         22    1    1    2    0    0 -0.35651479743E+02 -0.40604668326E+02 -0.11110529745E+03  0.12354818582E+03  0.00000000000E+00 0. -1.
         22    1    1    2    0    0  0.19186002093E+02  0.25963976956E+01  0.24348148142E+02  0.31107495484E+02  0.00000000000E+00 0. -1.
</event>
<event>
 6    1  0.3240171E-005  0.1569596E+03  0.7818608E-02  0.1294451E+00
          2   -1    0    0  502    0  0.00000000000E+00  0.00000000000E+00  0.35269195579E+03  0.35269195579E+03  0.00000000000E+00 0.  1.
          1   -1    0    0  501    0 -0.00000000000E+00 -0.00000000000E+00 -0.35340242865E+03  0.35340242865E+03  0.00000000000E+00 0. -1.
          2    1    1    2  501    0 -0.16503716796E+02 -0.27578806386E+02  0.80942506624E+02  0.87089911059E+02  0.00000000000E+00 0.  1.
          1    1    1    2  502    0 -0.56210085081E+02  0.11386226244E+03 -0.31005331530E+03  0.33504812610E+03  0.00000000000E+00 0. -1.
         22    1    1    2    0    0  0.86147037674E+02 -0.10085071791E+03  0.13798465779E+03  0.19139473657E+03  0.00000000000E+00 0.  1.
         22    1    1    2    0    0 -0.13433235798E+02  0.14567261851E+02  0.90415678038E+02  0.92561610708E+02  0.00000000000E+00 0. -1.
</event>
<event>
 6    1  0.3240171E-005  0.9940955E+02  0.7818608E-02  0.1287393E+00
          2   -1    0    0  502    0  0.00000000000E+00  0.00000000000E+00  0.14109911200E+03  0.14109911200E+03  0.00000000000E+00 0.  1.
          1   -1    0    0  501    0 -0.00000000000E+00 -0.00000000000E+00 -0.21668738139E+03  0.21668738139E+03  0.00000000000E+00 0.  1.
          2    1    1    2  501    0 -0.64963117937E+01 -0.64539887283E+02 -0.26844782206E+02  0.70201434809E+02  0.00000000000E+00 0.  1.
          1    1    1    2  502    0  0.10768814495E+02  0.19902306521E+02 -0.13097951999E+03  0.13291991509E+03  0.00000000000E+00 0.  1.
         22    1    1    2    0    0 -0.22814458765E+02  0.82034729266E+02  0.72431067625E+02  0.11178754802E+03  0.00000000000E+00 0.  1.
         22    1    1    2    0    0  0.18541956064E+02 -0.37397148503E+02  0.98049651817E+01  0.42877595467E+02  0.00000000000E+00 0. -1.
</event>
<event>
 6    1  0.3240171E-005  0.1490863E+03  0.7818608E-02  0.1255716E+00
          2   -1    0    0  502    0  0.00000000000E+00  0.00000000000E+00  0.28151469077E+03  0.28151469077E+03  0.00000000000E+00 0. -1.
          1   -1    0    0  501    0 -0.00000000000E+00 -0.00000000000E+00 -0.84618137337E+03  0.84618137337E+03  0.00000000000E+00 0. -1.
          2    1    1    2  501    0  0.62451205466E+02 -0.33418574175E+02  0.26439275353E+02  0.75604162883E+02  0.00000000000E+00 0. -1.
          1    1    1    2  502    0 -0.61110661038E+02 -0.47656880212E+01 -0.80200805767E+03  0.80434703284E+03  0.00000000000E+00 0. -1.
         22    1    1    2    0    0 -0.33902321079E+02 -0.34849830691E+02  0.62654331724E+02  0.79306010854E+02  0.00000000000E+00 0. -1.
         22    1    1    2    0    0  0.32561776651E+02  0.73034092888E+02  0.14824776799E+03  0.16843885756E+03  0.00000000000E+00 0. -1.
</event>
<event>
 6    1  0.3240171E-005  0.8350876E+02  0.7818608E-02  0.1384535E+00
          2   -1    0    0  502    0  0.00000000000E+00  0.00000000000E+00  0.57022519614E+02  0.57022519614E+02  0.00000000000E+00 0. -1.
          1   -1    0    0  501    0 -0.00000000000E+00 -0.00000000000E+00 -0.18837531684E+03  0.18837531684E+03  0.00000000000E+00 0. -1.
          2    1    1    2  501    0  0.21503522557E+02 -0.11540532075E+02 -0.33790374636E+02  0.41681827946E+02  0.00000000000E+00 0. -1.
          1    1    1    2  502    0  0.14865138765E+02  0.38565196352E+02 -0.38188540180E+02  0.56272651628E+02  0.00000000000E+00 0. -1.
         22    1    1    2    0    0 -0.48555266555E+02 -0.51727852670E+02 -0.84378601213E+02  0.11024124906E+03  0.00000000000E+00 0. -1.
         22    1    1    2    0    0  0.12186605233E+02  0.24703188393E+02  0.25004718801E+02  0.37202107820E+02  0.00000000000E+00 0.  1.
</event>
<event>
 6    1  0.3240171E-005  0.8859950E+02  0.7818608E-02  0.1309948E+00
          2   -1    0    0  502    0  0.00000000000E+00  0.00000000000E+00  0.22790040710E+02  0.22790040710E+02  0.00000000000E+00 0. -1.
          1   -1    0    0  501    0 -0.00000000000E+00 -0.00000000000E+00 -0.14565245125E+04  0.14565245125E+04  0.00000000000E+00 0. -1.
          2    1    1    2  501    0 -0.29452570126E+02  0.16468347099E+02 -0.99104304434E+02  0.10469156365E+03  0.00000000000E+00 0. -1.
          1    1    1    2  502    0 -0.23137718937E+02 -0.20062571897E+02 -0.11189049031E+04  0.11193239223E+04  0.00000000000E+00 0. -1.
         22    1    1    2    0    0  0.93174814244E+02  0.13262331247E+02 -0.13716567511E+03  0.16634860344E+03  0.00000000000E+00 0. -1.
         22    1    1    2    0    0 -0.40584525181E+02 -0.96681064494E+01 -0.78559589120E+02  0.88950463794E+02  0.00000000000E+00 0.  1.
</event>
<event>
 6    1  0.3240171E-005  0.7668900E+02  0.7818608E-02  0.1344967E+00
          2   -1    0    0  502    0  0.00000000000E+00  0.00000000000E+00  0.16060495496E+03  0.16060495496E+03  0.00000000000E+00 0. -1.
          1   -1    0    0  501    0 -0.00000000000E+00 -0.00000000000E+00 -0.18036893488E+03  0.18036893488E+03  0.00000000000E+00 0. -1.
          2    1    1    2  501    0  0.11728386318E+02  0.51572109216E+02 -0.63826469907E+02  0.82891831657E+02  0.00000000000E+00 0. -1.
          1    1    1    2  502    0  0.30640820269E+02 -0.21894091751E+02 -0.72911267237E+02  0.82062561564E+02  0.00000000000E+00 0. -1.
         22    1    1    2    0    0 -0.35027184123E+02 -0.58873494658E+02  0.12699247849E+03  0.14429165462E+03  0.00000000000E+00 0. -1.
         22    1    1    2    0    0 -0.73420224633E+01  0.29195477192E+02 -0.10018721254E+02  0.31727841999E+02  0.00000000000E+00 0.  1.
</event>
<event>
 6    1  0.3240171E-005  0.1638801E+03  0.7818608E-02  0.1295120E+00
          2   -1    0    0  502    0  0.00000000000E+00  0.00000000000E+00  0.10137970615E+03  0.10137970615E+03  0.00000000000E+00 0.  1.
          1   -1    0    0  501    0 -0.00000000000E+00 -0.00000000000E+00 -0.14303003898E+04  0.14303003898E+04  0.00000000000E+00 0. -1.
          2    1    1    2  501    0  0.36445416630E+02 -0.53958159713E+02 -0.37094684518E+01  0.65218950844E+02  0.00000000000E+00 0.  1.
          1    1    1    2  502    0 -0.32589379356E+02 -0.41757855172E+02 -0.13054551892E+04  0.13065293862E+04  0.00000000000E+00 0. -1.
         22    1    1    2    0    0 -0.17164443116E+02 -0.10217384823E+01  0.41320336190E+02  0.44755248183E+02  0.00000000000E+00 0.  1.
         22    1    1    2    0    0  0.13308405842E+02  0.96737753367E+02 -0.61076362171E+02  0.11517651066E+03  0.00000000000E+00 0.  1.
</event>
<event>
 6    1  0.3240171E-005  0.7780823E+02  0.7818608E-02  0.1369321E+00
          2   -1    0    0  502    0  0.00000000000E+00  0.00000000000E+00  0.25139205902E+03  0.25139205902E+03  0.00000000000E+00 0.  1.
          1   -1    0    0  501    0 -0.00000000000E+00 -0.00000000000E+00 -0.10440441956E+03  0.10440441956E+03  0.00000000000E+00 0.  1.
          2    1    1    2  501    0 -0.50162394384E+02 -0.96004728224E+01 -0.20847553045E+02  0.55163895409E+02  0.00000000000E+00 0.  1.
          1    1    1    2  502    0  0.96672492076E+02 -0.17649465282E+02  0.15835364552E+02  0.99538098834E+02  0.00000000000E+00 0.  1.
         22    1    1    2    0    0 -0.27954228891E+02  0.33583661770E+02  0.16936028693E+03  0.17490628359E+03  0.00000000000E+00 0. -1.
         22    1    1    2    0    0 -0.18555868802E+02 -0.63337236655E+01 -0.17360458976E+02  0.26188200746E+02  0.00000000000E+00 0.  1.
</event>
<event>
 6    1  0.3240171E-005  0.1313608E+03  0.7818608E-02  0.1271102E+00
          2   -1    0    0  502    0  0.00000000000E+00  0.00000000000E+00  0.37260737355E+03  0.37260737355E+03  0.00000000000E+00 0. -1.
          1   -1    0    0  501    0 -0.00000000000E+00 -0.00000000000E+00 -0.10701834974E+03  0.10701834974E+03  0.00000000000E+00 0.  1.
          2    1    1    2  501    0 -0.10635275390E-01  0.21290953929E+02 -0.46819586649E+00  0.21296103862E+02  0.00000000000E+00 0. -1.
          1    1    1    2  502    0  0.15915869747E+02  0.14754774505E+02 -0.82369634240E+02  0.85180836609E+02  0.00000000000E+00 0.  1.
         22    1    1    2    0    0 -0.44877789301E+02  0.29716129753E+02  0.89529846344E+02  0.10446366702E+03  0.00000000000E+00 0. -1.
         22    1    1    2    0    0  0.28972554829E+02 -0.65761858187E+02  0.25889700757E+03  0.26868511581E+03  0.00000000000E+00 0. -1.
</event>
<event>
 6    1  0.3240171E-005  0.8881901E+02  0.7818608E-02  0.1339282E+00
          2   -1    0    0  502    0  0.00000000000E+00  0.00000000000E+00  0.30249143773E+03  0.30249143773E+03  0.00000000000E+00 0.  1.
          1   -1    0    0  501    0 -0.00000000000E+00 -0.00000000000E+00 -0.58472478965E+02  0.58472478965E+02  0.00000000000E+00 0.  1.
          2    1    1    2  501    0  0.18417681766E+02  0.33398678062E+02 -0.74474152229E+01  0.38860605907E+02  0.00000000000E+00 0.  1.
          1    1    1    2  502    0 -0.51476039859E+02 -0.41330597064E+01  0.24640934556E+02  0.57219232063E+02  0.00000000000E+00 0.  1.
         22    1    1    2    0    0 -0.28837966711E+02 -0.39472346807E+02  0.18022529058E+03  0.18673738204E+03  0.00000000000E+00 0.  1.
         22    1    1    2    0    0  0.61896324804E+02  0.10206728452E+02  0.46600148854E+02  0.78146696687E+02  0.00000000000E+00 0.  1.
</event>
<event>
 6    1  0.3240171E-005  0.9858743E+02  0.7818608E-02  0.1354740E+00
          2   -1    0    0  502    0  0.00000000000E+00  0.00000000000E+00  0.14310297690E+03  0.14310297690E+03  0.00000000000E+00 0. -1.
          1   -1    0    0  501    0 -0.00000000000E+00 -0.00000000000E+00 -0.65846481705E+03  0.65846481705E+03  0.00000000000E+00 0.  1.
          2    1    1    2  501    0  0.47409711928E+02  0.56963640853E+02  0.10063243266E+03  0.12497769268E+03  0.00000000000E+00 0. -1.
          1    1    1    2  502    0 -0.36080842266E+02 -0.29272050552E+02 -0.51111390097E+03  0.51322129719E+03  0.00000000000E+00 0.  1.
         22    1    1    2    0    0 -0.27401184971E+02  0.11497261410E+01 -0.12278411415E+03  0.12580971940E+03  0.00000000000E+00 0. -1.
         22    1    1    2    0    0  0.16072315310E+02 -0.28841316442E+02  0.17903742317E+02  0.37559084687E+02  0.00000000000E+00 0.  1.
</event>
<event>
 6    1  0.3240171E-005  0.6901552E+02  0.7818608E-02  0.1366313E+00
          2   -1    0    0  502    0  0.00000000000E+00  0.00000000000E+00  0.27224199138E+03  0.27224199138E+03  0.00000000000E+00 0. -1.
          1   -1    0    0  501    0 -0.00000000000E+00 -0.00000000000E+00 -0.17410611484E+04  0.17410611484E+04  0.00000000000E+00 0. -1.
          2    1    1    2  501    0 -0.13490531735E+02 -0.29314097242E+02  0.24548668733E+02  0.40545627140E+02  0.00000000000E+00 0. -1.
          1    1    1    2  502    0  0.37163458180E+02  0.47183224866E+01 -0.17143824420E+04  0.17147916907E+04  0.00000000000E+00 0. -1.
         22    1    1    2    0    0 -0.25970777431E+02  0.62226632035E+02  0.20706451877E+03  0.21776673288E+03  0.00000000000E+00 0. -1.
         22    1    1    2    0    0  0.22978509864E+01 -0.37630857279E+02  0.13950097483E+02  0.40199089026E+02  0.00000000000E+00 0. -1.
</event>
<event>
 6    1  0.3240171E-005  0.9226358E+02  0.7818608E-02  0.1409473E+00
          2   -1    0    0  502    0  0.00000000000E+00  0.00000000000E+00  0.51329051631E+02  0.51329051631E+02  0.00000000000E+00 0. -1.
          1   -1    0    0  501    0 -0.00000000000E+00 -0.00000000000E+00 -0.42094975990E+03  0.42094975990E+03  0.00000000000E+00 0. -1.
          2    1    1    2  501    0 -0.37068388071E+02 -0.25573460234E+02 -0.14746194369E+03  0.15418525254E+03  0.00000000000E+00 0. -1.
          1    1    1    2  502    0  0.71885546745E+02 -0.18461136726E+02 -0.13282453568E+03  0.15215354967E+03  0.00000000000E+00 0. -1.
         22    1    1    2    0    0 -0.35016251452E+02  0.30299397057E+02 -0.12200611984E+03  0.13049783372E+03  0.00000000000E+00 0. -1.
         22    1    1    2    0    0  0.19909277763E+00  0.13735199904E+02  0.32671890935E+02  0.35442175605E+02  0.00000000000E+00 0. -1.
</event>
<event>
 6    1  0.3240171E-005  0.4838763E+02  0.7818608E-02  0.1460448E+00
          2   -1    0    0  502    0  0.00000000000E+00  0.00000000000E+00  0.54061274025E+02  0.54061274025E+02  0.00000000000E+00 0.  1.
          1   -1    0    0  501    0 -0.00000000000E+00 -0.00000000000E+00 -0.30766504759E+03  0.30766504759E+03  0.00000000000E+00 0. -1.
          2    1    1    2  501    0 -0.11596134674E+02 -0.19396569738E+02 -0.17471610768E+02  0.28564916240E+02  0.00000000000E+00 0.  1.
          1    1    1    2  502    0  0.26669557002E+02  0.27450077150E+02 -0.19165852411E+03  0.19544247714E+03  0.00000000000E+00 0. -1.
         22    1    1    2    0    0  0.33029870843E+02  0.23386466215E+02  0.24990820410E+02  0.47565116153E+02  0.00000000000E+00 0.  1.
         22    1    1    2    0    0 -0.48103293170E+02 -0.31439973627E+02 -0.69464459098E+02  0.90153812084E+02  0.00000000000E+00 0.  1.
</event>
<event>
 6    1  0.3240171E-005  0.1427553E+03  0.7818608E-02  0.1240780E+00
          2   -1    0    0  502    0  0.00000000000E+00  0.00000000000E+00  0.43658367420E+03  0.43658367420E+03  0.00000000000E+00 0.  1.
          1   -1    0    0  501    0 -0.00000000000E+00 -0.00000000000E+00 -0.15792842782E+03  0.15792842782E+03  0.00000000000E+00 0. -1.
          2    1    1    2  501    0  0.23509438294E+02  0.54238906223E+02  0.37406100101E+02  0.69955478427E+02  0.00000000000E+00 0.  1.
          1    1    1    2  502    0  0.29338028681E+02 -0.22344202165E+02 -0.12671881380E+03  0.13197591094E+03  0.00000000000E+00 0. -1.
         22    1    1    2    0    0 -0.52542875766E+02  0.36143619650E+02  0.23103977510E+03  0.23967997980E+03  0.00000000000E+00 0.  1.
         22    1    1    2    0    0 -0.30459120990E+00 -0.68038323708E+02  0.13692818498E+03  0.15290073286E+03  0.00000000000E+00 0. -1.
</event>
<event>
 6    1  0.3240171E-005  0.1788384E+03  0.7818608E-02  0.1169429E+00
          2   -1    0    0  502    0  0.00000000000E+00  0.00000000000E+00  0.93047596237E+03  0.93047596237E+03  0.00000000000E+00 0. -1.
          1   -1    0    0  501    0 -0.00000000000E+00 -0.00000000000E+00 -0.29242411694E+03  0.29242411694E+03  0.00000000000E+00 0.  1.
          2    1    1    2  501    0 -0.26976749677E+02 -0.13246110433E+03  0.10080200910E+03  0.16862601882E+03  0.00000000000E+00 0. -1.
          1    1    1    2  502    0  0.17883658576E+03  0.80918826605E+00 -0.20714475702E+03  0.27366426429E+03  0.00000000000E+00 0.  1.
         22    1    1    2    0    0 -0.85919189212E+01 -0.18823850598E+02  0.28799915746E+02  0.35462565742E+02  0.00000000000E+00 0. -1.
         22    1    1    2    0    0 -0.14326791716E+03  0.15047576666E+03  0.71559467761E+03  0.74514723046E+03  0.00000000000E+00 0. -1.
</event>
<event>
 6    1  0.3240171E-005  0.1136372E+03  0.7818608E-02  0.1352450E+00
          2   -1    0    0  502    0  0.00000000000E+00  0.00000000000E+00  0.50583285894E+02  0.50583285894E+02  0.00000000000E+00 0.  1.
          1   -1    0    0  501    0 -0.00000000000E+00 -0.00000000000E+00 -0.30275039430E+03  0.30275039430E+03  0.00000000000E+00 0. -1.
          2    1    1    2  501    0  0.39285788845E+02 -0.52723937122E+01 -0.14383704948E+02  0.42167076122E+02  0.00000000000E+00 0.  1.
          1    1    1    2  502    0 -0.19181767372E+02 -0.35862768121E+02 -0.13903216166E+03  0.14485862181E+03  0.00000000000E+00 0. -1.
         22    1    1    2    0    0  0.12144995052E+02 -0.14111392748E+02  0.22507529285E+02  0.29209950096E+02  0.00000000000E+00 0.  1.
         22    1    1    2    0    0 -0.32249016524E+02  0.55246554581E+02 -0.12125877109E+03  0.13709803218E+03  0.00000000000E+00 0. -1.
</event>
<event>
 6    1  0.3240171E-005  0.8863109E+02  0.7818608E-02  0.1344397E+00
          2   -1    0    0  502    0  0.00000000000E+00  0.00000000000E+00  0.52538315933E+02  0.52538315933E+02  0.00000000000E+00 0. -1.
          1   -1    0    0  501    0 -0.00000000000E+00 -0.00000000000E+00 -0.29981971702E+03  0.29981971702E+03  0.00000000000E+00 0. -1.
          2    1    1    2  501    0  0.14234148393E+02  0.16165150383E+02 -0.97892739312E+02  0.10023428294E+03  0.00000000000E+00 0. -1.
          1    1    1    2  502    0  0.92421150107E+01 -0.23336318596E+02 -0.12138627379E+03  0.12395413636E+03  0.00000000000E+00 0. -1.
         22    1    1    2    0    0 -0.40791295004E+02  0.46710967635E+02 -0.50057204019E+02  0.79696724649E+02  0.00000000000E+00 0. -1.
         22    1    1    2    0    0  0.17315031600E+02 -0.39539799422E+02  0.22054816036E+02  0.48472889000E+02  0.00000000000E+00 0. -1.
</event>
<event>
 6    1  0.3240171E-005  0.6586292E+02  0.7818608E-02  0.1410371E+00
          2   -1    0    0  502    0  0.00000000000E+00  0.00000000000E+00  0.39490809002E+03  0.39490809002E+03  0.00000000000E+00 0.  1.
          1   -1    0    0  501    0 -0.00000000000E+00 -0.00000000000E+00 -0.22896661546E+03  0.22896661546E+03  0.00000000000E+00 0. -1.
          2    1    1    2  501    0 -0.24615892782E+02  0.85528695629E+01 -0.29198962255E+02  0.39136596071E+02  0.00000000000E+00 0.  1.
          1    1    1    2  502    0  0.70383672969E+02  0.61558804470E+02 -0.16760608687E+03  0.19192485036E+03  0.00000000000E+00 0. -1.
         22    1    1    2    0    0 -0.39257107828E+02 -0.78305700781E+02  0.36990406998E+03  0.38013408724E+03  0.00000000000E+00 0.  1.
         22    1    1    2    0    0 -0.65106723584E+01  0.81940267488E+01 -0.71575462959E+01  0.12679171814E+02  0.00000000000E+00 0.  1.
</event>
<event>
 6    1  0.3240171E-005  0.3080805E+03  0.7818608E-02  0.1170648E+00
          2   -1    0    0  502    0  0.00000000000E+00  0.00000000000E+00  0.83142362471E+02  0.83142362471E+02  0.00000000000E+00 0.  1.
          1   -1    0    0  501    0 -0.00000000000E+00 -0.00000000000E+00 -0.12955831551E+04  0.12955831551E+04  0.00000000000E+00 0.  1.
          2    1    1    2  501    0 -0.24502951874E+02 -0.69107607341E+02 -0.52232332269E+03  0.52744469802E+03  0.00000000000E+00 0.  1.
          1    1    1    2  502    0  0.14713868738E+03  0.21428497969E+03 -0.46033267561E+03  0.52865302239E+03  0.00000000000E+00 0.  1.
         22    1    1    2    0    0 -0.22350445006E+01 -0.33560861526E+02  0.71335342881E+01  0.34383341341E+02  0.00000000000E+00 0. -1.
         22    1    1    2    0    0 -0.12040069101E+03 -0.11161651082E+03 -0.23691832866E+03  0.28824445587E+03  0.00000000000E+00 0.  1.
</event>
<event>
 6    1  0.3240171E-005  0.8003303E+02  0.7818608E-02  0.1335996E+00
          2   -1    0    0  502    0  0.00000000000E+00  0.00000000000E+00  0.24203802956E+02  0.24203802956E+02  0.00000000000E+00 0. -1.
          1   -1    0    0  501    0 -0.00000000000E+00 -0.00000000000E+00 -0.76270165823E+03  0.76270165823E+03  0.00000000000E+00 0. -1.
          2    1    1    2  501    0  0.47150436801E+01  0.19519907385E+02 -0.14626894027E+02  0.24843599781E+02  0.00000000000E+00 0. -1.
          1    1    1    2  502    0 -0.77209772050E+01  0.19659418795E+02 -0.51684376513E+03  0.51727515288E+03  0.00000000000E+00 0. -1.
         22    1    1    2    0    0  0.34564961102E+02  0.30439254540E+02 -0.12224961581E+03  0.13063787092E+03  0.00000000000E+00 0. -1.
         22    1    1    2    0    0 -0.31559027578E+02 -0.69618580719E+02 -0.84777580307E+02  0.11414883760E+03  0.00000000000E+00 0. -1.
</event>
<event>
 6    1  0.3240171E-005  0.1760030E+03  0.7818608E-02  0.1240638E+00
          2   -1    0    0  502    0  0.00000000000E+00  0.00000000000E+00  0.73717614958E+03  0.73717614958E+03  0.00000000000E+00 0. -1.
          1   -1    0    0  501    0 -0.00000000000E+00 -0.00000000000E+00 -0.76313288969E+03  0.76313288969E+03  0.00000000000E+00 0.  1.
          2    1    1    2  501    0 -0.91593210480E+01 -0.50984208610E+02  0.67302425022E+02  0.84928788425E+02  0.00000000000E+00 0. -1.
          1    1    1    2  502    0 -0.90611719818E+02  0.70181324952E+02 -0.73961306588E+03  0.74844063850E+03  0.00000000000E+00 0.  1.
         22    1    1    2    0    0  0.87940145964E+02 -0.57380795336E+02  0.58036075015E+03  0.58978354103E+03  0.00000000000E+00 0. -1.
         22    1    1    2    0    0  0.11830894902E+02  0.38183678994E+02  0.65993150593E+02  0.77156071315E+02  0.00000000000E+00 0. -1.
</event>
<event>
 6    1  0.3240171E-005  0.3356514E+03  0.7818608E-02  0.1148944E+00
          2   -1    0    0  502    0  0.00000000000E+00  0.00000000000E+00  0.14090519531E+04  0.14090519531E+04  0.00000000000E+00 0. -1.
          1   -1    0    0  501    0 -0.00000000000E+00 -0.00000000000E+00 -0.99119541203E+02  0.99119541203E+02  0.00000000000E+00 0. -1.
          2    1    1    2  501    0  0.16115048489E+03  0.11380994682E+03  0.58195953094E+03  0.61449090997E+03  0.00000000000E+00 0. -1.
          1    1    1    2  502    0 -0.28316559831E+03 -0.16114591276E+03  0.37263178320E+03  0.49498000679E+03  0.00000000000E+00 0. -1.
         22    1    1    2    0    0  0.10560308621E+03  0.87207325440E+02  0.25406129640E+03  0.28862479408E+03  0.00000000000E+00 0. -1.
         22    1    1    2    0    0  0.16412027208E+02 -0.39871359492E+02  0.10127980133E+03  0.11007578345E+03  0.00000000000E+00 0.  1.
</event>
<event>
 6    1  0.3240171E-005  0.6014318E+02  0.7818608E-02  0.1401817E+00
          2   -1    0    0  502    0  0.00000000000E+00  0.00000000000E+00  0.41931370314E+02  0.41931370314E+02  0.00000000000E+00 0.  1.
          1   -1    0    0  501    0 -0.00000000000E+00 -0.00000000000E+00 -0.57187958556E+03  0.57187958556E+03  0.00000000000E+00 0. -1.
          2    1    1    2  501    0 -0.39460203536E+01 -0.43404978852E+02 -0.84175891246E+02  0.94789999118E+02  0.00000000000E+00 0.  1.
          1    1    1    2  502    0  0.29911322833E+02  0.17125245706E+02 -0.37145649602E+03  0.37305212734E+03  0.00000000000E+00 0. -1.
         22    1    1    2    0    0  0.28129348098E+01 -0.21612838518E+02 -0.86142582979E+02  0.88857031198E+02  0.00000000000E+00 0.  1.
         22    1    1    2    0    0 -0.28778237289E+02  0.47892571663E+02  0.11826755002E+02  0.57111798219E+02  0.00000000000E+00 0.  1.
</event>
<event>
 6    1  0.3240171E-005  0.7330067E+02  0.7818608E-02  0.1380328E+00
          2   -1    0    0  502    0  0.00000000000E+00  0.00000000000E+00  0.12017040075E+03  0.12017040075E+03  0.00000000000E+00 0. -1.
          1   -1    0    0  501    0 -0.00000000000E+00 -0.00000000000E+00 -0.39685572563E+03  0.39685572563E+03  0.00000000000E+00 0. -1.
          2    1    1    2  501    0 -0.57907475477E+00 -0.20550935041E+02  0.26138977486E+02  0.33255411629E+02  0.00000000000E+00 0. -1.
          1    1    1    2  502    0  0.19561038465E+02  0.67969833022E+02 -0.33900690415E+03  0.34630653110E+03  0.00000000000E+00 0. -1.
         22    1    1    2    0    0 -0.37818304714E+02  0.21723102629E+02 -0.18447071731E+02  0.47354110853E+02  0.00000000000E+00 0.  1.
         22    1    1    2    0    0  0.18836341003E+02 -0.69142000610E+02  0.54629673511E+02  0.90110072793E+02  0.00000000000E+00 0.  1.
</event>
<event>
 6    1  0.3240171E-005  0.8903768E+02  0.7818608E-02  0.1318260E+00
          2   -1    0    0  502    0  0.00000000000E+00  0.00000000000E+00  0.52309376054E+03  0.52309376054E+03  0.00000000000E+00 0.  1.
          1   -1    0    0  501    0 -0.00000000000E+00 -0.00000000000E+00 -0.26913668195E+02  0.26913668195E+02  0.00000000000E+00 0. -1.
          2    1    1    2  501    0 -0.62156531737E+01  0.22928002058E+02  0.12815865860E+02  0.26992110708E+02  0.00000000000E+00 0.  1.
          1    1    1    2  502    0 -0.46305866953E+02 -0.37894979869E+02  0.13969724266E+03  0.15197230807E+03  0.00000000000E+00 0. -1.
         22    1    1    2    0    0  0.30061520603E+02 -0.57022082799E+02  0.16008189832E+03  0.17257296173E+03  0.00000000000E+00 0.  1.
         22    1    1    2    0    0  0.22459999524E+02  0.71989060610E+02  0.18358508550E+03  0.19847004823E+03  0.00000000000E+00 0.  1.
</event>
<event>
 6    1  0.3240171E-005  0.9114023E+02  0.7818608E-02  0.1302011E+00
          2   -1    0    0  502    0  0.00000000000E+00  0.00000000000E+00  0.83551600158E+03  0.83551600158E+03  0.00000000000E+00 0. -1.
          1   -1    0    0  501    0 -0.00000000000E+00 -0.00000000000E+00 -0.19471492390E+02  0.19471492390E+02  0.00000000000E+00 0. -1.
          2    1    1    2  501    0 -0.41751300065E+02  0.18199932030E+02  0.19396231090E+03  0.19923801503E+03  0.00000000000E+00 0. -1.
          1    1    1    2  502    0  0.17398174384E+02  0.18523028462E+02  0.77036278462E+01  0.26554565282E+02  0.00000000000E+00 0. -1.
         22    1    1    2    0    0  0.52945785650E+02 -0.72113468341E+02  0.37427266611E+03  0.38481636807E+03  0.00000000000E+00 0. -1.
         22    1    1    2    0    0 -0.28592659969E+02  0.35390507849E+02  0.24010590432E+03  0.24437854558E+03  0.00000000000E+00 0. -1.
</event>
<event>
 6    1  0.3240171E-005  0.1689747E+03  0.7818608E-02  0.1209027E+00
          2   -1    0    0  502    0  0.00000000000E+00  0.00000000000E+00  0.10082946878E+04  0.10082946878E+04  0.00000000000E+00 0.  1.
          1   -1    0    0  501    0 -0.00000000000E+00 -0.00000000000E+00 -0.60199529156E+02  0.60199529156E+02  0.00000000000E+00 0. -1.
          2    1    1    2  501    0  0.38068502797E+02  0.78089420612E+02  0.36114127462E+03  0.37144338567E+03  0.00000000000E+00 0.  1.
          1    1    1    2  502    0 -0.80540004806E+02 -0.12561292785E+03  0.77527175334E+02  0.16815398578E+03  0.00000000000E+00 0. -1.
         22    1    1    2    0    0  0.76671684043E+02  0.41682375196E+02  0.46179373731E+03  0.46996747053E+03  0.00000000000E+00 0.  1.
         22    1    1    2    0    0 -0.34200182034E+02  0.58411320425E+01  0.47632971394E+02  0.58929375005E+02  0.00000000000E+00 0. -1.
</event>
<event>
 6    1  0.3240171E-005  0.1000001E+03  0.7818608E-02  0.1328967E+00
          2   -1    0    0  502    0  0.00000000000E+00  0.00000000000E+00  0.17972075943E+02  0.17972075943E+02  0.00000000000E+00 0. -1.
          1   -1    0    0  501    0 -0.00000000000E+00 -0.00000000000E+00 -0.99468390995E+03  0.99468390995E+03  0.00000000000E+00 0.  1.
          2    1    1    2  501    0 -0.43076610296E+02 -0.12203676000E+02 -0.52488412363E+03  0.52679015490E+03  0.00000000000E+00 0. -1.
          1    1    1    2  502    0  0.29597498403E+02 -0.20467530576E+02 -0.20759797921E+03  0.21069374146E+03  0.00000000000E+00 0.  1.
         22    1    1    2    0    0 -0.19378651836E+02  0.54598116126E+02 -0.22284518732E+03  0.23025304329E+03  0.00000000000E+00 0.  1.
         22    1    1    2    0    0  0.32857763728E+02 -0.21926909550E+02 -0.21384543845E+02  0.44919046240E+02  0.00000000000E+00 0. -1.
</event>
<event>
 6    1  0.3240171E-005  0.1569610E+03  0.7818608E-02  0.1244380E+00
          2   -1    0    0  502    0  0.00000000000E+00  0.00000000000E+00  0.46072110690E+03  0.46072110690E+03  0.00000000000E+00 0. -1.
          1   -1    0    0  501    0 -0.00000000000E+00 -0.00000000000E+00 -0.21936066185E+03  0.21936066185E+03  0.00000000000E+00 0. -1.
          2    1    1    2  501    0 -0.23090922875E+02  0.23033220264E+02  0.17451662292E+02  0.36990275367E+02  0.00000000000E+00 0. -1.
          1    1    1    2  502    0  0.78750538504E+00  0.65963658818E+02 -0.18934807809E+03  0.20051064592E+03  0.00000000000E+00 0. -1.
         22    1    1    2    0    0  0.71175873545E+02 -0.70510023099E+02  0.32418962735E+03  0.33931781977E+03  0.00000000000E+00 0. -1.
         22    1    1    2    0    0 -0.48872456056E+02 -0.18486855983E+02  0.89067233495E+02  0.10326302769E+03  0.00000000000E+00 0. -1.
</event>
<event>
 6    1  0.3240171E-005  0.7212976E+02  0.7818608E-02  0.1370366E+00
          2   -1    0    0  502    0  0.00000000000E+00  0.00000000000E+00  0.20512676901E+03  0.20512676901E+03  0.00000000000E+00 0. -1.
          1   -1    0    0  501    0 -0.00000000000E+00 -0.00000000000E+00 -0.13249456160E+04  0.13249456160E+04  0.00000000000E+00 0. -1.
          2    1    1    2  501    0 -0.74253872091E+02  0.50237273374E+02 -0.11415815744E+03  0.14515338807E+03  0.00000000000E+00 0. -1.
          1    1    1    2  502    0  0.39493368532E+02 -0.12241650818E+02 -0.11706506490E+04  0.11713806068E+04  0.00000000000E+00 0. -1.
         22    1    1    2    0    0  0.27451708080E+02 -0.45511580802E+02  0.18416687232E+03  0.19168290776E+03  0.00000000000E+00 0. -1.
         22    1    1    2    0    0  0.73087954789E+01  0.75159582460E+01 -0.19176912917E+02  0.21855482350E+02  0.00000000000E+00 0. -1.
</event>
<event>
 6    1  0.3240171E-005  0.1318902E+03  0.7818608E-02  0.1347076E+00
          2   -1    0    0  502    0  0.00000000000E+00  0.00000000000E+00  0.53340369031E+02  0.53340369031E+02  0.00000000000E+00 0.  1.
          1   -1    0    0  501    0 -0.00000000000E+00 -0.00000000000E+00 -0.63200953561E+03  0.63200953561E+03  0.00000000000E+00 0.  1.
          2    1    1    2  501    0  0.15096384360E+02  0.15907134730E+02 -0.42103083503E+02  0.47472174972E+02  0.00000000000E+00 0.  1.
          1    1    1    2  502    0  0.23487233193E+02 -0.11839245366E+03 -0.41823831994E+03  0.43530646156E+03  0.00000000000E+00 0.  1.
         22    1    1    2    0    0 -0.26889114251E+02  0.10828248840E+03 -0.13892874386E+03  0.17818338202E+03  0.00000000000E+00 0.  1.
         22    1    1    2    0    0 -0.11694503302E+02 -0.57971694648E+01  0.20600980721E+02  0.24387886090E+02  0.00000000000E+00 0.  1.
</event>
<event>
 6    1  0.3240171E-005  0.1390710E+03  0.7818608E-02  0.1303459E+00
          2   -1    0    0  502    0  0.00000000000E+00  0.00000000000E+00  0.32278813185E+03  0.32278813185E+03  0.00000000000E+00 0.  1.
          1   -1    0    0  501    0 -0.00000000000E+00 -0.00000000000E+00 -0.42270070686E+02  0.42270070686E+02  0.00000000000E+00 0.  1.
          2    1    1    2  501    0  0.25649244002E+02  0.32695998627E+02  0.13268476131E+03  0.13904013064E+03  0.00000000000E+00 0.  1.
          1    1    1    2  502    0 -0.12962724128E+02 -0.40058723509E+02  0.53765589095E+02  0.68289619392E+02  0.00000000000E+00 0.  1.
         22    1    1    2    0    0 -0.34999983848E+02  0.16527723233E+02 -0.18290395806E+02  0.42810081562E+02  0.00000000000E+00 0.  1.
         22    1    1    2    0    0  0.22313463973E+02 -0.91649983512E+01  0.11235810656E+03  0.11491837094E+03  0.00000000000E+00 0.  1.
</event>
<event>
 6    1  0.3240171E-005  0.6540748E+02  0.7818608E-02  0.1393192E+00
          2   -1    0    0  502    0  0.00000000000E+00  0.00000000000E+00  0.26092583432E+03  0.26092583432E+03  0.00000000000E+00 0. -1.
          1   -1    0    0  501    0 -0.00000000000E+00 -0.00000000000E+00 -0.21061104879E+03  0.21061104879E+03  0.00000000000E+00 0.  1.
          2    1    1    2  501    0  0.20048512401E+02 -0.19412985171E+02 -0.10723174503E+01  0.27927705016E+02  0.00000000000E+00 0. -1.
          1    1    1    2  502    0 -0.17863291014E+02  0.15954953979E+02 -0.18061905171E+03  0.18220016345E+03  0.00000000000E+00 0.  1.
         22    1    1    2    0    0 -0.47979675119E+02 -0.50140967843E+01  0.19787231211E+03  0.20366797071E+03  0.00000000000E+00 0. -1.
         22    1    1    2    0    0  0.45794453732E+02  0.84721279756E+01  0.34133842577E+02  0.57741043930E+02  0.00000000000E+00 0. -1.
</event>
<event>
 6    1  0.3240171E-005  0.1816780E+03  0.7818608E-02  0.1232204E+00
          2   -1    0    0  502    0  0.00000000000E+00  0.00000000000E+00  0.30076078239E+03  0.30076078239E+03  0.00000000000E+00 0.  1.
          1   -1    0    0  501    0 -0.00000000000E+00 -0.00000000000E+00 -0.30569253246E+03  0.30569253246E+03  0.00000000000E+00 0.  1.
          2    1    1    2  501    0 -0.14783142883E+03 -0.33049776934E+02 -0.23918535098E+02  0.15335747594E+03  0.00000000000E+00 0.  1.
          1    1    1    2  502    0  0.16209838041E+03  0.53417767217E+02 -0.15915680966E+03  0.23336716317E+03  0.00000000000E+00 0.  1.
         22    1    1    2    0    0 -0.29102338649E+02  0.20182114858E+02 -0.10251703358E+01  0.35430422651E+02  0.00000000000E+00 0.  1.
         22    1    1    2    0    0  0.14835387070E+02 -0.40550105141E+02  0.17916876502E+03  0.18429825310E+03  0.00000000000E+00 0.  1.
</event>
<event>
 6    1  0.3240171E-005  0.7264387E+02  0.7818608E-02  0.1388693E+00
          2   -1    0    0  502    0  0.00000000000E+00  0.00000000000E+00  0.11466857078E+03  0.11466857078E+03  0.00000000000E+00 0. -1.
          1   -1    0    0  501    0 -0.00000000000E+00 -0.00000000000E+00 -0.21680484913E+03  0.21680484913E+03  0.00000000000E+00 0. -1.
          2    1    1    2  501    0  0.36128428457E+02  0.21593913673E+01 -0.13647898830E+03  0.14119646087E+03  0.00000000000E+00 0. -1.
          1    1    1    2  502    0 -0.19003527600E+02  0.43098106454E+02  0.34196406950E+02  0.58206314859E+02  0.00000000000E+00 0. -1.
         22    1    1    2    0    0  0.18162049047E+02 -0.28352064076E+02 -0.54979336935E+02  0.64470357939E+02  0.00000000000E+00 0. -1.
         22    1    1    2    0    0 -0.35286949903E+02 -0.16905433745E+02  0.55125639925E+02  0.67600286247E+02  0.00000000000E+00 0. -1.
</event>
<event>
 6    1  0.3240171E-005  0.4991541E+02  0.7818608E-02  0.1451632E+00
          2   -1    0    0  502    0  0.00000000000E+00  0.00000000000E+00  0.90004558368E+02  0.90004558368E+02  0.00000000000E+00 0.  1.
          1   -1    0    0  501    0 -0.00000000000E+00 -0.00000000000E+00 -0.69085325339E+03  0.69085325339E+03  0.00000000000E+00 0. -1.
          2    1    1    2  501    0  0.29767957916E+02  0.18851778617E+02 -0.66305347284E+02  0.75086083624E+02  0.00000000000E+00 0.  1.
          1    1    1    2  502    0 -0.69063747092E+00 -0.32405889049E+02 -0.56733399113E+03  0.56825916281E+03  0.00000000000E+00 0. -1.
         22    1    1    2    0    0  0.13991353847E+02  0.27343080450E+02 -0.40841570880E+02  0.51102210744E+02  0.00000000000E+00 0.  1.
         22    1    1    2    0    0 -0.43068674292E+02 -0.13788970018E+02  0.73632214274E+02  0.86410354578E+02  0.00000000000E+00 0.  1.
</event>
<event>
 6    1  0.3240171E-005  0.1134465E+03  0.7818608E-02  0.1356561E+00
          2   -1    0    0  502    0  0.00000000000E+00  0.00000000000E+00  0.38969973833E+02  0.38969973833E+02  0.00000000000E+00 0.  1.
          1   -1    0    0  501    0 -0.00000000000E+00 -0.00000000000E+00 -0.48938526447E+03  0.48938526447E+03  0.00000000000E+00 0.  1.
          2    1    1    2  501    0 -0.33053071916E+02  0.36465801427E+01 -0.66652647141E+02  0.74487438409E+02  0.00000000000E+00 0.  1.
          1    1    1    2  502    0 -0.35597773052E+02  0.13965843744E+02 -0.25837520930E+03  0.26118957678E+03  0.00000000000E+00 0.  1.
         22    1    1    2    0    0  0.80198728878E+02 -0.30698386655E+02 -0.14368584909E+03  0.16739130887E+03  0.00000000000E+00 0.  1.
         22    1    1    2    0    0 -0.11547883910E+02  0.13085962768E+02  0.18298414893E+02  0.25286914244E+02  0.00000000000E+00 0.  1.
</event>
<event>
 6    1  0.3240171E-005  0.1327336E+03  0.7818608E-02  0.1256906E+00
          2   -1    0    0  502    0  0.00000000000E+00  0.00000000000E+00  0.16128109523E+02  0.16128109523E+02  0.00000000000E+00 0. -1.
          1   -1    0    0  501    0 -0.00000000000E+00 -0.00000000000E+00 -0.18013131910E+04  0.18013131910E+04  0.00000000000E+00 0.  1.
          2    1    1    2  501    0 -0.63609246085E+02  0.44485246437E+02 -0.30873024573E+03  0.31833855872E+03  0.00000000000E+00 0. -1.
          1    1    1    2  502    0  0.19185502110E+02 -0.24331299653E+02 -0.10806642250E+04  0.10811083492E+04  0.00000000000E+00 0.  1.
         22    1    1    2    0    0 -0.68932116579E+01 -0.62413755920E+02 -0.13540322004E+03  0.14925490040E+03  0.00000000000E+00 0.  1.
         22    1    1    2    0    0  0.51316955633E+02  0.42259809135E+02 -0.26038739067E+03  0.26873949212E+03  0.00000000000E+00 0. -1.
</event>
<event>
 6    1  0.3240171E-005  0.1882107E+03  0.7818608E-02  0.1237675E+00
          2   -1    0    0  502    0  0.00000000000E+00  0.00000000000E+00  0.95785368092E+02  0.95785368092E+02  0.00000000000E+00 0. -1.
          1   -1    0    0  501    0 -0.00000000000E+00 -0.00000000000E+00 -0.70992490512E+03  0.70992490512E+03  0.00000000000E+00 0. -1.
          2    1    1    2  501    0 -0.71151222781E+02  0.29388793763E+02 -0.57043032412E+02  0.95812865780E+02  0.00000000000E+00 0. -1.
          1    1    1    2  502    0  0.16513894797E+03 -0.70809667834E+02 -0.51307992138E+03  0.54363212462E+03  0.00000000000E+00 0. -1.
         22    1    1    2    0    0 -0.98704369032E+02  0.75819829302E+02 -0.42469880426E+02  0.13151003659E+03  0.00000000000E+00 0.  1.
         22    1    1    2    0    0  0.47166438439E+01 -0.34398955231E+02 -0.15467028082E+01  0.34755246219E+02  0.00000000000E+00 0. -1.
</event>
<event>
 6    1  0.3240171E-005  0.1043823E+03  0.7818608E-02  0.1271883E+00
          2   -1    0    0  502    0  0.00000000000E+00  0.00000000000E+00  0.54024971897E+03  0.54024971897E+03  0.00000000000E+00 0.  1.
          1   -1    0    0  501    0 -0.00000000000E+00 -0.00000000000E+00 -0.41015823407E+03  0.41015823407E+03  0.00000000000E+00 0.  1.
          2    1    1    2  501    0 -0.33736093705E+02  0.58753312133E+02  0.40509643404E+02  0.78937360696E+02  0.00000000000E+00 0.  1.
          1    1    1    2  502    0  0.16407496380E+01  0.26778618453E+02 -0.37773996449E+03  0.37869151989E+03  0.00000000000E+00 0.  1.
         22    1    1    2    0    0 -0.33119379778E+01  0.16612599329E+02  0.45392570387E+01  0.17537167505E+02  0.00000000000E+00 0.  1.
         22    1    1    2    0    0  0.35407282044E+02 -0.10214452991E+03  0.46278254894E+03  0.47524190494E+03  0.00000000000E+00 0.  1.
</event>
<event>
 6    1  0.3240171E-005  0.5049792E+02  0.7818608E-02  0.1499952E+00
          2   -1    0    0  502    0  0.00000000000E+00  0.00000000000E+00  0.68676721793E+02  0.68676721793E+02  0.00000000000E+00 0. -1.
          1   -1    0    0  501    0 -0.00000000000E+00 -0.00000000000E+00 -0.42437604430E+03  0.42437604430E+03  0.00000000000E+00 0. -1.
          2    1    1    2  501    0 -0.15113920400E+02 -0.30753168223E+02 -0.31264642467E+03  0.31451863984E+03  0.00000000000E+00 0. -1.
          1    1    1    2  502    0  0.21639563455E+02  0.23432005207E+01 -0.47026195629E+02  0.51819150616E+02  0.00000000000E+00 0. -1.
         22    1    1    2    0    0  0.98752751918E+01  0.19877136049E+02  0.61979531345E+02  0.65833759602E+02  0.00000000000E+00 0. -1.
         22    1    1    2    0    0 -0.16400918248E+02  0.85328316524E+01 -0.58006233550E+02  0.60881216036E+02  0.00000000000E+00 0.  1.
</event>
<event>
 6    1  0.3240171E-005  0.2818769E+03  0.7818608E-02  0.1160676E+00
          2   -1    0    0  502    0  0.00000000000E+00  0.00000000000E+00  0.36298099027E+03  0.36298099027E+03  0.00000000000E+00 0.  1.
          1   -1    0    0  501    0 -0.00000000000E+00 -0.00000000000E+00 -0.36970232713E+03  0.36970232713E+03  0.00000000000E+00 0.  1.
          2    1    1    2  501    0 -0.18785437417E+03  0.18014052082E+03 -0.70171278002E+02  0.26956238868E+03  0.00000000000E+00 0.  1.
          1    1    1    2  502    0  0.16235341262E+03 -0.19929770608E+03 -0.82046136155E+02  0.26983286437E+03  0.00000000000E+00 0.  1.
         22    1    1    2    0    0  0.52763117562E+02 -0.16431114574E+02  0.13691080548E+03  0.14764313990E+03  0.00000000000E+00 0. -1.
         22    1    1    2    0    0 -0.27262156010E+02  0.35588299840E+02  0.85852718123E+01  0.45644924449E+02  0.00000000000E+00 0.  1.
</event>
<event>
 6    1  0.3240171E-005  0.1035482E+03  0.7818608E-02  0.1274915E+00
          2   -1    0    0  502    0  0.00000000000E+00  0.00000000000E+00  0.14480333245E+03  0.14480333245E+03  0.00000000000E+00 0.  1.
          1   -1    0    0  501    0 -0.00000000000E+00 -0.00000000000E+00 -0.93334870808E+03  0.93334870808E+03  0.00000000000E+00 0. -1.
          2    1    1    2  501    0 -0.11265913346E+03  0.90280114285E+01 -0.95741943601E+02  0.14812192649E+03  0.00000000000E+00 0.  1.
          1    1    1    2  502    0  0.50614787420E+02  0.13228501064E+02 -0.76975909496E+03  0.77153477836E+03  0.00000000000E+00 0. -1.
         22    1    1    2    0    0 -0.29475652776E+02 -0.12634003095E+01 -0.93612583705E+01  0.30952276898E+02  0.00000000000E+00 0.  1.
         22    1    1    2    0    0  0.91519998812E+02 -0.20993112183E+02  0.86316921300E+02  0.12754305879E+03  0.00000000000E+00 0. -1.
</event>
<event>
 6    1  0.3240171E-005  0.2499274E+03  0.7818608E-02  0.1244235E+00
          2   -1    0    0  502    0  0.00000000000E+00  0.00000000000E+00  0.58087110606E+02  0.58087110606E+02  0.00000000000E+00 0. -1.
          1   -1    0    0  501    0 -0.00000000000E+00 -0.00000000000E+00 -0.10040986302E+04  0.10040986302E+04  0.00000000000E+00 0. -1.
          2    1    1    2  501    0  0.18296679691E+02  0.56015362774E+02 -0.20734350645E+03  0.21555467757E+03  0.00000000000E+00 0. -1.
          1    1    1    2  502    0  0.13708861518E+03 -0.12033937657E+03 -0.48899252152E+03  0.52190855528E+03  0.00000000000E+00 0. -1.
         22    1    1    2    0    0 -0.16797677115E+03  0.67479701158E+02 -0.25321506179E+03  0.31126768742E+03  0.00000000000E+00 0. -1.
         22    1    1    2    0    0  0.12591476276E+02 -0.31556873597E+01  0.35395702091E+01  0.13454820503E+02  0.00000000000E+00 0. -1.
</event>
<event>
 6    1  0.3240171E-005  0.1396080E+03  0.7818608E-02  0.1305250E+00
          2   -1    0    0  502    0  0.00000000000E+00  0.00000000000E+00  0.30189983517E+02  0.30189983517E+02  0.00000000000E+00 0.  1.
          1   -1    0    0  501    0 -0.00000000000E+00 -0.00000000000E+00 -0.62654562938E+03  0.62654562938E+03  0.00000000000E+00 0.  1.
          2    1    1    2  501    0  0.39724239239E+02 -0.52288508757E+02 -0.30987220279E+03  0.31675366674E+03  0.00000000000E+00 0.  1.
          1    1    1    2  502    0  0.26497348182E+02 -0.96665022925E+01 -0.75802455688E+02  0.80879929622E+02  0.00000000000E+00 0.  1.
         22    1    1    2    0    0 -0.58111744556E+02  0.40351099310E+02 -0.22228555444E+03  0.23327248827E+03  0.00000000000E+00 0.  1.
         22    1    1    2    0    0 -0.81098428646E+01  0.21603911740E+02  0.11604567057E+02  0.25829528264E+02  0.00000000000E+00 0. -1.
</event>
<event>
 6    1  0.3240171E-005  0.1105408E+03  0.7818608E-02  0.1367410E+00
          2   -1    0    0  502    0  0.00000000000E+00  0.00000000000E+00  0.12998263574E+03  0.12998263574E+03  0.00000000000E+00 0.  1.
          1   -1    0    0  501    0 -0.00000000000E+00 -0.00000000000E+00 -0.36620292539E+03  0.36620292539E+03  0.00000000000E+00 0. -1.
          2    1    1    2  501    0  0.14057049426E+02  0.24444410867E+02 -0.82485194851E-01  0.28198167759E+02  0.00000000000E+00 0.  1.
          1    1    1    2  502    0 -0.99612158135E+02 -0.31379702942E+02 -0.28932227295E+03  0.30759493726E+03  0.00000000000E+00 0. -1.
         22    1    1    2    0    0  0.15513487706E+02 -0.25988229413E+01  0.82412789907E+02  0.83900477482E+02  0.00000000000E+00 0. -1.
         22    1    1    2    0    0  0.70041621003E+02  0.95341150169E+01 -0.29228321409E+02  0.76491978627E+02  0.00000000000E+00 0.  1.
</event>
<event>
 6    1  0.3240171E-005  0.1295635E+03  0.7818608E-02  0.1260722E+00
          2   -1    0    0  502    0  0.00000000000E+00  0.00000000000E+00  0.31914429468E+03  0.31914429468E+03  0.00000000000E+00 0. -1.
          1   -1    0    0  501    0 -0.00000000000E+00 -0.00000000000E+00 -0.43809925129E+03  0.43809925129E+03  0.00000000000E+00 0. -1.
          2    1    1    2  501    0  0.23261266684E+02 -0.81271078251E+02 -0.27374082777E+03  0.28649627481E+03  0.00000000000E+00 0. -1.
          1    1    1    2  502    0 -0.11346347209E+02  0.40817087879E+02 -0.14076591110E+03  0.14700277544E+03  0.00000000000E+00 0. -1.
         22    1    1    2    0    0 -0.19681129931E+02  0.63599551690E+02  0.29148884890E+03  0.29899498137E+03  0.00000000000E+00 0. -1.
         22    1    1    2    0    0  0.77662104559E+01 -0.23145561317E+02  0.40629333718E+01  0.24749514361E+02  0.00000000000E+00 0.  1.
</event>
<event>
 6    1  0.3240171E-005  0.2220211E+03  0.7818608E-02  0.1266743E+00
          2   -1    0    0  502    0  0.00000000000E+00  0.00000000000E+00  0.49662551364E+02  0.49662551364E+02  0.00000000000E+00 0.  1.
          1   -1    0    0  501    0 -0.00000000000E+00 -0.00000000000E+00 -0.36106623651E+04  0.36106623651E+04  0.00000000000E+00 0.  1.
          2    1    1    2  501    0  0.19818592171E+02  0.13874663439E+03 -0.27663239780E+03  0.31011109084E+03  0.00000000000E+00 0.  1.
          1    1    1    2  502    0  0.18777644337E+02 -0.78768964413E+02 -0.31540091172E+04  0.31550484404E+04  0.00000000000E+00 0.  1.
         22    1    1    2    0    0 -0.33266799577E+02 -0.70570427177E+02 -0.15179307723E+03  0.17066928089E+03  0.00000000000E+00 0. -1.
         22    1    1    2    0    0 -0.53294369317E+01  0.10592757200E+02  0.21434778458E+02  0.24496104397E+02  0.00000000000E+00 0.  1.
</event>
<event>
 6    1  0.3240171E-005  0.3432018E+03  0.7818608E-02  0.1147778E+00
          2   -1    0    0  502    0  0.00000000000E+00  0.00000000000E+00  0.37730279956E+03  0.37730279956E+03  0.00000000000E+00 0. -1.
          1   -1    0    0  501    0 -0.00000000000E+00 -0.00000000000E+00 -0.68191511102E+03  0.68191511102E+03  0.00000000000E+00 0.  1.
          2    1    1    2  501    0  0.20128163195E+02  0.83185199562E+02 -0.70194809695E+02  0.11068979939E+03  0.00000000000E+00 0. -1.
          1    1    1    2  502    0  0.13723018426E+03 -0.37187931707E+02 -0.55142768135E+03  0.56946251280E+03  0.00000000000E+00 0.  1.
         22    1    1    2    0    0 -0.25043123378E+02  0.33049711269E+02  0.13149245635E+03  0.13787569590E+03  0.00000000000E+00 0. -1.
         22    1    1    2    0    0 -0.13231522407E+03 -0.79046979124E+02  0.18551772323E+03  0.24118990249E+03  0.00000000000E+00 0. -1.
</event>
<event>
 6    1  0.3240171E-005  0.1673398E+03  0.7818608E-02  0.1183236E+00
          2   -1    0    0  502    0  0.00000000000E+00  0.00000000000E+00  0.58016116257E+03  0.58016116257E+03  0.00000000000E+00 0.  1.
          1   -1    0    0  501    0 -0.00000000000E+00 -0.00000000000E+00 -0.17909952960E+03  0.17909952960E+03  0.00000000000E+00 0.  1.
          2    1    1    2  501    0  0.17847561929E+03 -0.13672353418E+03 -0.44454075006E+01  0.22487025843E+03  0.00000000000E+00 0.  1.
          1    1    1    2  502    0 -0.51801617455E+02  0.10747214999E+03  0.37940308761E+02  0.12519240242E+03  0.00000000000E+00 0.  1.
         22    1    1    2    0    0  0.13872228170E+02 -0.18267774347E+02  0.17064958219E+02  0.28589562659E+02  0.00000000000E+00 0.  1.
         22    1    1    2    0    0 -0.14054623001E+03  0.47519158537E+02  0.35050177349E+03  0.38060846866E+03  0.00000000000E+00 0.  1.
</event>
<event>
 6    1  0.3240171E-005  0.1055424E+03  0.7818608E-02  0.1339574E+00
          2   -1    0    0  502    0  0.00000000000E+00  0.00000000000E+00  0.21576957318E+03  0.21576957318E+03  0.00000000000E+00 0.  1.
          1   -1    0    0  501    0 -0.00000000000E+00 -0.00000000000E+00 -0.18837466737E+03  0.18837466737E+03  0.00000000000E+00 0.  1.
          2    1    1    2  501    0  0.45957561529E+02  0.12763015051E+02  0.16286875652E+02  0.50400935839E+02  0.00000000000E+00 0.  1.
          1    1    1    2  502    0 -0.16585612621E+02 -0.36249592985E+02 -0.14352284145E+03  0.14895610614E+03  0.00000000000E+00 0.  1.
         22    1    1    2    0    0 -0.47588541581E+02  0.46035244751E+02  0.23138815750E+02  0.70137848865E+02  0.00000000000E+00 0.  1.
         22    1    1    2    0    0  0.18216592672E+02 -0.22548666816E+02  0.13149205585E+03  0.13464934971E+03  0.00000000000E+00 0.  1.
</event>
<event>
 6    1  0.3240171E-005  0.4537724E+02  0.7818608E-02  0.1481598E+00
          2   -1    0    0  502    0  0.00000000000E+00  0.00000000000E+00  0.13286076197E+03  0.13286076197E+03  0.00000000000E+00 0. -1.
          1   -1    0    0  501    0 -0.00000000000E+00 -0.00000000000E+00 -0.27069293712E+03  0.27069293712E+03  0.00000000000E+00 0. -1.
          2    1    1    2  501    0  0.31769173561E+02 -0.12889326495E+02 -0.21711812503E+03  0.21980831500E+03  0.00000000000E+00 0. -1.
          1    1    1    2  502    0 -0.26703406247E+02 -0.24074042259E+02  0.26370685992E+02  0.44587492591E+02  0.00000000000E+00 0. -1.
         22    1    1    2    0    0 -0.19003352096E+02  0.34888989099E+02  0.90598347875E+02  0.98926384695E+02  0.00000000000E+00 0. -1.
         22    1    1    2    0    0  0.13937584782E+02  0.20743796550E+01 -0.37683083987E+02  0.40231506799E+02  0.00000000000E+00 0.  1.
</event>
<event>
 6    1  0.3240171E-005  0.9131385E+02  0.7818608E-02  0.1335478E+00
          2   -1    0    0  502    0  0.00000000000E+00  0.00000000000E+00  0.26751929808E+03  0.26751929808E+03  0.00000000000E+00 0. -1.
          1   -1    0    0  501    0 -0.00000000000E+00 -0.00000000000E+00 -0.24353020162E+03  0.24353020162E+03  0.00000000000E+00 0. -1.
          2    1    1    2  501    0  0.27438146888E+02  0.42176677289E+02 -0.13659156521E+03  0.14556434900E+03  0.00000000000E+00 0. -1.
          1    1    1    2  502    0 -0.10900945058E+03 -0.64882072187E+02  0.17073682627E+03  0.21270591777E+03  0.00000000000E+00 0. -1.
         22    1    1    2    0    0  0.33891680819E+02  0.16642339780E+02 -0.67874293180E+02  0.77669383780E+02  0.00000000000E+00 0. -1.
         22    1    1    2    0    0  0.47679622873E+02  0.60630551187E+01  0.57718128575E+02  0.75109849161E+02  0.00000000000E+00 0. -1.
</event>
<event>
 6    1  0.3240171E-005  0.8337644E+02  0.7818608E-02  0.1397443E+00
          2   -1    0    0  502    0  0.00000000000E+00  0.00000000000E+00  0.10861135571E+03  0.10861135571E+03  0.00000000000E+00 0.  1.
          1   -1    0    0  501    0 -0.00000000000E+00 -0.00000000000E+00 -0.23575928308E+03  0.23575928308E+03  0.00000000000E+00 0.  1.
          2    1    1    2  501    0  0.48703206759E+02  0.40126935168E+02 -0.65115962360E+02  0.90676688452E+02  0.00000000000E+00 0.  1.
          1    1    1    2  502    0 -0.38828217823E+02 -0.43924042247E+02 -0.10410853450E+03  0.11948028683E+03  0.00000000000E+00 0.  1.
         22    1    1    2    0    0  0.20987212608E+01 -0.15251004842E+02 -0.43282743096E+02  0.45939020773E+02  0.00000000000E+00 0.  1.
         22    1    1    2    0    0 -0.11973710197E+02  0.19048111922E+02  0.85359312582E+02  0.88274642724E+02  0.00000000000E+00 0.  1.
</event>
<event>
 6    1  0.3240171E-005  0.7736080E+02  0.7818608E-02  0.1341033E+00
          2   -1    0    0  502    0  0.00000000000E+00  0.00000000000E+00  0.47635515412E+03  0.47635515412E+03  0.00000000000E+00 0. -1.
          1   -1    0    0  501    0 -0.00000000000E+00 -0.00000000000E+00 -0.19818667938E+02  0.19818667938E+02  0.00000000000E+00 0. -1.
          2    1    1    2  501    0  0.21393017162E+02 -0.11551223093E+01  0.81098950391E+02  0.83881077993E+02  0.00000000000E+00 0. -1.
          1    1    1    2  502    0  0.22597434030E+02  0.26965107569E+02  0.52044210690E+02  0.62820067791E+02  0.00000000000E+00 0. -1.
         22    1    1    2    0    0 -0.78265256885E+02  0.14212329057E+02  0.18433029001E+03  0.20076129245E+03  0.00000000000E+00 0. -1.
         22    1    1    2    0    0  0.34274805693E+02 -0.40022314316E+02  0.13906303509E+03  0.14871138382E+03  0.00000000000E+00 0. -1.
</event>
<event>
 6    1  0.3240171E-005  0.2026099E+03  0.7818608E-02  0.1194598E+00
          2   -1    0    0  502    0  0.00000000000E+00  0.00000000000E+00  0.37348012027E+03  0.37348012027E+03  0.00000000000E+00 0.  1.
          1   -1    0    0  501    0 -0.00000000000E+00 -0.00000000000E+00 -0.14262052839E+03  0.14262052839E+03  0.00000000000E+00 0.  1.
          2    1    1    2  501    0 -0.26073021517E+02  0.42470439459E+02 -0.40242029268E+02  0.64054364398E+02  0.00000000000E+00 0.  1.
          1    1    1    2  502    0  0.35997362968E+02 -0.36864115123E+02 -0.70717525477E+02  0.87497094432E+02  0.00000000000E+00 0.  1.
         22    1    1    2    0    0  0.24754908381E+02  0.52358541559E+02  0.18350179712E+03  0.19242435373E+03  0.00000000000E+00 0.  1.
         22    1    1    2    0    0 -0.34679249833E+02 -0.57964865895E+02  0.15831734951E+03  0.17212483610E+03  0.00000000000E+00 0.  1.
</event>
<event>
 6    1  0.3240171E-005  0.1205536E+03  0.7818608E-02  0.1276649E+00
          2   -1    0    0  502    0  0.00000000000E+00  0.00000000000E+00  0.12784021064E+02  0.12784021064E+02  0.00000000000E+00 0.  1.
          1   -1    0    0  501    0 -0.00000000000E+00 -0.00000000000E+00 -0.17467825983E+04  0.17467825983E+04  0.00000000000E+00 0.  1.
          2    1    1    2  501    0  0.19407778365E+01 -0.30095980109E+02 -0.38281429189E+03  0.38400041239E+03  0.00000000000E+00 0.  1.
          1    1    1    2  502    0  0.41421384165E+02  0.13591790615E+01 -0.95898308225E+03  0.95987818523E+03  0.00000000000E+00 0.  1.
         22    1    1    2    0    0  0.38615535527E+02  0.39201405160E+02 -0.14989117474E+03  0.15967239591E+03  0.00000000000E+00 0.  1.
         22    1    1    2    0    0 -0.81977697528E+02 -0.10464604113E+02 -0.24231002832E+03  0.25601562580E+03  0.00000000000E+00 0.  1.
</event>
<event>
 6    1  0.3240171E-005  0.2259878E+03  0.7818608E-02  0.1136921E+00
          2   -1    0    0  502    0  0.00000000000E+00  0.00000000000E+00  0.21925455906E+03  0.21925455906E+03  0.00000000000E+00 0. -1.
          1   -1    0    0  501    0 -0.00000000000E+00 -0.00000000000E+00 -0.10585677033E+04  0.10585677033E+04  0.00000000000E+00 0. -1.
          2    1    1    2  501    0 -0.23121664152E+03  0.11475784129E+03 -0.84583695473E+03  0.88434758519E+03  0.00000000000E+00 0. -1.
          1    1    1    2  502    0  0.61185384837E+02 -0.14530446810E+03  0.67464155622E+02  0.17148892693E+03  0.00000000000E+00 0. -1.
         22    1    1    2    0    0 -0.11278530127E+02  0.26657311360E+02 -0.22360344124E+02  0.36575982285E+02  0.00000000000E+00 0.  1.
         22    1    1    2    0    0  0.18130978681E+03  0.38893154469E+01 -0.38580000980E+02  0.18540976793E+03  0.00000000000E+00 0.  1.
</event>
<event>
 6    1  0.3240171E-005  0.2108850E+03  0.7818608E-02  0.1176656E+00
          2   -1    0    0  502    0  0.00000000000E+00  0.00000000000E+00  0.28571958171E+03  0.28571958171E+03  0.00000000000E+00 0. -1.
          1   -1    0    0  501    0 -0.00000000000E+00 -0.00000000000E+00 -0.27015212501E+03  0.27015212501E+03  0.00000000000E+00 0. -1.
          2    1    1    2  501    0 -0.76815607804E+02  0.13747358694E+03 -0.14101057539E+03  0.21138497364E+03  0.00000000000E+00 0. -1.
          1    1    1    2  502    0  0.10091666326E+03 -0.62148479575E+01 -0.64477373388E+01  0.10131323001E+03  0.00000000000E+00 0. -1.
         22    1    1    2    0    0 -0.41825224085E+02 -0.41507749957E+02  0.31946986044E+01  0.59012276481E+02  0.00000000000E+00 0.  1.
         22    1    1    2    0    0  0.17724168633E+02 -0.89750989022E+02  0.15983107082E+03  0.18416122660E+03  0.00000000000E+00 0. -1.
</event>
<event>
 6    1  0.3240171E-005  0.6624879E+02  0.7818608E-02  0.1466488E+00
          2   -1    0    0  502    0  0.00000000000E+00  0.00000000000E+00  0.68622417163E+02  0.68622417163E+02  0.00000000000E+00 0.  1.
          1   -1    0    0  501    0 -0.00000000000E+00 -0.00000000000E+00 -0.25858611498E+03  0.25858611498E+03  0.00000000000E+00 0.  1.
          2    1    1    2  501    0 -0.12289948605E+02 -0.33738884753E+02 -0.12783835166E+03  0.13278553888E+03  0.00000000000E+00 0.  1.
          1    1    1    2  502    0 -0.29643091284E+02  0.19750742053E+02 -0.48746290318E+02  0.60373880878E+02  0.00000000000E+00 0.  1.
         22    1    1    2    0    0  0.27529556653E+02  0.75388456641E+01 -0.69827572572E+02  0.75436069454E+02  0.00000000000E+00 0.  1.
         22    1    1    2    0    0  0.14403483236E+02  0.64492970361E+01  0.56448516726E+02  0.58613042935E+02  0.00000000000E+00 0.  1.
</event>
<event>
 6    1  0.3240171E-005  0.1105242E+03  0.7818608E-02  0.1299042E+00
          2   -1    0    0  502    0  0.00000000000E+00  0.00000000000E+00  0.21943174255E+03  0.21943174255E+03  0.00000000000E+00 0.  1.
          1   -1    0    0  501    0 -0.00000000000E+00 -0.00000000000E+00 -0.22098240793E+03  0.22098240793E+03  0.00000000000E+00 0.  1.
          2    1    1    2  501    0 -0.14335493573E+02 -0.18698781959E+02  0.18779515166E+02  0.30130068247E+02  0.00000000000E+00 0.  1.
          1    1    1    2  502    0  0.84256591476E+01  0.93284751545E+02 -0.17389674525E+03  0.19751737800E+03  0.00000000000E+00 0.  1.
         22    1    1    2    0    0 -0.52119757535E+02 -0.82596251623E+00  0.41755094916E+02  0.66788017571E+02  0.00000000000E+00 0.  1.
         22    1    1    2    0    0  0.58029591960E+02 -0.73760007070E+02  0.11181146978E+03  0.14597868666E+03  0.00000000000E+00 0.  1.
</event>
<event>
 6    1  0.3240171E-005  0.2459477E+03  0.7818608E-02  0.1203012E+00
          2   -1    0    0  502    0  0.00000000000E+00  0.00000000000E+00  0.52656831581E+03  0.52656831581E+03  0.00000000000E+00 0.  1.
          1   -1    0    0  501    0 -0.00000000000E+00 -0.00000000000E+00 -0.63956673297E+02  0.63956673297E+02  0.00000000000E+00 0.  1.
          2    1    1    2  501    0 -0.12403842239E+03 -0.38896450368E+02  0.20528659762E+03  0.24298364398E+03  0.00000000000E+00 0.  1.
          1    1    1    2  502    0  0.16016237410E+02 -0.24836689271E+02 -0.55651558187E+01  0.30072445095E+02  0.00000000000E+00 0.  1.
         22    1    1    2    0    0  0.26083467922E+02 -0.17325199392E+02  0.15978355103E+03  0.16282288848E+03  0.00000000000E+00 0. -1.
         22    1    1    2    0    0  0.81938717058E+02  0.81058339031E+02  0.10310664968E+03  0.15464601155E+03  0.00000000000E+00 0.  1.
</event>
<event>
 6    1  0.3240171E-005  0.8083917E+02  0.7818608E-02  0.1336827E+00
          2   -1    0    0  502    0  0.00000000000E+00  0.00000000000E+00  0.16622924939E+03  0.16622924939E+03  0.00000000000E+00 0. -1.
          1   -1    0    0  501    0 -0.00000000000E+00 -0.00000000000E+00 -0.15432134886E+03  0.15432134886E+03  0.00000000000E+00 0.  1.
          2    1    1    2  501    0 -0.34476231051E+01  0.27652658296E+02  0.21663304998E+02  0.35296662723E+02  0.00000000000E+00 0. -1.
          1    1    1    2  502    0 -0.39601227480E+02 -0.34635016831E+01 -0.11263183344E+03  0.11944112761E+03  0.00000000000E+00 0.  1.
         22    1    1    2    0    0  0.47197152550E+02  0.35883151006E+02  0.83790410661E+02  0.10264504203E+03  0.00000000000E+00 0. -1.
         22    1    1    2    0    0 -0.41483019653E+01 -0.60072307619E+02  0.19086018307E+02  0.63167765884E+02  0.00000000000E+00 0.  1.
</event>
<event>
 6    1  0.3240171E-005  0.1417571E+03  0.7818608E-02  0.1299124E+00
          2   -1    0    0  502    0  0.00000000000E+00  0.00000000000E+00  0.33717641039E+02  0.33717641039E+02  0.00000000000E+00 0. -1.
          1   -1    0    0  501    0 -0.00000000000E+00 -0.00000000000E+00 -0.97689179360E+03  0.97689179360E+03  0.00000000000E+00 0. -1.
          2    1    1    2  501    0 -0.76303749967E+02  0.53843245407E+02 -0.33688396838E+03  0.34958856601E+03  0.00000000000E+00 0. -1.
          1    1    1    2  502    0  0.64532461390E+02 -0.75912878259E+02 -0.44966810123E+03  0.46057421218E+03  0.00000000000E+00 0. -1.
         22    1    1    2    0    0  0.34885598168E+02  0.30686464288E+02 -0.16725213940E+03  0.17358554716E+03  0.00000000000E+00 0. -1.
         22    1    1    2    0    0 -0.23114309592E+02 -0.86168314362E+01  0.10630056450E+02  0.26861109285E+02  0.00000000000E+00 0. -1.
</event>
<event>
 6    1  0.3240171E-005  0.1211248E+03  0.7818608E-02  0.1319003E+00
          2   -1    0    0  502    0  0.00000000000E+00  0.00000000000E+00  0.85906808381E+02  0.85906808381E+02  0.00000000000E+00 0. -1.
          1   -1    0    0  501    0 -0.00000000000E+00 -0.00000000000E+00 -0.10404064617E+04  0.10404064617E+04  0.00000000000E+00 0. -1.
          2    1    1    2  501    0 -0.70453329061E+01 -0.20801746553E+02 -0.95306191183E+02  0.97803984854E+02  0.00000000000E+00 0. -1.
          1    1    1    2  502    0  0.57125590277E+02  0.88720900217E+02 -0.87298109288E+03  0.87933538524E+03  0.00000000000E+00 0. -1.
         22    1    1    2    0    0 -0.51103725283E+02 -0.40386339867E+02 -0.48404587737E+02  0.81152025850E+02  0.00000000000E+00 0. -1.
         22    1    1    2    0    0  0.10234679114E+01 -0.27532813797E+02  0.62192218481E+02  0.68021874142E+02  0.00000000000E+00 0. -1.
</event>
<event>
 6    1  0.3240171E-005  0.2085803E+03  0.7818608E-02  0.1222060E+00
          2   -1    0    0  502    0  0.00000000000E+00  0.00000000000E+00  0.77848740916E+03  0.77848740916E+03  0.00000000000E+00 0.  1.
          1   -1    0    0  501    0 -0.00000000000E+00 -0.00000000000E+00 -0.98581705328E+02  0.98581705328E+02  0.00000000000E+00 0.  1.
          2    1    1    2  501    0 -0.73877499629E+01  0.69198944196E+02  0.12734554808E+03  0.14512050628E+03  0.00000000000E+00 0.  1.
          1    1    1    2  502    0 -0.67430989706E+02  0.21512549430E+02 -0.62175207628E+02  0.94209790358E+02  0.00000000000E+00 0.  1.
         22    1    1    2    0    0  0.19729617810E+02  0.29172896677E+02  0.18045077809E+03  0.18385537532E+03  0.00000000000E+00 0. -1.
         22    1    1    2    0    0  0.55089121859E+02 -0.11988439030E+03  0.43428458529E+03  0.45388344254E+03  0.00000000000E+00 0.  1.
</event>
<event>
 6    1  0.3240171E-005  0.7204601E+02  0.7818608E-02  0.1360143E+00
          2   -1    0    0  502    0  0.00000000000E+00  0.00000000000E+00  0.31054880482E+02  0.31054880482E+02  0.00000000000E+00 0. -1.
          1   -1    0    0  501    0 -0.00000000000E+00 -0.00000000000E+00 -0.82169767955E+03  0.82169767955E+03  0.00000000000E+00 0.  1.
          2    1    1    2  501    0 -0.22678974888E+02 -0.10791693370E+01 -0.46477296193E+02  0.51726584749E+02  0.00000000000E+00 0. -1.
          1    1    1    2  502    0  0.50330503750E+01  0.20540328153E+02 -0.62043093011E+03  0.62079124971E+03  0.00000000000E+00 0.  1.
         22    1    1    2    0    0 -0.20098854364E+02  0.36332589811E+02 -0.10089770784E+03  0.10910714219E+03  0.00000000000E+00 0. -1.
         22    1    1    2    0    0  0.37744778877E+02 -0.55793748627E+02 -0.22836864920E+02  0.71127583382E+02  0.00000000000E+00 0. -1.
</event>
<event>
 6    1  0.3240171E-005  0.9912980E+02  0.7818608E-02  0.1305463E+00
          2   -1    0    0  502    0  0.00000000000E+00  0.00000000000E+00  0.48661857863E+02  0.48661857863E+02  0.00000000000E+00 0.  1.
          1   -1    0    0  501    0 -0.00000000000E+00 -0.00000000000E+00 -0.79034647885E+03  0.79034647885E+03  0.00000000000E+00 0. -1.
          2    1    1    2  501    0 -0.32249537132E+02  0.34167472791E+02 -0.63611443836E+02  0.79081379787E+02  0.00000000000E+00 0.  1.
          1    1    1    2  502    0  0.94196025893E+02 -0.92697706922E+01 -0.58012343044E+03  0.58779419399E+03  0.00000000000E+00 0. -1.
         22    1    1    2    0    0 -0.97423761200E+02 -0.35922277945E+02 -0.78706989300E+02  0.13029424187E+03  0.00000000000E+00 0.  1.
         22    1    1    2    0    0  0.35477272440E+02  0.11024575846E+02 -0.19242757411E+02  0.41838521068E+02  0.00000000000E+00 0.  1.
</event>
<event>
 6    1  0.3240171E-005  0.3061930E+03  0.7818608E-02  0.1171574E+00
          2   -1    0    0  502    0  0.00000000000E+00  0.00000000000E+00  0.29038733114E+03  0.29038733114E+03  0.00000000000E+00 0.  1.
          1   -1    0    0  501    0 -0.00000000000E+00 -0.00000000000E+00 -0.33882631737E+03  0.33882631737E+03  0.00000000000E+00 0. -1.
          2    1    1    2  501    0 -0.19638767146E+02  0.14073389536E+03 -0.59225835655E+01  0.14222091082E+03  0.00000000000E+00 0.  1.
          1    1    1    2  502    0  0.33212562576E+02 -0.15462029234E+02 -0.22865572172E+03  0.23157199255E+03  0.00000000000E+00 0. -1.
         22    1    1    2    0    0 -0.32003568510E+02  0.10049830284E+02  0.63736649170E+02  0.72024911896E+02  0.00000000000E+00 0.  1.
         22    1    1    2    0    0  0.18429773079E+02 -0.13532169641E+03  0.12240266988E+03  0.18339583324E+03  0.00000000000E+00 0. -1.
</event>
<event>
 6    1  0.3240171E-005  0.1038836E+03  0.7818608E-02  0.1277035E+00
          2   -1    0    0  502    0  0.00000000000E+00  0.00000000000E+00  0.45046009538E+03  0.45046009538E+03  0.00000000000E+00 0.  1.
          1   -1    0    0  501    0 -0.00000000000E+00 -0.00000000000E+00 -0.73251815824E+02  0.73251815824E+02  0.00000000000E+00 0.  1.
          2    1    1    2  501    0 -0.76208899653E+01  0.58813762353E+02  0.10550916100E+03  0.12103437388E+03  0.00000000000E+00 0.  1.
          1    1    1    2  502    0  0.20183291934E+02  0.19673627013E+02 -0.44563337741E+02  0.52728625468E+02  0.00000000000E+00 0.  1.
         22    1    1    2    0    0  0.39167786349E+01  0.22522213285E+02  0.65732644736E+01  0.23786530894E+02  0.00000000000E+00 0.  1.
         22    1    1    2    0    0 -0.16479180603E+02 -0.10100960265E+03  0.30968919183E+03  0.32616238097E+03  0.00000000000E+00 0.  1.
</event>
<event>
 6    1  0.3240171E-005  0.7110077E+02  0.7818608E-02  0.1394740E+00
          2   -1    0    0  502    0  0.00000000000E+00  0.00000000000E+00  0.88156799980E+02  0.88156799980E+02  0.00000000000E+00 0.  1.
          1   -1    0    0  501    0 -0.00000000000E+00 -0.00000000000E+00 -0.86371332718E+03  0.86371332718E+03  0.00000000000E+00 0.  1.
          2    1    1    2  501    0 -0.62197616345E+00 -0.39409507958E+02 -0.42772739784E+03  0.42953954770E+03  0.00000000000E+00 0.  1.
          1    1    1    2  502    0  0.20131644779E+02  0.36765776280E+02 -0.38749064255E+03  0.38975120717E+03  0.00000000000E+00 0.  1.
         22    1    1    2    0    0 -0.37775339553E+02  0.27593160894E+01  0.79881373581E+02  0.88406017605E+02  0.00000000000E+00 0.  1.
         22    1    1    2    0    0  0.18265670938E+02 -0.11558441176E+00 -0.40219860388E+02  0.44173354685E+02  0.00000000000E+00 0.  1.
</event>
<event>
 6    1  0.3240171E-005  0.5568471E+02  0.7818608E-02  0.1423882E+00
          2   -1    0    0  502    0  0.00000000000E+00  0.00000000000E+00  0.32255302286E+03  0.32255302286E+03  0.00000000000E+00 0.  1.
          1   -1    0    0  501    0 -0.00000000000E+00 -0.00000000000E+00 -0.12836812081E+04  0.12836812081E+04  0.00000000000E+00 0.  1.
          2    1    1    2  501    0 -0.12841010765E+02 -0.38191886078E+02  0.33319936015E+02  0.52285082535E+02  0.00000000000E+00 0.  1.
          1    1    1    2  502    0  0.36893599488E+01  0.20099854156E+02 -0.12607150718E+04  0.12608806874E+04  0.00000000000E+00 0.  1.
         22    1    1    2    0    0  0.30650946004E+02  0.37274280872E+02  0.25885857101E+03  0.26331846174E+03  0.00000000000E+00 0.  1.
         22    1    1    2    0    0 -0.21499295188E+02 -0.19182248950E+02  0.74083795840E+01  0.29749999268E+02  0.00000000000E+00 0.  1.
</event>
<event>
 6    1  0.3240171E-005  0.8270009E+02  0.7818608E-02  0.1384853E+00
          2   -1    0    0  502    0  0.00000000000E+00  0.00000000000E+00  0.83561564380E+02  0.83561564380E+02  0.00000000000E+00 0.  1.
          1   -1    0    0  501    0 -0.00000000000E+00 -0.00000000000E+00 -0.22194898052E+03  0.22194898052E+03  0.00000000000E+00 0.  1.
          2    1    1    2  501    0  0.42242818222E+02  0.14469156940E+02 -0.22779420048E+02  0.50126980476E+02  0.00000000000E+00 0.  1.
          1    1    1    2  502    0 -0.54959967100E+02 -0.32243416785E+02 -0.11155544891E+03  0.12847121892E+03  0.00000000000E+00 0.  1.
         22    1    1    2    0    0 -0.19576163613E+01 -0.28147657371E+02  0.48178773204E+02  0.55832938887E+02  0.00000000000E+00 0. -1.
         22    1    1    2    0    0  0.14674765239E+02  0.45921917217E+02 -0.52231320387E+02  0.71079406617E+02  0.00000000000E+00 0.  1.
</event>
<event>
 6    1  0.3240171E-005  0.1633859E+03  0.7818608E-02  0.1290758E+00
          2   -1    0    0  502    0  0.00000000000E+00  0.00000000000E+00  0.30594718842E+02  0.30594718842E+02  0.00000000000E+00 0. -1.
          1   -1    0    0  501    0 -0.00000000000E+00 -0.00000000000E+00 -0.20606266164E+04  0.20606266164E+04  0.00000000000E+00 0. -1.
          2    1    1    2  501    0  0.82154719517E+02 -0.77840011748E+01 -0.15083863699E+04  0.15106420587E+04  0.00000000000E+00 0. -1.
          1    1    1    2  502    0 -0.10836249170E+03  0.50500097967E+02 -0.20041850687E+03  0.23336723720E+03  0.00000000000E+00 0. -1.
         22    1    1    2    0    0  0.44387561940E+02 -0.37844904150E+02 -0.32307673978E+03  0.32830027751E+03  0.00000000000E+00 0. -1.
         22    1    1    2    0    0 -0.18179789760E+02 -0.48711926425E+01  0.18497190387E+01  0.18911761790E+02  0.00000000000E+00 0. -1.
</event>
<event>
 6    1  0.3240171E-005  0.7493661E+02  0.7818608E-02  0.1421866E+00
          2   -1    0    0  502    0  0.00000000000E+00  0.00000000000E+00  0.53979837884E+02  0.53979837884E+02  0.00000000000E+00 0. -1.
          1   -1    0    0  501    0 -0.00000000000E+00 -0.00000000000E+00 -0.27455801583E+03  0.27455801583E+03  0.00000000000E+00 0.  1.
          2    1    1    2  501    0  0.19394119454E+02  0.13445621422E+02 -0.10491063690E+03  0.10753212701E+03  0.00000000000E+00 0. -1.
          1    1    1    2  502    0 -0.21308022992E+02  0.31145029203E+02 -0.70175673952E+02  0.79678541041E+02  0.00000000000E+00 0.  1.
         22    1    1    2    0    0  0.23071708164E+02 -0.45069462751E+02 -0.83599953387E+02  0.97736955123E+02  0.00000000000E+00 0. -1.
         22    1    1    2    0    0 -0.21157804627E+02  0.47881212581E+00  0.38108086292E+02  0.43590230540E+02  0.00000000000E+00 0. -1.
</event>
<event>
 6    1  0.3240171E-005  0.7181425E+02  0.7818608E-02  0.1414796E+00
          2   -1    0    0  502    0  0.00000000000E+00  0.00000000000E+00  0.47369424387E+02  0.47369424387E+02  0.00000000000E+00 0. -1.
          1   -1    0    0  501    0 -0.00000000000E+00 -0.00000000000E+00 -0.57632491110E+03  0.57632491110E+03  0.00000000000E+00 0. -1.
          2    1    1    2  501    0  0.32280727602E+02 -0.50645224026E+01 -0.39866394113E+03  0.40000079089E+03  0.00000000000E+00 0. -1.
          1    1    1    2  502    0 -0.40935364308E+02  0.23601063019E+02 -0.50135400861E+01  0.47516837130E+02  0.00000000000E+00 0. -1.
         22    1    1    2    0    0 -0.17104204627E+02 -0.25987525309E+02 -0.14147123709E+03  0.14485170420E+03  0.00000000000E+00 0. -1.
         22    1    1    2    0    0  0.25758841333E+02  0.74509846925E+01  0.16193231589E+02  0.31325003257E+02  0.00000000000E+00 0. -1.
</event>
<event>
 6    1  0.3240171E-005  0.7624924E+02  0.7818608E-02  0.1342928E+00
          2   -1    0    0  502    0  0.00000000000E+00  0.00000000000E+00  0.50595209083E+03  0.50595209083E+03  0.00000000000E+00 0. -1.
          1   -1    0    0  501    0 -0.00000000000E+00 -0.00000000000E+00 -0.60556329591E+02  0.60556329591E+02  0.00000000000E+00 0.  1.
          2    1    1    2  501    0  0.25405397940E+02 -0.12102459921E+02  0.12299217505E+03  0.12617043594E+03  0.00000000000E+00 0. -1.
          1    1    1    2  502    0 -0.65665524145E+01  0.26734664005E+02 -0.44894728732E+02  0.52663066166E+02  0.00000000000E+00 0.  1.
         22    1    1    2    0    0  0.45572504963E+02 -0.31778741702E+02  0.13452280262E+03  0.14554424089E+03  0.00000000000E+00 0.  1.
         22    1    1    2    0    0 -0.64411350488E+02  0.17146537618E+02  0.23277551230E+03  0.24213067742E+03  0.00000000000E+00 0. -1.
</event>
<event>
 6    1  0.3240171E-005  0.1843831E+03  0.7818608E-02  0.1239690E+00
          2   -1    0    0  502    0  0.00000000000E+00  0.00000000000E+00  0.28970592647E+02  0.28970592647E+02  0.00000000000E+00 0.  1.
          1   -1    0    0  501    0 -0.00000000000E+00 -0.00000000000E+00 -0.23403602760E+04  0.23403602760E+04  0.00000000000E+00 0.  1.
          2    1    1    2  501    0  0.32688483665E+02  0.13610369098E+03 -0.49691951624E+03  0.51625745252E+03  0.00000000000E+00 0.  1.
          1    1    1    2  502    0  0.15845712711E+02 -0.88963488653E+02 -0.15399421348E+04  0.15425911212E+04  0.00000000000E+00 0.  1.
         22    1    1    2    0    0 -0.60160444272E+02 -0.13657018671E+02 -0.26727672619E+03  0.27430392191E+03  0.00000000000E+00 0.  1.
         22    1    1    2    0    0  0.11626247897E+02 -0.33483183652E+02 -0.72513061241E+01  0.36178372934E+02  0.00000000000E+00 0.  1.
</event>
<event>
 6    1  0.3240171E-005  0.7963921E+02  0.7818608E-02  0.1340029E+00
          2   -1    0    0  502    0  0.00000000000E+00  0.00000000000E+00  0.39071677092E+02  0.39071677092E+02  0.00000000000E+00 0.  1.
          1   -1    0    0  501    0 -0.00000000000E+00 -0.00000000000E+00 -0.92517479137E+03  0.92517479137E+03  0.00000000000E+00 0. -1.
          2    1    1    2  501    0  0.61892127237E+02  0.67201043134E+02 -0.85166049033E+02  0.12489944564E+03  0.00000000000E+00 0.  1.
          1    1    1    2  502    0 -0.19900948278E+02 -0.68481533612E+02 -0.56586002008E+03  0.57033615571E+03  0.00000000000E+00 0. -1.
         22    1    1    2    0    0  0.16245342852E+02  0.34287510499E+02 -0.18281437808E+02  0.42115976884E+02  0.00000000000E+00 0.  1.
         22    1    1    2    0    0 -0.58236521811E+02 -0.33007020020E+02 -0.21679560736E+03  0.22689489023E+03  0.00000000000E+00 0. -1.
</event>
<event>
 6    1  0.3240171E-005  0.7676502E+02  0.7818608E-02  0.1342145E+00
          2   -1    0    0  502    0  0.00000000000E+00  0.00000000000E+00  0.84713678846E+03  0.84713678846E+03  0.00000000000E+00 0. -1.
          1   -1    0    0  501    0 -0.00000000000E+00 -0.00000000000E+00 -0.83743177043E+02  0.83743177043E+02  0.00000000000E+00 0. -1.
          2    1    1    2  501    0  0.10572135778E+02  0.19246144222E+02  0.11872138457E+03  0.12073504577E+03  0.00000000000E+00 0. -1.
          1    1    1    2  502    0  0.15959529094E+02 -0.20573559142E+02 -0.74643742997E+02  0.79054830803E+02  0.00000000000E+00 0. -1.
         22    1    1    2    0    0 -0.13607160694E+02  0.64624042181E+02  0.35500911311E+03  0.36109955974E+03  0.00000000000E+00 0. -1.
         22    1    1    2    0    0 -0.12924504178E+02 -0.63296627261E+02  0.36430685673E+03  0.36999052919E+03  0.00000000000E+00 0. -1.
</event>
<event>
 6    1  0.3240171E-005  0.1217789E+03  0.7818608E-02  0.1371272E+00
          2   -1    0    0  502    0  0.00000000000E+00  0.00000000000E+00  0.29406974159E+02  0.29406974159E+02  0.00000000000E+00 0. -1.
          1   -1    0    0  501    0 -0.00000000000E+00 -0.00000000000E+00 -0.10537207405E+04  0.10537207405E+04  0.00000000000E+00 0. -1.
          2    1    1    2  501    0 -0.41203956412E+02  0.36603986848E+02 -0.30069596109E+03  0.30570521568E+03  0.00000000000E+00 0. -1.
          1    1    1    2  502    0  0.24835322401E+02  0.11007984771E+02 -0.57817834175E+03  0.57881617448E+03  0.00000000000E+00 0. -1.
         22    1    1    2    0    0 -0.88707961956E+01  0.65635903063E+01  0.19922863389E+02  0.22774815663E+02  0.00000000000E+00 0. -1.
         22    1    1    2    0    0  0.25239430207E+02 -0.54175561926E+02 -0.16536232692E+03  0.17583150887E+03  0.00000000000E+00 0. -1.
</event>
<event>
 6    1  0.9822109E-005  0.8525804E+02  0.7818608E-02  0.1369155E+00
          2   -1    0    0  502    0  0.00000000000E+00  0.00000000000E+00  0.21255215060E+03  0.21255215060E+03  0.00000000000E+00 0.  1.
          1   -1    0    0  501    0 -0.00000000000E+00 -0.00000000000E+00 -0.18498537241E+04  0.18498537241E+04  0.00000000000E+00 0. -1.
          2    1    1    2  501    0 -0.55918697932E+02 -0.22543638693E+02 -0.91452194624E+02  0.10953821400E+03  0.00000000000E+00 0.  1.
          1    1    1    2  502    0  0.74673660132E+02  0.12771677447E+02 -0.17297650905E+04  0.17314232700E+04  0.00000000000E+00 0. -1.
         22    1    1    2    0    0 -0.20571004233E+02  0.26191648839E+02  0.19735688923E+03  0.20014722184E+03  0.00000000000E+00 0.  1.
         22    1    1    2    0    0  0.18160420333E+01 -0.16419687593E+02 -0.13441177548E+02  0.21297168901E+02  0.00000000000E+00 0. -1.
</event>
<event>
 6    1  0.3240171E-005  0.7903664E+02  0.7818608E-02  0.1340271E+00
          2   -1    0    0  502    0  0.00000000000E+00  0.00000000000E+00  0.18661032949E+03  0.18661032949E+03  0.00000000000E+00 0.  1.
          1   -1    0    0  501    0 -0.00000000000E+00 -0.00000000000E+00 -0.10565481863E+03  0.10565481863E+03  0.00000000000E+00 0.  1.
          2    1    1    2  501    0  0.11826150436E+02  0.19329701856E+02  0.24562704472E+02  0.33418881773E+02  0.00000000000E+00 0.  1.
          1    1    1    2  502    0  0.19305627129E+02 -0.93067608123E+01 -0.71226324466E+02  0.74380859988E+02  0.00000000000E+00 0.  1.
         22    1    1    2    0    0 -0.73349820901E+02 -0.83721641017E+01  0.12093698186E+03  0.14168995356E+03  0.00000000000E+00 0.  1.
         22    1    1    2    0    0  0.42218043336E+02 -0.16507769419E+01  0.66821489892E+01  0.42775452806E+02  0.00000000000E+00 0.  1.
</event>
<event>
 6    1  0.3240171E-005  0.2384014E+03  0.7818608E-02  0.1206630E+00
          2   -1    0    0  502    0  0.00000000000E+00  0.00000000000E+00  0.11143126545E+03  0.11143126545E+03  0.00000000000E+00 0. -1.
          1   -1    0    0  501    0 -0.00000000000E+00 -0.00000000000E+00 -0.66448548250E+03  0.66448548250E+03  0.00000000000E+00 0. -1.
          2    1    1    2  501    0 -0.49569373656E+02 -0.24370049691E+02 -0.24492617881E+03  0.25107738885E+03  0.00000000000E+00 0. -1.
          1    1    1    2  502    0  0.12645884870E+03  0.12368491275E+03 -0.30033910495E+03  0.34855899934E+03  0.00000000000E+00 0. -1.
         22    1    1    2    0    0  0.14505465650E+02 -0.29320520715E+02  0.39968669595E+02  0.51648775571E+02  0.00000000000E+00 0. -1.
         22    1    1    2    0    0 -0.91394940697E+02 -0.69994342339E+02 -0.47757602882E+02  0.12463158419E+03  0.00000000000E+00 0. -1.
</event>
<event>
 6    1  0.3240171E-005  0.3732118E+03  0.7818608E-02  0.1143824E+00
          2   -1    0    0  502    0  0.00000000000E+00  0.00000000000E+00  0.16678052878E+04  0.16678052878E+04  0.00000000000E+00 0.  1.
          1   -1    0    0  501    0 -0.00000000000E+00 -0.00000000000E+00 -0.35336883580E+03  0.35336883580E+03  0.00000000000E+00 0. -1.
          2    1    1    2  501    0  0.83099155058E+02 -0.56544293536E+02  0.29205087123E+03  0.30886313812E+03  0.00000000000E+00 0.  1.
          1    1    1    2  502    0 -0.98381230030E+02 -0.22307467187E+03 -0.28167264403E+03  0.37253275567E+03  0.00000000000E+00 0. -1.
         22    1    1    2    0    0  0.36717341329E+02  0.25139861496E+03  0.12469370626E+04  0.12725570576E+04  0.00000000000E+00 0.  1.
         22    1    1    2    0    0 -0.21435266358E+02  0.28220350452E+02  0.57121162199E+02  0.67221172219E+02  0.00000000000E+00 0.  1.
</event>
<event>
 6    1  0.3240171E-005  0.1456662E+03  0.7818608E-02  0.1235924E+00
          2   -1    0    0  502    0  0.00000000000E+00  0.00000000000E+00  0.70838905725E+03  0.70838905725E+03  0.00000000000E+00 0.  1.
          1   -1    0    0  501    0 -0.00000000000E+00 -0.00000000000E+00 -0.29977401646E+03  0.29977401646E+03  0.00000000000E+00 0. -1.
          2    1    1    2  501    0 -0.43844842927E+02 -0.34092391517E+02  0.12843667307E+03  0.13993084149E+03  0.00000000000E+00 0.  1.
          1    1    1    2  502    0  0.12965718470E+03  0.55180770534E+02 -0.26621258222E+03  0.30120597921E+03  0.00000000000E+00 0. -1.
         22    1    1    2    0    0 -0.25005794082E+02 -0.69331220910E+02  0.24971807800E+03  0.26036748340E+03  0.00000000000E+00 0.  1.
         22    1    1    2    0    0 -0.60806547696E+02  0.48242841893E+02  0.29667287193E+03  0.30665876961E+03  0.00000000000E+00 0.  1.
</event>
<event>
 6    1  0.3240171E-005  0.1892547E+03  0.7818608E-02  0.1159789E+00
          2   -1    0    0  502    0  0.00000000000E+00  0.00000000000E+00  0.36050994288E+03  0.36050994288E+03  0.00000000000E+00 0. -1.
          1   -1    0    0  501    0 -0.00000000000E+00 -0.00000000000E+00 -0.75176539416E+03  0.75176539416E+03  0.00000000000E+00 0.  1.
          2    1    1    2  501    0  0.10660690504E+03 -0.13486064233E+03  0.98644959753E+02  0.19820003314E+03  0.00000000000E+00 0. -1.
          1    1    1    2  502    0  0.28087180504E+01  0.21513483714E+02 -0.65267963550E+03  0.65304014078E+03  0.00000000000E+00 0.  1.
         22    1    1    2    0    0  0.17783068218E+02 -0.14297354134E+02  0.27336565419E+02  0.35608140352E+02  0.00000000000E+00 0.  1.
         22    1    1    2    0    0 -0.12719869131E+03  0.12764451275E+03  0.13544265905E+03  0.22542702277E+03  0.00000000000E+00 0. -1.
</event>
<event>
 6    1  0.3240171E-005  0.1272279E+03  0.7818608E-02  0.1306642E+00
          2   -1    0    0  502    0  0.00000000000E+00  0.00000000000E+00  0.10315820826E+03  0.10315820826E+03  0.00000000000E+00 0.  1.
          1   -1    0    0  501    0 -0.00000000000E+00 -0.00000000000E+00 -0.53147595303E+03  0.53147595303E+03  0.00000000000E+00 0.  1.
          2    1    1    2  501    0  0.16321941182E+02  0.21702953155E+02 -0.26695773852E+02  0.38080024700E+02  0.00000000000E+00 0.  1.
          1    1    1    2  502    0 -0.94144689848E+02 -0.68448392531E+02 -0.42515170637E+03  0.44079743477E+03  0.00000000000E+00 0.  1.
         22    1    1    2    0    0  0.81028244103E+02  0.76295468155E+02 -0.90416249791E+01  0.11166165763E+03  0.00000000000E+00 0.  1.
         22    1    1    2    0    0 -0.32054954373E+01 -0.29550028779E+02  0.32571360425E+02  0.44095044186E+02  0.00000000000E+00 0. -1.
</event>
<event>
 6    1  0.3240171E-005  0.1576092E+03  0.7818608E-02  0.1194920E+00
          2   -1    0    0  502    0  0.00000000000E+00  0.00000000000E+00  0.54875233709E+03  0.54875233709E+03  0.00000000000E+00 0.  1.
          1   -1    0    0  501    0 -0.00000000000E+00 -0.00000000000E+00 -0.14071756724E+04  0.14071756724E+04  0.00000000000E+00 0.  1.
          2    1    1    2  501    0  0.83790765244E+02 -0.93900638982E+01  0.59046950252E+02  0.10293496964E+03  0.00000000000E+00 0.  1.
          1    1    1    2  502    0  0.80705997227E+02  0.19394001480E+02 -0.13606056935E+04  0.13631351505E+04  0.00000000000E+00 0.  1.
         22    1    1    2    0    0 -0.18175622467E+03  0.10038407790E+02  0.37763175942E+03  0.41921574465E+03  0.00000000000E+00 0.  1.
         22    1    1    2    0    0  0.17259462198E+02 -0.20042345372E+02  0.65503648517E+02  0.70642144733E+02  0.00000000000E+00 0. -1.
</event>
<event>
 6    1  0.3240171E-005  0.1483653E+03  0.7818608E-02  0.1233480E+00
          2   -1    0    0  502    0  0.00000000000E+00  0.00000000000E+00  0.19488401880E+03  0.19488401880E+03  0.00000000000E+00 0. -1.
          1   -1    0    0  501    0 -0.00000000000E+00 -0.00000000000E+00 -0.72827733161E+03  0.72827733161E+03  0.00000000000E+00 0. -1.
          2    1    1    2  501    0 -0.43475885119E+02 -0.27380707564E+02 -0.32715085111E+02  0.60910857221E+02  0.00000000000E+00 0. -1.
          1    1    1    2  502    0  0.41052305786E+02 -0.45497514169E+01 -0.65623466227E+03  0.65753321133E+03  0.00000000000E+00 0. -1.
         22    1    1    2    0    0  0.59584503798E+02  0.34836532541E+02  0.52074174307E+02  0.86461648851E+02  0.00000000000E+00 0. -1.
         22    1    1    2    0    0 -0.57160924466E+02 -0.29060735602E+01  0.10348226026E+03  0.11825563301E+03  0.00000000000E+00 0.  1.
</event>
<event>
 6    1  0.3240171E-005  0.2184235E+03  0.7818608E-02  0.1245833E+00
          2   -1    0    0  502    0  0.00000000000E+00  0.00000000000E+00  0.10751994401E+03  0.10751994401E+03  0.00000000000E+00 0.  1.
          1   -1    0    0  501    0 -0.00000000000E+00 -0.00000000000E+00 -0.97470172188E+03  0.97470172188E+03  0.00000000000E+00 0. -1.
          2    1    1    2  501    0 -0.92132415099E+02 -0.74065351956E+02 -0.39065918145E+02  0.12449981620E+03  0.00000000000E+00 0.  1.
          1    1    1    2  502    0  0.28145466365E+02 -0.14500427796E+02 -0.78706653455E+03  0.78770309095E+03  0.00000000000E+00 0. -1.
         22    1    1    2    0    0  0.63376248143E+02  0.69744823782E+02 -0.82016873388E+02  0.12493060791E+03  0.00000000000E+00 0. -1.
         22    1    1    2    0    0  0.61070059040E+00  0.18820955970E+02  0.40967548214E+02  0.45088150832E+02  0.00000000000E+00 0.  1.
</event>
<event>
 6    1  0.3240171E-005  0.1270225E+03  0.7818608E-02  0.1317186E+00
          2   -1    0    0  502    0  0.00000000000E+00  0.00000000000E+00  0.11467507589E+03  0.11467507589E+03  0.00000000000E+00 0.  1.
          1   -1    0    0  501    0 -0.00000000000E+00 -0.00000000000E+00 -0.59839898090E+03  0.59839898090E+03  0.00000000000E+00 0.  1.
          2    1    1    2  501    0 -0.28833110820E+01  0.51990805155E+02 -0.25958215067E+02  0.58182353277E+02  0.00000000000E+00 0.  1.
          1    1    1    2  502    0 -0.26165919490E+02 -0.12732169492E+03 -0.48432186132E+03  0.50146100017E+03  0.00000000000E+00 0.  1.
         22    1    1    2    0    0  0.15160960476E+02  0.19474767130E+02  0.74525012447E+02  0.78505405913E+02  0.00000000000E+00 0.  1.
         22    1    1    2    0    0  0.13888270097E+02  0.55856122632E+02 -0.47968841068E+02  0.74925297432E+02  0.00000000000E+00 0.  1.
</event>
<event>
 6    1  0.3240171E-005  0.8049942E+02  0.7818608E-02  0.1330968E+00
          2   -1    0    0  502    0  0.00000000000E+00  0.00000000000E+00  0.53721976322E+03  0.53721976322E+03  0.00000000000E+00 0. -1.
          1   -1    0    0  501    0 -0.00000000000E+00 -0.00000000000E+00 -0.13444595513E+03  0.13444595513E+03  0.00000000000E+00 0. -1.
          2    1    1    2  501    0  0.31235589250E+02 -0.21610208325E+01  0.49769476172E+02  0.58799088473E+02  0.00000000000E+00 0. -1.
          1    1    1    2  502    0  0.19692803059E+02  0.41253922440E+02 -0.11547610534E+03  0.12419510262E+03  0.00000000000E+00 0. -1.
         22    1    1    2    0    0 -0.81478083240E+02 -0.74589982444E+01  0.39201057565E+03  0.40045799545E+03  0.00000000000E+00 0. -1.
         22    1    1    2    0    0  0.30549690931E+02 -0.31633903363E+02  0.76469861617E+02  0.88213531806E+02  0.00000000000E+00 0. -1.
</event>
<event>
 6    1  0.3240171E-005  0.1362861E+03  0.7818608E-02  0.1298287E+00
          2   -1    0    0  502    0  0.00000000000E+00  0.00000000000E+00  0.32855469445E+03  0.32855469445E+03  0.00000000000E+00 0.  1.
          1   -1    0    0  501    0 -0.00000000000E+00 -0.00000000000E+00 -0.93263868892E+02  0.93263868892E+02  0.00000000000E+00 0.  1.
          2    1    1    2  501    0  0.57535740016E+02 -0.63936191467E+02  0.31695909519E+02  0.91666944089E+02  0.00000000000E+00 0.  1.
          1    1    1    2  502    0 -0.88792387595E+02  0.34879060631E+02  0.11610531942E+02  0.96101204036E+02  0.00000000000E+00 0.  1.
         22    1    1    2    0    0  0.59281399268E+02  0.25989659030E+02  0.33130656221E+02  0.72714421247E+02  0.00000000000E+00 0. -1.
         22    1    1    2    0    0 -0.28024751689E+02  0.30674718062E+01  0.15885372788E+03  0.16133599398E+03  0.00000000000E+00 0. -1.
</event>
<event>
 6    1  0.3240171E-005  0.7476279E+02  0.7818608E-02  0.1420072E+00
          2   -1    0    0  502    0  0.00000000000E+00  0.00000000000E+00  0.47425369991E+02  0.47425369991E+02  0.00000000000E+00 0.  1.
          1   -1    0    0  501    0 -0.00000000000E+00 -0.00000000000E+00 -0.83050939295E+03  0.83050939295E+03  0.00000000000E+00 0.  1.
          2    1    1    2  501    0  0.38306287446E+02 -0.28753482497E+02 -0.23736333349E+03  0.24214765433E+03  0.00000000000E+00 0.  1.
          1    1    1    2  502    0 -0.49815281186E+02  0.41190653774E+02 -0.49432776267E+03  0.49853602593E+03  0.00000000000E+00 0.  1.
         22    1    1    2    0    0  0.32779474014E+02 -0.71964693291E+01 -0.88227359858E+02  0.94394650881E+02  0.00000000000E+00 0.  1.
         22    1    1    2    0    0 -0.21270480274E+02 -0.52407019479E+01  0.36834433060E+02  0.42856431802E+02  0.00000000000E+00 0.  1.
</event>
<event>
 6    1  0.3240171E-005  0.1474250E+03  0.7818608E-02  0.1297727E+00
          2   -1    0    0  502    0  0.00000000000E+00  0.00000000000E+00  0.16841949539E+03  0.16841949539E+03  0.00000000000E+00 0. -1.
          1   -1    0    0  501    0 -0.00000000000E+00 -0.00000000000E+00 -0.14472521092E+03  0.14472521092E+03  0.00000000000E+00 0. -1.
          2    1    1    2  501    0  0.68497293921E+02  0.30081508183E+02 -0.48118228690E+02  0.88950212711E+02  0.00000000000E+00 0. -1.
          1    1    1    2  502    0 -0.14376449706E+02  0.47015075197E+02  0.32824608820E+02  0.59114757431E+02  0.00000000000E+00 0. -1.
         22    1    1    2    0    0 -0.38621037250E+02 -0.60780663595E+02 -0.40394720121E+02  0.82568801608E+02  0.00000000000E+00 0. -1.
         22    1    1    2    0    0 -0.15499806965E+02 -0.16315919785E+02  0.79382624464E+02  0.82510934555E+02  0.00000000000E+00 0. -1.
</event>
<event>
 6    1  0.3539113E-005  0.3639911E+03  0.7818608E-02  0.1115635E+00
          2   -1    0    0  502    0  0.00000000000E+00  0.00000000000E+00  0.64556913875E+03  0.64556913875E+03  0.00000000000E+00 0.  1.
          1   -1    0    0  501    0 -0.00000000000E+00 -0.00000000000E+00 -0.17134890336E+04  0.17134890336E+04  0.00000000000E+00 0.  1.
          2    1    1    2  501    0  0.17450352558E+03  0.22290786000E+03  0.37590616221E+02  0.28557389398E+03  0.00000000000E+00 0.  1.
          1    1    1    2  502    0 -0.19761655206E+03 -0.30197058019E+03 -0.15567315462E+04  0.15980149060E+04  0.00000000000E+00 0.  1.
         22    1    1    2    0    0 -0.11100644613E+02  0.10785447607E+02 -0.22255613102E+01  0.15636601743E+02  0.00000000000E+00 0. -1.
         22    1    1    2    0    0  0.34213671087E+02  0.68277272581E+02  0.45344659636E+03  0.45983277068E+03  0.00000000000E+00 0.  1.
</event>
<event>
 6    1  0.3240171E-005  0.2108623E+03  0.7818608E-02  0.1213307E+00
          2   -1    0    0  502    0  0.00000000000E+00  0.00000000000E+00  0.35298037077E+03  0.35298037077E+03  0.00000000000E+00 0.  1.
          1   -1    0    0  501    0 -0.00000000000E+00 -0.00000000000E+00 -0.47555879789E+03  0.47555879789E+03  0.00000000000E+00 0.  1.
          2    1    1    2  501    0 -0.39376011750E+02 -0.47250646887E+02 -0.30206729597E+01  0.61580990555E+02  0.00000000000E+00 0.  1.
          1    1    1    2  502    0 -0.16178755599E+02  0.31499868527E+02 -0.42855906070E+03  0.43001960694E+03  0.00000000000E+00 0.  1.
         22    1    1    2    0    0  0.91174554461E+02  0.39687785669E+01  0.25770002418E+03  0.27338224713E+03  0.00000000000E+00 0.  1.
         22    1    1    2    0    0 -0.35619787111E+02  0.11781999793E+02  0.51301282363E+02  0.63556324037E+02  0.00000000000E+00 0. -1.
</event>
<event>
 6    1  0.3240171E-005  0.1088263E+03  0.7818608E-02  0.1347662E+00
          2   -1    0    0  502    0  0.00000000000E+00  0.00000000000E+00  0.44383476733E+02  0.44383476733E+02  0.00000000000E+00 0. -1.
          1   -1    0    0  501    0 -0.00000000000E+00 -0.00000000000E+00 -0.41529757686E+03  0.41529757686E+03  0.00000000000E+00 0. -1.
          2    1    1    2  501    0  0.40293336131E+02  0.70387401802E+01 -0.40623293736E+02  0.57648493422E+02  0.00000000000E+00 0. -1.
          1    1    1    2  502    0  0.12151952908E+02 -0.22677458368E+02 -0.23332078807E+03  0.23473501490E+03  0.00000000000E+00 0. -1.
         22    1    1    2    0    0 -0.64723291359E+02  0.35089893363E+02 -0.11603542842E+03  0.13742134372E+03  0.00000000000E+00 0. -1.
         22    1    1    2    0    0  0.12278002320E+02 -0.19451175175E+02  0.19065410099E+02  0.29876201547E+02  0.00000000000E+00 0. -1.
</event>
<event>
 6    1  0.3240171E-005  0.1024052E+03  0.7818608E-02  0.1308606E+00
          2   -1    0    0  502    0  0.00000000000E+00  0.00000000000E+00  0.15983863692E+03  0.15983863692E+03  0.00000000000E+00 0. -1.
          1   -1    0    0  501    0 -0.00000000000E+00 -0.00000000000E+00 -0.34511099425E+03  0.34511099425E+03  0.00000000000E+00 0.  1.
          2    1    1    2  501    0 -0.15447799606E+02  0.29315199386E+02  0.26934371671E+02  0.42702175648E+02  0.00000000000E+00 0. -1.
          1    1    1    2  502    0  0.73085882398E+02 -0.67330980114E+02 -0.28518406968E+03  0.30200159054E+03  0.00000000000E+00 0.  1.
         22    1    1    2    0    0 -0.25127162333E+02  0.82375219203E+02  0.32889095248E+02  0.92188630600E+02  0.00000000000E+00 0. -1.
         22    1    1    2    0    0 -0.32510920459E+02 -0.44359438475E+02  0.40088245427E+02  0.68057234386E+02  0.00000000000E+00 0. -1.
</event>
<event>
 6    1  0.3240171E-005  0.1548047E+03  0.7818608E-02  0.1212315E+00
          2   -1    0    0  502    0  0.00000000000E+00  0.00000000000E+00  0.81468921005E+03  0.81468921005E+03  0.00000000000E+00 0. -1.
          1   -1    0    0  501    0 -0.00000000000E+00 -0.00000000000E+00 -0.41188517508E+03  0.41188517508E+03  0.00000000000E+00 0.  1.
          2    1    1    2  501    0  0.16620332747E+03 -0.42279214582E+02  0.23554829671E+03  0.29136588361E+03  0.00000000000E+00 0. -1.
          1    1    1    2  502    0 -0.62922703603E+02  0.22375889260E+02 -0.36838554420E+03  0.37438997880E+03  0.00000000000E+00 0.  1.
         22    1    1    2    0    0 -0.12472092524E+02 -0.17848519679E+02  0.66552971486E+01  0.22768744515E+02  0.00000000000E+00 0. -1.
         22    1    1    2    0    0 -0.90808531342E+02  0.37751845001E+02  0.52898598531E+03  0.53804977820E+03  0.00000000000E+00 0. -1.
</event>
<event>
 6    1  0.3240171E-005  0.2063039E+03  0.7818608E-02  0.1240614E+00
          2   -1    0    0  502    0  0.00000000000E+00  0.00000000000E+00  0.11835742770E+03  0.11835742770E+03  0.00000000000E+00 0.  1.
          1   -1    0    0  501    0 -0.00000000000E+00 -0.00000000000E+00 -0.21510362861E+04  0.21510362861E+04  0.00000000000E+00 0. -1.
          2    1    1    2  501    0 -0.16085815903E+03 -0.98004254617E+02 -0.91519783313E+03  0.93438067993E+03  0.00000000000E+00 0.  1.
          1    1    1    2  502    0  0.18354471004E+03  0.94531970927E+02 -0.11785786064E+04  0.11965251713E+04  0.00000000000E+00 0. -1.
         22    1    1    2    0    0 -0.30388750147E+01 -0.11715623908E+02 -0.36148548990E+02  0.38120967970E+02  0.00000000000E+00 0.  1.
         22    1    1    2    0    0 -0.19647675999E+02  0.15187907597E+02  0.97246130114E+02  0.10036689460E+03  0.00000000000E+00 0.  1.
</event>
<event>
 6    1  0.3240171E-005  0.3737135E+03  0.7818608E-02  0.1162934E+00
          2   -1    0    0  502    0  0.00000000000E+00  0.00000000000E+00  0.78677482111E+03  0.78677482111E+03  0.00000000000E+00 0.  1.
          1   -1    0    0  501    0 -0.00000000000E+00 -0.00000000000E+00 -0.16061493662E+03  0.16061493662E+03  0.00000000000E+00 0.  1.
          2    1    1    2  501    0  0.80674933927E+02  0.37616555935E+02  0.13149191097E+02  0.89979728111E+02  0.00000000000E+00 0.  1.
          1    1    1    2  502    0  0.28825338062E+02  0.81639467058E+02 -0.90206817378E+02  0.12503268612E+03  0.00000000000E+00 0.  1.
         22    1    1    2    0    0 -0.22391852890E+02  0.22295948775E+01  0.12648655726E+02  0.25813846301E+02  0.00000000000E+00 0.  1.
         22    1    1    2    0    0 -0.87108419099E+02 -0.12148561787E+03  0.69056885504E+03  0.70656349720E+03  0.00000000000E+00 0.  1.
</event>
<event>
 6    1  0.3240171E-005  0.6501393E+02  0.7818608E-02  0.1399811E+00
          2   -1    0    0  502    0  0.00000000000E+00  0.00000000000E+00  0.10639618137E+03  0.10639618137E+03  0.00000000000E+00 0.  1.
          1   -1    0    0  501    0 -0.00000000000E+00 -0.00000000000E+00 -0.51561952530E+03  0.51561952530E+03  0.00000000000E+00 0.  1.
          2    1    1    2  501    0  0.37999526295E+01  0.43874023209E+02 -0.69573658802E+02  0.82339926838E+02  0.00000000000E+00 0.  1.
          1    1    1    2  502    0 -0.30939901718E+02 -0.48883876040E+02 -0.39615718932E+03  0.40035912567E+03  0.00000000000E+00 0.  1.
         22    1    1    2    0    0  0.45683927950E+02 -0.13361952051E+01  0.89755436895E+02  0.10072162202E+03  0.00000000000E+00 0.  1.
         22    1    1    2    0    0 -0.18543978861E+02  0.63460480363E+01 -0.33247932694E+02  0.38595032143E+02  0.00000000000E+00 0. -1.
</event>
<event>
 6    1  0.3240171E-005  0.9156112E+02  0.7818608E-02  0.1314998E+00
          2   -1    0    0  502    0  0.00000000000E+00  0.00000000000E+00  0.74945713567E+02  0.74945713567E+02  0.00000000000E+00 0.  1.
          1   -1    0    0  501    0 -0.00000000000E+00 -0.00000000000E+00 -0.81094718799E+03  0.81094718799E+03  0.00000000000E+00 0. -1.
          2    1    1    2  501    0  0.77980232336E+01 -0.31389378188E+02 -0.15593359729E+02  0.35906198588E+02  0.00000000000E+00 0.  1.
          1    1    1    2  502    0  0.24278638501E+02  0.30446007227E+01 -0.71400825194E+03  0.71442739709E+03  0.00000000000E+00 0. -1.
         22    1    1    2    0    0 -0.36757305479E+02 -0.35735451637E+02  0.32263162705E+02  0.60572548877E+02  0.00000000000E+00 0.  1.
         22    1    1    2    0    0  0.46806437440E+01  0.64080229103E+02 -0.38663025462E+02  0.74986757001E+02  0.00000000000E+00 0.  1.
</event>
<event>
 6    1  0.3240171E-005  0.8098117E+02  0.7818608E-02  0.1349385E+00
          2   -1    0    0  502    0  0.00000000000E+00  0.00000000000E+00  0.28043934197E+03  0.28043934197E+03  0.00000000000E+00 0. -1.
          1   -1    0    0  501    0 -0.00000000000E+00 -0.00000000000E+00 -0.12876406595E+03  0.12876406595E+03  0.00000000000E+00 0. -1.
          2    1    1    2  501    0  0.27481501071E+02  0.50658022227E+02  0.49055255872E+01  0.57840576574E+02  0.00000000000E+00 0. -1.
          1    1    1    2  502    0  0.32138252718E+02 -0.52881919399E+02 -0.68985368470E+02  0.92673328148E+02  0.00000000000E+00 0. -1.
         22    1    1    2    0    0 -0.38443920988E+02 -0.38209712484E+02  0.20466178832E+03  0.21171765346E+03  0.00000000000E+00 0. -1.
         22    1    1    2    0    0 -0.21175832801E+02  0.40433609656E+02  0.11093330582E+02  0.46971849740E+02  0.00000000000E+00 0. -1.
</event>
<event>
 6    1  0.3240171E-005  0.8670785E+02  0.7818608E-02  0.1380751E+00
          2   -1    0    0  502    0  0.00000000000E+00  0.00000000000E+00  0.12352070942E+03  0.12352070942E+03  0.00000000000E+00 0. -1.
          1   -1    0    0  501    0 -0.00000000000E+00 -0.00000000000E+00 -0.92839035562E+03  0.92839035562E+03  0.00000000000E+00 0. -1.
          2    1    1    2  501    0 -0.18995328307E+02  0.16198336060E+02 -0.38429393897E+02  0.45826050494E+02  0.00000000000E+00 0. -1.
          1    1    1    2  502    0  0.83095970441E+02 -0.28218095632E+02 -0.84242590383E+03  0.84698441820E+03  0.00000000000E+00 0. -1.
         22    1    1    2    0    0 -0.26097606129E+02  0.19186528302E+01  0.10628485234E+03  0.10945883295E+03  0.00000000000E+00 0. -1.
         22    1    1    2    0    0 -0.38003036006E+02  0.10101106742E+02 -0.30299200806E+02  0.49641763392E+02  0.00000000000E+00 0.  1.
</event>
<event>
 6    1  0.3240171E-005  0.1083020E+03  0.7818608E-02  0.1267203E+00
          2   -1    0    0  502    0  0.00000000000E+00  0.00000000000E+00  0.13798814329E+03  0.13798814329E+03  0.00000000000E+00 0. -1.
          1   -1    0    0  501    0 -0.00000000000E+00 -0.00000000000E+00 -0.86517558651E+03  0.86517558651E+03  0.00000000000E+00 0. -1.
          2    1    1    2  501    0 -0.33316603012E+02  0.11475747158E+03 -0.14583260452E+02  0.12038249377E+03  0.00000000000E+00 0. -1.
          1    1    1    2  502    0  0.75617192454E+02 -0.67637694261E+02 -0.73127746526E+03  0.73828148336E+03  0.00000000000E+00 0. -1.
         22    1    1    2    0    0 -0.49038861183E+02 -0.88582977767E+02  0.14542769699E+02  0.10229000932E+03  0.00000000000E+00 0. -1.
         22    1    1    2    0    0  0.67382717406E+01  0.41463200444E+02  0.41305127903E+01  0.42209743342E+02  0.00000000000E+00 0. -1.
</event>
<event>
 6    1  0.3240171E-005  0.1177099E+03  0.7818608E-02  0.1285962E+00
          2   -1    0    0  502    0  0.00000000000E+00  0.00000000000E+00  0.18300421181E+03  0.18300421181E+03  0.00000000000E+00 0. -1.
          1   -1    0    0  501    0 -0.00000000000E+00 -0.00000000000E+00 -0.14790822105E+03  0.14790822105E+03  0.00000000000E+00 0. -1.
          2    1    1    2  501    0 -0.27362276257E+02 -0.36749055447E+02 -0.74528268338E+02  0.87485141708E+02  0.00000000000E+00 0. -1.
          1    1    1    2  502    0  0.35103587688E+02  0.44507893241E+02  0.99598609137E+02  0.11459972675E+03  0.00000000000E+00 0. -1.
         22    1    1    2    0    0  0.39063158566E+02  0.33286185953E+02 -0.25334034184E+02  0.57233852050E+02  0.00000000000E+00 0. -1.
         22    1    1    2    0    0 -0.46804469997E+02 -0.41045023748E+02  0.35359684142E+02  0.71593712355E+02  0.00000000000E+00 0. -1.
</event>
<event>
 6    1  0.3240171E-005  0.8593945E+02  0.7818608E-02  0.1329972E+00
          2   -1    0    0  502    0  0.00000000000E+00  0.00000000000E+00  0.99320833334E+02  0.99320833334E+02  0.00000000000E+00 0.  1.
          1   -1    0    0  501    0 -0.00000000000E+00 -0.00000000000E+00 -0.26750830663E+03  0.26750830663E+03  0.00000000000E+00 0. -1.
          2    1    1    2  501    0  0.52546995446E+01  0.23384063550E+02 -0.62191370463E+02  0.66649777610E+02  0.00000000000E+00 0.  1.
          1    1    1    2  502    0  0.25776560628E+02 -0.59371311103E+01 -0.15839126329E+03  0.16058478412E+03  0.00000000000E+00 0. -1.
         22    1    1    2    0    0 -0.66277987030E+02 -0.57970462902E+01  0.71650128948E+02  0.97775857391E+02  0.00000000000E+00 0.  1.
         22    1    1    2    0    0  0.35246726858E+02 -0.11649886149E+02 -0.19254968490E+02  0.41818720844E+02  0.00000000000E+00 0. -1.
</event>
<event>
 6    1  0.3240171E-005  0.7136945E+02  0.7818608E-02  0.1360180E+00
          2   -1    0    0  502    0  0.00000000000E+00  0.00000000000E+00  0.48206789705E+03  0.48206789705E+03  0.00000000000E+00 0. -1.
          1   -1    0    0  501    0 -0.00000000000E+00 -0.00000000000E+00 -0.27345306055E+02  0.27345306055E+02  0.00000000000E+00 0.  1.
          2    1    1    2  501    0 -0.23291667703E+02 -0.21205664534E+01  0.11797030407E+02  0.26194818436E+02  0.00000000000E+00 0. -1.
          1    1    1    2  502    0 -0.85889227941E+00 -0.51144326922E+02  0.19252291657E+03  0.19920229235E+03  0.00000000000E+00 0.  1.
         22    1    1    2    0    0  0.29530416779E+02  0.71315629335E+02  0.25344340699E+03  0.26493683218E+03  0.00000000000E+00 0. -1.
         22    1    1    2    0    0 -0.53798567960E+01 -0.18050735959E+02 -0.30407629705E+01  0.19079260134E+02  0.00000000000E+00 0.  1.
</event>
<event>
 6    1  0.3240171E-005  0.5223758E+02  0.7818608E-02  0.1469138E+00
          2   -1    0    0  502    0  0.00000000000E+00  0.00000000000E+00  0.95343180841E+02  0.95343180841E+02  0.00000000000E+00 0. -1.
          1   -1    0    0  501    0 -0.00000000000E+00 -0.00000000000E+00 -0.12210737786E+04  0.12210737786E+04  0.00000000000E+00 0.  1.
          2    1    1    2  501    0  0.73186058900E+01 -0.50734065957E+02 -0.95163991184E+02  0.10809113127E+03  0.00000000000E+00 0. -1.
          1    1    1    2  502    0 -0.42513315703E+01  0.19667120196E+02 -0.10707170204E+04  0.10709060684E+04  0.00000000000E+00 0.  1.
         22    1    1    2    0    0 -0.14588430737E+02  0.26949702775E+02  0.85302153539E+02  0.90639760533E+02  0.00000000000E+00 0. -1.
         22    1    1    2    0    0  0.11521156417E+02  0.41172429869E+01 -0.45151739689E+02  0.46779999273E+02  0.00000000000E+00 0. -1.
</event>
<event>
 6    1  0.3240171E-005  0.1181715E+03  0.7818608E-02  0.1349119E+00
          2   -1    0    0  502    0  0.00000000000E+00  0.00000000000E+00  0.11387734403E+03  0.11387734403E+03  0.00000000000E+00 0. -1.
          1   -1    0    0  501    0 -0.00000000000E+00 -0.00000000000E+00 -0.31183030227E+03  0.31183030227E+03  0.00000000000E+00 0. -1.
          2    1    1    2  501    0 -0.36048648813E+02 -0.41778544052E+02 -0.14066996500E+02  0.56945870920E+02  0.00000000000E+00 0. -1.
          1    1    1    2  502    0  0.43573674975E+02 -0.69361754985E+01 -0.22226876656E+03  0.22660578164E+03  0.00000000000E+00 0. -1.
         22    1    1    2    0    0 -0.15080519613E+02 -0.89238036445E+01  0.72611339145E+02  0.74695802531E+02  0.00000000000E+00 0. -1.
         22    1    1    2    0    0  0.75554934510E+01  0.57638523195E+02 -0.34228534318E+02  0.67460191216E+02  0.00000000000E+00 0. -1.
</event>
<event>
 6    1  0.3240171E-005  0.1824200E+03  0.7818608E-02  0.1257594E+00
          2   -1    0    0  502    0  0.00000000000E+00  0.00000000000E+00  0.46539936910E+03  0.46539936910E+03  0.00000000000E+00 0.  1.
          1   -1    0    0  501    0 -0.00000000000E+00 -0.00000000000E+00 -0.12745457372E+04  0.12745457372E+04  0.00000000000E+00 0.  1.
          2    1    1    2  501    0  0.33614388916E+02 -0.83305902811E+01  0.16610203308E+03  0.16967383790E+03  0.00000000000E+00 0.  1.
          1    1    1    2  502    0  0.10183064266E+02 -0.10338865307E+03 -0.12458213431E+04  0.12501454824E+04  0.00000000000E+00 0.  1.
         22    1    1    2    0    0 -0.58559541345E+02  0.13260190884E+03  0.22013906911E+03  0.26357863316E+03  0.00000000000E+00 0.  1.
         22    1    1    2    0    0  0.14762088164E+02 -0.20882665493E+02  0.50433872782E+02  0.56547152792E+02  0.00000000000E+00 0. -1.
</event>
<event>
 6    1  0.3240171E-005  0.2096818E+03  0.7818608E-02  0.1221163E+00
          2   -1    0    0  502    0  0.00000000000E+00  0.00000000000E+00  0.11767269054E+03  0.11767269054E+03  0.00000000000E+00 0. -1.
          1   -1    0    0  501    0 -0.00000000000E+00 -0.00000000000E+00 -0.21974771217E+04  0.21974771217E+04  0.00000000000E+00 0.  1.
          2    1    1    2  501    0  0.22548280303E+02 -0.74708851401E+01 -0.12841000811E+03  0.13058854946E+03  0.00000000000E+00 0. -1.
          1    1    1    2  502    0  0.39965251652E+02  0.38345799624E+02 -0.20228537201E+04  0.20236118192E+04  0.00000000000E+00 0.  1.
         22    1    1    2    0    0 -0.89516691102E+02 -0.53646847158E+02  0.34723223555E+02  0.10998601934E+03  0.00000000000E+00 0. -1.
         22    1    1    2    0    0  0.27003159147E+02  0.22771932674E+02  0.36736073481E+02  0.50963424301E+02  0.00000000000E+00 0. -1.
</event>
<event>
 6    1  0.3240171E-005  0.1716140E+03  0.7818608E-02  0.1224574E+00
          2   -1    0    0  502    0  0.00000000000E+00  0.00000000000E+00  0.10216812386E+03  0.10216812386E+03  0.00000000000E+00 0. -1.
          1   -1    0    0  501    0 -0.00000000000E+00 -0.00000000000E+00 -0.10150842798E+04  0.10150842798E+04  0.00000000000E+00 0. -1.
          2    1    1    2  501    0 -0.42831969692E+02 -0.76935552834E+01 -0.83427091313E+02  0.94094888201E+02  0.00000000000E+00 0. -1.
          1    1    1    2  502    0  0.48326369530E-02  0.68253991971E+02 -0.86916123147E+03  0.87183705687E+03  0.00000000000E+00 0. -1.
         22    1    1    2    0    0  0.59626026583E+02 -0.66575016649E+01 -0.25414882252E+02  0.65157513875E+02  0.00000000000E+00 0. -1.
         22    1    1    2    0    0 -0.16798889528E+02 -0.53902935022E+02  0.65087049062E+02  0.86162944756E+02  0.00000000000E+00 0. -1.
</event>
<event>
 6    1  0.3240171E-005  0.1089345E+03  0.7818608E-02  0.1377020E+00
          2   -1    0    0  502    0  0.00000000000E+00  0.00000000000E+00  0.61959791018E+02  0.61959791018E+02  0.00000000000E+00 0.  1.
          1   -1    0    0  501    0 -0.00000000000E+00 -0.00000000000E+00 -0.38841835363E+03  0.38841835363E+03  0.00000000000E+00 0.  1.
          2    1    1    2  501    0 -0.38155548843E+02 -0.42903257372E+02 -0.12666262118E+03  0.13906816675E+03  0.00000000000E+00 0.  1.
          1    1    1    2  502    0  0.20850459701E+02 -0.16358405670E+02 -0.16991543322E+03  0.17196974603E+03  0.00000000000E+00 0.  1.
         22    1    1    2    0    0  0.11534841837E+02  0.79790546221E+01  0.45710100757E+02  0.47813504369E+02  0.00000000000E+00 0.  1.
         22    1    1    2    0    0  0.57702473041E+01  0.51282608420E+02 -0.75590608980E+02  0.91526727497E+02  0.00000000000E+00 0.  1.
</event>
<event>
 6    1  0.3240171E-005  0.9155482E+02  0.7818608E-02  0.1313096E+00
          2   -1    0    0  502    0  0.00000000000E+00  0.00000000000E+00  0.34088212818E+02  0.34088212818E+02  0.00000000000E+00 0.  1.
          1   -1    0    0  501    0 -0.00000000000E+00 -0.00000000000E+00 -0.93211162168E+03  0.93211162168E+03  0.00000000000E+00 0. -1.
          2    1    1    2  501    0  0.19273891633E+02 -0.12351120728E+02 -0.71212224524E+02  0.74801163116E+02  0.00000000000E+00 0.  1.
          1    1    1    2  502    0  0.16002986897E+02  0.16024705395E+02 -0.73183804367E+03  0.73218836984E+03  0.00000000000E+00 0. -1.
         22    1    1    2    0    0 -0.46955137447E+02  0.51842607657E+02 -0.62740520806E+02  0.93961768035E+02  0.00000000000E+00 0.  1.
         22    1    1    2    0    0  0.11678258917E+02 -0.55516192324E+02 -0.32232619868E+02  0.65248533508E+02  0.00000000000E+00 0.  1.
</event>
<event>
 6    1  0.3240171E-005  0.7648670E+03  0.7818608E-02  0.1100522E+00
          2   -1    0    0  502    0  0.00000000000E+00  0.00000000000E+00  0.49620647162E+03  0.49620647162E+03  0.00000000000E+00 0. -1.
          1   -1    0    0  501    0 -0.00000000000E+00 -0.00000000000E+00 -0.36993026850E+03  0.36993026850E+03  0.00000000000E+00 0. -1.
          2    1    1    2  501    0  0.37577922800E+03 -0.93022249268E+02  0.64404688314E+02  0.39244251927E+03  0.00000000000E+00 0. -1.
          1    1    1    2  502    0 -0.19660412095E+02 -0.11011162034E+02 -0.59955974142E+02  0.64050732458E+02  0.00000000000E+00 0. -1.
         22    1    1    2    0    0  0.78991256324E+01  0.91818594759E+01  0.13599586128E+02  0.18211300669E+02  0.00000000000E+00 0. -1.
         22    1    1    2    0    0 -0.36401794153E+03  0.94851551826E+02  0.10822790282E+03  0.39143218773E+03  0.00000000000E+00 0. -1.
</event>
<event>
 6    1  0.3240171E-005  0.1534610E+03  0.7818608E-02  0.1198169E+00
          2   -1    0    0  502    0  0.00000000000E+00  0.00000000000E+00  0.61443865408E+03  0.61443865408E+03  0.00000000000E+00 0. -1.
          1   -1    0    0  501    0 -0.00000000000E+00 -0.00000000000E+00 -0.10429726147E+04  0.10429726147E+04  0.00000000000E+00 0. -1.
          2    1    1    2  501    0 -0.50159208492E+02  0.99527887347E+02  0.20649809581E+03  0.23465551374E+03  0.00000000000E+00 0. -1.
          1    1    1    2  502    0 -0.76088575790E+02  0.34719677470E+02 -0.99620760978E+03  0.99971222317E+03  0.00000000000E+00 0. -1.
         22    1    1    2    0    0  0.14024468316E+03 -0.14016921199E+03  0.29709523602E+03  0.35718560778E+03  0.00000000000E+00 0.  1.
         22    1    1    2    0    0 -0.13996898876E+02  0.59216471680E+01  0.64080317376E+02  0.65857924036E+02  0.00000000000E+00 0.  1.
</event>
<event>
 6    1  0.3240171E-005  0.2165064E+03  0.7818608E-02  0.1251341E+00
          2   -1    0    0  502    0  0.00000000000E+00  0.00000000000E+00  0.38417386070E+02  0.38417386070E+02  0.00000000000E+00 0.  1.
          1   -1    0    0  501    0 -0.00000000000E+00 -0.00000000000E+00 -0.20553384165E+04  0.20553384165E+04  0.00000000000E+00 0.  1.
          2    1    1    2  501    0 -0.13833533684E+02  0.15380855490E+02 -0.26717543655E+02  0.33790006049E+02  0.00000000000E+00 0.  1.
          1    1    1    2  502    0  0.20051035486E+03  0.27035804772E+02 -0.15474067051E+04  0.15605777290E+04  0.00000000000E+00 0.  1.
         22    1    1    2    0    0  0.15218543510E+00  0.17315590706E+02 -0.26545070551E+01  0.17518540167E+02  0.00000000000E+00 0.  1.
         22    1    1    2    0    0 -0.18682900661E+03 -0.59732250968E+02 -0.44014227457E+03  0.48186952734E+03  0.00000000000E+00 0.  1.
</event>
<event>
 6    1  0.3240171E-005  0.2941941E+03  0.7818608E-02  0.1145027E+00
          2   -1    0    0  502    0  0.00000000000E+00  0.00000000000E+00  0.96338649496E+03  0.96338649496E+03  0.00000000000E+00 0. -1.
          1   -1    0    0  501    0 -0.00000000000E+00 -0.00000000000E+00 -0.14058975627E+03  0.14058975627E+03  0.00000000000E+00 0. -1.
          2    1    1    2  501    0 -0.11212047445E+03  0.22733090836E+03  0.13253303018E+03  0.28603382104E+03  0.00000000000E+00 0. -1.
          1    1    1    2  502    0  0.16337200565E+03 -0.25450317433E+03  0.49541107230E+03  0.58042605776E+03  0.00000000000E+00 0. -1.
         22    1    1    2    0    0  0.92546885624E+01 -0.86122932243E+01 -0.12978941889E+02  0.18118327393E+02  0.00000000000E+00 0. -1.
         22    1    1    2    0    0 -0.60506219761E+02  0.35784559189E+02  0.20783157811E+03  0.21939804503E+03  0.00000000000E+00 0.  1.
</event>
<event>
 6    1  0.3240171E-005  0.6907660E+02  0.7818608E-02  0.1381288E+00
          2   -1    0    0  502    0  0.00000000000E+00  0.00000000000E+00  0.11247560506E+03  0.11247560506E+03  0.00000000000E+00 0.  1.
          1   -1    0    0  501    0 -0.00000000000E+00 -0.00000000000E+00 -0.16800596663E+03  0.16800596663E+03  0.00000000000E+00 0.  1.
          2    1    1    2  501    0  0.15679172345E+02 -0.15405646407E+02  0.23839366585E+01  0.22110032579E+02  0.00000000000E+00 0.  1.
          1    1    1    2  502    0 -0.20483333822E+02 -0.20514550634E+01 -0.11752944869E+03  0.11931867725E+03  0.00000000000E+00 0.  1.
         22    1    1    2    0    0  0.27300045748E+02 -0.18971832516E+02  0.83606827291E+02  0.89974021231E+02  0.00000000000E+00 0.  1.
         22    1    1    2    0    0 -0.22495884271E+02  0.36428933987E+02 -0.23991676821E+02  0.49078840626E+02  0.00000000000E+00 0.  1.
</event>
<event>
 6    1  0.3240171E-005  0.1703926E+03  0.7818608E-02  0.1178439E+00
          2   -1    0    0  502    0  0.00000000000E+00  0.00000000000E+00  0.80205082652E+02  0.80205082652E+02  0.00000000000E+00 0.  1.
          1   -1    0    0  501    0 -0.00000000000E+00 -0.00000000000E+00 -0.42493628425E+03  0.42493628425E+03  0.00000000000E+00 0.  1.
          2    1    1    2  501    0  0.25468840999E+02 -0.93933076578E+01 -0.25763284635E+02  0.37425164339E+02  0.00000000000E+00 0.  1.
          1    1    1    2  502    0 -0.11793658923E+03 -0.94530122796E+02 -0.19160202524E+03  0.24404163430E+03  0.00000000000E+00 0.  1.
         22    1    1    2    0    0 -0.24362415182E+02 -0.38803869522E+01 -0.21065976966E+02  0.32440099599E+02  0.00000000000E+00 0.  1.
         22    1    1    2    0    0  0.11683016341E+03  0.10780381741E+03 -0.10629991475E+03  0.19123446867E+03  0.00000000000E+00 0.  1.
</event>
<event>
 6    1  0.3240171E-005  0.2466125E+03  0.7818608E-02  0.1204523E+00
          2   -1    0    0  502    0  0.00000000000E+00  0.00000000000E+00  0.11364263948E+04  0.11364263948E+04  0.00000000000E+00 0. -1.
          1   -1    0    0  501    0 -0.00000000000E+00 -0.00000000000E+00 -0.25672090640E+02  0.25672090640E+02  0.00000000000E+00 0. -1.
          2    1    1    2  501    0  0.87947508411E+02 -0.44246918265E+01  0.17347906417E+03  0.19454903711E+03  0.00000000000E+00 0. -1.
          1    1    1    2  502    0  0.17949135134E+02 -0.34676995880E+02  0.47392011445E+02  0.61405767190E+02  0.00000000000E+00 0. -1.
         22    1    1    2    0    0 -0.13595701746E+03  0.31848699332E+02  0.70567135723E+03  0.71935437350E+03  0.00000000000E+00 0. -1.
         22    1    1    2    0    0  0.30060373919E+02  0.72529883738E+01  0.18421187131E+03  0.18678930765E+03  0.00000000000E+00 0. -1.
</event>
<event>
 6    1  0.3240171E-005  0.1091016E+03  0.7818608E-02  0.1312913E+00
          2   -1    0    0  502    0  0.00000000000E+00  0.00000000000E+00  0.14036775102E+03  0.14036775102E+03  0.00000000000E+00 0.  1.
          1   -1    0    0  501    0 -0.00000000000E+00 -0.00000000000E+00 -0.26919602663E+04  0.26919602663E+04  0.00000000000E+00 0. -1.
          2    1    1    2  501    0 -0.13124778889E+02  0.31825641488E+02 -0.97620051000E+02  0.10351234532E+03  0.00000000000E+00 0.  1.
          1    1    1    2  502    0  0.14176950785E+02 -0.34466361329E+02 -0.25643843606E+04  0.25646551551E+04  0.00000000000E+00 0. -1.
         22    1    1    2    0    0 -0.24228038894E+02  0.35742778872E+02  0.11561755203E+03  0.12341783683E+03  0.00000000000E+00 0.  1.
         22    1    1    2    0    0  0.23175866997E+02 -0.33102059031E+02 -0.52056557135E+01  0.40742680012E+02  0.00000000000E+00 0.  1.
</event>
<event>
 6    1  0.3240171E-005  0.1922012E+03  0.7818608E-02  0.1168831E+00
          2   -1    0    0  502    0  0.00000000000E+00  0.00000000000E+00  0.22723822900E+04  0.22723822900E+04  0.00000000000E+00 0. -1.
          1   -1    0    0  501    0 -0.00000000000E+00 -0.00000000000E+00 -0.10371535940E+03  0.10371535940E+03  0.00000000000E+00 0. -1.
          2    1    1    2  501    0  0.11144485575E+03  0.22835653900E+02  0.11090179563E+04  0.11148373201E+04  0.00000000000E+00 0. -1.
          1    1    1    2  502    0  0.16818770826E+03 -0.93027952696E+02  0.42829662082E+02  0.19691542638E+03  0.00000000000E+00 0. -1.
         22    1    1    2    0    0  0.45243872332E+01  0.22588242653E+02  0.12608995879E+03  0.12817712937E+03  0.00000000000E+00 0.  1.
         22    1    1    2    0    0 -0.28415695125E+03  0.47604056143E+02  0.89072935349E+03  0.93616777357E+03  0.00000000000E+00 0. -1.
</event>
<event>
 6    1  0.3240171E-005  0.1221699E+03  0.7818608E-02  0.1334665E+00
          2   -1    0    0  502    0  0.00000000000E+00  0.00000000000E+00  0.21885793507E+03  0.21885793507E+03  0.00000000000E+00 0.  1.
          1   -1    0    0  501    0 -0.00000000000E+00 -0.00000000000E+00 -0.15130752160E+03  0.15130752160E+03  0.00000000000E+00 0.  1.
          2    1    1    2  501    0  0.87069643760E+02 -0.39329464170E+02 -0.54551196550E+02  0.11001710168E+03  0.00000000000E+00 0.  1.
          1    1    1    2  502    0 -0.95903231114E+02  0.31157902468E+02  0.83392099140E+02  0.13085292058E+03  0.00000000000E+00 0.  1.
         22    1    1    2    0    0 -0.17443810318E+02  0.10492227272E+02  0.78754330601E+02  0.81342596098E+02  0.00000000000E+00 0.  1.
         22    1    1    2    0    0  0.26277397672E+02 -0.23206655696E+01 -0.40044819720E+02  0.47952838325E+02  0.00000000000E+00 0.  1.
</event>
<event>
 6    1  0.3240171E-005  0.2282184E+03  0.7818608E-02  0.1259719E+00
          2   -1    0    0  502    0  0.00000000000E+00  0.00000000000E+00  0.33768268926E+03  0.33768268926E+03  0.00000000000E+00 0.  1.
          1   -1    0    0  501    0 -0.00000000000E+00 -0.00000000000E+00 -0.10697977955E+04  0.10697977955E+04  0.00000000000E+00 0.  1.
          2    1    1    2  501    0 -0.38096888821E+02  0.22229491298E+02  0.21027003469E+03  0.21484648172E+03  0.00000000000E+00 0.  1.
          1    1    1    2  502    0 -0.14131184846E+02  0.54147994173E+02 -0.10183578698E+04  0.10198943311E+04  0.00000000000E+00 0.  1.
         22    1    1    2    0    0  0.17937607248E+01  0.12396026119E+02  0.69299272378E+02  0.70422071776E+02  0.00000000000E+00 0.  1.
         22    1    1    2    0    0  0.50434312942E+02 -0.88773511591E+02  0.66734564737E+01  0.10231760016E+03  0.00000000000E+00 0.  1.
</event>
<event>
 6    1  0.3240171E-005  0.1265244E+03  0.7818608E-02  0.1234151E+00
          2   -1    0    0  502    0  0.00000000000E+00  0.00000000000E+00  0.48765664521E+02  0.48765664521E+02  0.00000000000E+00 0. -1.
          1   -1    0    0  501    0 -0.00000000000E+00 -0.00000000000E+00 -0.44850858391E+03  0.44850858391E+03  0.00000000000E+00 0.  1.
          2    1    1    2  501    0  0.28358908162E+02 -0.90214715060E+02 -0.13349288457E+03  0.16359484319E+03  0.00000000000E+00 0. -1.
          1    1    1    2  502    0 -0.29183608989E+02  0.13851985202E+01 -0.10963325598E+03  0.11345947570E+03  0.00000000000E+00 0.  1.
         22    1    1    2    0    0  0.81000560990E+01 -0.31534576741E+02 -0.20980906066E+02  0.38732916988E+02  0.00000000000E+00 0.  1.
         22    1    1    2    0    0 -0.72753552718E+01  0.12036409328E+03 -0.13563587277E+03  0.18148701256E+03  0.00000000000E+00 0.  1.
</event>
<event>
 6    1  0.3240171E-005  0.2390711E+03  0.7818608E-02  0.1226717E+00
          2   -1    0    0  502    0  0.00000000000E+00  0.00000000000E+00  0.33475298404E+03  0.33475298404E+03  0.00000000000E+00 0.  1.
          1   -1    0    0  501    0 -0.00000000000E+00 -0.00000000000E+00 -0.22486311972E+04  0.22486311972E+04  0.00000000000E+00 0.  1.
          2    1    1    2  501    0 -0.10045654948E+03 -0.18135046949E+02  0.42364792324E+02  0.11052227780E+03  0.00000000000E+00 0.  1.
          1    1    1    2  502    0 -0.11322405048E+02  0.27238725111E+02 -0.21874310730E+04  0.21876299605E+04  0.00000000000E+00 0.  1.
         22    1    1    2    0    0 -0.18025126175E+02 -0.11207425860E+02  0.93957972903E+02  0.96325553412E+02  0.00000000000E+00 0.  1.
         22    1    1    2    0    0  0.12980408071E+03  0.21037476975E+01  0.13723009463E+03  0.18890638950E+03  0.00000000000E+00 0.  1.
</event>
<event>
 6    1  0.3240171E-005  0.8267502E+02  0.7818608E-02  0.1336635E+00
          2   -1    0    0  502    0  0.00000000000E+00  0.00000000000E+00  0.90920743365E+02  0.90920743365E+02  0.00000000000E+00 0. -1.
          1   -1    0    0  501    0 -0.00000000000E+00 -0.00000000000E+00 -0.17681078717E+03  0.17681078717E+03  0.00000000000E+00 0. -1.
          2    1    1    2  501    0 -0.78744095946E+01  0.21007050149E+02 -0.34030643240E+02  0.40760117293E+02  0.00000000000E+00 0. -1.
          1    1    1    2  502    0  0.26377818225E+02 -0.23342783224E+02 -0.85912151084E+02  0.92852423376E+02  0.00000000000E+00 0. -1.
         22    1    1    2    0    0 -0.41298958264E+02  0.54843667317E+02  0.23744520464E+01  0.68695486176E+02  0.00000000000E+00 0. -1.
         22    1    1    2    0    0  0.22795549634E+02 -0.52507934242E+02  0.31678298469E+02  0.65423503693E+02  0.00000000000E+00 0. -1.
</event>
<event>
 6    1  0.3240171E-005  0.1582285E+03  0.7818608E-02  0.1235960E+00
          2   -1    0    0  502    0  0.00000000000E+00  0.00000000000E+00  0.12131538670E+03  0.12131538670E+03  0.00000000000E+00 0. -1.
          1   -1    0    0  501    0 -0.00000000000E+00 -0.00000000000E+00 -0.17285468661E+04  0.17285468661E+04  0.00000000000E+00 0. -1.
          2    1    1    2  501    0  0.29824227748E+02  0.86621785973E+02 -0.88550327625E+02  0.12741263237E+03  0.00000000000E+00 0. -1.
          1    1    1    2  502    0 -0.12027138028E+03 -0.94482679004E+02 -0.15547619051E+04  0.15622665468E+04  0.00000000000E+00 0. -1.
         22    1    1    2    0    0  0.60299219847E+02  0.51124884527E+01  0.83984257912E+02  0.10351564630E+03  0.00000000000E+00 0. -1.
         22    1    1    2    0    0  0.30147932688E+02  0.27484045784E+01 -0.47903504551E+02  0.56667427340E+02  0.00000000000E+00 0.  1.
</event>
<event>
 6    1  0.3240171E-005  0.1937736E+03  0.7818608E-02  0.1207672E+00
          2   -1    0    0  502    0  0.00000000000E+00  0.00000000000E+00  0.83478570335E+02  0.83478570335E+02  0.00000000000E+00 0. -1.
          1   -1    0    0  501    0 -0.00000000000E+00 -0.00000000000E+00 -0.18909695906E+04  0.18909695906E+04  0.00000000000E+00 0. -1.
          2    1    1    2  501    0  0.14873289566E+02  0.10578398728E+03 -0.86897355884E+02  0.13770481897E+03  0.00000000000E+00 0. -1.
          1    1    1    2  502    0  0.79686903884E+02 -0.39315053691E+02 -0.16528704528E+04  0.16552572035E+04  0.00000000000E+00 0. -1.
         22    1    1    2    0    0 -0.59321943361E+02 -0.54612179492E+01  0.25360341090E+02  0.64746156379E+02  0.00000000000E+00 0.  1.
         22    1    1    2    0    0 -0.35238250089E+02 -0.61007715641E+02 -0.93083552761E+02  0.11673998215E+03  0.00000000000E+00 0. -1.
</event>
<event>
 6    1  0.3240171E-005  0.2564720E+03  0.7818608E-02  0.1132914E+00
          2   -1    0    0  502    0  0.00000000000E+00  0.00000000000E+00  0.10192393689E+04  0.10192393689E+04  0.00000000000E+00 0.  1.
          1   -1    0    0  501    0 -0.00000000000E+00 -0.00000000000E+00 -0.15613973623E+03  0.15613973623E+03  0.00000000000E+00 0.  1.
          2    1    1    2  501    0 -0.10138901403E+02  0.98418434700E+02  0.17121512408E+03  0.19774631305E+03  0.00000000000E+00 0.  1.
          1    1    1    2  502    0 -0.25479479231E+03 -0.29283285103E+02  0.40028384534E+02  0.25957690294E+03  0.00000000000E+00 0.  1.
         22    1    1    2    0    0  0.27533579973E+03 -0.79349053693E+02  0.61828974013E+03  0.68146040067E+03  0.00000000000E+00 0.  1.
         22    1    1    2    0    0 -0.10402106020E+02  0.10213904096E+02  0.33566383882E+02  0.36595488430E+02  0.00000000000E+00 0. -1.
</event>
<event>
 6    1  0.3240171E-005  0.1308806E+03  0.7818608E-02  0.1287757E+00
          2   -1    0    0  502    0  0.00000000000E+00  0.00000000000E+00  0.56259150712E+02  0.56259150712E+02  0.00000000000E+00 0.  1.
          1   -1    0    0  501    0 -0.00000000000E+00 -0.00000000000E+00 -0.96837587442E+03  0.96837587442E+03  0.00000000000E+00 0.  1.
          2    1    1    2  501    0 -0.16937474027E+02 -0.45811601956E+02 -0.50206765820E+02  0.70044987218E+02  0.00000000000E+00 0.  1.
          1    1    1    2  502    0  0.35154969301E+02 -0.30695538307E+01 -0.80140379377E+03  0.80218036295E+03  0.00000000000E+00 0.  1.
         22    1    1    2    0    0  0.56468830425E+01  0.81289321498E+02 -0.73887853900E+02  0.10999661827E+03  0.00000000000E+00 0.  1.
         22    1    1    2    0    0 -0.23864378316E+02 -0.32408165711E+02  0.13381689779E+02  0.42413056699E+02  0.00000000000E+00 0.  1.
</event>
<event>
 6    1  0.3240171E-005  0.1302873E+03  0.7818608E-02  0.1361361E+00
          2   -1    0    0  502    0  0.00000000000E+00  0.00000000000E+00  0.49519818032E+02  0.49519818032E+02  0.00000000000E+00 0.  1.
          1   -1    0    0  501    0 -0.00000000000E+00 -0.00000000000E+00 -0.14965027773E+04  0.14965027773E+04  0.00000000000E+00 0. -1.
          2    1    1    2  501    0  0.69338764131E+02 -0.45471280701E+01 -0.21461532159E+03  0.22558430098E+03  0.00000000000E+00 0.  1.
          1    1    1    2  502    0 -0.53407427314E+02  0.49589869238E+02 -0.11641702893E+04  0.11664493006E+04  0.00000000000E+00 0. -1.
         22    1    1    2    0    0  0.96484505508E+01  0.44560647240E+01  0.35072358340E+02  0.36647229504E+02  0.00000000000E+00 0.  1.
         22    1    1    2    0    0 -0.25579787368E+02 -0.49498805892E+02 -0.10326970665E+03  0.11734176417E+03  0.00000000000E+00 0.  1.
</event>
<event>
 6    1  0.3240171E-005  0.6109612E+02  0.7818608E-02  0.1408690E+00
          2   -1    0    0  502    0  0.00000000000E+00  0.00000000000E+00  0.28252846371E+03  0.28252846371E+03  0.00000000000E+00 0. -1.
          1   -1    0    0  501    0 -0.00000000000E+00 -0.00000000000E+00 -0.43194799519E+03  0.43194799519E+03  0.00000000000E+00 0. -1.
          2    1    1    2  501    0  0.53198542563E+01  0.25411631393E+02 -0.45157877597E+02  0.52089209712E+02  0.00000000000E+00 0. -1.
          1    1    1    2  502    0  0.19045418006E+02 -0.16889754481E+02 -0.36776689659E+03  0.36864682554E+03  0.00000000000E+00 0. -1.
         22    1    1    2    0    0  0.11103800644E+02  0.23780973937E+02  0.34991196895E+00  0.26247886554E+02  0.00000000000E+00 0. -1.
         22    1    1    2    0    0 -0.35469072906E+02 -0.32302850850E+02  0.26315533074E+03  0.26749253710E+03  0.00000000000E+00 0. -1.
</event>
<event>
 6    1  0.3240171E-005  0.1158915E+03  0.7818608E-02  0.1324290E+00
          2   -1    0    0  502    0  0.00000000000E+00  0.00000000000E+00  0.96726260374E+02  0.96726260374E+02  0.00000000000E+00 0. -1.
          1   -1    0    0  501    0 -0.00000000000E+00 -0.00000000000E+00 -0.14520617591E+03  0.14520617591E+03  0.00000000000E+00 0. -1.
          2    1    1    2  501    0  0.39824045622E+02  0.14439164740E+02  0.18393219828E+02  0.46181756395E+02  0.00000000000E+00 0. -1.
          1    1    1    2  502    0  0.16035744874E+02 -0.14276713299E+02 -0.59139929907E+02  0.62916619153E+02  0.00000000000E+00 0. -1.
         22    1    1    2    0    0 -0.40961755686E+01 -0.27758173619E+02  0.45608021161E+02  0.53547982700E+02  0.00000000000E+00 0. -1.
         22    1    1    2    0    0 -0.51763614928E+02  0.27595722179E+02 -0.53341226614E+02  0.79286078032E+02  0.00000000000E+00 0. -1.
</event>
<event>
 6    1  0.3240171E-005  0.1673062E+03  0.7818608E-02  0.1291267E+00
          2   -1    0    0  502    0  0.00000000000E+00  0.00000000000E+00  0.21686353344E+03  0.21686353344E+03  0.00000000000E+00 0. -1.
          1   -1    0    0  501    0 -0.00000000000E+00 -0.00000000000E+00 -0.10043550611E+04  0.10043550611E+04  0.00000000000E+00 0. -1.
          2    1    1    2  501    0  0.14098533667E+02  0.59686413006E+02 -0.46953012298E-01  0.61328938958E+02  0.00000000000E+00 0. -1.
          1    1    1    2  502    0  0.29455160319E+02  0.28350216863E+02 -0.93983850839E+03  0.94072725225E+03  0.00000000000E+00 0. -1.
         22    1    1    2    0    0  0.17203431111E+02 -0.23480645797E+01  0.10052129508E+03  0.10200981430E+03  0.00000000000E+00 0. -1.
         22    1    1    2    0    0 -0.60757125097E+02 -0.85688565290E+02  0.51872638674E+02  0.11715258902E+03  0.00000000000E+00 0. -1.
</event>
<event>
 6    1  0.3240171E-005  0.1383676E+03  0.7818608E-02  0.1232095E+00
          2   -1    0    0  502    0  0.00000000000E+00  0.00000000000E+00  0.69914056273E+03  0.69914056273E+03  0.00000000000E+00 0. -1.
          1   -1    0    0  501    0 -0.00000000000E+00 -0.00000000000E+00 -0.70648781401E+03  0.70648781401E+03  0.00000000000E+00 0. -1.
          2    1    1    2  501    0 -0.14840528084E+01  0.64081755634E+02  0.17498295616E+02  0.66444444217E+02  0.00000000000E+00 0. -1.
          1    1    1    2  502    0  0.26898499924E+02  0.23603898419E+01 -0.67418464253E+03  0.67472515365E+03  0.00000000000E+00 0. -1.
         22    1    1    2    0    0 -0.15467202594E+01 -0.98273990640E+02  0.51735522211E+03  0.52660857895E+03  0.00000000000E+00 0. -1.
         22    1    1    2    0    0 -0.23867726856E+02  0.31831845164E+02  0.13198387353E+03  0.13785019994E+03  0.00000000000E+00 0. -1.
</event>
<event>
 6    1  0.3240171E-005  0.1363269E+03  0.7818608E-02  0.1222977E+00
          2   -1    0    0  502    0  0.00000000000E+00  0.00000000000E+00  0.28507249107E+03  0.28507249107E+03  0.00000000000E+00 0.  1.
          1   -1    0    0  501    0 -0.00000000000E+00 -0.00000000000E+00 -0.33997889581E+03  0.33997889581E+03  0.00000000000E+00 0. -1.
          2    1    1    2  501    0 -0.77008261241E+02  0.67958626836E+02  0.94211201987E+02  0.13937143840E+03  0.00000000000E+00 0.  1.
          1    1    1    2  502    0 -0.67266928421E+01 -0.23609963224E+02 -0.27938793932E+03  0.28046443518E+03  0.00000000000E+00 0. -1.
         22    1    1    2    0    0  0.25281133699E+01  0.40109282615E+02  0.44824278419E+02  0.60202673071E+02  0.00000000000E+00 0.  1.
         22    1    1    2    0    0  0.81206840713E+02 -0.84457946226E+02  0.85446054171E+02  0.14501284023E+03  0.00000000000E+00 0.  1.
</event>
<event>
 6    1  0.3809761E-005  0.7044117E+02  0.7818608E-02  0.1359516E+00
          2   -1    0    0  502    0  0.00000000000E+00  0.00000000000E+00  0.16410981002E+03  0.16410981002E+03  0.00000000000E+00 0.  1.
          1   -1    0    0  501    0 -0.00000000000E+00 -0.00000000000E+00 -0.18947035295E+04  0.18947035295E+04  0.00000000000E+00 0.  1.
          2    1    1    2  501    0 -0.51208264690E+02 -0.23494042952E+02 -0.49762621497E+02  0.75170306140E+02  0.00000000000E+00 0.  1.
          1    1    1    2  502    0 -0.68177751431E+01  0.24994673261E+02 -0.18025103023E+04  0.18026964818E+04  0.00000000000E+00 0.  1.
         22    1    1    2    0    0 -0.11791630699E+02 -0.38274887599E+01 -0.19685324247E+02  0.23263796239E+02  0.00000000000E+00 0.  1.
         22    1    1    2    0    0  0.69817670533E+02  0.23268584512E+01  0.14136452855E+03  0.15768275531E+03  0.00000000000E+00 0.  1.
</event>
<event>
 6    1  0.3240171E-005  0.1333771E+03  0.7818608E-02  0.1278185E+00
          2   -1    0    0  502    0  0.00000000000E+00  0.00000000000E+00  0.28561566797E+03  0.28561566797E+03  0.00000000000E+00 0. -1.
          1   -1    0    0  501    0 -0.00000000000E+00 -0.00000000000E+00 -0.10323355718E+03  0.10323355718E+03  0.00000000000E+00 0. -1.
          2    1    1    2  501    0  0.60656949867E+02 -0.20967558199E+02 -0.37979282528E+02  0.74574325108E+02  0.00000000000E+00 0. -1.
          1    1    1    2  502    0 -0.86423093732E+02  0.35315539678E+02  0.82606700670E+02  0.12465955827E+03  0.00000000000E+00 0. -1.
         22    1    1    2    0    0  0.40426299314E+00  0.43873782950E+02  0.11341298595E+03  0.12160418431E+03  0.00000000000E+00 0.  1.
         22    1    1    2    0    0  0.25361880872E+02 -0.58221764430E+02  0.24341706688E+02  0.68011157461E+02  0.00000000000E+00 0.  1.
</event>
<event>
 6    1  0.3240171E-005  0.7466454E+02  0.7818608E-02  0.1388948E+00
          2   -1    0    0  502    0  0.00000000000E+00  0.00000000000E+00  0.10403342485E+03  0.10403342485E+03  0.00000000000E+00 0. -1.
          1   -1    0    0  501    0 -0.00000000000E+00 -0.00000000000E+00 -0.52651505412E+03  0.52651505412E+03  0.00000000000E+00 0.  1.
          2    1    1    2  501    0  0.23220989800E+02 -0.30439849097E+02 -0.80693978671E+01  0.39126895638E+02  0.00000000000E+00 0. -1.
          1    1    1    2  502    0 -0.55038862785E+02  0.32482674637E+02 -0.45297669291E+03  0.45746287816E+03  0.00000000000E+00 0.  1.
         22    1    1    2    0    0  0.31511425066E+02  0.17175999396E+02  0.80330047548E+02  0.87982392579E+02  0.00000000000E+00 0. -1.
         22    1    1    2    0    0  0.30644791873E+00 -0.19218824936E+02 -0.41765586044E+02  0.45976312595E+02  0.00000000000E+00 0.  1.
</event>
<event>
 6    1  0.3240171E-005  0.3025996E+03  0.7818608E-02  0.1158338E+00
          2   -1    0    0  502    0  0.00000000000E+00  0.00000000000E+00  0.12527718087E+03  0.12527718087E+03  0.00000000000E+00 0. -1.
          1   -1    0    0  501    0 -0.00000000000E+00 -0.00000000000E+00 -0.10551690686E+04  0.10551690686E+04  0.00000000000E+00 0. -1.
          2    1    1    2  501    0 -0.23853482581E+03 -0.12682489258E+03 -0.46696542260E+03  0.53948134574E+03  0.00000000000E+00 0. -1.
          1    1    1    2  502    0  0.28174980458E+03  0.80120107076E+02 -0.38593345791E+03  0.48450677794E+03  0.00000000000E+00 0. -1.
         22    1    1    2    0    0 -0.21620812878E+02  0.47681783533E+01 -0.10109249312E+03  0.10348858507E+03  0.00000000000E+00 0.  1.
         22    1    1    2    0    0 -0.21594165887E+02  0.41936607148E+02  0.24099485919E+02  0.52969540691E+02  0.00000000000E+00 0.  1.
</event>
<event>
 6    1  0.3240171E-005  0.8440865E+02  0.7818608E-02  0.1343049E+00
          2   -1    0    0  502    0  0.00000000000E+00  0.00000000000E+00  0.17651603986E+02  0.17651603986E+02  0.00000000000E+00 0.  1.
          1   -1    0    0  501    0 -0.00000000000E+00 -0.00000000000E+00 -0.17479619314E+04  0.17479619314E+04  0.00000000000E+00 0.  1.
          2    1    1    2  501    0 -0.46041751369E+02 -0.20698260242E+02 -0.17117052047E+03  0.17845898107E+03  0.00000000000E+00 0.  1.
          1    1    1    2  502    0  0.43842589382E+02  0.51894290397E+02 -0.12367209135E+04  0.12385854060E+04  0.00000000000E+00 0.  1.
         22    1    1    2    0    0 -0.35041333438E+02 -0.69415109259E+02 -0.21492527932E+03  0.22855902549E+03  0.00000000000E+00 0.  1.
         22    1    1    2    0    0  0.37240495425E+02  0.38219079103E+02 -0.10749361409E+03  0.12001012281E+03  0.00000000000E+00 0.  1.
</event>
<event>
 6    1  0.3240171E-005  0.1861409E+03  0.7818608E-02  0.1215598E+00
          2   -1    0    0  502    0  0.00000000000E+00  0.00000000000E+00  0.25300845135E+03  0.25300845135E+03  0.00000000000E+00 0. -1.
          1   -1    0    0  501    0 -0.00000000000E+00 -0.00000000000E+00 -0.14617758538E+03  0.14617758538E+03  0.00000000000E+00 0. -1.
          2    1    1    2  501    0 -0.11164529535E+03 -0.68368951476E+02  0.19876932071E+02  0.13241630537E+03  0.00000000000E+00 0. -1.
          1    1    1    2  502    0  0.10246367282E+03  0.74733289848E+02  0.37101028267E+02  0.13213763717E+03  0.00000000000E+00 0. -1.
         22    1    1    2    0    0 -0.23136701708E+02  0.51838734627E+02  0.34092204448E+02  0.66218122729E+02  0.00000000000E+00 0. -1.
         22    1    1    2    0    0  0.32318324242E+02 -0.58203072998E+02  0.15760701183E+02  0.68413971454E+02  0.00000000000E+00 0. -1.
</event>
<event>
 6    1  0.3240171E-005  0.8661102E+02  0.7818608E-02  0.1415075E+00
          2   -1    0    0  502    0  0.00000000000E+00  0.00000000000E+00  0.42840544710E+02  0.42840544710E+02  0.00000000000E+00 0. -1.
          1   -1    0    0  501    0 -0.00000000000E+00 -0.00000000000E+00 -0.21257587291E+04  0.21257587291E+04  0.00000000000E+00 0.  1.
          2    1    1    2  501    0  0.33572771034E+02 -0.66467690548E+02 -0.60743693753E+03  0.61198424646E+03  0.00000000000E+00 0. -1.
          1    1    1    2  502    0 -0.35456064531E+02  0.70973252947E+02 -0.14184516666E+04  0.14206686684E+04  0.00000000000E+00 0.  1.
         22    1    1    2    0    0  0.53608519624E+00  0.15210405884E+02  0.36923559933E+02  0.39937364868E+02  0.00000000000E+00 0. -1.
         22    1    1    2    0    0  0.13472083009E+01 -0.19715968282E+02 -0.93953140241E+02  0.96008994040E+02  0.00000000000E+00 0.  1.
</event>
<event>
 6    1  0.3240171E-005  0.1544951E+03  0.7818608E-02  0.1301208E+00
          2   -1    0    0  502    0  0.00000000000E+00  0.00000000000E+00  0.34056006823E+02  0.34056006823E+02  0.00000000000E+00 0.  1.
          1   -1    0    0  501    0 -0.00000000000E+00 -0.00000000000E+00 -0.14732716260E+04  0.14732716260E+04  0.00000000000E+00 0.  1.
          2    1    1    2  501    0  0.60660873962E+02 -0.56127476941E+02 -0.75503299290E+03  0.75954253051E+03  0.00000000000E+00 0.  1.
          1    1    1    2  502    0 -0.10058536507E+03  0.94233343312E+02 -0.48472285985E+03  0.50393808104E+03  0.00000000000E+00 0.  1.
         22    1    1    2    0    0  0.27435125615E+02 -0.51532939549E+02 -0.21312574806E+03  0.22097718086E+03  0.00000000000E+00 0.  1.
         22    1    1    2    0    0  0.12489365498E+02  0.13427073177E+02  0.13665981653E+02  0.22869840384E+02  0.00000000000E+00 0.  1.
</event>
<event>
 6    1  0.3240171E-005  0.1886489E+03  0.7818608E-02  0.1250713E+00
          2   -1    0    0  502    0  0.00000000000E+00  0.00000000000E+00  0.26712965844E+03  0.26712965844E+03  0.00000000000E+00 0. -1.
          1   -1    0    0  501    0 -0.00000000000E+00 -0.00000000000E+00 -0.33806560057E+03  0.33806560057E+03  0.00000000000E+00 0. -1.
          2    1    1    2  501    0  0.11367410511E+03  0.11463718273E+03 -0.14996975374E+03  0.22035065889E+03  0.00000000000E+00 0. -1.
          1    1    1    2  502    0 -0.15461995958E+03 -0.93721521103E+02 -0.58664147806E+02  0.19008560613E+03  0.00000000000E+00 0. -1.
         22    1    1    2    0    0  0.12525718953E+02 -0.23359981346E+02  0.15770503243E+03  0.15991703979E+03  0.00000000000E+00 0.  1.
         22    1    1    2    0    0  0.28420135518E+02  0.24443197185E+01 -0.20007073010E+02  0.34841954195E+02  0.00000000000E+00 0.  1.
</event>
<event>
 6    1  0.3240171E-005  0.6951969E+02  0.7818608E-02  0.1363133E+00
          2   -1    0    0  502    0  0.00000000000E+00  0.00000000000E+00  0.50716714745E+02  0.50716714745E+02  0.00000000000E+00 0. -1.
          1   -1    0    0  501    0 -0.00000000000E+00 -0.00000000000E+00 -0.21230137960E+04  0.21230137960E+04  0.00000000000E+00 0.  1.
          2    1    1    2  501    0  0.13917835548E+02 -0.50712971230E+02 -0.14392495161E+03  0.15323153491E+03  0.00000000000E+00 0. -1.
          1    1    1    2  502    0  0.30910287607E+02  0.36198350970E+02 -0.18812273832E+04  0.18818294912E+04  0.00000000000E+00 0.  1.
         22    1    1    2    0    0  0.15351155709E+02 -0.18786001126E+02 -0.63497019214E+02  0.67973842535E+02  0.00000000000E+00 0. -1.
         22    1    1    2    0    0 -0.60179278865E+02  0.33300621386E+02  0.16352272783E+02  0.70695642119E+02  0.00000000000E+00 0. -1.
</event>
<event>
 6    1  0.3240171E-005  0.1072631E+03  0.7818608E-02  0.1272543E+00
          2   -1    0    0  502    0  0.00000000000E+00  0.00000000000E+00  0.75931509357E+03  0.75931509357E+03  0.00000000000E+00 0.  1.
          1   -1    0    0  501    0 -0.00000000000E+00 -0.00000000000E+00 -0.12553287986E+04  0.12553287986E+04  0.00000000000E+00 0.  1.
          2    1    1    2  501    0 -0.61662593766E+02 -0.71688301452E+02  0.23626227216E+03  0.25448251272E+03  0.00000000000E+00 0.  1.
          1    1    1    2  502    0  0.76982628610E+01  0.59258986132E+02 -0.12359801275E+04  0.12374238426E+04  0.00000000000E+00 0.  1.
         22    1    1    2    0    0 -0.33958113987E+02 -0.18125750560E+01  0.50622888698E+02  0.60984553733E+02  0.00000000000E+00 0. -1.
         22    1    1    2    0    0  0.87922444892E+02  0.14241890375E+02  0.45308126162E+03  0.46175298309E+03  0.00000000000E+00 0. -1.
</event>
<event>
 6    1  0.3240171E-005  0.8993895E+02  0.7818608E-02  0.1321331E+00
          2   -1    0    0  502    0  0.00000000000E+00  0.00000000000E+00  0.54921706735E+02  0.54921706735E+02  0.00000000000E+00 0.  1.
          1   -1    0    0  501    0 -0.00000000000E+00 -0.00000000000E+00 -0.77345606454E+03  0.77345606454E+03  0.00000000000E+00 0. -1.
          2    1    1    2  501    0 -0.22016069012E+02 -0.33126960321E+02 -0.18421545988E+03  0.18846070799E+03  0.00000000000E+00 0.  1.
          1    1    1    2  502    0  0.65129273344E+01  0.22910609587E+02 -0.50602202843E+03  0.50658228108E+03  0.00000000000E+00 0. -1.
         22    1    1    2    0    0 -0.15331071419E+02 -0.44247406697E+02 -0.48646739746E+02  0.67523181487E+02  0.00000000000E+00 0.  1.
         22    1    1    2    0    0  0.30834213096E+02  0.54463757431E+02  0.20349870246E+02  0.65811600723E+02  0.00000000000E+00 0.  1.
</event>
<event>
 6    1  0.3240171E-005  0.4242168E+03  0.7818608E-02  0.1168433E+00
          2   -1    0    0  502    0  0.00000000000E+00  0.00000000000E+00  0.70858046140E+02  0.70858046140E+02  0.00000000000E+00 0.  1.
          1   -1    0    0  501    0 -0.00000000000E+00 -0.00000000000E+00 -0.83796512737E+03  0.83796512737E+03  0.00000000000E+00 0. -1.
          2    1    1    2  501    0  0.77603262721E+02  0.16910129429E+03 -0.47733200985E+03  0.51231178178E+03  0.00000000000E+00 0.  1.
          1    1    1    2  502    0 -0.78786277855E+01  0.21248089900E+02 -0.72259863432E+02  0.75730059840E+02  0.00000000000E+00 0. -1.
         22    1    1    2    0    0 -0.82972281618E+02 -0.19321191369E+03 -0.22268619237E+03  0.30627501266E+03  0.00000000000E+00 0. -1.
         22    1    1    2    0    0  0.13247646683E+02  0.28625295021E+01  0.51709844254E+01  0.14506319234E+02  0.00000000000E+00 0.  1.
</event>
<event>
 6    1  0.3240171E-005  0.9658426E+02  0.7818608E-02  0.1294443E+00
          2   -1    0    0  502    0  0.00000000000E+00  0.00000000000E+00  0.37015353723E+03  0.37015353723E+03  0.00000000000E+00 0. -1.
          1   -1    0    0  501    0 -0.00000000000E+00 -0.00000000000E+00 -0.12481727578E+03  0.12481727578E+03  0.00000000000E+00 0. -1.
          2    1    1    2  501    0 -0.12914558216E+02 -0.63415526378E+02  0.68806654330E+02  0.94459888206E+02  0.00000000000E+00 0. -1.
          1    1    1    2  502    0  0.15415974225E+02  0.42036561350E+02 -0.92221117678E+02  0.10251565391E+03  0.00000000000E+00 0. -1.
         22    1    1    2    0    0 -0.24513724011E+02  0.70464475823E+02  0.16670322943E+03  0.18263661111E+03  0.00000000000E+00 0.  1.
         22    1    1    2    0    0  0.22012308003E+02 -0.49085510795E+02  0.10204749537E+03  0.11535865977E+03  0.00000000000E+00 0. -1.
</event>
<event>
 6    1  0.3240171E-005  0.1118644E+03  0.7818608E-02  0.1263151E+00
          2   -1    0    0  502    0  0.00000000000E+00  0.00000000000E+00  0.22229428532E+03  0.22229428532E+03  0.00000000000E+00 0.  1.
          1   -1    0    0  501    0 -0.00000000000E+00 -0.00000000000E+00 -0.42300930054E+03  0.42300930054E+03  0.00000000000E+00 0.  1.
          2    1    1    2  501    0  0.88780012400E+02 -0.37799200243E+02  0.28571533306E+02  0.10063300977E+03  0.00000000000E+00 0.  1.
          1    1    1    2  502    0 -0.44035808774E+02  0.33743937239E+02 -0.35539271368E+03  0.35969679828E+03  0.00000000000E+00 0.  1.
         22    1    1    2    0    0 -0.87843130838E+02 -0.99918611874E+01  0.96265615276E+02  0.13070318133E+03  0.00000000000E+00 0. -1.
         22    1    1    2    0    0  0.43098927211E+02  0.14047124192E+02  0.29840549883E+02  0.54270596478E+02  0.00000000000E+00 0.  1.
</event>
<event>
 6    1  0.3240171E-005  0.2285346E+03  0.7818608E-02  0.1127952E+00
          2   -1    0    0  502    0  0.00000000000E+00  0.00000000000E+00  0.81436885710E+03  0.81436885710E+03  0.00000000000E+00 0.  1.
          1   -1    0    0  501    0 -0.00000000000E+00 -0.00000000000E+00 -0.11106554762E+03  0.11106554762E+03  0.00000000000E+00 0.  1.
          2    1    1    2  501    0 -0.87581957679E+02 -0.21344453093E+03  0.11092972195E+03  0.25599720762E+03  0.00000000000E+00 0.  1.
          1    1    1    2  502    0  0.18842971299E+02  0.14819989630E+02 -0.48105255479E+01  0.24450579054E+02  0.00000000000E+00 0.  1.
         22    1    1    2    0    0  0.68059190532E+02  0.21210630210E+03  0.58766927048E+03  0.62847140609E+03  0.00000000000E+00 0.  1.
         22    1    1    2    0    0  0.67979584824E+00 -0.13481760798E+02  0.95148425984E+01  0.16515211966E+02  0.00000000000E+00 0. -1.
</event>
<event>
 6    1  0.3240171E-005  0.1131146E+03  0.7818608E-02  0.1296328E+00
          2   -1    0    0  502    0  0.00000000000E+00  0.00000000000E+00  0.55751597605E+03  0.55751597605E+03  0.00000000000E+00 0.  1.
          1   -1    0    0  501    0 -0.00000000000E+00 -0.00000000000E+00 -0.50407264563E+03  0.50407264563E+03  0.00000000000E+00 0.  1.
          2    1    1    2  501    0 -0.68763323357E+02  0.29031572456E+02  0.28319735363E+03  0.29286851648E+03  0.00000000000E+00 0.  1.
          1    1    1    2  502    0  0.82235364622E+02 -0.62012918104E+02 -0.47746567341E+03  0.48844828436E+03  0.00000000000E+00 0.  1.
         22    1    1    2    0    0 -0.62432889674E+02  0.47716833577E+02  0.16951758370E+03  0.18684478345E+03  0.00000000000E+00 0. -1.
         22    1    1    2    0    0  0.48960848409E+02 -0.14735487929E+02  0.78194066499E+02  0.93427037398E+02  0.00000000000E+00 0.  1.
</event>
<event>
 6    1  0.3240171E-005  0.8757261E+02  0.7818608E-02  0.1324691E+00
          2   -1    0    0  502    0  0.00000000000E+00  0.00000000000E+00  0.40637589824E+03  0.40637589824E+03  0.00000000000E+00 0.  1.
          1   -1    0    0  501    0 -0.00000000000E+00 -0.00000000000E+00 -0.12530669466E+03  0.12530669466E+03  0.00000000000E+00 0.  1.
          2    1    1    2  501    0 -0.34058442886E+02 -0.35972343773E+02  0.46677186000E+02  0.68064283888E+02  0.00000000000E+00 0.  1.
          1    1    1    2  502    0  0.75792503328E+02  0.28221406660E+02 -0.85951130001E+02  0.11801927005E+03  0.00000000000E+00 0.  1.
         22    1    1    2    0    0 -0.19177799005E+02 -0.54144507172E+02  0.96886011309E+02  0.11263354216E+03  0.00000000000E+00 0. -1.
         22    1    1    2    0    0 -0.22556261437E+02  0.61895444284E+02  0.22345713627E+03  0.23296549681E+03  0.00000000000E+00 0.  1.
</event>
<event>
 6    1  0.3240171E-005  0.7493970E+02  0.7818608E-02  0.1353351E+00
          2   -1    0    0  502    0  0.00000000000E+00  0.00000000000E+00  0.35713393722E+03  0.35713393722E+03  0.00000000000E+00 0. -1.
          1   -1    0    0  501    0 -0.00000000000E+00 -0.00000000000E+00 -0.14855787869E+03  0.14855787869E+03  0.00000000000E+00 0. -1.
          2    1    1    2  501    0  0.28161970967E+02  0.23372647218E+02  0.11513944790E+01  0.36615610823E+02  0.00000000000E+00 0. -1.
          1    1    1    2  502    0 -0.27348346626E+02  0.15547345590E+02 -0.11516390226E+03  0.11938331710E+03  0.00000000000E+00 0. -1.
         22    1    1    2    0    0 -0.10422604135E+02  0.26381026516E+02  0.97913748292E+01  0.30007669987E+02  0.00000000000E+00 0.  1.
         22    1    1    2    0    0  0.96089797940E+01 -0.65301019323E+02  0.31279719148E+03  0.31968521801E+03  0.00000000000E+00 0. -1.
</event>
<event>
 6    1  0.3240171E-005  0.4968983E+02  0.7818608E-02  0.1551758E+00
          2   -1    0    0  502    0  0.00000000000E+00  0.00000000000E+00  0.55691228508E+02  0.55691228508E+02  0.00000000000E+00 0. -1.
          1   -1    0    0  501    0 -0.00000000000E+00 -0.00000000000E+00 -0.51901377550E+03  0.51901377550E+03  0.00000000000E+00 0. -1.
          2    1    1    2  501    0 -0.10864438239E+02 -0.17744123164E+02 -0.37168740479E+03  0.37226927996E+03  0.00000000000E+00 0. -1.
          1    1    1    2  502    0  0.10514880900E+02  0.46490510802E+02 -0.12905103017E+02  0.49380886980E+02  0.00000000000E+00 0. -1.
         22    1    1    2    0    0  0.75912872802E+01 -0.19499447883E+02 -0.11398766114E+03  0.11589237681E+03  0.00000000000E+00 0. -1.
         22    1    1    2    0    0 -0.72417299419E+01 -0.92469397548E+01  0.35257621948E+02  0.37162460263E+02  0.00000000000E+00 0. -1.
</event>
<event>
 6    1  0.3240171E-005  0.1605715E+03  0.7818608E-02  0.1300962E+00
          2   -1    0    0  502    0  0.00000000000E+00  0.00000000000E+00  0.23343771326E+03  0.23343771326E+03  0.00000000000E+00 0. -1.
          1   -1    0    0  501    0 -0.00000000000E+00 -0.00000000000E+00 -0.19083013798E+03  0.19083013798E+03  0.00000000000E+00 0. -1.
          2    1    1    2  501    0 -0.65419045334E+01 -0.32914544332E+02  0.18103864762E+02  0.38130219811E+02  0.00000000000E+00 0. -1.
          1    1    1    2  502    0  0.98348509386E+02  0.12571971243E+03 -0.79006048475E+02  0.17810062068E+03  0.00000000000E+00 0. -1.
         22    1    1    2    0    0 -0.83627638095E+02 -0.78581434976E+02  0.12355510631E+02  0.11541786005E+03  0.00000000000E+00 0. -1.
         22    1    1    2    0    0 -0.81789667580E+01 -0.14223733119E+02  0.91154248359E+02  0.92619150693E+02  0.00000000000E+00 0.  1.
</event>
<event>
 6    1  0.3240171E-005  0.4521446E+02  0.7818608E-02  0.1486054E+00
          2   -1    0    0  502    0  0.00000000000E+00  0.00000000000E+00  0.29876034010E+02  0.29876034010E+02  0.00000000000E+00 0.  1.
          1   -1    0    0  501    0 -0.00000000000E+00 -0.00000000000E+00 -0.56501978736E+03  0.56501978736E+03  0.00000000000E+00 0.  1.
          2    1    1    2  501    0  0.11545398682E+02 -0.21735041725E+02 -0.12551408869E+03  0.12790424047E+03  0.00000000000E+00 0.  1.
          1    1    1    2  502    0 -0.29366104008E+02 -0.12170931199E+01 -0.28943202894E+03  0.29092051966E+03  0.00000000000E+00 0.  1.
         22    1    1    2    0    0  0.34607591009E+02 -0.99979028458E+01 -0.13233508175E+03  0.13715034553E+03  0.00000000000E+00 0.  1.
         22    1    1    2    0    0 -0.16786885683E+02  0.32950037690E+02  0.12137446043E+02  0.38920715708E+02  0.00000000000E+00 0.  1.
</event>
<event>
 6    1  0.3240171E-005  0.7805190E+02  0.7818608E-02  0.1335944E+00
          2   -1    0    0  502    0  0.00000000000E+00  0.00000000000E+00  0.48373476895E+03  0.48373476895E+03  0.00000000000E+00 0.  1.
          1   -1    0    0  501    0 -0.00000000000E+00 -0.00000000000E+00 -0.59542876081E+03  0.59542876081E+03  0.00000000000E+00 0.  1.
          2    1    1    2  501    0 -0.26164438963E+02  0.13001112356E+02  0.76426541176E+02  0.81820675778E+02  0.00000000000E+00 0.  1.
          1    1    1    2  502    0 -0.48408160277E+02  0.13436390711E+02 -0.57751533646E+03  0.57969634329E+03  0.00000000000E+00 0.  1.
         22    1    1    2    0    0  0.10753789643E+03 -0.33264552961E+02  0.24883235809E+03  0.27310890151E+03  0.00000000000E+00 0.  1.
         22    1    1    2    0    0 -0.32965297187E+02  0.68270498932E+01  0.14056244533E+03  0.14453760917E+03  0.00000000000E+00 0.  1.
</event>
<event>
 6    1  0.3240171E-005  0.1442844E+03  0.7818608E-02  0.1208229E+00
          2   -1    0    0  502    0  0.00000000000E+00  0.00000000000E+00  0.47512965761E+03  0.47512965761E+03  0.00000000000E+00 0.  1.
          1   -1    0    0  501    0 -0.00000000000E+00 -0.00000000000E+00 -0.63219962689E+02  0.63219962689E+02  0.00000000000E+00 0.  1.
          2    1    1    2  501    0 -0.97407259567E+02  0.43287282331E+02  0.11747813376E+03  0.15862873302E+03  0.00000000000E+00 0.  1.
          1    1    1    2  502    0 -0.37460699716E+02 -0.71701339164E+01  0.10431700083E+03  0.11107093006E+03  0.00000000000E+00 0.  1.
         22    1    1    2    0    0 -0.21583617690E+02  0.90943448940E+01  0.44051136143E+02  0.49890502674E+02  0.00000000000E+00 0.  1.
         22    1    1    2    0    0  0.15645157697E+03 -0.45211493309E+02  0.14606342419E+03  0.21875945454E+03  0.00000000000E+00 0.  1.
</event>
<event>
 6    1  0.3240171E-005  0.2557901E+03  0.7818608E-02  0.1222508E+00
          2   -1    0    0  502    0  0.00000000000E+00  0.00000000000E+00  0.29128346924E+03  0.29128346924E+03  0.00000000000E+00 0. -1.
          1   -1    0    0  501    0 -0.00000000000E+00 -0.00000000000E+00 -0.62348251678E+03  0.62348251678E+03  0.00000000000E+00 0. -1.
          2    1    1    2  501    0  0.17384071290E+03  0.12261665488E+03 -0.46488623044E+03  0.51124812446E+03  0.00000000000E+00 0. -1.
          1    1    1    2  502    0 -0.22179161213E+03 -0.11272327255E+03  0.10703099704E+03  0.27083886301E+03  0.00000000000E+00 0. -1.
         22    1    1    2    0    0  0.16406950878E+02  0.94170735582E+01  0.71394355873E+02  0.73858129965E+02  0.00000000000E+00 0. -1.
         22    1    1    2    0    0  0.31543948355E+02 -0.19310455883E+02 -0.45738170010E+02  0.58820868577E+02  0.00000000000E+00 0.  1.
</event>
<event>
 6    1  0.3240171E-005  0.9946011E+02  0.7818608E-02  0.1319222E+00
          2   -1    0    0  502    0  0.00000000000E+00  0.00000000000E+00  0.49401995518E+02  0.49401995518E+02  0.00000000000E+00 0.  1.
          1   -1    0    0  501    0 -0.00000000000E+00 -0.00000000000E+00 -0.10593330090E+04  0.10593330090E+04  0.00000000000E+00 0.  1.
          2    1    1    2  501    0 -0.28737681905E+02 -0.20266662350E+02 -0.79526721931E+02  0.86954536772E+02  0.00000000000E+00 0.  1.
          1    1    1    2  502    0  0.34053053068E+02  0.59632659100E+02 -0.87143445426E+03  0.87413595769E+03  0.00000000000E+00 0.  1.
         22    1    1    2    0    0  0.32048602208E+02  0.37814011415E+02 -0.19878071276E+02  0.53405524812E+02  0.00000000000E+00 0. -1.
         22    1    1    2    0    0 -0.37363973370E+02 -0.77180008165E+02 -0.39091765982E+02  0.94238985213E+02  0.00000000000E+00 0.  1.
</event>
<event>
 6    1  0.3240171E-005  0.1023363E+03  0.7818608E-02  0.1378381E+00
          2   -1    0    0  502    0  0.00000000000E+00  0.00000000000E+00  0.80861878693E+02  0.80861878693E+02  0.00000000000E+00 0. -1.
          1   -1    0    0  501    0 -0.00000000000E+00 -0.00000000000E+00 -0.30258005956E+03  0.30258005956E+03  0.00000000000E+00 0. -1.
          2    1    1    2  501    0 -0.17721085308E+02  0.14780157179E+02 -0.45049957664E+02  0.50616090291E+02  0.00000000000E+00 0. -1.
          1    1    1    2  502    0  0.22630758362E+02 -0.10115032328E+03 -0.14152800964E+03  0.17542439009E+03  0.00000000000E+00 0. -1.
         22    1    1    2    0    0 -0.38121306406E+01  0.16099358791E+02  0.46689677421E+02  0.49534308022E+02  0.00000000000E+00 0.  1.
         22    1    1    2    0    0 -0.10975424127E+01  0.70270807312E+02 -0.81829890985E+02  0.10786714986E+03  0.00000000000E+00 0. -1.
</event>
<event>
 6    1  0.3240171E-005  0.4012423E+03  0.7818608E-02  0.1156284E+00
          2   -1    0    0  502    0  0.00000000000E+00  0.00000000000E+00  0.12803448239E+03  0.12803448239E+03  0.00000000000E+00 0. -1.
          1   -1    0    0  501    0 -0.00000000000E+00 -0.00000000000E+00 -0.92294456046E+03  0.92294456046E+03  0.00000000000E+00 0. -1.
          2    1    1    2  501    0  0.12863308721E+03 -0.22619927191E+03 -0.21204187022E+03  0.33566998148E+03  0.00000000000E+00 0. -1.
          1    1    1    2  502    0 -0.38588473154E+01  0.20458693582E+03 -0.43754703174E+03  0.48303013364E+03  0.00000000000E+00 0. -1.
         22    1    1    2    0    0 -0.12193388030E+03  0.42649569369E+02 -0.16061409973E+03  0.20611585568E+03  0.00000000000E+00 0. -1.
         22    1    1    2    0    0 -0.28403595947E+01 -0.21037233282E+02  0.15292923624E+02  0.26163072063E+02  0.00000000000E+00 0. -1.
</event>
<event>
 6    1  0.3240171E-005  0.4818485E+02  0.7818608E-02  0.1554712E+00
          2   -1    0    0  502    0  0.00000000000E+00  0.00000000000E+00  0.83627758475E+02  0.83627758475E+02  0.00000000000E+00 0. -1.
          1   -1    0    0  501    0 -0.00000000000E+00 -0.00000000000E+00 -0.31622065480E+03  0.31622065480E+03  0.00000000000E+00 0. -1.
          2    1    1    2  501    0  0.32182457129E+02  0.18755364050E+02 -0.16740332932E+03  0.17149737286E+03  0.00000000000E+00 0. -1.
          1    1    1    2  502    0 -0.37006699997E+02 -0.29510944766E+02 -0.90295748762E+02  0.10194956572E+03  0.00000000000E+00 0. -1.
         22    1    1    2    0    0  0.11305800776E+02  0.18106995238E+00 -0.49498131052E+02  0.50773210408E+02  0.00000000000E+00 0. -1.
         22    1    1    2    0    0 -0.64815579084E+01  0.10574510763E+02  0.74604312809E+02  0.75628264297E+02  0.00000000000E+00 0. -1.
</event>
<event>
 6    1  0.3240171E-005  0.4488708E+02  0.7818608E-02  0.1486902E+00
          2   -1    0    0  502    0  0.00000000000E+00  0.00000000000E+00  0.20460308077E+03  0.20460308077E+03  0.00000000000E+00 0.  1.
          1   -1    0    0  501    0 -0.00000000000E+00 -0.00000000000E+00 -0.76879600375E+03  0.76879600375E+03  0.00000000000E+00 0.  1.
          2    1    1    2  501    0  0.24056994546E+02 -0.23631857070E+02 -0.16617966234E+02  0.37594686551E+02  0.00000000000E+00 0.  1.
          1    1    1    2  502    0 -0.29428746706E+02  0.16431857286E+02 -0.72150894689E+03  0.72229579641E+03  0.00000000000E+00 0.  1.
         22    1    1    2    0    0 -0.29840121875E+02  0.21185603617E+02  0.17169832900E+03  0.17555505933E+03  0.00000000000E+00 0.  1.
         22    1    1    2    0    0  0.35211874034E+02 -0.13985603833E+02  0.22356611424E+01  0.37953542237E+02  0.00000000000E+00 0.  1.
</event>
<event>
 6    1  0.3240171E-005  0.1202524E+03  0.7818608E-02  0.1303148E+00
          2   -1    0    0  502    0  0.00000000000E+00  0.00000000000E+00  0.21324977272E+03  0.21324977272E+03  0.00000000000E+00 0. -1.
          1   -1    0    0  501    0 -0.00000000000E+00 -0.00000000000E+00 -0.18318745040E+03  0.18318745040E+03  0.00000000000E+00 0. -1.
          2    1    1    2  501    0  0.46643214510E+01 -0.54969608161E+02  0.27287733532E+02  0.61547007379E+02  0.00000000000E+00 0. -1.
          1    1    1    2  502    0 -0.20959198651E+02  0.18991034174E+02 -0.13862374761E+03  0.14147964797E+03  0.00000000000E+00 0. -1.
         22    1    1    2    0    0 -0.22958939948E+02  0.21080777889E+02  0.14770135147E+03  0.15095430218E+03  0.00000000000E+00 0. -1.
         22    1    1    2    0    0  0.39253817148E+02  0.14897796098E+02 -0.63030150711E+01  0.42456265595E+02  0.00000000000E+00 0. -1.
</event>
<event>
 6    1  0.3240171E-005  0.8297787E+02  0.7818608E-02  0.1321715E+00
          2   -1    0    0  502    0  0.00000000000E+00  0.00000000000E+00  0.11730493101E+03  0.11730493101E+03  0.00000000000E+00 0.  1.
          1   -1    0    0  501    0 -0.00000000000E+00 -0.00000000000E+00 -0.37169292697E+03  0.37169292697E+03  0.00000000000E+00 0.  1.
          2    1    1    2  501    0  0.26880850930E+02 -0.27673414888E+02 -0.15664338941E+03  0.16132436110E+03  0.00000000000E+00 0.  1.
          1    1    1    2  502    0 -0.32217389232E+01 -0.39028945488E+02 -0.16233429111E+03  0.16699119815E+03  0.00000000000E+00 0.  1.
         22    1    1    2    0    0 -0.33208548339E+02  0.77491541866E+02  0.95010058304E+02  0.12702227333E+03  0.00000000000E+00 0.  1.
         22    1    1    2    0    0  0.95494363323E+01 -0.10789181490E+02 -0.30420373750E+02  0.33660025410E+02  0.00000000000E+00 0.  1.
</event>
<event>
 6    1  0.3240171E-005  0.1938656E+03  0.7818608E-02  0.1254836E+00
          2   -1    0    0  502    0  0.00000000000E+00  0.00000000000E+00  0.13319859514E+03  0.13319859514E+03  0.00000000000E+00 0. -1.
          1   -1    0    0  501    0 -0.00000000000E+00 -0.00000000000E+00 -0.25393833851E+03  0.25393833851E+03  0.00000000000E+00 0. -1.
          2    1    1    2  501    0  0.14713856209E+02 -0.80182555233E+02 -0.78287576408E+01  0.81896453979E+02  0.00000000000E+00 0. -1.
          1    1    1    2  502    0 -0.28247497293E+01 -0.22900497324E+02 -0.14086696131E+03  0.14274422152E+03  0.00000000000E+00 0. -1.
         22    1    1    2    0    0 -0.33618027896E+02  0.10892506996E+03 -0.14036138252E+02  0.11485580457E+03  0.00000000000E+00 0. -1.
         22    1    1    2    0    0  0.21728921416E+02 -0.58420174056E+01  0.41992113839E+02  0.47640453587E+02  0.00000000000E+00 0. -1.
</event>
<event>
 6    1  0.3240171E-005  0.2125305E+03  0.7818608E-02  0.1162782E+00
          2   -1    0    0  502    0  0.00000000000E+00  0.00000000000E+00  0.22534965182E+03  0.22534965182E+03  0.00000000000E+00 0.  1.
          1   -1    0    0  501    0 -0.00000000000E+00 -0.00000000000E+00 -0.51713281940E+03  0.51713281940E+03  0.00000000000E+00 0.  1.
          2    1    1    2  501    0  0.21701451664E+03 -0.79811822003E+02 -0.22595059345E+03  0.32329382618E+03  0.00000000000E+00 0.  1.
          1    1    1    2  502    0 -0.85632179635E+02  0.13136150428E+03 -0.14578201937E+03  0.21410537632E+03  0.00000000000E+00 0.  1.
         22    1    1    2    0    0 -0.14635813687E+02 -0.13539698300E+02 -0.32802997191E+02  0.38387069399E+02  0.00000000000E+00 0.  1.
         22    1    1    2    0    0 -0.11674652332E+03 -0.38009983981E+02  0.11275244244E+03  0.16669619932E+03  0.00000000000E+00 0.  1.
</event>
<event>
 6    1  0.3240171E-005  0.1967198E+03  0.7818608E-02  0.1186721E+00
          2   -1    0    0  502    0  0.00000000000E+00  0.00000000000E+00  0.10819396242E+03  0.10819396242E+03  0.00000000000E+00 0.  1.
          1   -1    0    0  501    0 -0.00000000000E+00 -0.00000000000E+00 -0.92044504139E+03  0.92044504139E+03  0.00000000000E+00 0.  1.
          2    1    1    2  501    0 -0.26649682712E+02 -0.17101147494E+03 -0.10324734733E+03  0.20153199469E+03  0.00000000000E+00 0.  1.
          1    1    1    2  502    0  0.11462932320E+03  0.13103648447E+03 -0.62680150066E+03  0.65053098560E+03  0.00000000000E+00 0.  1.
         22    1    1    2    0    0 -0.45411917536E+02 -0.39257892461E+02 -0.91887739763E+01  0.60727736183E+02  0.00000000000E+00 0.  1.
         22    1    1    2    0    0 -0.42567722948E+02  0.79232882934E+02 -0.73013457006E+02  0.11584828734E+03  0.00000000000E+00 0. -1.
</event>
<event>
 6    1  0.3240171E-005  0.1154395E+03  0.7818608E-02  0.1274825E+00
          2   -1    0    0  502    0  0.00000000000E+00  0.00000000000E+00  0.29809764576E+03  0.29809764576E+03  0.00000000000E+00 0. -1.
          1   -1    0    0  501    0 -0.00000000000E+00 -0.00000000000E+00 -0.24374956669E+03  0.24374956669E+03  0.00000000000E+00 0.  1.
          2    1    1    2  501    0 -0.15268010342E+02  0.12039250345E+03  0.66268502465E+02  0.13827140502E+03  0.00000000000E+00 0. -1.
          1    1    1    2  502    0  0.65227455629E+01 -0.10414805126E+03 -0.17084633791E+03  0.20019449035E+03  0.00000000000E+00 0.  1.
         22    1    1    2    0    0 -0.16040781368E+02  0.51530485940E+02  0.57020495868E+02  0.78511366038E+02  0.00000000000E+00 0. -1.
         22    1    1    2    0    0  0.24786046146E+02 -0.67774938133E+02  0.10190541865E+03  0.12486995104E+03  0.00000000000E+00 0.  1.
</event>
<event>
 6    1  0.3240171E-005  0.1050309E+03  0.7818608E-02  0.1291990E+00
          2   -1    0    0  502    0  0.00000000000E+00  0.00000000000E+00  0.62488439936E+03  0.62488439936E+03  0.00000000000E+00 0.  1.
          1   -1    0    0  501    0 -0.00000000000E+00 -0.00000000000E+00 -0.18890368462E+04  0.18890368462E+04  0.00000000000E+00 0. -1.
          2    1    1    2  501    0  0.20863166178E+02 -0.74610624909E+02  0.24581838586E+03  0.25773764932E+03  0.00000000000E+00 0.  1.
          1    1    1    2  502    0 -0.85766546817E+01  0.84802343224E+02 -0.18707560166E+04  0.18726967374E+04  0.00000000000E+00 0. -1.
         22    1    1    2    0    0 -0.67987548546E+02  0.13097621917E+02  0.20715892515E+03  0.21842315520E+03  0.00000000000E+00 0.  1.
         22    1    1    2    0    0  0.55701037049E+02 -0.23289340232E+02  0.15362625875E+03  0.16506370369E+03  0.00000000000E+00 0.  1.
</event>
<event>
 6    1  0.3240171E-005  0.1460260E+03  0.7818608E-02  0.1309611E+00
          2   -1    0    0  502    0  0.00000000000E+00  0.00000000000E+00  0.31332782191E+03  0.31332782191E+03  0.00000000000E+00 0. -1.
          1   -1    0    0  501    0 -0.00000000000E+00 -0.00000000000E+00 -0.35180640484E+04  0.35180640484E+04  0.00000000000E+00 0.  1.
          2    1    1    2  501    0 -0.52124803253E+01  0.35236620857E+02  0.38447656567E+02  0.52411942304E+02  0.00000000000E+00 0. -1.
          1    1    1    2  502    0 -0.91314130469E+02  0.32430544660E+01 -0.34866294658E+04  0.34878265180E+04  0.00000000000E+00 0.  1.
         22    1    1    2    0    0  0.11454973937E+03 -0.43175414726E+02  0.13968900333E+03  0.18573846365E+03  0.00000000000E+00 0. -1.
         22    1    1    2    0    0 -0.18023128571E+02  0.46957394030E+01  0.10375657945E+03  0.10541494633E+03  0.00000000000E+00 0. -1.
</event>
<event>
 6    1  0.3240171E-005  0.7552158E+02  0.7818608E-02  0.1360083E+00
          2   -1    0    0  502    0  0.00000000000E+00  0.00000000000E+00  0.42261702898E+03  0.42261702898E+03  0.00000000000E+00 0. -1.
          1   -1    0    0  501    0 -0.00000000000E+00 -0.00000000000E+00 -0.33864743239E+02  0.33864743239E+02  0.00000000000E+00 0. -1.
          2    1    1    2  501    0 -0.41028602954E+02  0.44324499869E+02  0.38764704716E+02  0.71768446275E+02  0.00000000000E+00 0. -1.
          1    1    1    2  502    0 -0.53784485862E+01 -0.20870812991E+02  0.98889211039E+02  0.10121064472E+03  0.00000000000E+00 0. -1.
         22    1    1    2    0    0  0.38558925746E+02 -0.38884457400E+02  0.25881785400E+03  0.26454767685E+03  0.00000000000E+00 0. -1.
         22    1    1    2    0    0  0.78481257946E+01  0.15430770522E+02 -0.77194840101E+01  0.18955004373E+02  0.00000000000E+00 0.  1.
</event>
<event>
 6    1  0.3240171E-005  0.1140823E+03  0.7818608E-02  0.1281724E+00
          2   -1    0    0  502    0  0.00000000000E+00  0.00000000000E+00  0.71573848139E+03  0.71573848139E+03  0.00000000000E+00 0. -1.
          1   -1    0    0  501    0 -0.00000000000E+00 -0.00000000000E+00 -0.13664325120E+03  0.13664325120E+03  0.00000000000E+00 0.  1.
          2    1    1    2  501    0 -0.84593587740E+00 -0.49913652650E+02  0.18768484657E+03  0.19421042701E+03  0.00000000000E+00 0. -1.
          1    1    1    2  502    0 -0.29538066502E+02  0.12648935249E+02 -0.12285532720E+03  0.12698789060E+03  0.00000000000E+00 0.  1.
         22    1    1    2    0    0 -0.44254332119E+02  0.28917525332E+02  0.14447505783E+03  0.15384313932E+03  0.00000000000E+00 0. -1.
         22    1    1    2    0    0  0.74638334499E+02  0.83471920686E+01  0.36979065300E+03  0.37734027567E+03  0.00000000000E+00 0. -1.
</event>
<event>
 6    1  0.3240171E-005  0.8932723E+02  0.7818608E-02  0.1309843E+00
          2   -1    0    0  502    0  0.00000000000E+00  0.00000000000E+00  0.37817180314E+03  0.37817180314E+03  0.00000000000E+00 0.  1.
          1   -1    0    0  501    0 -0.00000000000E+00 -0.00000000000E+00 -0.50340010541E+02  0.50340010541E+02  0.00000000000E+00 0.  1.
          2    1    1    2  501    0  0.57552586433E+00 -0.40938610349E+02  0.84065774184E+02  0.93505911238E+02  0.00000000000E+00 0.  1.
          1    1    1    2  502    0  0.26648255335E+02  0.71234636604E+01 -0.23945854215E+02  0.36527759048E+02  0.00000000000E+00 0.  1.
         22    1    1    2    0    0  0.35643219343E+02 -0.26844170789E+02  0.91238041130E+02  0.10156489915E+03  0.00000000000E+00 0.  1.
         22    1    1    2    0    0 -0.62867000543E+02  0.60659317477E+02  0.17647383150E+03  0.19691324424E+03  0.00000000000E+00 0.  1.
</event>
<event>
 6    1  0.3240171E-005  0.7014045E+03  0.7818608E-02  0.1080772E+00
          2   -1    0    0  502    0  0.00000000000E+00  0.00000000000E+00  0.46543836836E+03  0.46543836836E+03  0.00000000000E+00 0. -1.
          1   -1    0    0  501    0 -0.00000000000E+00 -0.00000000000E+00 -0.17268567368E+04  0.17268567368E+04  0.00000000000E+00 0. -1.
          2    1    1    2  501    0 -0.17177819059E+03 -0.96858496067E+02  0.41969903114E+03  0.46372038101E+03  0.00000000000E+00 0. -1.
          1    1    1    2  502    0  0.10181169014E+03  0.12157436678E+03 -0.14360152689E+04  0.14447441987E+04  0.00000000000E+00 0. -1.
         22    1    1    2    0    0  0.54614564416E+02 -0.31668881196E+01 -0.25085766175E+03  0.25675347375E+03  0.00000000000E+00 0.  1.
         22    1    1    2    0    0  0.15351936030E+02 -0.21548982588E+02  0.57555311561E+01  0.27077051711E+02  0.00000000000E+00 0.  1.
</event>
<event>
 6    1  0.3240171E-005  0.8110207E+02  0.7818608E-02  0.1409617E+00
          2   -1    0    0  502    0  0.00000000000E+00  0.00000000000E+00  0.22015796990E+02  0.22015796990E+02  0.00000000000E+00 0.  1.
          1   -1    0    0  501    0 -0.00000000000E+00 -0.00000000000E+00 -0.14658488428E+04  0.14658488428E+04  0.00000000000E+00 0. -1.
          2    1    1    2  501    0  0.27770008813E+02  0.21161850459E+01 -0.10577875630E+03  0.10938371412E+03  0.00000000000E+00 0.  1.
          1    1    1    2  502    0  0.76952338518E+00  0.23799651017E+02 -0.11551018222E+04  0.11553472358E+04  0.00000000000E+00 0. -1.
         22    1    1    2    0    0 -0.46268241077E+02 -0.35553106416E+02 -0.19225430747E+03  0.20091414149E+03  0.00000000000E+00 0.  1.
         22    1    1    2    0    0  0.17728708878E+02  0.96372703533E+01  0.93018402125E+01  0.22219548368E+02  0.00000000000E+00 0. -1.
</event>
<event>
 6    1  0.3240171E-005  0.1237755E+03  0.7818608E-02  0.1331602E+00
          2   -1    0    0  502    0  0.00000000000E+00  0.00000000000E+00  0.81262187007E+02  0.81262187007E+02  0.00000000000E+00 0. -1.
          1   -1    0    0  501    0 -0.00000000000E+00 -0.00000000000E+00 -0.82467284344E+03  0.82467284344E+03  0.00000000000E+00 0. -1.
          2    1    1    2  501    0 -0.85710751018E+01 -0.83230586999E+02 -0.35841159269E+03  0.36804845295E+03  0.00000000000E+00 0. -1.
          1    1    1    2  502    0 -0.19170042609E+01  0.94549773024E+02 -0.39820968809E+03  0.40928509644E+03  0.00000000000E+00 0. -1.
         22    1    1    2    0    0  0.29925360952E+02 -0.43383932658E+01 -0.52025198885E+02  0.60174497947E+02  0.00000000000E+00 0. -1.
         22    1    1    2    0    0 -0.19437281589E+02 -0.69807927592E+01  0.65235823237E+02  0.68426983102E+02  0.00000000000E+00 0. -1.
</event>
<event>
 6    1  0.3240171E-005  0.2257927E+03  0.7818608E-02  0.1143824E+00
          2   -1    0    0  502    0  0.00000000000E+00  0.00000000000E+00  0.20922290094E+03  0.20922290094E+03  0.00000000000E+00 0.  1.
          1   -1    0    0  501    0 -0.00000000000E+00 -0.00000000000E+00 -0.50873027845E+03  0.50873027845E+03  0.00000000000E+00 0.  1.
          2    1    1    2  501    0  0.53704432334E+00  0.21046976365E+03 -0.21509444269E+02  0.21156669402E+03  0.00000000000E+00 0.  1.
          1    1    1    2  502    0 -0.73858804077E+02 -0.85397697363E+02 -0.29460831585E+03  0.31550269321E+03  0.00000000000E+00 0.  1.
         22    1    1    2    0    0  0.10097210407E+03 -0.10945066079E+03 -0.10285637620E+02  0.14926689951E+03  0.00000000000E+00 0.  1.
         22    1    1    2    0    0 -0.27650344320E+02 -0.15621405490E+02  0.26896020222E+02  0.41616892655E+02  0.00000000000E+00 0. -1.
</event>
<event>
 6    1  0.3240171E-005  0.1130120E+03  0.7818608E-02  0.1311261E+00
          2   -1    0    0  502    0  0.00000000000E+00  0.00000000000E+00  0.49722172294E+03  0.49722172294E+03  0.00000000000E+00 0. -1.
          1   -1    0    0  501    0 -0.00000000000E+00 -0.00000000000E+00 -0.15771159193E+03  0.15771159193E+03  0.00000000000E+00 0.  1.
          2    1    1    2  501    0 -0.88516208521E+02  0.70992102399E+02  0.32312708561E+03  0.34247059907E+03  0.00000000000E+00 0. -1.
          1    1    1    2  502    0  0.74131918752E+02 -0.77354946680E+02 -0.98109803858E+02  0.14527512783E+03  0.00000000000E+00 0.  1.
         22    1    1    2    0    0 -0.15627219927E+02  0.31261341510E+02  0.12249198149E+03  0.12738040275E+03  0.00000000000E+00 0. -1.
         22    1    1    2    0    0  0.30011509696E+02 -0.24898497230E+02 -0.79991322286E+01  0.39807185218E+02  0.00000000000E+00 0.  1.
</event>
<event>
 6    1  0.3240171E-005  0.1368952E+03  0.7818608E-02  0.1311111E+00
          2   -1    0    0  502    0  0.00000000000E+00  0.00000000000E+00  0.37758094232E+02  0.37758094232E+02  0.00000000000E+00 0.  1.
          1   -1    0    0  501    0 -0.00000000000E+00 -0.00000000000E+00 -0.23675703411E+04  0.23675703411E+04  0.00000000000E+00 0.  1.
          2    1    1    2  501    0 -0.55807850755E+01  0.44108483461E+02 -0.50543587479E+02  0.67315360138E+02  0.00000000000E+00 0.  1.
          1    1    1    2  502    0  0.39949095322E+02 -0.12467043145E+03 -0.20985485203E+04  0.21026280077E+04  0.00000000000E+00 0.  1.
         22    1    1    2    0    0 -0.21442637312E+02  0.62761191438E+02 -0.19709906318E+03  0.20795863663E+03  0.00000000000E+00 0. -1.
         22    1    1    2    0    0 -0.12925672935E+02  0.17800756548E+02  0.16378924100E+02  0.27426430850E+02  0.00000000000E+00 0.  1.
</event>
<event>
 6    1  0.3240171E-005  0.6891768E+02  0.7818608E-02  0.1375868E+00
          2   -1    0    0  502    0  0.00000000000E+00  0.00000000000E+00  0.22772477643E+03  0.22772477643E+03  0.00000000000E+00 0. -1.
          1   -1    0    0  501    0 -0.00000000000E+00 -0.00000000000E+00 -0.18178161246E+03  0.18178161246E+03  0.00000000000E+00 0. -1.
          2    1    1    2  501    0  0.10959648599E+01 -0.33081500805E+02 -0.98500454804E+02  0.10391307151E+03  0.00000000000E+00 0. -1.
          1    1    1    2  502    0  0.25746706188E+02  0.10722780976E+03  0.23058528641E+02  0.11266051575E+03  0.00000000000E+00 0. -1.
         22    1    1    2    0    0  0.17041599664E+02 -0.11910499055E+02 -0.22192368231E+02  0.30410151505E+02  0.00000000000E+00 0.  1.
         22    1    1    2    0    0 -0.43884270711E+02 -0.62235809902E+02  0.14357745837E+03  0.16252265012E+03  0.00000000000E+00 0. -1.
</event>
<event>
 6    1  0.3240171E-005  0.2254596E+03  0.7818608E-02  0.1185406E+00
          2   -1    0    0  502    0  0.00000000000E+00  0.00000000000E+00  0.32404871621E+03  0.32404871621E+03  0.00000000000E+00 0.  1.
          1   -1    0    0  501    0 -0.00000000000E+00 -0.00000000000E+00 -0.28382345889E+03  0.28382345889E+03  0.00000000000E+00 0.  1.
          2    1    1    2  501    0  0.67746145074E+02  0.61555680311E+02 -0.78364188090E+02  0.12049725277E+03  0.00000000000E+00 0.  1.
          1    1    1    2  502    0 -0.19325570903E+03 -0.50439246834E+02 -0.86256939089E+02  0.21755952343E+03  0.00000000000E+00 0.  1.
         22    1    1    2    0    0  0.70377049546E+02 -0.38411439052E+02  0.31964374632E+02  0.86313898061E+02  0.00000000000E+00 0.  1.
         22    1    1    2    0    0  0.55132514408E+02  0.27295005576E+02  0.17288200986E+03  0.18350150083E+03  0.00000000000E+00 0.  1.
</event>
<event>
 6    1  0.3240171E-005  0.1568342E+03  0.7818608E-02  0.1261954E+00
          2   -1    0    0  502    0  0.00000000000E+00  0.00000000000E+00  0.52236219304E+03  0.52236219304E+03  0.00000000000E+00 0. -1.
          1   -1    0    0  501    0 -0.00000000000E+00 -0.00000000000E+00 -0.62542816557E+02  0.62542816557E+02  0.00000000000E+00 0. -1.
          2    1    1    2  501    0  0.41907625554E+02 -0.24660125708E+02  0.47211064048E+02  0.67773560095E+02  0.00000000000E+00 0. -1.
          1    1    1    2  502    0  0.28701330628E+02  0.18321029467E+02 -0.34539195840E+02  0.48501366473E+02  0.00000000000E+00 0. -1.
         22    1    1    2    0    0 -0.19970452946E+02 -0.42229754391E+02  0.64711400212E+02  0.79810628767E+02  0.00000000000E+00 0. -1.
         22    1    1    2    0    0 -0.50638503236E+02  0.48568850632E+02  0.38243610806E+03  0.38881945426E+03  0.00000000000E+00 0. -1.
</event>
<event>
 6    1  0.3240171E-005  0.5744914E+02  0.7818608E-02  0.1415806E+00
          2   -1    0    0  502    0  0.00000000000E+00  0.00000000000E+00  0.26174479293E+03  0.26174479293E+03  0.00000000000E+00 0. -1.
          1   -1    0    0  501    0 -0.00000000000E+00 -0.00000000000E+00 -0.61012725909E+03  0.61012725909E+03  0.00000000000E+00 0. -1.
          2    1    1    2  501    0 -0.29263468203E+02  0.18495625946E+02  0.22574729054E+01  0.34692001014E+02  0.00000000000E+00 0. -1.
          1    1    1    2  502    0  0.24571990392E+02 -0.29815254488E+02 -0.57759429419E+03  0.57888504972E+03  0.00000000000E+00 0. -1.
         22    1    1    2    0    0 -0.44551771906E+02  0.90054671647E+01  0.28136901510E+02  0.53456936363E+02  0.00000000000E+00 0. -1.
         22    1    1    2    0    0  0.49243249717E+02  0.23141613775E+01  0.19881745361E+03  0.20483806493E+03  0.00000000000E+00 0. -1.
</event>
<event>
 6    1  0.3240171E-005  0.1504514E+03  0.7818608E-02  0.1296515E+00
          2   -1    0    0  502    0  0.00000000000E+00  0.00000000000E+00  0.96156319644E+02  0.96156319644E+02  0.00000000000E+00 0.  1.
          1   -1    0    0  501    0 -0.00000000000E+00 -0.00000000000E+00 -0.15964307503E+04  0.15964307503E+04  0.00000000000E+00 0.  1.
          2    1    1    2  501    0 -0.20346501141E+02 -0.61725759005E+01 -0.29382342747E+02  0.36268483112E+02  0.00000000000E+00 0.  1.
          1    1    1    2  502    0  0.73985303157E+02  0.11085092143E+03 -0.14816972985E+04  0.14876789426E+04  0.00000000000E+00 0.  1.
         22    1    1    2    0    0 -0.37789908011E+02 -0.11943361177E+03 -0.24096529612E+02  0.12756609074E+03  0.00000000000E+00 0.  1.
         22    1    1    2    0    0 -0.15848894005E+02  0.14755266241E+02  0.34901740233E+02  0.41073553466E+02  0.00000000000E+00 0. -1.
</event>
<event>
 6    1  0.3240171E-005  0.1701546E+03  0.7818608E-02  0.1237198E+00
          2   -1    0    0  502    0  0.00000000000E+00  0.00000000000E+00  0.14158018999E+03  0.14158018999E+03  0.00000000000E+00 0. -1.
          1   -1    0    0  501    0 -0.00000000000E+00 -0.00000000000E+00 -0.12992503528E+04  0.12992503528E+04  0.00000000000E+00 0.  1.
          2    1    1    2  501    0 -0.59282957334E+02  0.10111386448E+01 -0.94968892501E+03  0.95153798964E+03  0.00000000000E+00 0. -1.
          1    1    1    2  502    0  0.72153718225E+02 -0.51300969102E+02 -0.30653503629E+03  0.31906375062E+03  0.00000000000E+00 0.  1.
         22    1    1    2    0    0 -0.33829556163E+02  0.33269154971E+02  0.12422205193E+03  0.13297516207E+03  0.00000000000E+00 0. -1.
         22    1    1    2    0    0  0.20958795272E+02  0.17020675486E+02 -0.25668253432E+02  0.37253640460E+02  0.00000000000E+00 0.  1.
</event>
<event>
 6    1  0.3240171E-005  0.1875312E+03  0.7818608E-02  0.1226983E+00
          2   -1    0    0  502    0  0.00000000000E+00  0.00000000000E+00  0.68246970014E+02  0.68246970014E+02  0.00000000000E+00 0. -1.
          1   -1    0    0  501    0 -0.00000000000E+00 -0.00000000000E+00 -0.82484753284E+03  0.82484753284E+03  0.00000000000E+00 0. -1.
          2    1    1    2  501    0 -0.16111817286E+02  0.37077819326E+02 -0.14029880148E+03  0.14600722256E+03  0.00000000000E+00 0. -1.
          1    1    1    2  502    0 -0.32931105984E+01 -0.20146681964E+02 -0.62262682753E+03  0.62296139505E+03  0.00000000000E+00 0. -1.
         22    1    1    2    0    0  0.42675783157E+02  0.17785829975E+02 -0.40426991572E+02  0.61415794902E+02  0.00000000000E+00 0. -1.
         22    1    1    2    0    0 -0.23270855273E+02 -0.34716967336E+02  0.46752057753E+02  0.62710090339E+02  0.00000000000E+00 0. -1.
</event>
<event>
 6    1  0.3240171E-005  0.1944573E+03  0.7818608E-02  0.1255884E+00
          2   -1    0    0  502    0  0.00000000000E+00  0.00000000000E+00  0.24128405115E+03  0.24128405115E+03  0.00000000000E+00 0. -1.
          1   -1    0    0  501    0 -0.00000000000E+00 -0.00000000000E+00 -0.25368952387E+04  0.25368952387E+04  0.00000000000E+00 0. -1.
          2    1    1    2  501    0  0.36552848746E+02 -0.39313799709E+02  0.20883802849E+02  0.57600510592E+02  0.00000000000E+00 0. -1.
          1    1    1    2  502    0 -0.15448678358E+03  0.11143415839E+03 -0.24716370580E+04  0.24789662128E+04  0.00000000000E+00 0. -1.
         22    1    1    2    0    0  0.13500090779E+03 -0.85744513081E+02  0.11884448707E+03  0.19925204825E+03  0.00000000000E+00 0. -1.
         22    1    1    2    0    0 -0.17066972951E+02  0.13624154399E+02  0.36297580513E+02  0.42360518173E+02  0.00000000000E+00 0. -1.
</event>
<event>
 6    1  0.3240171E-005  0.1918245E+03  0.7818608E-02  0.1167221E+00
          2   -1    0    0  502    0  0.00000000000E+00  0.00000000000E+00  0.16032464663E+04  0.16032464663E+04  0.00000000000E+00 0. -1.
          1   -1    0    0  501    0 -0.00000000000E+00 -0.00000000000E+00 -0.67917987590E+02  0.67917987590E+02  0.00000000000E+00 0. -1.
          2    1    1    2  501    0  0.54269506207E+01  0.17495742087E+03  0.10621432258E+04  0.10764700567E+04  0.00000000000E+00 0. -1.
          1    1    1    2  502    0  0.41677429251E+02 -0.84446737348E+02  0.56708500027E+00  0.94173144490E+02  0.00000000000E+00 0. -1.
         22    1    1    2    0    0 -0.48648811933E+02  0.12241722546E+02  0.25463315297E+03  0.25952766570E+03  0.00000000000E+00 0. -1.
         22    1    1    2    0    0  0.15444320612E+01 -0.10275240607E+03  0.21798501490E+03  0.24099358694E+03  0.00000000000E+00 0. -1.
</event>
<event>
 6    1  0.3240171E-005  0.8491021E+02  0.7818608E-02  0.1317857E+00
          2   -1    0    0  502    0  0.00000000000E+00  0.00000000000E+00  0.50529784039E+03  0.50529784039E+03  0.00000000000E+00 0. -1.
          1   -1    0    0  501    0 -0.00000000000E+00 -0.00000000000E+00 -0.21304008350E+02  0.21304008350E+02  0.00000000000E+00 0. -1.
          2    1    1    2  501    0  0.39596440130E+02  0.27945050163E+02  0.74510215585E+02  0.88885185077E+02  0.00000000000E+00 0. -1.
          1    1    1    2  502    0 -0.34030299322E+01 -0.28772053793E+02  0.74150870705E+02  0.79610070459E+02  0.00000000000E+00 0. -1.
         22    1    1    2    0    0 -0.79164457399E+02 -0.53176994745E+01  0.25124715273E+03  0.26347755312E+03  0.00000000000E+00 0. -1.
         22    1    1    2    0    0  0.42971047202E+02  0.61447031043E+01  0.84085593021E+02  0.94629040086E+02  0.00000000000E+00 0. -1.
</event>
<event>
 6    1  0.3240171E-005  0.2110586E+03  0.7818608E-02  0.1184310E+00
          2   -1    0    0  502    0  0.00000000000E+00  0.00000000000E+00  0.23943808977E+03  0.23943808977E+03  0.00000000000E+00 0. -1.
          1   -1    0    0  501    0 -0.00000000000E+00 -0.00000000000E+00 -0.11709953412E+04  0.11709953412E+04  0.00000000000E+00 0. -1.
          2    1    1    2  501    0  0.60909275634E+02  0.17108677683E+03  0.10837235847E+02  0.18192875184E+03  0.00000000000E+00 0. -1.
          1    1    1    2  502    0 -0.37087197595E+02 -0.12454542148E+03 -0.10491998667E+04  0.10572168096E+04  0.00000000000E+00 0. -1.
         22    1    1    2    0    0 -0.63398211589E+02 -0.43426586778E+02  0.25770435425E+02  0.81051323331E+02  0.00000000000E+00 0. -1.
         22    1    1    2    0    0  0.39576133549E+02 -0.31147685758E+01  0.81034943974E+02  0.90236546227E+02  0.00000000000E+00 0.  1.
</event>
<event>
 6    1  0.3240171E-005  0.3728498E+03  0.7818608E-02  0.1132055E+00
          2   -1    0    0  502    0  0.00000000000E+00  0.00000000000E+00  0.19367721974E+03  0.19367721974E+03  0.00000000000E+00 0.  1.
          1   -1    0    0  501    0 -0.00000000000E+00 -0.00000000000E+00 -0.87273062783E+03  0.87273062783E+03  0.00000000000E+00 0.  1.
          2    1    1    2  501    0 -0.26583142226E+03 -0.18478624849E+03 -0.20406391509E+03  0.38269359041E+03  0.00000000000E+00 0.  1.
          1    1    1    2  502    0  0.28074402646E+03  0.20866650064E+03 -0.42219663258E+03  0.54827813511E+03  0.00000000000E+00 0.  1.
         22    1    1    2    0    0  0.18712765146E+02  0.43395591611E+02 -0.80980471626E+01  0.47947088739E+02  0.00000000000E+00 0. -1.
         22    1    1    2    0    0 -0.33625369344E+02 -0.67275843760E+02 -0.44694813253E+02  0.87489033306E+02  0.00000000000E+00 0. -1.
</event>
<event>
 6    1  0.3240171E-005  0.8884546E+02  0.7818608E-02  0.1329851E+00
          2   -1    0    0  502    0  0.00000000000E+00  0.00000000000E+00  0.15527209823E+03  0.15527209823E+03  0.00000000000E+00 0.  1.
          1   -1    0    0  501    0 -0.00000000000E+00 -0.00000000000E+00 -0.22302247616E+03  0.22302247616E+03  0.00000000000E+00 0.  1.
          2    1    1    2  501    0  0.31033028428E+02  0.31304054160E+02 -0.77171524084E+02  0.88873149993E+02  0.00000000000E+00 0.  1.
          1    1    1    2  502    0 -0.27525226149E+02  0.18277412483E+02 -0.10617856635E+03  0.11120067371E+03  0.00000000000E+00 0.  1.
         22    1    1    2    0    0 -0.27457579211E+02  0.44590950164E+01 -0.17307340632E+02  0.32761963071E+02  0.00000000000E+00 0. -1.
         22    1    1    2    0    0  0.23949776932E+02 -0.54040561660E+02  0.13290705314E+03  0.14545878761E+03  0.00000000000E+00 0.  1.
</event>
<event>
 6    1  0.3240171E-005  0.7634226E+02  0.7818608E-02  0.1394521E+00
          2   -1    0    0  502    0  0.00000000000E+00  0.00000000000E+00  0.31060388130E+03  0.31060388130E+03  0.00000000000E+00 0. -1.
          1   -1    0    0  501    0 -0.00000000000E+00 -0.00000000000E+00 -0.53948631849E+02  0.53948631849E+02  0.00000000000E+00 0. -1.
          2    1    1    2  501    0 -0.99061693400E+01  0.18090349112E+02  0.31112169500E+02  0.37327737850E+02  0.00000000000E+00 0. -1.
          1    1    1    2  502    0 -0.20446477573E+02 -0.47555305120E+02 -0.14800974708E+02  0.53838966766E+02  0.00000000000E+00 0. -1.
         22    1    1    2    0    0 -0.28478285780E+02 -0.11479509468E+02  0.17072488883E+03  0.17346405842E+03  0.00000000000E+00 0.  1.
         22    1    1    2    0    0  0.58830932692E+02  0.40944465475E+02  0.69619165830E+02  0.99921750111E+02  0.00000000000E+00 0. -1.
</event>
<event>
 6    1  0.3240171E-005  0.1702433E+03  0.7818608E-02  0.1226279E+00
          2   -1    0    0  502    0  0.00000000000E+00  0.00000000000E+00  0.30944202728E+03  0.30944202728E+03  0.00000000000E+00 0.  1.
          1   -1    0    0  501    0 -0.00000000000E+00 -0.00000000000E+00 -0.61222189191E+03  0.61222189191E+03  0.00000000000E+00 0.  1.
          2    1    1    2  501    0  0.15880773987E+03  0.26320580281E+02  0.13551907754E+03  0.21042360030E+03  0.00000000000E+00 0.  1.
          1    1    1    2  502    0 -0.15654985931E+03 -0.34899327440E+02 -0.53320682371E+03  0.55680817015E+03  0.00000000000E+00 0.  1.
         22    1    1    2    0    0 -0.57018561322E+02  0.16349219343E+02  0.75062727630E+02  0.95670404973E+02  0.00000000000E+00 0.  1.
         22    1    1    2    0    0  0.54760680763E+02 -0.77704721839E+01  0.19845153906E+02  0.58761743755E+02  0.00000000000E+00 0.  1.
</event>
<event>
 6    1  0.3240171E-005  0.5682283E+02  0.7818608E-02  0.1459906E+00
          2   -1    0    0  502    0  0.00000000000E+00  0.00000000000E+00  0.46330353472E+02  0.46330353472E+02  0.00000000000E+00 0. -1.
          1   -1    0    0  501    0 -0.00000000000E+00 -0.00000000000E+00 -0.82779943799E+03  0.82779943799E+03  0.00000000000E+00 0. -1.
          2    1    1    2  501    0 -0.11952426124E+02 -0.18202434300E+02 -0.13279876215E+03  0.13457228665E+03  0.00000000000E+00 0. -1.
          1    1    1    2  502    0  0.15853966884E+02  0.33393440569E+02 -0.61163158239E+03  0.61274763379E+03  0.00000000000E+00 0. -1.
         22    1    1    2    0    0 -0.12207487519E+02 -0.41414676387E+02 -0.71005136970E+02  0.83101911217E+02  0.00000000000E+00 0. -1.
         22    1    1    2    0    0  0.83059467590E+01  0.26223670118E+02  0.33966396991E+02  0.43707959808E+02  0.00000000000E+00 0.  1.
</event>
<event>
 6    1  0.3240171E-005  0.1500273E+03  0.7818608E-02  0.1255187E+00
          2   -1    0    0  502    0  0.00000000000E+00  0.00000000000E+00  0.12564901203E+03  0.12564901203E+03  0.00000000000E+00 0.  1.
          1   -1    0    0  501    0 -0.00000000000E+00 -0.00000000000E+00 -0.40442580300E+03  0.40442580300E+03  0.00000000000E+00 0.  1.
          2    1    1    2  501    0  0.40866639281E+02  0.25584329863E+02 -0.43615138061E+02  0.65014770697E+02  0.00000000000E+00 0.  1.
          1    1    1    2  502    0 -0.47991758913E+02 -0.87087286852E+02 -0.29658749458E+03  0.31281231816E+03  0.00000000000E+00 0.  1.
         22    1    1    2    0    0 -0.37922702434E+02  0.78683678211E+02  0.22275964910E+02  0.90141395537E+02  0.00000000000E+00 0.  1.
         22    1    1    2    0    0  0.45047822066E+02 -0.17180721222E+02  0.39149876763E+02  0.62106330637E+02  0.00000000000E+00 0. -1.
</event>
<event>
 6    1  0.3240171E-005  0.1503188E+03  0.7818608E-02  0.1252638E+00
          2   -1    0    0  502    0  0.00000000000E+00  0.00000000000E+00  0.23304635485E+03  0.23304635485E+03  0.00000000000E+00 0.  1.
          1   -1    0    0  501    0 -0.00000000000E+00 -0.00000000000E+00 -0.39417898812E+03  0.39417898812E+03  0.00000000000E+00 0.  1.
          2    1    1    2  501    0 -0.69867743457E+00 -0.39525121503E+02 -0.11641446385E+02  0.41209788326E+02  0.00000000000E+00 0.  1.
          1    1    1    2  502    0 -0.50240510275E+02  0.11533110133E+01 -0.34248678204E+03  0.34615406234E+03  0.00000000000E+00 0.  1.
         22    1    1    2    0    0  0.69577468807E+02 -0.72923072384E+01  0.43357763269E+02  0.82304905966E+02  0.00000000000E+00 0.  1.
         22    1    1    2    0    0 -0.18638281097E+02  0.45664117728E+02  0.14963783188E+03  0.15755658634E+03  0.00000000000E+00 0.  1.
</event>
<event>
 6    1  0.3758209E-005  0.7506833E+02  0.7818608E-02  0.1400678E+00
          2   -1    0    0  502    0  0.00000000000E+00  0.00000000000E+00  0.16150978105E+03  0.16150978105E+03  0.00000000000E+00 0. -1.
          1   -1    0    0  501    0 -0.00000000000E+00 -0.00000000000E+00 -0.54140404011E+03  0.54140404011E+03  0.00000000000E+00 0. -1.
          2    1    1    2  501    0  0.17945410468E+02 -0.27919213867E+02 -0.15919028318E+02  0.36809451537E+02  0.00000000000E+00 0. -1.
          1    1    1    2  502    0 -0.14290259669E+02  0.76659737516E+02 -0.48280838021E+03  0.48906529101E+03  0.00000000000E+00 0. -1.
         22    1    1    2    0    0 -0.96402686885E+01 -0.27652430807E+02  0.14209185916E+03  0.14507821391E+03  0.00000000000E+00 0. -1.
         22    1    1    2    0    0  0.59851178891E+01 -0.21088092841E+02 -0.23258709694E+02  0.31960864701E+02  0.00000000000E+00 0.  1.
</event>
<event>
 6    1  0.3240171E-005  0.3376283E+03  0.7818608E-02  0.1156248E+00
          2   -1    0    0  502    0  0.00000000000E+00  0.00000000000E+00  0.97708289645E+03  0.97708289645E+03  0.00000000000E+00 0. -1.
          1   -1    0    0  501    0 -0.00000000000E+00 -0.00000000000E+00 -0.11728994488E+03  0.11728994488E+03  0.00000000000E+00 0. -1.
          2    1    1    2  501    0  0.12283881999E+03 -0.24805896014E+02  0.10177022825E+03  0.16143694599E+03  0.00000000000E+00 0. -1.
          1    1    1    2  502    0 -0.38962490038E+02  0.54304576721E+01 -0.75426413164E+02  0.85068850370E+02  0.00000000000E+00 0. -1.
         22    1    1    2    0    0  0.35137895633E+02  0.60771688615E+01  0.17062149920E+03  0.17430805971E+03  0.00000000000E+00 0.  1.
         22    1    1    2    0    0 -0.11901422559E+03  0.13298269480E+02  0.66282763729E+03  0.67355898526E+03  0.00000000000E+00 0. -1.
</event>
<event>
 6    1  0.3240171E-005  0.1041854E+03  0.7818608E-02  0.1340515E+00
          2   -1    0    0  502    0  0.00000000000E+00  0.00000000000E+00  0.70950338674E+02  0.70950338674E+02  0.00000000000E+00 0. -1.
          1   -1    0    0  501    0 -0.00000000000E+00 -0.00000000000E+00 -0.42973579737E+03  0.42973579737E+03  0.00000000000E+00 0. -1.
          2    1    1    2  501    0 -0.53011437284E+02  0.40725767172E+02 -0.24639419314E+03  0.25530158443E+03  0.00000000000E+00 0. -1.
          1    1    1    2  502    0  0.59216502293E+02 -0.38253545576E+02 -0.94383139718E+02  0.11780536896E+03  0.00000000000E+00 0. -1.
         22    1    1    2    0    0 -0.92130034024E+01  0.28179845058E+02  0.47042577336E+02  0.55605639836E+02  0.00000000000E+00 0. -1.
         22    1    1    2    0    0  0.30079383932E+01 -0.30652066654E+02 -0.65050703164E+02  0.71973542817E+02  0.00000000000E+00 0. -1.
</event>
<event>
 6    1  0.3240171E-005  0.1966471E+03  0.7818608E-02  0.1191621E+00
          2   -1    0    0  502    0  0.00000000000E+00  0.00000000000E+00  0.64410226587E+03  0.64410226587E+03  0.00000000000E+00 0. -1.
          1   -1    0    0  501    0 -0.00000000000E+00 -0.00000000000E+00 -0.16143361780E+03  0.16143361780E+03  0.00000000000E+00 0. -1.
          2    1    1    2  501    0 -0.27433976508E+02 -0.20333032159E+03 -0.15218082162E+02  0.20573631855E+03  0.00000000000E+00 0. -1.
          1    1    1    2  502    0  0.34205571432E+01  0.15044420412E+03  0.10906287866E+03  0.18584905237E+03  0.00000000000E+00 0. -1.
         22    1    1    2    0    0  0.27946593000E+02  0.75804790689E+02  0.38091480614E+03  0.38938858212E+03  0.00000000000E+00 0. -1.
         22    1    1    2    0    0 -0.39331736353E+01 -0.22918673215E+02  0.79090454307E+01  0.24561930633E+02  0.00000000000E+00 0. -1.
</event>
<event>
 6    1  0.3240171E-005  0.1152851E+03  0.7818608E-02  0.1288473E+00
          2   -1    0    0  502    0  0.00000000000E+00  0.00000000000E+00  0.21831278973E+03  0.21831278973E+03  0.00000000000E+00 0.  1.
          1   -1    0    0  501    0 -0.00000000000E+00 -0.00000000000E+00 -0.10322236603E+04  0.10322236603E+04  0.00000000000E+00 0. -1.
          2    1    1    2  501    0 -0.86306411959E+02 -0.69946160782E+01 -0.71009439306E+02  0.11198241768E+03  0.00000000000E+00 0.  1.
          1    1    1    2  502    0  0.72588241690E+02  0.79481142141E+02 -0.91099467230E+03  0.91733178171E+03  0.00000000000E+00 0. -1.
         22    1    1    2    0    0  0.22048975021E+02 -0.51389686668E+02  0.18478456171E+03  0.19306059008E+03  0.00000000000E+00 0.  1.
         22    1    1    2    0    0 -0.83308047528E+01 -0.21096839395E+02 -0.16691320684E+02  0.28161660577E+02  0.00000000000E+00 0.  1.
</event>
<event>
 6    1  0.3240171E-005  0.6441287E+02  0.7818608E-02  0.1388201E+00
          2   -1    0    0  502    0  0.00000000000E+00  0.00000000000E+00  0.86203312389E+02  0.86203312389E+02  0.00000000000E+00 0.  1.
          1   -1    0    0  501    0 -0.00000000000E+00 -0.00000000000E+00 -0.27363797033E+03  0.27363797033E+03  0.00000000000E+00 0. -1.
          2    1    1    2  501    0  0.37338256752E+02 -0.25106898596E+02 -0.20329334762E+02  0.49373916457E+02  0.00000000000E+00 0.  1.
          1    1    1    2  502    0 -0.12490631386E+02  0.24781356909E+02 -0.17920134124E+03  0.18133739886E+03  0.00000000000E+00 0. -1.
         22    1    1    2    0    0 -0.39576065128E+02  0.35862987864E+02  0.51406507030E+02  0.74128589590E+02  0.00000000000E+00 0.  1.
         22    1    1    2    0    0  0.14728439762E+02 -0.35537446177E+02 -0.39310488972E+02  0.55001377817E+02  0.00000000000E+00 0.  1.
</event>
<event>
 6    1  0.3240171E-005  0.9079741E+02  0.7818608E-02  0.1309440E+00
          2   -1    0    0  502    0  0.00000000000E+00  0.00000000000E+00  0.20523141953E+03  0.20523141953E+03  0.00000000000E+00 0. -1.
          1   -1    0    0  501    0 -0.00000000000E+00 -0.00000000000E+00 -0.77857016511E+03  0.77857016511E+03  0.00000000000E+00 0. -1.
          2    1    1    2  501    0 -0.28583402869E+02 -0.39267606416E+01  0.19159034486E+00  0.28852505534E+02  0.00000000000E+00 0. -1.
          1    1    1    2  502    0 -0.87704625576E+00  0.26600824977E+02 -0.74231138747E+03  0.74278837435E+03  0.00000000000E+00 0. -1.
         22    1    1    2    0    0 -0.44827634069E+02  0.11927432652E+02  0.66929809378E+02  0.81433284407E+02  0.00000000000E+00 0. -1.
         22    1    1    2    0    0  0.74288083194E+02 -0.34601496987E+02  0.10185124217E+03  0.13072742035E+03  0.00000000000E+00 0. -1.
</event>
<event>
 6    1  0.3240171E-005  0.1864064E+03  0.7818608E-02  0.1225046E+00
          2   -1    0    0  502    0  0.00000000000E+00  0.00000000000E+00  0.62352767814E+02  0.62352767814E+02  0.00000000000E+00 0.  1.
          1   -1    0    0  501    0 -0.00000000000E+00 -0.00000000000E+00 -0.70152529244E+03  0.70152529244E+03  0.00000000000E+00 0. -1.
          2    1    1    2  501    0  0.30965638475E+02 -0.32991640694E+02 -0.18183467448E+03  0.18737974267E+03  0.00000000000E+00 0.  1.
          1    1    1    2  502    0 -0.11758607226E+03  0.47493501843E+02 -0.39521433040E+03  0.41506202435E+03  0.00000000000E+00 0. -1.
         22    1    1    2    0    0 -0.89718011549E+01 -0.45482401335E+02 -0.71872863071E+01  0.46912675597E+02  0.00000000000E+00 0.  1.
         22    1    1    2    0    0  0.95592234936E+02  0.30980540187E+02 -0.54936233438E+02  0.11452361763E+03  0.00000000000E+00 0.  1.
</event>
<event>
 6    1  0.3240171E-005  0.2550136E+03  0.7818608E-02  0.1206954E+00
          2   -1    0    0  502    0  0.00000000000E+00  0.00000000000E+00  0.28204678110E+02  0.28204678110E+02  0.00000000000E+00 0. -1.
          1   -1    0    0  501    0 -0.00000000000E+00 -0.00000000000E+00 -0.20915937343E+04  0.20915937343E+04  0.00000000000E+00 0. -1.
          2    1    1    2  501    0  0.76760365238E+02  0.33541397333E+01 -0.89421346996E+03  0.89750829177E+03  0.00000000000E+00 0. -1.
          1    1    1    2  502    0 -0.33535963169E+02 -0.82388084178E+02 -0.93808080439E+03  0.94228873113E+03  0.00000000000E+00 0. -1.
         22    1    1    2    0    0 -0.68581227399E+02  0.86874745304E+02 -0.22778800103E+03  0.25325477199E+03  0.00000000000E+00 0. -1.
         22    1    1    2    0    0  0.25356825330E+02 -0.78408008585E+01 -0.33067807861E+01  0.26746617507E+02  0.00000000000E+00 0. -1.
</event>
<event>
 6    1  0.3240171E-005  0.7195967E+02  0.7818608E-02  0.1370204E+00
          2   -1    0    0  502    0  0.00000000000E+00  0.00000000000E+00  0.86327754433E+02  0.86327754433E+02  0.00000000000E+00 0.  1.
          1   -1    0    0  501    0 -0.00000000000E+00 -0.00000000000E+00 -0.95884723614E+03  0.95884723614E+03  0.00000000000E+00 0. -1.
          2    1    1    2  501    0  0.28852128637E+02  0.11181238982E+02  0.14500066906E+02  0.34171879848E+02  0.00000000000E+00 0.  1.
          1    1    1    2  502    0 -0.26793971917E+02 -0.19360172914E+02 -0.88844768459E+03  0.88906243959E+03  0.00000000000E+00 0. -1.
         22    1    1    2    0    0 -0.49601152352E+02  0.28915688545E+00  0.37133615431E+02  0.61961789203E+02  0.00000000000E+00 0.  1.
         22    1    1    2    0    0  0.47542995631E+02  0.78897770465E+01 -0.35705479452E+02  0.59978881936E+02  0.00000000000E+00 0.  1.
</event>
<event>
 6    1  0.3240171E-005  0.8802113E+02  0.7818608E-02  0.1367307E+00
          2   -1    0    0  502    0  0.00000000000E+00  0.00000000000E+00  0.88373795893E+02  0.88373795893E+02  0.00000000000E+00 0. -1.
          1   -1    0    0  501    0 -0.00000000000E+00 -0.00000000000E+00 -0.11252402576E+04  0.11252402576E+04  0.00000000000E+00 0.  1.
          2    1    1    2  501    0 -0.12095730766E+02  0.27404853921E+02 -0.85239194242E+01  0.31144661236E+02  0.00000000000E+00 0. -1.
          1    1    1    2  502    0  0.25364943115E+02  0.96124346621E+00 -0.10480565692E+04  0.10483639047E+04  0.00000000000E+00 0.  1.
         22    1    1    2    0    0 -0.10376706980E+02 -0.59485079900E+02 -0.35944960553E+02  0.70272263146E+02  0.00000000000E+00 0. -1.
         22    1    1    2    0    0 -0.28925053697E+01  0.31118982513E+02  0.55658987466E+02  0.63833224466E+02  0.00000000000E+00 0. -1.
</event>
<event>
 6    1  0.3240171E-005  0.2312162E+03  0.7818608E-02  0.1181455E+00
          2   -1    0    0  502    0  0.00000000000E+00  0.00000000000E+00  0.16880270246E+04  0.16880270246E+04  0.00000000000E+00 0. -1.
          1   -1    0    0  501    0 -0.00000000000E+00 -0.00000000000E+00 -0.23668183959E+02  0.23668183959E+02  0.00000000000E+00 0. -1.
          2    1    1    2  501    0 -0.85268643261E+02  0.48528169671E+02  0.25966520374E+03  0.27758195692E+03  0.00000000000E+00 0. -1.
          1    1    1    2  502    0 -0.62158672155E+02 -0.69492350362E+02  0.39952409386E+03  0.41025892904E+03  0.00000000000E+00 0. -1.
         22    1    1    2    0    0  0.11129361922E+03  0.71718276322E+02  0.68754785164E+03  0.70017985484E+03  0.00000000000E+00 0. -1.
         22    1    1    2    0    0  0.36133696200E+02 -0.50754095632E+02  0.31762169137E+03  0.32367446772E+03  0.00000000000E+00 0. -1.
</event>
<event>
 6    1  0.3240171E-005  0.1067521E+03  0.7818608E-02  0.1343218E+00
          2   -1    0    0  502    0  0.00000000000E+00  0.00000000000E+00  0.15528296928E+02  0.15528296928E+02  0.00000000000E+00 0.  1.
          1   -1    0    0  501    0 -0.00000000000E+00 -0.00000000000E+00 -0.30035639941E+04  0.30035639941E+04  0.00000000000E+00 0.  1.
          2    1    1    2  501    0 -0.24684061059E+02  0.15580870378E+02 -0.98692494389E+02  0.10291877788E+03  0.00000000000E+00 0.  1.
          1    1    1    2  502    0  0.48076092225E+01  0.46289130372E+02 -0.25409597933E+04  0.25413859344E+04  0.00000000000E+00 0.  1.
         22    1    1    2    0    0  0.45464844536E+02 -0.67959662544E+02 -0.33583362034E+03  0.34564401973E+03  0.00000000000E+00 0.  1.
         22    1    1    2    0    0 -0.25588392699E+02  0.60896617938E+01 -0.12549789154E+02  0.29143558971E+02  0.00000000000E+00 0.  1.
</event>
<event>
 6    1  0.3240171E-005  0.5805367E+02  0.7818608E-02  0.1426920E+00
          2   -1    0    0  502    0  0.00000000000E+00  0.00000000000E+00  0.19187649134E+03  0.19187649134E+03  0.00000000000E+00 0.  1.
          1   -1    0    0  501    0 -0.00000000000E+00 -0.00000000000E+00 -0.15588094790E+03  0.15588094790E+03  0.00000000000E+00 0.  1.
          2    1    1    2  501    0 -0.16870218714E+02 -0.18234884603E+02 -0.43879659516E+02  0.50423603750E+02  0.00000000000E+00 0.  1.
          1    1    1    2  502    0  0.59071254661E+01 -0.26323500398E+02 -0.83334809426E+02  0.87592872236E+02  0.00000000000E+00 0.  1.
         22    1    1    2    0    0  0.30971785651E+02  0.29281997733E+02  0.17629178367E+03  0.18137111095E+03  0.00000000000E+00 0.  1.
         22    1    1    2    0    0 -0.20008692404E+02  0.15276387268E+02 -0.13081771287E+02  0.28369852303E+02  0.00000000000E+00 0.  1.
</event>
<event>
 6    1  0.3240171E-005  0.1871790E+03  0.7818608E-02  0.1289297E+00
          2   -1    0    0  502    0  0.00000000000E+00  0.00000000000E+00  0.55466539031E+02  0.55466539031E+02  0.00000000000E+00 0. -1.
          1   -1    0    0  501    0 -0.00000000000E+00 -0.00000000000E+00 -0.19653317321E+04  0.19653317321E+04  0.00000000000E+00 0. -1.
          2    1    1    2  501    0  0.22404693050E+02 -0.10125438749E+03 -0.13723711562E+04  0.13762837685E+04  0.00000000000E+00 0. -1.
          1    1    1    2  502    0 -0.42116621581E+02  0.17700157297E+03 -0.17498482724E+03  0.25243426156E+03  0.00000000000E+00 0. -1.
         22    1    1    2    0    0  0.11442599582E+02 -0.65892104789E+02 -0.37079501985E+03  0.37677798410E+03  0.00000000000E+00 0. -1.
         22    1    1    2    0    0  0.82693289486E+01 -0.98550806963E+01  0.82858101825E+01  0.15302256931E+02  0.00000000000E+00 0.  1.
</event>
<event>
 6    1  0.3240171E-005  0.7162559E+02  0.7818608E-02  0.1384935E+00
          2   -1    0    0  502    0  0.00000000000E+00  0.00000000000E+00  0.27145649398E+03  0.27145649398E+03  0.00000000000E+00 0. -1.
          1   -1    0    0  501    0 -0.00000000000E+00 -0.00000000000E+00 -0.59080131624E+02  0.59080131624E+02  0.00000000000E+00 0. -1.
          2    1    1    2  501    0 -0.20940305900E+02  0.10915343380E+02  0.80105366894E+01  0.24936114981E+02  0.00000000000E+00 0. -1.
          1    1    1    2  502    0  0.10315696078E+02  0.42965817275E+02 -0.16246343556E+02  0.47078856386E+02  0.00000000000E+00 0. -1.
         22    1    1    2    0    0  0.43372037967E+02  0.39988954307E+00  0.17533151370E+03  0.18061681340E+03  0.00000000000E+00 0. -1.
         22    1    1    2    0    0 -0.32747428145E+02 -0.54281050198E+02  0.45280655527E+02  0.77904840836E+02  0.00000000000E+00 0. -1.
</event>
<event>
 6    1  0.3240171E-005  0.2184338E+03  0.7818608E-02  0.1254151E+00
          2   -1    0    0  502    0  0.00000000000E+00  0.00000000000E+00  0.19708539766E+03  0.19708539766E+03  0.00000000000E+00 0.  1.
          1   -1    0    0  501    0 -0.00000000000E+00 -0.00000000000E+00 -0.23833155621E+03  0.23833155621E+03  0.00000000000E+00 0.  1.
          2    1    1    2  501    0  0.22944824882E+02  0.69648664291E+02  0.84511019210E+01  0.73816140173E+02  0.00000000000E+00 0.  1.
          1    1    1    2  502    0  0.63543022360E+02  0.40427893842E+02 -0.13676999390E+03  0.15613507461E+03  0.00000000000E+00 0.  1.
         22    1    1    2    0    0 -0.94662046282E+01  0.12831786570E+02  0.54528345448E+02  0.56812007833E+02  0.00000000000E+00 0.  1.
         22    1    1    2    0    0 -0.77021642613E+02 -0.12290834470E+03  0.32544387978E+02  0.14865373126E+03  0.00000000000E+00 0.  1.
</event>
<event>
 6    1  0.3240171E-005  0.1231193E+03  0.7818608E-02  0.1288137E+00
          2   -1    0    0  502    0  0.00000000000E+00  0.00000000000E+00  0.22824424306E+02  0.22824424306E+02  0.00000000000E+00 0.  1.
          1   -1    0    0  501    0 -0.00000000000E+00 -0.00000000000E+00 -0.78141530286E+03  0.78141530286E+03  0.00000000000E+00 0. -1.
          2    1    1    2  501    0 -0.11090173679E+02  0.33910634148E+02 -0.22916022166E+03  0.23192095690E+03  0.00000000000E+00 0.  1.
          1    1    1    2  502    0 -0.11379591521E+02 -0.26259902889E+02 -0.37032389622E+03  0.37142814341E+03  0.00000000000E+00 0. -1.
         22    1    1    2    0    0 -0.22481716323E+02  0.42615188591E+02 -0.34677232632E+02  0.59363223720E+02  0.00000000000E+00 0.  1.
         22    1    1    2    0    0  0.44951481522E+02 -0.50265919849E+02 -0.12442952804E+03  0.14152740314E+03  0.00000000000E+00 0. -1.
</event>
<event>
 6    1  0.3240171E-005  0.1456348E+03  0.7818608E-02  0.1238613E+00
          2   -1    0    0  502    0  0.00000000000E+00  0.00000000000E+00  0.10425527667E+03  0.10425527667E+03  0.00000000000E+00 0. -1.
          1   -1    0    0  501    0 -0.00000000000E+00 -0.00000000000E+00 -0.28704653823E+04  0.28704653823E+04  0.00000000000E+00 0.  1.
          2    1    1    2  501    0 -0.44562744762E+02  0.70862122031E+02 -0.22205248035E+03  0.23730693751E+03  0.00000000000E+00 0. -1.
          1    1    1    2  502    0  0.61983911883E+02 -0.50105264452E+02 -0.25947313152E+04  0.25959551501E+04  0.00000000000E+00 0.  1.
         22    1    1    2    0    0 -0.27648238244E+02 -0.68126497318E+02  0.56378811341E+02  0.92651039298E+02  0.00000000000E+00 0. -1.
         22    1    1    2    0    0  0.10227071124E+02  0.47369639738E+02 -0.58051213464E+01  0.48807532068E+02  0.00000000000E+00 0. -1.
</event>
<event>
 6    1  0.3240171E-005  0.5238353E+02  0.7818608E-02  0.1502754E+00
          2   -1    0    0  502    0  0.00000000000E+00  0.00000000000E+00  0.12612571535E+03  0.12612571535E+03  0.00000000000E+00 0. -1.
          1   -1    0    0  501    0 -0.00000000000E+00 -0.00000000000E+00 -0.53046436829E+03  0.53046436829E+03  0.00000000000E+00 0.  1.
          2    1    1    2  501    0  0.20272075226E+02  0.32745352176E+02 -0.61266337544E+02  0.72365594305E+02  0.00000000000E+00 0. -1.
          1    1    1    2  502    0 -0.35627913307E+02 -0.75832563224E+01 -0.43082822444E+03  0.43236536974E+03  0.00000000000E+00 0.  1.
         22    1    1    2    0    0 -0.60309791944E+01 -0.18213297755E+02  0.11496798638E+03  0.11655786039E+03  0.00000000000E+00 0. -1.
         22    1    1    2    0    0  0.21386817276E+02 -0.69487980978E+01 -0.27212077339E+02  0.35301259203E+02  0.00000000000E+00 0. -1.
</event>
<event>
 6    1  0.3240171E-005  0.1358986E+03  0.7818608E-02  0.1340230E+00
          2   -1    0    0  502    0  0.00000000000E+00  0.00000000000E+00  0.91549543577E+02  0.91549543577E+02  0.00000000000E+00 0. -1.
          1   -1    0    0  501    0 -0.00000000000E+00 -0.00000000000E+00 -0.32553798140E+03  0.32553798140E+03  0.00000000000E+00 0. -1.
          2    1    1    2  501    0  0.24910693842E+02 -0.16762972583E+02 -0.22014488464E+02  0.37231406364E+02  0.00000000000E+00 0. -1.
          1    1    1    2  502    0  0.36857327495E+02 -0.65956801590E+02 -0.20330651225E+03  0.21689237005E+03  0.00000000000E+00 0. -1.
         22    1    1    2    0    0 -0.54802326110E+02  0.94195992281E+02 -0.49710967115E+02  0.11978046652E+03  0.00000000000E+00 0. -1.
         22    1    1    2    0    0 -0.69656952272E+01 -0.11476218108E+02  0.41043530004E+02  0.43183282034E+02  0.00000000000E+00 0. -1.
</event>
<event>
 6    1  0.3240171E-005  0.2271478E+03  0.7818608E-02  0.1217625E+00
          2   -1    0    0  502    0  0.00000000000E+00  0.00000000000E+00  0.26744666460E+03  0.26744666460E+03  0.00000000000E+00 0. -1.
          1   -1    0    0  501    0 -0.00000000000E+00 -0.00000000000E+00 -0.38929273635E+03  0.38929273635E+03  0.00000000000E+00 0. -1.
          2    1    1    2  501    0 -0.13962426537E+03  0.57715840547E+02 -0.20001406746E+03  0.25066248406E+03  0.00000000000E+00 0. -1.
          1    1    1    2  502    0  0.21889389453E+03 -0.95540359226E+02  0.23519494847E+02  0.23999096638E+03  0.00000000000E+00 0. -1.
         22    1    1    2    0    0 -0.49350078294E+02  0.38625567350E+02 -0.34855880881E+02  0.71709811830E+02  0.00000000000E+00 0. -1.
         22    1    1    2    0    0 -0.29919550870E+02 -0.80104867139E+00  0.89504381742E+02  0.94376138691E+02  0.00000000000E+00 0. -1.
</event>
<event>
 6    1  0.3240171E-005  0.1690616E+03  0.7818608E-02  0.1281526E+00
          2   -1    0    0  502    0  0.00000000000E+00  0.00000000000E+00  0.36882667414E+02  0.36882667414E+02  0.00000000000E+00 0.  1.
          1   -1    0    0  501    0 -0.00000000000E+00 -0.00000000000E+00 -0.48142460006E+03  0.48142460006E+03  0.00000000000E+00 0.  1.
          2    1    1    2  501    0  0.24956356646E+02  0.81434003748E+02 -0.10601466823E+03  0.13599053858E+03  0.00000000000E+00 0.  1.
          1    1    1    2  502    0  0.17851856205E+02 -0.27402809653E+02 -0.53708748910E+02  0.62882688049E+02  0.00000000000E+00 0.  1.
         22    1    1    2    0    0 -0.48741214796E+02 -0.34704622015E+02 -0.29193324680E+03  0.29800190838E+03  0.00000000000E+00 0.  1.
         22    1    1    2    0    0  0.59330019455E+01 -0.19326572080E+02  0.71147312976E+01  0.21432132463E+02  0.00000000000E+00 0.  1.
</event>
<event>
 6    1  0.3240171E-005  0.7261323E+02  0.7818608E-02  0.1365061E+00
          2   -1    0    0  502    0  0.00000000000E+00  0.00000000000E+00  0.45945603364E+03  0.45945603364E+03  0.00000000000E+00 0. -1.
          1   -1    0    0  501    0 -0.00000000000E+00 -0.00000000000E+00 -0.35153969232E+02  0.35153969232E+02  0.00000000000E+00 0. -1.
          2    1    1    2  501    0 -0.13240056292E+02  0.18390540548E+02  0.27748865233E+02  0.35826116088E+02  0.00000000000E+00 0. -1.
          1    1    1    2  502    0  0.82620544121E+02 -0.39817427405E+00  0.13890365900E+03  0.16161849936E+03  0.00000000000E+00 0. -1.
         22    1    1    2    0    0 -0.15858863155E+02  0.43408799721E+02  0.29292831065E+02  0.54716518398E+02  0.00000000000E+00 0.  1.
         22    1    1    2    0    0 -0.53521624674E+02 -0.61401165995E+02  0.22835670911E+03  0.24244886902E+03  0.00000000000E+00 0. -1.
</event>
<event>
 6    1  0.3240171E-005  0.1375146E+03  0.7818608E-02  0.1218618E+00
          2   -1    0    0  502    0  0.00000000000E+00  0.00000000000E+00  0.23667157346E+03  0.23667157346E+03  0.00000000000E+00 0. -1.
          1   -1    0    0  501    0 -0.00000000000E+00 -0.00000000000E+00 -0.23538761160E+03  0.23538761160E+03  0.00000000000E+00 0. -1.
          2    1    1    2  501    0  0.24621561794E+02 -0.11575287913E+03  0.13183829387E+03  0.17716175113E+03  0.00000000000E+00 0. -1.
          1    1    1    2  502    0  0.29008914129E+02  0.11269943847E+02 -0.12078469897E+03  0.12472959648E+03  0.00000000000E+00 0. -1.
         22    1    1    2    0    0 -0.70072538995E+02  0.11449828726E+03 -0.34717319884E+02  0.13865536704E+03  0.00000000000E+00 0.  1.
         22    1    1    2    0    0  0.16442063072E+02 -0.10015351978E+02  0.24947686838E+02  0.31512470418E+02  0.00000000000E+00 0. -1.
</event>
<event>
 6    1  0.3240171E-005  0.3611662E+02  0.7818608E-02  0.1544893E+00
          2   -1    0    0  502    0  0.00000000000E+00  0.00000000000E+00  0.17709144069E+03  0.17709144069E+03  0.00000000000E+00 0.  1.
          1   -1    0    0  501    0 -0.00000000000E+00 -0.00000000000E+00 -0.82265116212E+03  0.82265116212E+03  0.00000000000E+00 0.  1.
          2    1    1    2  501    0  0.30875781972E+02  0.37044906199E+01 -0.66543308287E+01  0.31801215101E+02  0.00000000000E+00 0.  1.
          1    1    1    2  502    0 -0.23450839662E+02  0.70646542802E+00 -0.77757707461E+03  0.77793094034E+03  0.00000000000E+00 0.  1.
         22    1    1    2    0    0 -0.30742441407E+02 -0.10829891284E+02  0.15656761026E+03  0.15992435972E+03  0.00000000000E+00 0.  1.
         22    1    1    2    0    0  0.23317499097E+02  0.64189352358E+01 -0.17895926248E+02  0.30086087648E+02  0.00000000000E+00 0.  1.
</event>
<event>
 6    1  0.3240171E-005  0.3938131E+03  0.7818608E-02  0.1169769E+00
          2   -1    0    0  502    0  0.00000000000E+00  0.00000000000E+00  0.17526914165E+03  0.17526914165E+03  0.00000000000E+00 0. -1.
          1   -1    0    0  501    0 -0.00000000000E+00 -0.00000000000E+00 -0.12522205154E+04  0.12522205154E+04  0.00000000000E+00 0. -1.
          2    1    1    2  501    0 -0.14226201868E+03 -0.29604773299E+03 -0.56297383714E+03  0.65178392391E+03  0.00000000000E+00 0. -1.
          1    1    1    2  502    0  0.14627843840E+03  0.35804055690E+03 -0.50785758505E+03  0.63836490240E+03  0.00000000000E+00 0. -1.
         22    1    1    2    0    0 -0.15044287697E+02 -0.66054407986E+01  0.53055626176E+02  0.55541533192E+02  0.00000000000E+00 0. -1.
         22    1    1    2    0    0  0.11027867978E+02 -0.55387383107E+02 -0.59175577765E+02  0.81799297572E+02  0.00000000000E+00 0.  1.
</event>
<event>
 6    1  0.3240171E-005  0.3930869E+02  0.7818608E-02  0.1521634E+00
          2   -1    0    0  502    0  0.00000000000E+00  0.00000000000E+00  0.57328074485E+02  0.57328074485E+02  0.00000000000E+00 0. -1.
          1   -1    0    0  501    0 -0.00000000000E+00 -0.00000000000E+00 -0.24206500289E+03  0.24206500289E+03  0.00000000000E+00 0. -1.
          2    1    1    2  501    0  0.14351508363E+02  0.22511912355E+02 -0.10281858707E+03  0.10622812168E+03  0.00000000000E+00 0. -1.
          1    1    1    2  502    0  0.73595762618E+01 -0.33075891286E+02 -0.52181845395E+02  0.62218348869E+02  0.00000000000E+00 0. -1.
         22    1    1    2    0    0  0.68481967993E+01  0.30312619830E+02 -0.70711004375E+02  0.77238584011E+02  0.00000000000E+00 0. -1.
         22    1    1    2    0    0 -0.28559281424E+02 -0.19748640899E+02  0.40974508433E+02  0.53708022810E+02  0.00000000000E+00 0. -1.
</event>
<event>
 6    1  0.3240171E-005  0.2204052E+03  0.7818608E-02  0.1267077E+00
          2   -1    0    0  502    0  0.00000000000E+00  0.00000000000E+00  0.82355027586E+02  0.82355027586E+02  0.00000000000E+00 0. -1.
          1   -1    0    0  501    0 -0.00000000000E+00 -0.00000000000E+00 -0.87296207904E+03  0.87296207904E+03  0.00000000000E+00 0. -1.
          2    1    1    2  501    0  0.70812004481E+02  0.36786361781E+02 -0.13432212362E+03  0.15623702918E+03  0.00000000000E+00 0. -1.
          1    1    1    2  502    0 -0.19092102688E+03  0.74981703561E+01 -0.57359302381E+03  0.60457920741E+03  0.00000000000E+00 0. -1.
         22    1    1    2    0    0  0.13207036895E+03 -0.42891711131E+02 -0.10161612037E+03  0.17207009373E+03  0.00000000000E+00 0. -1.
         22    1    1    2    0    0 -0.11961346547E+02 -0.13928210056E+01  0.18924216349E+02  0.22430776313E+02  0.00000000000E+00 0. -1.
</event>
<event>
 6    1  0.3240171E-005  0.1853947E+03  0.7818608E-02  0.1163617E+00
          2   -1    0    0  502    0  0.00000000000E+00  0.00000000000E+00  0.13204411001E+04  0.13204411001E+04  0.00000000000E+00 0. -1.
          1   -1    0    0  501    0 -0.00000000000E+00 -0.00000000000E+00 -0.21337462053E+03  0.21337462053E+03  0.00000000000E+00 0.  1.
          2    1    1    2  501    0 -0.22456202390E+02 -0.19317274687E+03  0.44967722943E+03  0.48992815986E+03  0.00000000000E+00 0. -1.
          1    1    1    2  502    0 -0.83868424194E+01  0.40607902931E+02 -0.17902028360E+03  0.18375963335E+03  0.00000000000E+00 0.  1.
         22    1    1    2    0    0 -0.51980056959E+01 -0.14509541127E+02  0.16441644745E+02  0.22536053977E+02  0.00000000000E+00 0.  1.
         22    1    1    2    0    0  0.36041050506E+02  0.16707438506E+03  0.81996788897E+03  0.83759187341E+03  0.00000000000E+00 0. -1.
</event>
<event>
 6    1  0.3240171E-005  0.3764559E+03  0.7818608E-02  0.1122050E+00
          2   -1    0    0  502    0  0.00000000000E+00  0.00000000000E+00  0.67315079067E+03  0.67315079067E+03  0.00000000000E+00 0.  1.
          1   -1    0    0  501    0 -0.00000000000E+00 -0.00000000000E+00 -0.44610511221E+03  0.44610511221E+03  0.00000000000E+00 0.  1.
          2    1    1    2  501    0  0.96245106621E+02 -0.34098788900E+03  0.31275821813E+03  0.47260296656E+03  0.00000000000E+00 0.  1.
          1    1    1    2  502    0 -0.99567234653E+02  0.34735983476E+03 -0.25070168887E+03  0.43979975651E+03  0.00000000000E+00 0.  1.
         22    1    1    2    0    0 -0.36253131865E+02  0.46268572116E+02  0.82524941056E+02  0.10131848909E+03  0.00000000000E+00 0.  1.
         22    1    1    2    0    0  0.39575259896E+02 -0.52640517876E+02  0.82464208157E+02  0.10553469072E+03  0.00000000000E+00 0. -1.
</event>
<event>
 6    1  0.3240171E-005  0.2531875E+03  0.7818608E-02  0.1172913E+00
          2   -1    0    0  502    0  0.00000000000E+00  0.00000000000E+00  0.56491963149E+03  0.56491963149E+03  0.00000000000E+00 0. -1.
          1   -1    0    0  501    0 -0.00000000000E+00 -0.00000000000E+00 -0.94437876240E+03  0.94437876240E+03  0.00000000000E+00 0. -1.
          2    1    1    2  501    0  0.11087078570E+03 -0.70681086592E+02  0.14601652592E+03  0.19649166131E+03  0.00000000000E+00 0. -1.
          1    1    1    2  502    0 -0.14609804227E+03  0.18916605925E+03 -0.88314601822E+03  0.91491820696E+03  0.00000000000E+00 0. -1.
         22    1    1    2    0    0  0.32669425449E+02 -0.47376399970E+02  0.30229851110E+03  0.30772748406E+03  0.00000000000E+00 0. -1.
         22    1    1    2    0    0  0.25578311253E+01 -0.71108572690E+02  0.55371850279E+02  0.90161041550E+02  0.00000000000E+00 0. -1.
</event>
<event>
 6    1  0.3240171E-005  0.5005059E+02  0.7818608E-02  0.1507206E+00
          2   -1    0    0  502    0  0.00000000000E+00  0.00000000000E+00  0.62553166910E+02  0.62553166910E+02  0.00000000000E+00 0. -1.
          1   -1    0    0  501    0 -0.00000000000E+00 -0.00000000000E+00 -0.38773781592E+03  0.38773781592E+03  0.00000000000E+00 0. -1.
          2    1    1    2  501    0 -0.14252144457E+02  0.15573133702E+02 -0.24629364033E+02  0.32438429179E+02  0.00000000000E+00 0. -1.
          1    1    1    2  502    0  0.11080427713E+02 -0.46768014946E+02 -0.28456940971E+03  0.28859967437E+03  0.00000000000E+00 0. -1.
         22    1    1    2    0    0  0.19141721860E+02  0.78766850755E+01  0.51815409929E+02  0.55796813436E+02  0.00000000000E+00 0. -1.
         22    1    1    2    0    0 -0.15970005115E+02  0.23318196168E+02 -0.67801285197E+02  0.73456065851E+02  0.00000000000E+00 0. -1.
</event>
<event>
 6    1  0.3240171E-005  0.1286529E+03  0.7818608E-02  0.1303712E+00
          2   -1    0    0  502    0  0.00000000000E+00  0.00000000000E+00  0.75537132973E+02  0.75537132973E+02  0.00000000000E+00 0. -1.
          1   -1    0    0  501    0 -0.00000000000E+00 -0.00000000000E+00 -0.76336977507E+03  0.76336977507E+03  0.00000000000E+00 0. -1.
          2    1    1    2  501    0  0.91549675393E+00 -0.96156751534E+02 -0.31129345218E+03  0.32580756954E+03  0.00000000000E+00 0. -1.
          1    1    1    2  502    0 -0.17748499842E+02  0.12445217945E+03 -0.36567693595E+03  0.38668200850E+03  0.00000000000E+00 0. -1.
         22    1    1    2    0    0  0.21287446567E+02  0.17048719553E+01 -0.62767315909E+02  0.66300813842E+02  0.00000000000E+00 0.  1.
         22    1    1    2    0    0 -0.44544434790E+01 -0.30000299874E+02  0.51905061942E+02  0.60116516153E+02  0.00000000000E+00 0. -1.
</event>
<event>
 6    1  0.3240171E-005  0.8643008E+02  0.7818608E-02  0.1403370E+00
          2   -1    0    0  502    0  0.00000000000E+00  0.00000000000E+00  0.14541396981E+03  0.14541396981E+03  0.00000000000E+00 0.  1.
          1   -1    0    0  501    0 -0.00000000000E+00 -0.00000000000E+00 -0.33342608788E+03  0.33342608788E+03  0.00000000000E+00 0. -1.
          2    1    1    2  501    0 -0.46110207999E+02  0.29121894043E+02  0.40700768209E+02  0.68049897334E+02  0.00000000000E+00 0.  1.
          1    1    1    2  502    0  0.62622249077E+02 -0.31455734994E+02 -0.26669761158E+03  0.27575102061E+03  0.00000000000E+00 0. -1.
         22    1    1    2    0    0 -0.23863242288E+01 -0.18233353304E+02 -0.44879113293E+02  0.48500355937E+02  0.00000000000E+00 0.  1.
         22    1    1    2    0    0 -0.14125716850E+02  0.20567194255E+02  0.82863838592E+02  0.86538783804E+02  0.00000000000E+00 0.  1.
</event>
<event>
 6    1  0.3240171E-005  0.1236668E+03  0.7818608E-02  0.1255510E+00
          2   -1    0    0  502    0  0.00000000000E+00  0.00000000000E+00  0.18994353799E+03  0.18994353799E+03  0.00000000000E+00 0. -1.
          1   -1    0    0  501    0 -0.00000000000E+00 -0.00000000000E+00 -0.25760572891E+03  0.25760572891E+03  0.00000000000E+00 0. -1.
          2    1    1    2  501    0  0.64951373471E+02 -0.11673736772E+03  0.34329497066E+02  0.13793044735E+03  0.00000000000E+00 0. -1.
          1    1    1    2  502    0 -0.88411872401E+02  0.59350145819E+02 -0.12854378599E+03  0.16692095107E+03  0.00000000000E+00 0. -1.
         22    1    1    2    0    0 -0.93880235800E+01  0.85016796063E+02 -0.10265539235E+02  0.86147384728E+02  0.00000000000E+00 0.  1.
         22    1    1    2    0    0  0.32848522510E+02 -0.27629574165E+02  0.36817637244E+02  0.56550483745E+02  0.00000000000E+00 0. -1.
</event>
<event>
 6    1  0.3240171E-005  0.9332831E+02  0.7818608E-02  0.1298684E+00
          2   -1    0    0  502    0  0.00000000000E+00  0.00000000000E+00  0.41201764457E+02  0.41201764457E+02  0.00000000000E+00 0.  1.
          1   -1    0    0  501    0 -0.00000000000E+00 -0.00000000000E+00 -0.16131352257E+04  0.16131352257E+04  0.00000000000E+00 0.  1.
          2    1    1    2  501    0 -0.45205859666E+02 -0.17939754787E+02 -0.54261926755E+02  0.72868108560E+02  0.00000000000E+00 0.  1.
          1    1    1    2  502    0 -0.71917350832E+01 -0.53083608782E+02 -0.13710316151E+04  0.13720777238E+04  0.00000000000E+00 0.  1.
         22    1    1    2    0    0 -0.13390671790E+02 -0.25459031037E+02 -0.12011541395E+02  0.31172896545E+02  0.00000000000E+00 0.  1.
         22    1    1    2    0    0  0.65788266539E+02  0.96482394605E+02 -0.13462837805E+03  0.17821826129E+03  0.00000000000E+00 0.  1.
</event>
<event>
 6    1  0.3240171E-005  0.1488049E+03  0.7818608E-02  0.1239451E+00
          2   -1    0    0  502    0  0.00000000000E+00  0.00000000000E+00  0.69364637066E+03  0.69364637066E+03  0.00000000000E+00 0.  1.
          1   -1    0    0  501    0 -0.00000000000E+00 -0.00000000000E+00 -0.31880871684E+03  0.31880871684E+03  0.00000000000E+00 0.  1.
          2    1    1    2  501    0  0.90350045166E+02 -0.80841980753E+02  0.18502724951E+03  0.22120949250E+03  0.00000000000E+00 0.  1.
          1    1    1    2  502    0 -0.57467554363E+02  0.98270024389E+02 -0.28091355486E+03  0.30310384821E+03  0.00000000000E+00 0.  1.
         22    1    1    2    0    0 -0.56725380333E+02  0.37060835733E+02  0.20755233770E+03  0.21833288164E+03  0.00000000000E+00 0.  1.
         22    1    1    2    0    0  0.23842889530E+02 -0.54488879369E+02  0.26317162148E+03  0.26980886514E+03  0.00000000000E+00 0. -1.
</event>
<event>
 6    1  0.3240171E-005  0.1862417E+03  0.7818608E-02  0.1259929E+00
          2   -1    0    0  502    0  0.00000000000E+00  0.00000000000E+00  0.62271547528E+02  0.62271547528E+02  0.00000000000E+00 0.  1.
          1   -1    0    0  501    0 -0.00000000000E+00 -0.00000000000E+00 -0.22763027312E+04  0.22763027312E+04  0.00000000000E+00 0.  1.
          2    1    1    2  501    0  0.45419673086E+02 -0.86777305869E+01 -0.11083562083E+03  0.12009489812E+03  0.00000000000E+00 0.  1.
          1    1    1    2  502    0 -0.14653600423E+03  0.10408685506E+03 -0.19879629873E+04  0.19960720711E+04  0.00000000000E+00 0.  1.
         22    1    1    2    0    0  0.83482421914E+02 -0.80718676612E+02 -0.14439510902E+03  0.18529643016E+03  0.00000000000E+00 0.  1.
         22    1    1    2    0    0  0.17633909225E+02 -0.14690447861E+02  0.29162533459E+02  0.37110879411E+02  0.00000000000E+00 0.  1.
</event>
<event>
 6    1  0.3240171E-005  0.1944757E+03  0.7818608E-02  0.1220702E+00
          2   -1    0    0  502    0  0.00000000000E+00  0.00000000000E+00  0.19908748753E+03  0.19908748753E+03  0.00000000000E+00 0.  1.
          1   -1    0    0  501    0 -0.00000000000E+00 -0.00000000000E+00 -0.31485736886E+03  0.31485736886E+03  0.00000000000E+00 0.  1.
          2    1    1    2  501    0 -0.10103600341E+02 -0.14237362672E+03  0.88653831160E+01  0.14300673881E+03  0.00000000000E+00 0.  1.
          1    1    1    2  502    0  0.33039251805E+02  0.17586580668E+03 -0.15801415052E+03  0.23872336685E+03  0.00000000000E+00 0.  1.
         22    1    1    2    0    0  0.21699707245E+02 -0.31023561040E+02 -0.34312095226E+02  0.51094603559E+02  0.00000000000E+00 0.  1.
         22    1    1    2    0    0 -0.44635358709E+02 -0.24686189119E+01  0.67690981307E+02  0.81120147169E+02  0.00000000000E+00 0. -1.
</event>
<event>
 6    1  0.3240171E-005  0.1081471E+03  0.7818608E-02  0.1289414E+00
          2   -1    0    0  502    0  0.00000000000E+00  0.00000000000E+00  0.19002727299E+03  0.19002727299E+03  0.00000000000E+00 0. -1.
          1   -1    0    0  501    0 -0.00000000000E+00 -0.00000000000E+00 -0.25165198343E+03  0.25165198343E+03  0.00000000000E+00 0.  1.
          2    1    1    2  501    0  0.33530353360E+02  0.39116617886E+02  0.79187093892E+02  0.94472166432E+02  0.00000000000E+00 0. -1.
          1    1    1    2  502    0 -0.30195758785E+02 -0.39647142229E+02 -0.20454489228E+03  0.21052860303E+03  0.00000000000E+00 0.  1.
         22    1    1    2    0    0 -0.39579170491E+02  0.47212021550E+02  0.28580562679E+02  0.67914168468E+02  0.00000000000E+00 0. -1.
         22    1    1    2    0    0  0.36244575915E+02 -0.46681497207E+02  0.35152525272E+02  0.68764318492E+02  0.00000000000E+00 0.  1.
</event>
<event>
 6    1  0.3240171E-005  0.9501096E+02  0.7818608E-02  0.1331195E+00
          2   -1    0    0  502    0  0.00000000000E+00  0.00000000000E+00  0.64928304678E+02  0.64928304678E+02  0.00000000000E+00 0.  1.
          1   -1    0    0  501    0 -0.00000000000E+00 -0.00000000000E+00 -0.74520030687E+03  0.74520030687E+03  0.00000000000E+00 0.  1.
          2    1    1    2  501    0 -0.82660724952E+02  0.12542305877E+02 -0.32201986619E+03  0.33269640681E+03  0.00000000000E+00 0.  1.
          1    1    1    2  502    0  0.41157322644E+02  0.23258636748E+02 -0.33652359767E+03  0.33982792878E+03  0.00000000000E+00 0.  1.
         22    1    1    2    0    0 -0.42459067063E+01 -0.31099178783E+02 -0.66428174617E+02  0.73470327532E+02  0.00000000000E+00 0.  1.
         22    1    1    2    0    0  0.45749309014E+02 -0.47017638419E+01  0.44699636274E+02  0.64133948432E+02  0.00000000000E+00 0.  1.
</event>
<event>
 6    1  0.3240171E-005  0.1096335E+03  0.7818608E-02  0.1291925E+00
          2   -1    0    0  502    0  0.00000000000E+00  0.00000000000E+00  0.25287705765E+03  0.25287705765E+03  0.00000000000E+00 0. -1.
          1   -1    0    0  501    0 -0.00000000000E+00 -0.00000000000E+00 -0.83329461673E+03  0.83329461673E+03  0.00000000000E+00 0. -1.
          2    1    1    2  501    0  0.40215913202E+02 -0.87081418467E+02 -0.89929191313E+02  0.13148289838E+03  0.00000000000E+00 0. -1.
          1    1    1    2  502    0 -0.26206602566E+01  0.92613791773E+02 -0.70033169272E+03  0.70643376343E+03  0.00000000000E+00 0. -1.
         22    1    1    2    0    0 -0.60600770144E+02 -0.65336972679E+01  0.21598665953E+03  0.22442232428E+03  0.00000000000E+00 0. -1.
         22    1    1    2    0    0  0.23005517198E+02  0.10013239616E+01 -0.61433345770E+01  0.23832688287E+02  0.00000000000E+00 0.  1.
</event>
<event>
 6    1  0.3240171E-005  0.6856793E+02  0.7818608E-02  0.1367515E+00
          2   -1    0    0  502    0  0.00000000000E+00  0.00000000000E+00  0.75493328735E+02  0.75493328735E+02  0.00000000000E+00 0.  1.
          1   -1    0    0  501    0 -0.00000000000E+00 -0.00000000000E+00 -0.82494725149E+03  0.82494725149E+03  0.00000000000E+00 0. -1.
          2    1    1    2  501    0 -0.11323248100E+02  0.18811292860E+02 -0.18039821748E+02  0.28416823455E+02  0.00000000000E+00 0.  1.
          1    1    1    2  502    0  0.18161841551E+02 -0.17843451124E+02 -0.74191502098E+03  0.74235176271E+03  0.00000000000E+00 0. -1.
         22    1    1    2    0    0 -0.35627717416E+02  0.51607545952E+02 -0.15082359427E+02  0.64499229556E+02  0.00000000000E+00 0.  1.
         22    1    1    2    0    0  0.28789123964E+02 -0.52575387689E+02  0.25583279397E+02  0.65172764511E+02  0.00000000000E+00 0.  1.
</event>
<event>
 6    1  0.3240171E-005  0.1307917E+03  0.7818608E-02  0.1267107E+00
          2   -1    0    0  502    0  0.00000000000E+00  0.00000000000E+00  0.28140116819E+03  0.28140116819E+03  0.00000000000E+00 0. -1.
          1   -1    0    0  501    0 -0.00000000000E+00 -0.00000000000E+00 -0.26979043710E+04  0.26979043710E+04  0.00000000000E+00 0. -1.
          2    1    1    2  501    0 -0.33083923343E+02  0.34589225731E+01  0.60544132468E+02  0.69080403194E+02  0.00000000000E+00 0. -1.
          1    1    1    2  502    0  0.18524820098E+02 -0.10613136150E+03 -0.26621502520E+04  0.26643293714E+04  0.00000000000E+00 0. -1.
         22    1    1    2    0    0 -0.19636541365E+02  0.56329027637E+02  0.86451318224E+01  0.60276790024E+02  0.00000000000E+00 0.  1.
         22    1    1    2    0    0  0.34195644610E+02  0.46343411288E+02  0.17645778491E+03  0.18561897461E+03  0.00000000000E+00 0.  1.
</event>
<event>
 6    1  0.3240171E-005  0.7508404E+02  0.7818608E-02  0.1347466E+00
          2   -1    0    0  502    0  0.00000000000E+00  0.00000000000E+00  0.43888944558E+03  0.43888944558E+03  0.00000000000E+00 0.  1.
          1   -1    0    0  501    0 -0.00000000000E+00 -0.00000000000E+00 -0.20971965531E+02  0.20971965531E+02  0.00000000000E+00 0.  1.
          2    1    1    2  501    0 -0.11062893666E+02  0.24032341243E+02  0.15524606889E+02  0.30674981026E+02  0.00000000000E+00 0.  1.
          1    1    1    2  502    0  0.45784314736E+01 -0.23334253651E+02  0.50336249506E+02  0.55670346169E+02  0.00000000000E+00 0.  1.
         22    1    1    2    0    0 -0.40744992013E+02  0.43837694222E+02  0.16583096928E+03  0.17630033518E+03  0.00000000000E+00 0.  1.
         22    1    1    2    0    0  0.47229454205E+02 -0.44535781814E+02  0.18622565437E+03  0.19721574874E+03  0.00000000000E+00 0.  1.
</event>
<event>
 6    1  0.3240171E-005  0.3752243E+03  0.7818608E-02  0.1148959E+00
          2   -1    0    0  502    0  0.00000000000E+00  0.00000000000E+00  0.42782672945E+03  0.42782672945E+03  0.00000000000E+00 0. -1.
          1   -1    0    0  501    0 -0.00000000000E+00 -0.00000000000E+00 -0.13352810563E+04  0.13352810563E+04  0.00000000000E+00 0. -1.
          2    1    1    2  501    0  0.32800435345E+02 -0.20717972577E+03  0.23268808768E+03  0.31327791731E+03  0.00000000000E+00 0. -1.
          1    1    1    2  502    0 -0.12553785466E+03  0.29708382113E+03 -0.12120017302E+04  0.12541797095E+04  0.00000000000E+00 0. -1.
         22    1    1    2    0    0  0.12015758789E+03 -0.75762851002E+02  0.32640445350E+02  0.14575065761E+03  0.00000000000E+00 0.  1.
         22    1    1    2    0    0 -0.27420168582E+02 -0.14141244360E+02  0.39218870358E+02  0.49899501293E+02  0.00000000000E+00 0.  1.
</event>
<event>
 6    1  0.3240171E-005  0.1815268E+03  0.7818608E-02  0.1230888E+00
          2   -1    0    0  502    0  0.00000000000E+00  0.00000000000E+00  0.24711182176E+03  0.24711182176E+03  0.00000000000E+00 0.  1.
          1   -1    0    0  501    0 -0.00000000000E+00 -0.00000000000E+00 -0.18756689241E+04  0.18756689241E+04  0.00000000000E+00 0.  1.
          2    1    1    2  501    0 -0.20762540162E+02  0.33324577368E+02  0.32145201685E+02  0.50743714114E+02  0.00000000000E+00 0.  1.
          1    1    1    2  502    0 -0.63218894161E+02 -0.15732338286E+03 -0.18140993195E+04  0.18220053832E+04  0.00000000000E+00 0.  1.
         22    1    1    2    0    0  0.44953437095E+02  0.14532900533E+03  0.10863533838E+03  0.18693038287E+03  0.00000000000E+00 0.  1.
         22    1    1    2    0    0  0.39027997228E+02 -0.21330199838E+02  0.44761677107E+02  0.63101265678E+02  0.00000000000E+00 0. -1.
</event>
<event>
 6    1  0.3240171E-005  0.1081871E+03  0.7818608E-02  0.1352041E+00
          2   -1    0    0  502    0  0.00000000000E+00  0.00000000000E+00  0.13382410427E+03  0.13382410427E+03  0.00000000000E+00 0. -1.
          1   -1    0    0  501    0 -0.00000000000E+00 -0.00000000000E+00 -0.49516599593E+03  0.49516599593E+03  0.00000000000E+00 0. -1.
          2    1    1    2  501    0 -0.20419988328E+02 -0.13159714249E+01 -0.12806458117E+02  0.24139450565E+02  0.00000000000E+00 0. -1.
          1    1    1    2  502    0 -0.19164428153E+02  0.35330935423E+02 -0.44181096396E+03  0.44363552403E+03  0.00000000000E+00 0. -1.
         22    1    1    2    0    0  0.15414599449E+02  0.15310810664E+02 -0.23598406713E+02  0.32076714276E+02  0.00000000000E+00 0. -1.
         22    1    1    2    0    0  0.24169817032E+02 -0.49325774661E+02  0.11687393713E+03  0.12913841133E+03  0.00000000000E+00 0. -1.
</event>
<event>
 6    1  0.3240171E-005  0.3681473E+03  0.7818608E-02  0.1133797E+00
          2   -1    0    0  502    0  0.00000000000E+00  0.00000000000E+00  0.90033618753E+03  0.90033618753E+03  0.00000000000E+00 0.  1.
          1   -1    0    0  501    0 -0.00000000000E+00 -0.00000000000E+00 -0.19686010338E+03  0.19686010338E+03  0.00000000000E+00 0.  1.
          2    1    1    2  501    0  0.42625925596E+01  0.32511468028E+03  0.44408096948E+03  0.55038680260E+03  0.00000000000E+00 0.  1.
          1    1    1    2  502    0 -0.28360440173E+02 -0.31357874288E+03  0.78420417767E+02  0.32447758702E+03  0.00000000000E+00 0.  1.
         22    1    1    2    0    0  0.44260177338E+02 -0.15951832885E+02  0.19285915559E+03  0.19851467998E+03  0.00000000000E+00 0.  1.
         22    1    1    2    0    0 -0.20162329724E+02  0.44158954865E+01 -0.11884458687E+02  0.23817221314E+02  0.00000000000E+00 0.  1.
</event>
<event>
 6    1  0.3240171E-005  0.1027205E+03  0.7818608E-02  0.1311698E+00
          2   -1    0    0  502    0  0.00000000000E+00  0.00000000000E+00  0.16492459786E+03  0.16492459786E+03  0.00000000000E+00 0. -1.
          1   -1    0    0  501    0 -0.00000000000E+00 -0.00000000000E+00 -0.24002216832E+03  0.24002216832E+03  0.00000000000E+00 0. -1.
          2    1    1    2  501    0  0.28826035079E+02  0.19585045037E+00  0.29397701558E+02  0.41172849217E+02  0.00000000000E+00 0. -1.
          1    1    1    2  502    0 -0.94627561463E+02 -0.26927378908E+02 -0.17791260783E+03  0.20330360338E+03  0.00000000000E+00 0. -1.
         22    1    1    2    0    0 -0.23113283915E+02  0.46044637869E+02  0.30464274297E+02  0.59853191880E+02  0.00000000000E+00 0.  1.
         22    1    1    2    0    0  0.88914810300E+02 -0.19313109411E+02  0.42953061517E+02  0.10061712170E+03  0.00000000000E+00 0. -1.
</event>
<event>
 6    1  0.3240171E-005  0.7351932E+02  0.7818608E-02  0.1375545E+00
          2   -1    0    0  502    0  0.00000000000E+00  0.00000000000E+00  0.18865824400E+03  0.18865824400E+03  0.00000000000E+00 0. -1.
          1   -1    0    0  501    0 -0.00000000000E+00 -0.00000000000E+00 -0.14366747583E+03  0.14366747583E+03  0.00000000000E+00 0. -1.
          2    1    1    2  501    0  0.15655561657E+02 -0.45603282539E+02 -0.69072332130E+02  0.84236233623E+02  0.00000000000E+00 0. -1.
          1    1    1    2  502    0  0.24008773216E+02  0.20536579926E+02  0.10553213532E+03  0.11015990147E+03  0.00000000000E+00 0. -1.
         22    1    1    2    0    0 -0.42814040609E+01  0.45499775000E+02  0.57953107994E+02  0.73804625004E+02  0.00000000000E+00 0. -1.
         22    1    1    2    0    0 -0.35382930813E+02 -0.20433072387E+02 -0.49422143020E+02  0.64124959733E+02  0.00000000000E+00 0. -1.
</event>
<event>
 6    1  0.3240171E-005  0.1323918E+03  0.7818608E-02  0.1227122E+00
          2   -1    0    0  502    0  0.00000000000E+00  0.00000000000E+00  0.11972757121E+03  0.11972757121E+03  0.00000000000E+00 0. -1.
          1   -1    0    0  501    0 -0.00000000000E+00 -0.00000000000E+00 -0.25475692314E+03  0.25475692314E+03  0.00000000000E+00 0. -1.
          2    1    1    2  501    0  0.23766131774E+02 -0.10396741167E+03  0.55557761043E+01  0.10679381235E+03  0.00000000000E+00 0. -1.
          1    1    1    2  502    0  0.20279519999E+02  0.46905072277E+00 -0.92517007326E+02  0.94714706273E+02  0.00000000000E+00 0. -1.
         22    1    1    2    0    0 -0.47374044520E+02  0.11892800772E+03 -0.70038588583E+02  0.14592318186E+03  0.00000000000E+00 0. -1.
         22    1    1    2    0    0  0.33283927463E+01 -0.15429646772E+02  0.21970467868E+02  0.27052793869E+02  0.00000000000E+00 0. -1.
</event>
<event>
 6    1  0.3240171E-005  0.1981120E+03  0.7818608E-02  0.1165175E+00
          2   -1    0    0  502    0  0.00000000000E+00  0.00000000000E+00  0.67441060623E+03  0.67441060623E+03  0.00000000000E+00 0.  1.
          1   -1    0    0  501    0 -0.00000000000E+00 -0.00000000000E+00 -0.16346788268E+04  0.16346788268E+04  0.00000000000E+00 0. -1.
          2    1    1    2  501    0 -0.17224347585E+03  0.93717175004E+01  0.48473885960E+03  0.51451667229E+03  0.00000000000E+00 0.  1.
          1    1    1    2  502    0  0.54954190160E+02 -0.23029426058E+02 -0.15769248383E+04  0.15780501459E+04  0.00000000000E+00 0. -1.
         22    1    1    2    0    0  0.16066224917E+02  0.36489800128E+02  0.10047616460E+03  0.10809758901E+03  0.00000000000E+00 0. -1.
         22    1    1    2    0    0  0.10122306077E+03 -0.22832091571E+02  0.31441593445E+02  0.10842502587E+03  0.00000000000E+00 0.  1.
</event>
<event>
 6    1  0.3240171E-005  0.1908891E+03  0.7818608E-02  0.1187840E+00
          2   -1    0    0  502    0  0.00000000000E+00  0.00000000000E+00  0.70992063304E+03  0.70992063304E+03  0.00000000000E+00 0.  1.
          1   -1    0    0  501    0 -0.00000000000E+00 -0.00000000000E+00 -0.83837622927E+03  0.83837622927E+03  0.00000000000E+00 0. -1.
          2    1    1    2  501    0 -0.15664823653E+03  0.12007036981E+03  0.38217453444E+03  0.43013130378E+03  0.00000000000E+00 0.  1.
          1    1    1    2  502    0  0.17562590092E+03 -0.52563008542E+02 -0.78671286189E+03  0.80778985758E+03  0.00000000000E+00 0. -1.
         22    1    1    2    0    0  0.56676493134E+01 -0.95857329645E+02  0.23909705058E+03  0.25765897906E+03  0.00000000000E+00 0.  1.
         22    1    1    2    0    0 -0.24645313705E+02  0.28349968381E+02  0.36985680644E+02  0.52716721897E+02  0.00000000000E+00 0.  1.
</event>
<event>
 6    1  0.3240171E-005  0.1471711E+03  0.7818608E-02  0.1215062E+00
          2   -1    0    0  502    0  0.00000000000E+00  0.00000000000E+00  0.37721743675E+03  0.37721743675E+03  0.00000000000E+00 0. -1.
          1   -1    0    0  501    0 -0.00000000000E+00 -0.00000000000E+00 -0.21518719928E+03  0.21518719928E+03  0.00000000000E+00 0. -1.
          2    1    1    2  501    0  0.11300677099E+03  0.54280192687E+02 -0.48674662691E+02  0.13448454333E+03  0.00000000000E+00 0. -1.
          1    1    1    2  502    0 -0.30136324220E+02 -0.52789726019E+02 -0.96622601677E+02  0.11415288155E+03  0.00000000000E+00 0. -1.
         22    1    1    2    0    0 -0.11310848407E+03  0.77188411144E+01  0.27963538829E+03  0.30174336788E+03  0.00000000000E+00 0.  1.
         22    1    1    2    0    0  0.30238037300E+02 -0.92093077824E+01  0.27692113550E+02  0.42023843261E+02  0.00000000000E+00 0.  1.
</event>
<event>
 6    1  0.3240171E-005  0.9657179E+02  0.7818608E-02  0.1339625E+00
          2   -1    0    0  502    0  0.00000000000E+00  0.00000000000E+00  0.44614155501E+03  0.44614155501E+03  0.00000000000E+00 0.  1.
          1   -1    0    0  501    0 -0.00000000000E+00 -0.00000000000E+00 -0.45909014789E+02  0.45909014789E+02  0.00000000000E+00 0.  1.
          2    1    1    2  501    0 -0.46898675518E+02  0.92324277416E+01  0.36482940664E+02  0.60130927540E+02  0.00000000000E+00 0.  1.
          1    1    1    2  502    0  0.74431346214E+02  0.14238084320E+01  0.39931756422E+02  0.84478385997E+02  0.00000000000E+00 0.  1.
         22    1    1    2    0    0 -0.56515260366E+02 -0.34931355738E+02  0.97483581055E+02  0.11797127974E+03  0.00000000000E+00 0.  1.
         22    1    1    2    0    0  0.28982589670E+02  0.24275119565E+02  0.22633426208E+03  0.22946997653E+03  0.00000000000E+00 0.  1.
</event>
<event>
 6    1  0.3240171E-005  0.1546630E+03  0.7818608E-02  0.1287554E+00
          2   -1    0    0  502    0  0.00000000000E+00  0.00000000000E+00  0.36018525987E+02  0.36018525987E+02  0.00000000000E+00 0. -1.
          1   -1    0    0  501    0 -0.00000000000E+00 -0.00000000000E+00 -0.16838338073E+04  0.16838338073E+04  0.00000000000E+00 0. -1.
          2    1    1    2  501    0  0.32106337555E+02  0.17163572411E+02 -0.12263200903E+03  0.12792190887E+03  0.00000000000E+00 0. -1.
          1    1    1    2  502    0 -0.60184025360E+02 -0.89629165398E+02 -0.13880543017E+04  0.13922464755E+04  0.00000000000E+00 0. -1.
         22    1    1    2    0    0  0.76294492193E+01  0.84173850716E+02 -0.29520668960E+02  0.89526060651E+02  0.00000000000E+00 0. -1.
         22    1    1    2    0    0  0.20448238586E+02 -0.11708257729E+02 -0.10760830165E+03  0.11015788825E+03  0.00000000000E+00 0. -1.
</event>
<event>
 6    1  0.3240171E-005  0.1033476E+03  0.7818608E-02  0.1346339E+00
          2   -1    0    0  502    0  0.00000000000E+00  0.00000000000E+00  0.32504245249E+03  0.32504245249E+03  0.00000000000E+00 0. -1.
          1   -1    0    0  501    0 -0.00000000000E+00 -0.00000000000E+00 -0.81209419151E+02  0.81209419151E+02  0.00000000000E+00 0.  1.
          2    1    1    2  501    0 -0.14371815525E+02 -0.54466441198E+02 -0.76824803643E+01  0.56852113442E+02  0.00000000000E+00 0. -1.
          1    1    1    2  502    0  0.79266996022E+02  0.62426004881E+02  0.94438852389E+02  0.13819898547E+03  0.00000000000E+00 0.  1.
         22    1    1    2    0    0 -0.40695924589E+02 -0.20967678659E+02 -0.56895620629E+01  0.46132124848E+02  0.00000000000E+00 0.  1.
         22    1    1    2    0    0 -0.24199255908E+02  0.13008114976E+02  0.16276622337E+03  0.16506864788E+03  0.00000000000E+00 0. -1.
</event>
<event>
 6    1  0.3240171E-005  0.9889333E+02  0.7818608E-02  0.1307519E+00
          2   -1    0    0  502    0  0.00000000000E+00  0.00000000000E+00  0.17222835864E+03  0.17222835864E+03  0.00000000000E+00 0. -1.
          1   -1    0    0  501    0 -0.00000000000E+00 -0.00000000000E+00 -0.12174239719E+03  0.12174239719E+03  0.00000000000E+00 0. -1.
          2    1    1    2  501    0  0.38955899961E+02  0.37155295183E+02 -0.12692679707E+02  0.55309874526E+02  0.00000000000E+00 0. -1.
          1    1    1    2  502    0  0.54841103422E+02 -0.43769678545E+02  0.89587885656E+01  0.70736067724E+02  0.00000000000E+00 0. -1.
         22    1    1    2    0    0 -0.35427973144E+02  0.28359650358E+02 -0.36252938392E+02  0.58083445073E+02  0.00000000000E+00 0. -1.
         22    1    1    2    0    0 -0.58369030239E+02 -0.21745266996E+02  0.90472790982E+02  0.10984136851E+03  0.00000000000E+00 0. -1.
</event>
<event>
 6    1  0.3240171E-005  0.2910445E+03  0.7818608E-02  0.1178930E+00
          2   -1    0    0  502    0  0.00000000000E+00  0.00000000000E+00  0.51372534125E+03  0.51372534125E+03  0.00000000000E+00 0. -1.
          1   -1    0    0  501    0 -0.00000000000E+00 -0.00000000000E+00 -0.24256263344E+03  0.24256263344E+03  0.00000000000E+00 0. -1.
          2    1    1    2  501    0  0.16252770165E+03 -0.12530010695E+03  0.16393273407E+03  0.26265816550E+03  0.00000000000E+00 0. -1.
          1    1    1    2  502    0 -0.19030876684E+03  0.40360398937E+02 -0.11245997383E+03  0.22470788649E+03  0.00000000000E+00 0. -1.
         22    1    1    2    0    0 -0.33056823095E+02 -0.57456892845E+00  0.11891082100E+03  0.12342150151E+03  0.00000000000E+00 0. -1.
         22    1    1    2    0    0  0.60837888284E+02  0.85514276940E+02  0.10077912657E+03  0.14550042118E+03  0.00000000000E+00 0. -1.
</event>
<event>
 6    1  0.3240171E-005  0.4836440E+02  0.7818608E-02  0.1472752E+00
          2   -1    0    0  502    0  0.00000000000E+00  0.00000000000E+00  0.63273861872E+02  0.63273861872E+02  0.00000000000E+00 0. -1.
          1   -1    0    0  501    0 -0.00000000000E+00 -0.00000000000E+00 -0.12629105480E+04  0.12629105480E+04  0.00000000000E+00 0. -1.
          2    1    1    2  501    0 -0.26698226151E+02  0.31473391741E+02 -0.11181972131E+03  0.11919320342E+03  0.00000000000E+00 0. -1.
          1    1    1    2  502    0  0.26184979080E+02  0.89302515252E+01 -0.10752281293E+04  0.10755839961E+04  0.00000000000E+00 0. -1.
         22    1    1    2    0    0  0.10984245255E+02 -0.35428411586E+02  0.53061799553E+02  0.64740872431E+02  0.00000000000E+00 0. -1.
         22    1    1    2    0    0 -0.10470998184E+02 -0.49752316799E+01 -0.65650634981E+02  0.66666337882E+02  0.00000000000E+00 0. -1.
</event>
<event>
 6    1  0.3240171E-005  0.1231424E+03  0.7818608E-02  0.1351723E+00
          2   -1    0    0  502    0  0.00000000000E+00  0.00000000000E+00  0.47831797657E+02  0.47831797657E+02  0.00000000000E+00 0.  1.
          1   -1    0    0  501    0 -0.00000000000E+00 -0.00000000000E+00 -0.73462557353E+03  0.73462557353E+03  0.00000000000E+00 0.  1.
          2    1    1    2  501    0 -0.49273352548E+02  0.29379214454E+02 -0.97563608338E+02  0.11317976491E+03  0.00000000000E+00 0.  1.
          1    1    1    2  502    0  0.22925681570E+02  0.43622353989E+02 -0.48219623165E+03  0.48470785269E+03  0.00000000000E+00 0.  1.
         22    1    1    2    0    0  0.80151677487E+01 -0.12457169562E+02  0.30100556155E+02  0.33547987546E+02  0.00000000000E+00 0.  1.
         22    1    1    2    0    0  0.18332503229E+02 -0.60544398882E+02 -0.13713449204E+03  0.15102176604E+03  0.00000000000E+00 0.  1.
</event>
<event>
 6    1  0.3240171E-005  0.2578360E+03  0.7818608E-02  0.1248618E+00
          2   -1    0    0  502    0  0.00000000000E+00  0.00000000000E+00  0.22338894056E+03  0.22338894056E+03  0.00000000000E+00 0.  1.
          1   -1    0    0  501    0 -0.00000000000E+00 -0.00000000000E+00 -0.18285313220E+03  0.18285313220E+03  0.00000000000E+00 0.  1.
          2    1    1    2  501    0  0.22463017469E+02 -0.66340246598E+02  0.72324478476E+02  0.10067991686E+03  0.00000000000E+00 0.  1.
          1    1    1    2  502    0  0.81115805219E+02 -0.52156000908E+02 -0.46059880360E+02  0.10687158119E+03  0.00000000000E+00 0.  1.
         22    1    1    2    0    0 -0.47314691977E+01 -0.97371512729E+01  0.33908572397E+02  0.35594805768E+02  0.00000000000E+00 0. -1.
         22    1    1    2    0    0 -0.98847353490E+02  0.12823339878E+03 -0.19637362143E+02  0.16309576894E+03  0.00000000000E+00 0.  1.
</event>
<event>
 6    1  0.3240171E-005  0.7676866E+02  0.7818608E-02  0.1339661E+00
          2   -1    0    0  502    0  0.00000000000E+00  0.00000000000E+00  0.73916863688E+02  0.73916863688E+02  0.00000000000E+00 0. -1.
          1   -1    0    0  501    0 -0.00000000000E+00 -0.00000000000E+00 -0.37894057827E+03  0.37894057827E+03  0.00000000000E+00 0.  1.
          2    1    1    2  501    0  0.21577015851E+02  0.64261096402E+01 -0.17093609981E+02  0.28267543231E+02  0.00000000000E+00 0. -1.
          1    1    1    2  502    0  0.12909920196E+02 -0.64510857223E+02 -0.27717916060E+03  0.28487998141E+03  0.00000000000E+00 0.  1.
         22    1    1    2    0    0 -0.77272107640E+02  0.55793606568E+02  0.87730863526E+00  0.95313560544E+02  0.00000000000E+00 0. -1.
         22    1    1    2    0    0  0.42785171593E+02  0.22911410144E+01 -0.11628252641E+02  0.44396356774E+02  0.00000000000E+00 0. -1.
</event>
<event>
 6    1  0.3240171E-005  0.1171323E+03  0.7818608E-02  0.1294737E+00
          2   -1    0    0  502    0  0.00000000000E+00  0.00000000000E+00  0.40227544059E+02  0.40227544059E+02  0.00000000000E+00 0.  1.
          1   -1    0    0  501    0 -0.00000000000E+00 -0.00000000000E+00 -0.68931926933E+03  0.68931926933E+03  0.00000000000E+00 0.  1.
          2    1    1    2  501    0  0.47856526528E+02 -0.28588851049E+02 -0.14540009764E+03  0.15572012692E+03  0.00000000000E+00 0.  1.
          1    1    1    2  502    0 -0.20494234372E+02  0.28514446848E+01 -0.41249827962E+03  0.41301691862E+03  0.00000000000E+00 0.  1.
         22    1    1    2    0    0 -0.27831097159E+02 -0.37417618087E+02  0.37448960051E+01  0.46783248695E+02  0.00000000000E+00 0.  1.
         22    1    1    2    0    0  0.46880500247E+00  0.63155024452E+02 -0.94938244014E+02  0.11402651914E+03  0.00000000000E+00 0.  1.
</event>
<event>
 6    1  0.3240171E-005  0.1197453E+03  0.7818608E-02  0.1349188E+00
          2   -1    0    0  502    0  0.00000000000E+00  0.00000000000E+00  0.12037318144E+03  0.12037318144E+03  0.00000000000E+00 0.  1.
          1   -1    0    0  501    0 -0.00000000000E+00 -0.00000000000E+00 -0.18652892180E+03  0.18652892180E+03  0.00000000000E+00 0.  1.
          2    1    1    2  501    0  0.52789168550E+01 -0.51533191025E+02 -0.60713439902E+02  0.79810140490E+02  0.00000000000E+00 0.  1.
          1    1    1    2  502    0  0.26703587302E+02 -0.45234905044E+01 -0.66647578176E+02  0.71940553361E+02  0.00000000000E+00 0.  1.
         22    1    1    2    0    0  0.13893499246E+02  0.94828787911E+01  0.84190581801E+02  0.85854576904E+02  0.00000000000E+00 0.  1.
         22    1    1    2    0    0 -0.45876003403E+02  0.46573802738E+02 -0.22985304083E+02  0.69296832493E+02  0.00000000000E+00 0.  1.
</event>
<event>
 6    1  0.3240171E-005  0.1034601E+03  0.7818608E-02  0.1285539E+00
          2   -1    0    0  502    0  0.00000000000E+00  0.00000000000E+00  0.24495555693E+03  0.24495555693E+03  0.00000000000E+00 0. -1.
          1   -1    0    0  501    0 -0.00000000000E+00 -0.00000000000E+00 -0.25176795683E+03  0.25176795683E+03  0.00000000000E+00 0. -1.
          2    1    1    2  501    0 -0.34796098612E+02  0.33057693331E+02  0.95753587017E+00  0.48005170991E+02  0.00000000000E+00 0. -1.
          1    1    1    2  502    0  0.30984214576E+02 -0.10268003869E+02 -0.20765821968E+03  0.21020796764E+03  0.00000000000E+00 0. -1.
         22    1    1    2    0    0  0.44105297960E+02 -0.60514857944E+02  0.11809248081E+03  0.13983261195E+03  0.00000000000E+00 0. -1.
         22    1    1    2    0    0 -0.40293413924E+02  0.37725168482E+02  0.81795803099E+02  0.98677763186E+02  0.00000000000E+00 0.  1.
</event>
<event>
 6    1  0.3240171E-005  0.4011942E+03  0.7818608E-02  0.1126777E+00
          2   -1    0    0  502    0  0.00000000000E+00  0.00000000000E+00  0.47132170398E+03  0.47132170398E+03  0.00000000000E+00 0.  1.
          1   -1    0    0  501    0 -0.00000000000E+00 -0.00000000000E+00 -0.15402841159E+04  0.15402841159E+04  0.00000000000E+00 0.  1.
          2    1    1    2  501    0 -0.18193307322E+03 -0.14259414191E+03  0.11826198584E+02  0.23145753695E+03  0.00000000000E+00 0.  1.
          1    1    1    2  502    0  0.23940261125E+03  0.20846754944E+03 -0.13951110003E+04  0.14307714816E+04  0.00000000000E+00 0.  1.
         22    1    1    2    0    0 -0.22994742661E+02  0.36559446773E+02  0.11115169944E+03  0.11924785795E+03  0.00000000000E+00 0. -1.
         22    1    1    2    0    0 -0.34474795375E+02 -0.10243285430E+03  0.20317069035E+03  0.23012894336E+03  0.00000000000E+00 0.  1.
</event>
<event>
 6    1  0.3240171E-005  0.1608519E+03  0.7818608E-02  0.1297944E+00
          2   -1    0    0  502    0  0.00000000000E+00  0.00000000000E+00  0.20218182791E+03  0.20218182791E+03  0.00000000000E+00 0. -1.
          1   -1    0    0  501    0 -0.00000000000E+00 -0.00000000000E+00 -0.20618105240E+03  0.20618105240E+03  0.00000000000E+00 0. -1.
          2    1    1    2  501    0 -0.52554061518E+02  0.40705395914E+02 -0.30666621334E+02  0.73207242146E+02  0.00000000000E+00 0. -1.
          1    1    1    2  502    0  0.12395234015E+03 -0.97730113783E+02 -0.42625665564E+02  0.16350016860E+03  0.00000000000E+00 0. -1.
         22    1    1    2    0    0 -0.81549172317E+02  0.43069063823E+02 -0.78957966710E+01  0.92561089931E+02  0.00000000000E+00 0. -1.
         22    1    1    2    0    0  0.10150893684E+02  0.13955654045E+02  0.77188859082E+02  0.79094379628E+02  0.00000000000E+00 0. -1.
</event>
<event>
 6    1  0.3240171E-005  0.1009390E+03  0.7818608E-02  0.1280014E+00
          2   -1    0    0  502    0  0.00000000000E+00  0.00000000000E+00  0.21058548815E+03  0.21058548815E+03  0.00000000000E+00 0.  1.
          1   -1    0    0  501    0 -0.00000000000E+00 -0.00000000000E+00 -0.30992801169E+03  0.30992801169E+03  0.00000000000E+00 0.  1.
          2    1    1    2  501    0 -0.52514136694E+01  0.57610462760E+02  0.59999560378E+02  0.83345605827E+02  0.00000000000E+00 0.  1.
          1    1    1    2  502    0  0.48572605231E+02  0.52848025860E+02 -0.23661910017E+03  0.24726667867E+03  0.00000000000E+00 0.  1.
         22    1    1    2    0    0 -0.56634898608E+02 -0.13393132857E+03  0.57170018171E+02  0.15624827516E+03  0.00000000000E+00 0.  1.
         22    1    1    2    0    0  0.13313707047E+02  0.23472839951E+02  0.20106998085E+02  0.33652940179E+02  0.00000000000E+00 0.  1.
</event>
<event>
 6    1  0.3240171E-005  0.9540048E+02  0.7818608E-02  0.1350533E+00
          2   -1    0    0  502    0  0.00000000000E+00  0.00000000000E+00  0.11726525054E+03  0.11726525054E+03  0.00000000000E+00 0. -1.
          1   -1    0    0  501    0 -0.00000000000E+00 -0.00000000000E+00 -0.14825560450E+03  0.14825560450E+03  0.00000000000E+00 0. -1.
          2    1    1    2  501    0 -0.52248004374E+02  0.56343749382E+02 -0.48343582092E+02  0.90783115087E+02  0.00000000000E+00 0. -1.
          1    1    1    2  502    0  0.31507710119E+02 -0.31998806311E+02  0.11235251666E+02  0.46291362934E+02  0.00000000000E+00 0. -1.
         22    1    1    2    0    0  0.28156529872E+02 -0.16251588013E+02  0.62797445680E+02  0.70713672450E+02  0.00000000000E+00 0. -1.
         22    1    1    2    0    0 -0.74162356181E+01 -0.80933550569E+01 -0.56679469215E+02  0.57732704573E+02  0.00000000000E+00 0.  1.
</event>
<event>
 6    1  0.3240171E-005  0.8117712E+02  0.7818608E-02  0.1329000E+00
          2   -1    0    0  502    0  0.00000000000E+00  0.00000000000E+00  0.83296472917E+02  0.83296472917E+02  0.00000000000E+00 0.  1.
          1   -1    0    0  501    0 -0.00000000000E+00 -0.00000000000E+00 -0.73372086039E+03  0.73372086039E+03  0.00000000000E+00 0.  1.
          2    1    1    2  501    0  0.14716759140E+02 -0.21107895085E+02 -0.12912159849E+02  0.28789756972E+02  0.00000000000E+00 0.  1.
          1    1    1    2  502    0 -0.22870503667E+02 -0.70448300009E+01 -0.65650176201E+03  0.65693778479E+03  0.00000000000E+00 0.  1.
         22    1    1    2    0    0  0.25883230020E+02 -0.46345114548E+02  0.11765762858E+02  0.54371356562E+02  0.00000000000E+00 0.  1.
         22    1    1    2    0    0 -0.17729485493E+02  0.74497839634E+02  0.72237715215E+01  0.76918434988E+02  0.00000000000E+00 0.  1.
</event>
<event>
 6    1  0.3240171E-005  0.7717772E+02  0.7818608E-02  0.1350786E+00
          2   -1    0    0  502    0  0.00000000000E+00  0.00000000000E+00  0.10324721027E+03  0.10324721027E+03  0.00000000000E+00 0. -1.
          1   -1    0    0  501    0 -0.00000000000E+00 -0.00000000000E+00 -0.93154457064E+03  0.93154457064E+03  0.00000000000E+00 0. -1.
          2    1    1    2  501    0  0.26692260236E+02  0.24405838868E+02 -0.10411535727E+02  0.37636708192E+02  0.00000000000E+00 0. -1.
          1    1    1    2  502    0 -0.26017037678E+02 -0.24568855691E+02 -0.86408590244E+03  0.86482655007E+03  0.00000000000E+00 0. -1.
         22    1    1    2    0    0 -0.54551673933E+02  0.18060194817E+02  0.48956471250E+02  0.75490342713E+02  0.00000000000E+00 0. -1.
         22    1    1    2    0    0  0.53876451375E+02 -0.17897177994E+02 -0.27563934565E+01  0.56838179931E+02  0.00000000000E+00 0. -1.
</event>
<event>
 6    1  0.3240171E-005  0.2575622E+03  0.7818608E-02  0.1246097E+00
          2   -1    0    0  502    0  0.00000000000E+00  0.00000000000E+00  0.22439660383E+03  0.22439660383E+03  0.00000000000E+00 0. -1.
          1   -1    0    0  501    0 -0.00000000000E+00 -0.00000000000E+00 -0.20985866966E+04  0.20985866966E+04  0.00000000000E+00 0.  1.
          2    1    1    2  501    0  0.59435944275E+02  0.18310717953E+02  0.15655000186E+03  0.16845123017E+03  0.00000000000E+00 0. -1.
          1    1    1    2  502    0 -0.88296348213E+01  0.45385589131E+02 -0.20058150714E+04  0.20063479047E+04  0.00000000000E+00 0.  1.
         22    1    1    2    0    0 -0.44361448118E+02 -0.73262450789E+02 -0.64356493128E+02  0.10713114852E+03  0.00000000000E+00 0.  1.
         22    1    1    2    0    0 -0.62448613352E+01  0.95661437054E+01  0.39431469826E+02  0.41053017077E+02  0.00000000000E+00 0. -1.
</event>
<event>
 6    1  0.3240171E-005  0.1109721E+03  0.7818608E-02  0.1348226E+00
          2   -1    0    0  502    0  0.00000000000E+00  0.00000000000E+00  0.35462082827E+02  0.35462082827E+02  0.00000000000E+00 0. -1.
          1   -1    0    0  501    0 -0.00000000000E+00 -0.00000000000E+00 -0.64383503118E+03  0.64383503118E+03  0.00000000000E+00 0. -1.
          2    1    1    2  501    0  0.73808948822E+02  0.94565884598E+00 -0.17026860398E+03  0.18558031334E+03  0.00000000000E+00 0. -1.
          1    1    1    2  502    0 -0.95467839126E+02 -0.39086520665E+01 -0.25933111877E+03  0.27637296364E+03  0.00000000000E+00 0. -1.
         22    1    1    2    0    0 -0.21403840073E+02  0.18671359479E+01  0.10014146396E+02  0.23704296964E+02  0.00000000000E+00 0. -1.
         22    1    1    2    0    0  0.43062730377E+02  0.10958572726E+01 -0.18878737199E+03  0.19363954006E+03  0.00000000000E+00 0.  1.
</event>
<event>
 6    1  0.3240171E-005  0.2029976E+03  0.7818608E-02  0.1183242E+00
          2   -1    0    0  502    0  0.00000000000E+00  0.00000000000E+00  0.81835290917E+02  0.81835290917E+02  0.00000000000E+00 0.  1.
          1   -1    0    0  501    0 -0.00000000000E+00 -0.00000000000E+00 -0.10731890039E+04  0.10731890039E+04  0.00000000000E+00 0.  1.
          2    1    1    2  501    0 -0.86345099697E+02  0.12632950968E+03 -0.66134248911E+03  0.67881404608E+03  0.00000000000E+00 0.  1.
          1    1    1    2  502    0 -0.18659703995E+02 -0.15886986907E+03 -0.22988373420E+03  0.28006133453E+03  0.00000000000E+00 0.  1.
         22    1    1    2    0    0  0.87184845699E+02 -0.14919177690E+02 -0.52873297277E+01  0.88610016579E+02  0.00000000000E+00 0.  1.
         22    1    1    2    0    0  0.17819957994E+02  0.47459537078E+02 -0.94840159911E+02  0.10753889759E+03  0.00000000000E+00 0.  1.
</event>
<event>
 6    1  0.3240171E-005  0.1382691E+03  0.7818608E-02  0.1280978E+00
          2   -1    0    0  502    0  0.00000000000E+00  0.00000000000E+00  0.66883345730E+02  0.66883345730E+02  0.00000000000E+00 0. -1.
          1   -1    0    0  501    0 -0.00000000000E+00 -0.00000000000E+00 -0.62546969239E+03  0.62546969239E+03  0.00000000000E+00 0.  1.
          2    1    1    2  501    0 -0.16295113898E+02 -0.65933525627E+02 -0.40598340160E+02  0.79126391060E+02  0.00000000000E+00 0. -1.
          1    1    1    2  502    0  0.86549757681E+02  0.39297217814E+02 -0.43071170690E+03  0.44107562429E+03  0.00000000000E+00 0.  1.
         22    1    1    2    0    0 -0.89876744668E+02 -0.51338387328E+01 -0.15647233058E+02  0.91372979784E+02  0.00000000000E+00 0. -1.
         22    1    1    2    0    0  0.19622100884E+02  0.31770146546E+02 -0.71629066537E+02  0.80778042979E+02  0.00000000000E+00 0.  1.
</event>
<event>
 6    1  0.3240171E-005  0.1911408E+03  0.7818608E-02  0.1158047E+00
          2   -1    0    0  502    0  0.00000000000E+00  0.00000000000E+00  0.90149658119E+02  0.90149658119E+02  0.00000000000E+00 0.  1.
          1   -1    0    0  501    0 -0.00000000000E+00 -0.00000000000E+00 -0.13057177059E+04  0.13057177059E+04  0.00000000000E+00 0.  1.
          2    1    1    2  501    0  0.79283414047E+01 -0.22063957817E+03 -0.27631032425E+03  0.35368358365E+03  0.00000000000E+00 0.  1.
          1    1    1    2  502    0  0.15738075286E+02  0.82049509067E+02 -0.81228225821E+03  0.81656737380E+03  0.00000000000E+00 0.  1.
         22    1    1    2    0    0 -0.11709562647E+01 -0.23154733598E+02 -0.15101033616E+02  0.27668647290E+02  0.00000000000E+00 0. -1.
         22    1    1    2    0    0 -0.22495460426E+02  0.16174480270E+03 -0.11187443173E+03  0.19794775931E+03  0.00000000000E+00 0.  1.
</event>
<event>
 6    1  0.3240171E-005  0.4820972E+02  0.7818608E-02  0.1494499E+00
          2   -1    0    0  502    0  0.00000000000E+00  0.00000000000E+00  0.25985448705E+02  0.25985448705E+02  0.00000000000E+00 0.  1.
          1   -1    0    0  501    0 -0.00000000000E+00 -0.00000000000E+00 -0.26009881480E+04  0.26009881480E+04  0.00000000000E+00 0. -1.
          2    1    1    2  501    0 -0.23296609423E+02  0.17944724524E+02 -0.21049648739E+03  0.21254062283E+03  0.00000000000E+00 0.  1.
          1    1    1    2  502    0  0.40888482292E+02  0.10319106665E+02 -0.22234329295E+04  0.22238328048E+04  0.00000000000E+00 0. -1.
         22    1    1    2    0    0  0.10697450947E+02 -0.25416078073E+02  0.15386623464E+02  0.31577850829E+02  0.00000000000E+00 0.  1.
         22    1    1    2    0    0 -0.28289323816E+02 -0.28477531157E+01 -0.15645990584E+03  0.15902231817E+03  0.00000000000E+00 0. -1.
</event>
<event>
 6    1  0.3240171E-005  0.2373827E+03  0.7818608E-02  0.1236409E+00
          2   -1    0    0  502    0  0.00000000000E+00  0.00000000000E+00  0.29225278250E+03  0.29225278250E+03  0.00000000000E+00 0.  1.
          1   -1    0    0  501    0 -0.00000000000E+00 -0.00000000000E+00 -0.18989226812E+03  0.18989226812E+03  0.00000000000E+00 0.  1.
          2    1    1    2  501    0  0.72788610354E+02  0.55148955191E+02  0.25135067322E+02  0.94717266985E+02  0.00000000000E+00 0.  1.
          1    1    1    2  502    0  0.15217200130E+02  0.36711982830E+02 -0.11836982398E+03  0.12486291720E+03  0.00000000000E+00 0.  1.
         22    1    1    2    0    0 -0.10570801048E+03 -0.93264983276E+02  0.12066829944E+03  0.18556233205E+03  0.00000000000E+00 0.  1.
         22    1    1    2    0    0  0.17702200001E+02  0.14040452558E+01  0.74926971602E+02  0.77002534383E+02  0.00000000000E+00 0.  1.
</event>
<event>
 6    1  0.3240171E-005  0.7380669E+02  0.7818608E-02  0.1351716E+00
          2   -1    0    0  502    0  0.00000000000E+00  0.00000000000E+00  0.10372670528E+03  0.10372670528E+03  0.00000000000E+00 0.  1.
          1   -1    0    0  501    0 -0.00000000000E+00 -0.00000000000E+00 -0.13801424105E+04  0.13801424105E+04  0.00000000000E+00 0. -1.
          2    1    1    2  501    0  0.81952426574E+00  0.24087952523E+02  0.21733669278E+01  0.24199681828E+02  0.00000000000E+00 0.  1.
          1    1    1    2  502    0 -0.11287112114E+02  0.26345520051E+02 -0.13155091069E+04  0.13158213008E+04  0.00000000000E+00 0. -1.
         22    1    1    2    0    0 -0.23108937882E+01  0.37120760009E+02  0.40893411120E+02  0.55277139279E+02  0.00000000000E+00 0.  1.
         22    1    1    2    0    0  0.12778481637E+02 -0.87554232582E+02 -0.39733763725E+01  0.88570993874E+02  0.00000000000E+00 0.  1.
</event>
<event>
 6    1  0.3240171E-005  0.8434038E+02  0.7818608E-02  0.1436993E+00
          2   -1    0    0  502    0  0.00000000000E+00  0.00000000000E+00  0.39488549874E+02  0.39488549874E+02  0.00000000000E+00 0. -1.
          1   -1    0    0  501    0 -0.00000000000E+00 -0.00000000000E+00 -0.12041833631E+04  0.12041833631E+04  0.00000000000E+00 0.  1.
          2    1    1    2  501    0  0.33277550496E+02  0.26034651333E+02 -0.16144938885E+03  0.16688649915E+03  0.00000000000E+00 0. -1.
          1    1    1    2  502    0  0.37627929825E+01 -0.27131489566E+02 -0.92777211511E+03  0.92817637004E+03  0.00000000000E+00 0.  1.
         22    1    1    2    0    0  0.56712972972E+01 -0.10347504829E+02  0.31080230430E+02  0.33244776925E+02  0.00000000000E+00 0. -1.
         22    1    1    2    0    0 -0.42711640776E+02  0.11444343062E+02 -0.10655353971E+03  0.11536426687E+03  0.00000000000E+00 0. -1.
</event>
<event>
 6    1  0.3240171E-005  0.9262897E+02  0.7818608E-02  0.1306674E+00
          2   -1    0    0  502    0  0.00000000000E+00  0.00000000000E+00  0.42590148574E+03  0.42590148574E+03  0.00000000000E+00 0. -1.
          1   -1    0    0  501    0 -0.00000000000E+00 -0.00000000000E+00 -0.37895890770E+02  0.37895890770E+02  0.00000000000E+00 0. -1.
          2    1    1    2  501    0 -0.35787574681E+02 -0.22838696035E+02  0.52112264624E+02  0.67216401736E+02  0.00000000000E+00 0. -1.
          1    1    1    2  502    0  0.14562739175E+02  0.47598630600E+02  0.16598160149E+02  0.52470962709E+02  0.00000000000E+00 0. -1.
         22    1    1    2    0    0 -0.46100713995E+02 -0.24121684487E+02  0.20461206789E+03  0.21112373107E+03  0.00000000000E+00 0. -1.
         22    1    1    2    0    0  0.67325549501E+02 -0.63825007752E+00  0.11468310230E+03  0.13298628099E+03  0.00000000000E+00 0.  1.
</event>
<event>
 6    1  0.3240171E-005  0.2339433E+03  0.7818608E-02  0.1207530E+00
          2   -1    0    0  502    0  0.00000000000E+00  0.00000000000E+00  0.37143475535E+03  0.37143475535E+03  0.00000000000E+00 0. -1.
          1   -1    0    0  501    0 -0.00000000000E+00 -0.00000000000E+00 -0.68849318796E+03  0.68849318796E+03  0.00000000000E+00 0.  1.
          2    1    1    2  501    0 -0.58359659464E+02  0.42355873193E+02  0.12303260110E+01  0.72120618056E+02  0.00000000000E+00 0. -1.
          1    1    1    2  502    0  0.24748847726E+02  0.40049037927E+02 -0.63478338810E+03  0.63652681068E+03  0.00000000000E+00 0.  1.
         22    1    1    2    0    0  0.25644325306E+02 -0.11541357280E+03  0.25359106944E+03  0.27979698838E+03  0.00000000000E+00 0. -1.
         22    1    1    2    0    0  0.79664864332E+01  0.33008661685E+02  0.62903560034E+02  0.71483526195E+02  0.00000000000E+00 0.  1.
</event>
<event>
 6    1  0.3240171E-005  0.9358790E+02  0.7818608E-02  0.1302808E+00
          2   -1    0    0  502    0  0.00000000000E+00  0.00000000000E+00  0.11507804523E+03  0.11507804523E+03  0.00000000000E+00 0.  1.
          1   -1    0    0  501    0 -0.00000000000E+00 -0.00000000000E+00 -0.24529993480E+03  0.24529993480E+03  0.00000000000E+00 0.  1.
          2    1    1    2  501    0 -0.59503749984E+02 -0.40398970285E+02  0.16364458959E+02  0.73760210000E+02  0.00000000000E+00 0.  1.
          1    1    1    2  502    0  0.24152526371E+02  0.53697403465E+02 -0.14715585094E+03  0.15849794994E+03  0.00000000000E+00 0.  1.
         22    1    1    2    0    0  0.66220379862E+02  0.20732957926E+02  0.27753269639E+02  0.74734451420E+02  0.00000000000E+00 0.  1.
         22    1    1    2    0    0 -0.30869156249E+02 -0.34031391106E+02 -0.27183767221E+02  0.53385368674E+02  0.00000000000E+00 0.  1.
</event>
<event>
 6    1  0.3240171E-005  0.1051281E+03  0.7818608E-02  0.1352287E+00
          2   -1    0    0  502    0  0.00000000000E+00  0.00000000000E+00  0.14372938425E+02  0.14372938425E+02  0.00000000000E+00 0. -1.
          1   -1    0    0  501    0 -0.00000000000E+00 -0.00000000000E+00 -0.96194090449E+03  0.96194090449E+03  0.00000000000E+00 0. -1.
          2    1    1    2  501    0 -0.12998505296E+02 -0.16394783158E+02 -0.48416095891E+02  0.52743420405E+02  0.00000000000E+00 0. -1.
          1    1    1    2  502    0 -0.41064423951E+02 -0.26963900467E+02 -0.45266168780E+03  0.45531960472E+03  0.00000000000E+00 0. -1.
         22    1    1    2    0    0  0.77305016696E+02  0.47335857376E+02 -0.43006496564E+03  0.43951407676E+03  0.00000000000E+00 0. -1.
         22    1    1    2    0    0 -0.23242087449E+02 -0.39771737522E+01 -0.16425216735E+02  0.28736741027E+02  0.00000000000E+00 0. -1.
</event>
<event>
 6    1  0.3240171E-005  0.1118884E+03  0.7818608E-02  0.1265170E+00
          2   -1    0    0  502    0  0.00000000000E+00  0.00000000000E+00  0.54161007428E+03  0.54161007428E+03  0.00000000000E+00 0. -1.
          1   -1    0    0  501    0 -0.00000000000E+00 -0.00000000000E+00 -0.38006773048E+03  0.38006773048E+03  0.00000000000E+00 0.  1.
          2    1    1    2  501    0 -0.36926673275E+02  0.36495841253E+02 -0.28633344224E+01  0.51997349085E+02  0.00000000000E+00 0. -1.
          1    1    1    2  502    0 -0.41858747228E+02  0.13549599273E+02 -0.33919869944E+03  0.34204020825E+03  0.00000000000E+00 0.  1.
         22    1    1    2    0    0  0.64881555104E+02 -0.76660420146E+02  0.47720181946E+03  0.48765562922E+03  0.00000000000E+00 0. -1.
         22    1    1    2    0    0  0.13903865398E+02  0.26614979620E+02  0.26402558210E+02  0.39984618208E+02  0.00000000000E+00 0. -1.
</event>
<event>
 6    1  0.3240171E-005  0.9656909E+02  0.7818608E-02  0.1403227E+00
          2   -1    0    0  502    0  0.00000000000E+00  0.00000000000E+00  0.60301561656E+02  0.60301561656E+02  0.00000000000E+00 0.  1.
          1   -1    0    0  501    0 -0.00000000000E+00 -0.00000000000E+00 -0.15320027668E+04  0.15320027668E+04  0.00000000000E+00 0. -1.
          2    1    1    2  501    0  0.45056612145E+02 -0.54747577761E+01 -0.82475821989E+02  0.94139962202E+02  0.00000000000E+00 0.  1.
          1    1    1    2  502    0 -0.84375011778E+02  0.38011377520E+02 -0.13519835341E+04  0.13551470340E+04  0.00000000000E+00 0. -1.
         22    1    1    2    0    0  0.13192977978E+02 -0.73465035883E+00  0.47234801846E+02  0.49048148635E+02  0.00000000000E+00 0. -1.
         22    1    1    2    0    0  0.26125421655E+02 -0.31801969385E+02 -0.84476650979E+02  0.93969183641E+02  0.00000000000E+00 0. -1.
</event>
<event>
 6    1  0.3240171E-005  0.1085177E+04  0.7818608E-02  0.1053768E+00
          2   -1    0    0  502    0  0.00000000000E+00  0.00000000000E+00  0.65624121390E+03  0.65624121390E+03  0.00000000000E+00 0. -1.
          1   -1    0    0  501    0 -0.00000000000E+00 -0.00000000000E+00 -0.14142955247E+04  0.14142955247E+04  0.00000000000E+00 0. -1.
          2    1    1    2  501    0  0.13306364521E+03 -0.17079767736E+03 -0.44033451975E+03  0.49068550982E+03  0.00000000000E+00 0. -1.
          1    1    1    2  502    0 -0.52769146785E+03  0.22906379122E+03 -0.77141398503E+03  0.96229311646E+03  0.00000000000E+00 0. -1.
         22    1    1    2    0    0  0.39692122970E+03 -0.73145334257E+02  0.44154098314E+03  0.59820994835E+03  0.00000000000E+00 0. -1.
         22    1    1    2    0    0 -0.22934070548E+01  0.14879220402E+02  0.12153210830E+02  0.19348163974E+02  0.00000000000E+00 0.  1.
</event>
<event>
 6    1  0.3240171E-005  0.1831845E+03  0.7818608E-02  0.1291466E+00
          2   -1    0    0  502    0  0.00000000000E+00  0.00000000000E+00  0.17311531686E+03  0.17311531686E+03  0.00000000000E+00 0.  1.
          1   -1    0    0  501    0 -0.00000000000E+00 -0.00000000000E+00 -0.43746860371E+03  0.43746860371E+03  0.00000000000E+00 0. -1.
          2    1    1    2  501    0  0.64450966014E+02 -0.50778981084E+02 -0.11470545312E+02  0.82849292996E+02  0.00000000000E+00 0.  1.
          1    1    1    2  502    0 -0.15951355131E+03  0.98364794602E+01 -0.31327765649E+03  0.35168767314E+03  0.00000000000E+00 0. -1.
         22    1    1    2    0    0  0.10310282894E+03  0.30500599899E+02 -0.66441971739E+01  0.10772476636E+03  0.00000000000E+00 0.  1.
         22    1    1    2    0    0 -0.80402436526E+01  0.10441901725E+02  0.67039112127E+02  0.68322188083E+02  0.00000000000E+00 0.  1.
</event>
<event>
 6    1  0.3240171E-005  0.1157598E+03  0.7818608E-02  0.1304582E+00
          2   -1    0    0  502    0  0.00000000000E+00  0.00000000000E+00  0.77432911803E+02  0.77432911803E+02  0.00000000000E+00 0.  1.
          1   -1    0    0  501    0 -0.00000000000E+00 -0.00000000000E+00 -0.35125541358E+03  0.35125541358E+03  0.00000000000E+00 0. -1.
          2    1    1    2  501    0 -0.10376801312E+02  0.40704832039E+02 -0.20500188071E+01  0.42056675260E+02  0.00000000000E+00 0.  1.
          1    1    1    2  502    0 -0.44036876102E+00 -0.10524233870E+03 -0.20531352466E+03  0.23071581477E+03  0.00000000000E+00 0. -1.
         22    1    1    2    0    0 -0.10541374843E+02  0.99506152102E+02 -0.47676904596E+02  0.11084079629E+03  0.00000000000E+00 0. -1.
         22    1    1    2    0    0  0.21358544915E+02 -0.34968645438E+02 -0.18782053720E+02  0.45075039064E+02  0.00000000000E+00 0.  1.
</event>
<event>
 6    1  0.3240171E-005  0.1113373E+03  0.7818608E-02  0.1284915E+00
          2   -1    0    0  502    0  0.00000000000E+00  0.00000000000E+00  0.26348537257E+03  0.26348537257E+03  0.00000000000E+00 0. -1.
          1   -1    0    0  501    0 -0.00000000000E+00 -0.00000000000E+00 -0.67166136548E+03  0.67166136548E+03  0.00000000000E+00 0.  1.
          2    1    1    2  501    0  0.56447016898E+02  0.19178583780E+02  0.33625060764E+02  0.68445076549E+02  0.00000000000E+00 0. -1.
          1    1    1    2  502    0 -0.55774373999E+02 -0.65161004484E+02 -0.63121060177E+03  0.63701142933E+03  0.00000000000E+00 0.  1.
         22    1    1    2    0    0  0.61675955024E+01 -0.40194791185E+02  0.84311749155E+02  0.93606257902E+02  0.00000000000E+00 0. -1.
         22    1    1    2    0    0 -0.68402384013E+01  0.86177211889E+02  0.10509779895E+03  0.13608397427E+03  0.00000000000E+00 0. -1.
</event>
<event>
 6    1  0.3240171E-005  0.1309402E+03  0.7818608E-02  0.1304329E+00
          2   -1    0    0  502    0  0.00000000000E+00  0.00000000000E+00  0.43020399761E+02  0.43020399761E+02  0.00000000000E+00 0. -1.
          1   -1    0    0  501    0 -0.00000000000E+00 -0.00000000000E+00 -0.54585768763E+03  0.54585768763E+03  0.00000000000E+00 0. -1.
          2    1    1    2  501    0 -0.17129144015E+02 -0.69981877812E+02 -0.35520701160E+03  0.36244019077E+03  0.00000000000E+00 0. -1.
          1    1    1    2  502    0  0.19370645877E+01  0.43982623115E+02 -0.19851310883E+02  0.48293870202E+02  0.00000000000E+00 0. -1.
         22    1    1    2    0    0 -0.27737084515E+02 -0.63023851489E+01  0.10087299978E+02  0.30179786891E+02  0.00000000000E+00 0. -1.
         22    1    1    2    0    0  0.42929163942E+02  0.32301639846E+02 -0.13786626536E+03  0.14796423952E+03  0.00000000000E+00 0.  1.
</event>
<event>
 6    1  0.3240171E-005  0.1369727E+03  0.7818608E-02  0.1219105E+00
          2   -1    0    0  502    0  0.00000000000E+00  0.00000000000E+00  0.70037144139E+03  0.70037144139E+03  0.00000000000E+00 0.  1.
          1   -1    0    0  501    0 -0.00000000000E+00 -0.00000000000E+00 -0.86807212381E+02  0.86807212381E+02  0.00000000000E+00 0.  1.
          2    1    1    2  501    0  0.36862770632E+02 -0.99408002468E+02  0.42486522303E+03  0.43789413396E+03  0.00000000000E+00 0.  1.
          1    1    1    2  502    0  0.40797931024E+02  0.17626429788E+01 -0.41595020800E+02  0.58289997782E+02  0.00000000000E+00 0.  1.
         22    1    1    2    0    0 -0.96237070852E+02  0.11371692296E+03  0.17086509688E+03  0.22668920068E+03  0.00000000000E+00 0.  1.
         22    1    1    2    0    0  0.18576369196E+02 -0.16071563475E+02  0.59428929896E+02  0.64305321348E+02  0.00000000000E+00 0.  1.
</event>
<event>
 6    1  0.3240171E-005  0.8759084E+02  0.7818608E-02  0.1344178E+00
          2   -1    0    0  502    0  0.00000000000E+00  0.00000000000E+00  0.16198893671E+03  0.16198893671E+03  0.00000000000E+00 0.  1.
          1   -1    0    0  501    0 -0.00000000000E+00 -0.00000000000E+00 -0.69375620935E+03  0.69375620935E+03  0.00000000000E+00 0.  1.
          2    1    1    2  501    0  0.40423126323E+02  0.99121422966E+01 -0.14909712151E+02  0.44210623419E+02  0.00000000000E+00 0.  1.
          1    1    1    2  502    0 -0.65649152480E+02 -0.19732184199E+02 -0.63394344481E+03  0.63763897429E+03  0.00000000000E+00 0.  1.
         22    1    1    2    0    0  0.50365835712E+02  0.49336285810E+02  0.33444592181E+02  0.78034141570E+02  0.00000000000E+00 0. -1.
         22    1    1    2    0    0 -0.25139809555E+02 -0.39516243907E+02  0.83641292151E+02  0.95861406779E+02  0.00000000000E+00 0.  1.
</event>
<event>
 6    1  0.3240171E-005  0.1877786E+03  0.7818608E-02  0.1240901E+00
          2   -1    0    0  502    0  0.00000000000E+00  0.00000000000E+00  0.81742439674E+02  0.81742439674E+02  0.00000000000E+00 0. -1.
          1   -1    0    0  501    0 -0.00000000000E+00 -0.00000000000E+00 -0.82330133386E+03  0.82330133386E+03  0.00000000000E+00 0.  1.
          2    1    1    2  501    0 -0.28337858312E+02 -0.47115349791E+02 -0.69622124809E+02  0.88713756896E+02  0.00000000000E+00 0. -1.
          1    1    1    2  502    0 -0.82815947426E+02  0.72178876203E+02 -0.62946763563E+03  0.63898182730E+03  0.00000000000E+00 0.  1.
         22    1    1    2    0    0 -0.12566770610E+02 -0.30233153894E+02  0.20295710622E+02  0.38521204389E+02  0.00000000000E+00 0. -1.
         22    1    1    2    0    0  0.12372057635E+03  0.51696274820E+01 -0.62764844368E+02  0.13882698495E+03  0.00000000000E+00 0. -1.
</event>
<event>
 6    1  0.3240171E-005  0.1989016E+03  0.7818608E-02  0.1175261E+00
          2   -1    0    0  502    0  0.00000000000E+00  0.00000000000E+00  0.14071067013E+03  0.14071067013E+03  0.00000000000E+00 0. -1.
          1   -1    0    0  501    0 -0.00000000000E+00 -0.00000000000E+00 -0.75960193932E+03  0.75960193932E+03  0.00000000000E+00 0.  1.
          2    1    1    2  501    0 -0.66780653459E+02  0.12032673526E+03 -0.76399545787E+02  0.15740098313E+03  0.00000000000E+00 0. -1.
          1    1    1    2  502    0  0.35821978131E+02 -0.28129421988E+02 -0.58118521439E+03  0.58296717911E+03  0.00000000000E+00 0.  1.
         22    1    1    2    0    0 -0.10169330016E+02 -0.25986519151E+01  0.58460369735E+02  0.59395143693E+02  0.00000000000E+00 0. -1.
         22    1    1    2    0    0  0.41128005344E+02 -0.89598661356E+02 -0.19766878751E+02  0.10054930351E+03  0.00000000000E+00 0.  1.
</event>
<event>
 6    1  0.3240171E-005  0.1212283E+03  0.7818608E-02  0.1336270E+00
          2   -1    0    0  502    0  0.00000000000E+00  0.00000000000E+00  0.12399023562E+03  0.12399023562E+03  0.00000000000E+00 0. -1.
          1   -1    0    0  501    0 -0.00000000000E+00 -0.00000000000E+00 -0.38306697638E+03  0.38306697638E+03  0.00000000000E+00 0. -1.
          2    1    1    2  501    0 -0.34691926316E+02 -0.58975181205E+01 -0.21711076444E+03  0.21994407132E+03  0.00000000000E+00 0. -1.
          1    1    1    2  502    0  0.56913640983E+02 -0.12283306449E+02 -0.12419030709E+03  0.13716149066E+03  0.00000000000E+00 0. -1.
         22    1    1    2    0    0 -0.38156428373E+01 -0.19896613866E+02  0.10147944211E+03  0.10348193825E+03  0.00000000000E+00 0. -1.
         22    1    1    2    0    0 -0.18406071830E+02  0.38077438435E+02 -0.19255111344E+02  0.46469711758E+02  0.00000000000E+00 0. -1.
</event>
<event>
 6    1  0.3240171E-005  0.1223958E+03  0.7818608E-02  0.1324972E+00
          2   -1    0    0  502    0  0.00000000000E+00  0.00000000000E+00  0.12834402400E+03  0.12834402400E+03  0.00000000000E+00 0.  1.
          1   -1    0    0  501    0 -0.00000000000E+00 -0.00000000000E+00 -0.32243243565E+03  0.32243243565E+03  0.00000000000E+00 0.  1.
          2    1    1    2  501    0  0.77539496870E+02 -0.27256935493E+02 -0.77338798659E+02  0.11285656332E+03  0.00000000000E+00 0.  1.
          1    1    1    2  502    0 -0.12423479581E+03  0.39582756422E+02 -0.15021577143E+03  0.19891168161E+03  0.00000000000E+00 0.  1.
         22    1    1    2    0    0  0.28018505888E+02  0.27610336396E+01 -0.47137161263E+02  0.54905117711E+02  0.00000000000E+00 0.  1.
         22    1    1    2    0    0  0.18676793048E+02 -0.15086854568E+02  0.80603319704E+02  0.84103097009E+02  0.00000000000E+00 0.  1.
</event>
<event>
 6    1  0.3240171E-005  0.1117112E+03  0.7818608E-02  0.1297372E+00
          2   -1    0    0  502    0  0.00000000000E+00  0.00000000000E+00  0.18629676289E+03  0.18629676289E+03  0.00000000000E+00 0.  1.
          1   -1    0    0  501    0 -0.00000000000E+00 -0.00000000000E+00 -0.24385257510E+03  0.24385257510E+03  0.00000000000E+00 0. -1.
          2    1    1    2  501    0 -0.21963144667E+02  0.10358818010E+02  0.65063095109E+02  0.69447038666E+02  0.00000000000E+00 0.  1.
          1    1    1    2  502    0 -0.19429473494E+02  0.90213302839E+01 -0.20523238110E+03  0.20634732635E+03  0.00000000000E+00 0. -1.
         22    1    1    2    0    0  0.51690081520E+02 -0.64391673243E+02  0.64407631771E+02  0.10472103485E+03  0.00000000000E+00 0.  1.
         22    1    1    2    0    0 -0.10297463358E+02  0.45011524950E+02  0.18205842005E+02  0.49633938117E+02  0.00000000000E+00 0.  1.
</event>
<event>
 6    1  0.3240171E-005  0.8818521E+02  0.7818608E-02  0.1313714E+00
          2   -1    0    0  502    0  0.00000000000E+00  0.00000000000E+00  0.21929457421E+03  0.21929457421E+03  0.00000000000E+00 0. -1.
          1   -1    0    0  501    0 -0.00000000000E+00 -0.00000000000E+00 -0.18133447477E+03  0.18133447477E+03  0.00000000000E+00 0. -1.
          2    1    1    2  501    0 -0.12914490741E+01 -0.60644933022E+02  0.94511489336E+02  0.11230270415E+03  0.00000000000E+00 0. -1.
          1    1    1    2  502    0  0.30126663307E+02  0.80000400853E+01 -0.12780375210E+03  0.13155004954E+03  0.00000000000E+00 0. -1.
         22    1    1    2    0    0 -0.20232397932E+02 -0.18137344287E+02  0.80419919087E+02  0.84886256661E+02  0.00000000000E+00 0. -1.
         22    1    1    2    0    0 -0.86028163013E+01  0.70782237224E+02 -0.91675568797E+01  0.71890038627E+02  0.00000000000E+00 0. -1.
</event>
<event>
 6    1  0.3240171E-005  0.7128669E+02  0.7818608E-02  0.1357327E+00
          2   -1    0    0  502    0  0.00000000000E+00  0.00000000000E+00  0.39196789045E+02  0.39196789045E+02  0.00000000000E+00 0.  1.
          1   -1    0    0  501    0 -0.00000000000E+00 -0.00000000000E+00 -0.71824168862E+03  0.71824168862E+03  0.00000000000E+00 0.  1.
          2    1    1    2  501    0 -0.67584805615E+02 -0.20390180263E+02 -0.42282994087E+03  0.42868242826E+03  0.00000000000E+00 0.  1.
          1    1    1    2  502    0  0.30372051478E+02 -0.16876577082E+02 -0.15863570652E+03  0.16239632923E+03  0.00000000000E+00 0.  1.
         22    1    1    2    0    0 -0.20686367697E+02  0.92974412017E+00 -0.95765426768E+02  0.97978605811E+02  0.00000000000E+00 0. -1.
         22    1    1    2    0    0  0.57899121834E+02  0.36337013225E+02 -0.18138254190E+01  0.68381114366E+02  0.00000000000E+00 0.  1.
</event>
<event>
 6    1  0.3240171E-005  0.7262349E+02  0.7818608E-02  0.1402265E+00
          2   -1    0    0  502    0  0.00000000000E+00  0.00000000000E+00  0.52251030437E+02  0.52251030437E+02  0.00000000000E+00 0. -1.
          1   -1    0    0  501    0 -0.00000000000E+00 -0.00000000000E+00 -0.43863612341E+03  0.43863612341E+03  0.00000000000E+00 0.  1.
          2    1    1    2  501    0 -0.15896919465E+02 -0.13679217586E+02 -0.87309012051E+02  0.89792519886E+02  0.00000000000E+00 0. -1.
          1    1    1    2  502    0  0.42077024677E+02  0.40397174073E+02 -0.26412325528E+03  0.27048752589E+03  0.00000000000E+00 0.  1.
         22    1    1    2    0    0  0.25287307714E+02 -0.18853292525E+02  0.32571671655E+02  0.45341022980E+02  0.00000000000E+00 0. -1.
         22    1    1    2    0    0 -0.51467412926E+02 -0.78646639619E+01 -0.67524497289E+02  0.85266085090E+02  0.00000000000E+00 0. -1.
</event>
<event>
 6    1  0.3240171E-005  0.1511854E+03  0.7818608E-02  0.1224105E+00
          2   -1    0    0  502    0  0.00000000000E+00  0.00000000000E+00  0.12916991548E+03  0.12916991548E+03  0.00000000000E+00 0.  1.
          1   -1    0    0  501    0 -0.00000000000E+00 -0.00000000000E+00 -0.29830579413E+03  0.29830579413E+03  0.00000000000E+00 0.  1.
          2    1    1    2  501    0  0.15980703634E+02 -0.22573224543E+02  0.16152994258E+02  0.32028933457E+02  0.00000000000E+00 0.  1.
          1    1    1    2  502    0 -0.94479089978E+02  0.13082540753E+03 -0.11774106260E+03  0.19976121626E+03  0.00000000000E+00 0.  1.
         22    1    1    2    0    0  0.87467365806E+02 -0.14207125450E+02 -0.24986391791E+02  0.92069008191E+02  0.00000000000E+00 0.  1.
         22    1    1    2    0    0 -0.89689794613E+01 -0.94045057539E+02 -0.42561418514E+02  0.10361655170E+03  0.00000000000E+00 0. -1.
</event>
<event>
 6    1  0.3240171E-005  0.2547225E+03  0.7818608E-02  0.1235795E+00
          2   -1    0    0  502    0  0.00000000000E+00  0.00000000000E+00  0.15162876597E+03  0.15162876597E+03  0.00000000000E+00 0.  1.
          1   -1    0    0  501    0 -0.00000000000E+00 -0.00000000000E+00 -0.54552773473E+03  0.54552773473E+03  0.00000000000E+00 0.  1.
          2    1    1    2  501    0 -0.33737311758E+02 -0.25975604228E+02  0.10438072317E+02  0.43839383815E+02  0.00000000000E+00 0.  1.
          1    1    1    2  502    0  0.12593850500E+03  0.20887033769E+03 -0.31065880861E+03  0.39496356841E+03  0.00000000000E+00 0.  1.
         22    1    1    2    0    0 -0.84271168005E+02 -0.17069076427E+03 -0.12228774239E+03  0.22625485344E+03  0.00000000000E+00 0.  1.
         22    1    1    2    0    0 -0.79300252340E+01 -0.12203969195E+02  0.28609509923E+02  0.32098695025E+02  0.00000000000E+00 0.  1.
</event>
<event>
 6    1  0.3240171E-005  0.1186709E+03  0.7818608E-02  0.1283613E+00
          2   -1    0    0  502    0  0.00000000000E+00  0.00000000000E+00  0.27340818449E+03  0.27340818449E+03  0.00000000000E+00 0. -1.
          1   -1    0    0  501    0 -0.00000000000E+00 -0.00000000000E+00 -0.61454735094E+03  0.61454735094E+03  0.00000000000E+00 0.  1.
          2    1    1    2  501    0 -0.81919748938E+02 -0.94784412632E+02 -0.40155437862E+02  0.13155755141E+03  0.00000000000E+00 0. -1.
          1    1    1    2  502    0  0.10098692584E+03  0.46041032069E+02 -0.50209377819E+03  0.51421425294E+03  0.00000000000E+00 0.  1.
         22    1    1    2    0    0  0.62336474178E+01  0.55840106991E+02  0.20763958804E+03  0.21510735560E+03  0.00000000000E+00 0. -1.
         22    1    1    2    0    0 -0.25300824317E+02 -0.70967264273E+01 -0.65295384434E+01  0.27076375485E+02  0.00000000000E+00 0. -1.
</event>
<event>
 6    1  0.3240171E-005  0.1792180E+03  0.7818608E-02  0.1169412E+00
          2   -1    0    0  502    0  0.00000000000E+00  0.00000000000E+00  0.11821842500E+04  0.11821842500E+04  0.00000000000E+00 0. -1.
          1   -1    0    0  501    0 -0.00000000000E+00 -0.00000000000E+00 -0.30268918297E+03  0.30268918297E+03  0.00000000000E+00 0.  1.
          2    1    1    2  501    0 -0.16854298919E+03  0.58408695814E+02  0.62538268801E+03  0.65032439706E+03  0.00000000000E+00 0. -1.
          1    1    1    2  502    0  0.29872238840E+02 -0.75274500593E+02 -0.26849127607E+03  0.28043923837E+03  0.00000000000E+00 0.  1.
         22    1    1    2    0    0 -0.20766802673E+02 -0.41648813479E+01  0.93277896001E+02  0.95652350793E+02  0.00000000000E+00 0. -1.
         22    1    1    2    0    0  0.15943755302E+03  0.21030686126E+02  0.42932575905E+03  0.45845744672E+03  0.00000000000E+00 0. -1.
</event>
<event>
 6    1  0.3240171E-005  0.2980436E+03  0.7818608E-02  0.1187062E+00
          2   -1    0    0  502    0  0.00000000000E+00  0.00000000000E+00  0.61874705782E+03  0.61874705782E+03  0.00000000000E+00 0.  1.
          1   -1    0    0  501    0 -0.00000000000E+00 -0.00000000000E+00 -0.74717178773E+02  0.74717178773E+02  0.00000000000E+00 0.  1.
          2    1    1    2  501    0  0.52343653168E+02  0.35415124415E+02 -0.88384125564E+01  0.63813843332E+02  0.00000000000E+00 0.  1.
          1    1    1    2  502    0  0.30484349445E+02  0.50913153142E+02  0.97021282332E+01  0.60129660037E+02  0.00000000000E+00 0.  1.
         22    1    1    2    0    0 -0.10395747337E+03 -0.10090118437E+03  0.44135484196E+03  0.46452373653E+03  0.00000000000E+00 0.  1.
         22    1    1    2    0    0  0.21129470761E+02  0.14572906816E+02  0.10181132141E+03  0.10499699670E+03  0.00000000000E+00 0.  1.
</event>
<event>
 6    1  0.3240171E-005  0.1707856E+03  0.7818608E-02  0.1283357E+00
          2   -1    0    0  502    0  0.00000000000E+00  0.00000000000E+00  0.11087422113E+03  0.11087422113E+03  0.00000000000E+00 0.  1.
          1   -1    0    0  501    0 -0.00000000000E+00 -0.00000000000E+00 -0.26372648608E+03  0.26372648608E+03  0.00000000000E+00 0.  1.
          2    1    1    2  501    0  0.44568133321E+01  0.76657023721E+02  0.67784495246E+01  0.77085081883E+02  0.00000000000E+00 0.  1.
          1    1    1    2  502    0 -0.32010870122E+02 -0.30794436507E+01 -0.14306413069E+03  0.14663398061E+03  0.00000000000E+00 0.  1.
         22    1    1    2    0    0 -0.18897962984E+02  0.12866829030E+01  0.41324987090E+02  0.45459246759E+02  0.00000000000E+00 0.  1.
         22    1    1    2    0    0  0.46452019774E+02 -0.74864262974E+02 -0.57891570872E+02  0.10542239795E+03  0.00000000000E+00 0.  1.
</event>
<event>
 6    1  0.3240171E-005  0.1020516E+03  0.7818608E-02  0.1280270E+00
          2   -1    0    0  502    0  0.00000000000E+00  0.00000000000E+00  0.33884828847E+03  0.33884828847E+03  0.00000000000E+00 0.  1.
          1   -1    0    0  501    0 -0.00000000000E+00 -0.00000000000E+00 -0.16086914269E+03  0.16086914269E+03  0.00000000000E+00 0.  1.
          2    1    1    2  501    0  0.53563420592E+02 -0.13823376714E+02 -0.35035775281E+02  0.65480007016E+02  0.00000000000E+00 0.  1.
          1    1    1    2  502    0  0.23892783889E+02  0.38715073748E+01 -0.92807734084E+02  0.95912090985E+02  0.00000000000E+00 0.  1.
         22    1    1    2    0    0  0.15159950287E+02 -0.17586334107E+02  0.69719137137E+01  0.24242747799E+02  0.00000000000E+00 0. -1.
         22    1    1    2    0    0 -0.92616154767E+02  0.27538203446E+02  0.29885074143E+03  0.31408258536E+03  0.00000000000E+00 0.  1.
</event>
<event>
 6    1  0.3240171E-005  0.1103099E+03  0.7818608E-02  0.1355228E+00
          2   -1    0    0  502    0  0.00000000000E+00  0.00000000000E+00  0.13267521033E+03  0.13267521033E+03  0.00000000000E+00 0. -1.
          1   -1    0    0  501    0 -0.00000000000E+00 -0.00000000000E+00 -0.76788114570E+03  0.76788114570E+03  0.00000000000E+00 0. -1.
          2    1    1    2  501    0 -0.14363828223E+02 -0.45602495013E+02 -0.84550987974E+02  0.97132778607E+02  0.00000000000E+00 0. -1.
          1    1    1    2  502    0  0.72922944264E+02  0.33666353485E+02 -0.63608324613E+03  0.64113420995E+03  0.00000000000E+00 0. -1.
         22    1    1    2    0    0 -0.40065485094E+02  0.17853437172E+02 -0.24783170348E+02  0.50380490740E+02  0.00000000000E+00 0. -1.
         22    1    1    2    0    0 -0.18493630946E+02 -0.59172956438E+01  0.11021146909E+03  0.11190887673E+03  0.00000000000E+00 0. -1.
</event>
<event>
 6    1  0.3240171E-005  0.9171546E+02  0.7818608E-02  0.1318224E+00
          2   -1    0    0  502    0  0.00000000000E+00  0.00000000000E+00  0.38146598955E+03  0.38146598955E+03  0.00000000000E+00 0. -1.
          1   -1    0    0  501    0 -0.00000000000E+00 -0.00000000000E+00 -0.14683998797E+03  0.14683998797E+03  0.00000000000E+00 0.  1.
          2    1    1    2  501    0  0.10920187487E+02  0.52111682489E+02 -0.12259574366E+02  0.54636756037E+02  0.00000000000E+00 0. -1.
          1    1    1    2  502    0  0.92945634232E+01 -0.40604183422E+02 -0.98623020915E+02  0.10705881036E+03  0.00000000000E+00 0.  1.
         22    1    1    2    0    0 -0.41908161465E+02 -0.46398162205E+02  0.29474916288E+03  0.30130740528E+03  0.00000000000E+00 0. -1.
         22    1    1    2    0    0  0.21693410555E+02  0.34890663139E+02  0.50759433972E+02  0.65303005849E+02  0.00000000000E+00 0.  1.
</event>
<event>
 6    1  0.3240171E-005  0.8368559E+02  0.7818608E-02  0.1322411E+00
          2   -1    0    0  502    0  0.00000000000E+00  0.00000000000E+00  0.12873721535E+02  0.12873721535E+02  0.00000000000E+00 0.  1.
          1   -1    0    0  501    0 -0.00000000000E+00 -0.00000000000E+00 -0.14378547113E+04  0.14378547113E+04  0.00000000000E+00 0.  1.
          2    1    1    2  501    0  0.97389318939E+01  0.27320447278E+02 -0.41734068380E+02  0.50823086265E+02  0.00000000000E+00 0.  1.
          1    1    1    2  502    0  0.21983942362E+02 -0.42371398807E+01 -0.85437420752E+03  0.85466749883E+03  0.00000000000E+00 0.  1.
         22    1    1    2    0    0  0.10641390341E+02  0.47555835945E+02 -0.15878911411E+03  0.16609870403E+03  0.00000000000E+00 0.  1.
         22    1    1    2    0    0 -0.42364264597E+02 -0.70639143343E+02 -0.37008359972E+03  0.37913914368E+03  0.00000000000E+00 0.  1.
</event>
<event>
 6    1  0.3240171E-005  0.7211965E+02  0.7818608E-02  0.1358434E+00
          2   -1    0    0  502    0  0.00000000000E+00  0.00000000000E+00  0.66412856519E+03  0.66412856519E+03  0.00000000000E+00 0. -1.
          1   -1    0    0  501    0 -0.00000000000E+00 -0.00000000000E+00 -0.21085487804E+02  0.21085487804E+02  0.00000000000E+00 0. -1.
          2    1    1    2  501    0  0.10011558159E+01  0.27349093171E+02  0.13830971495E+02  0.30663838356E+02  0.00000000000E+00 0. -1.
          1    1    1    2  502    0  0.38852936860E+02 -0.30610946922E+02  0.22312127876E+03  0.22853814957E+03  0.00000000000E+00 0. -1.
         22    1    1    2    0    0  0.14738070729E+02  0.43263546989E+02  0.73093637241E+02  0.86206873462E+02  0.00000000000E+00 0. -1.
         22    1    1    2    0    0 -0.54592163405E+02 -0.40001693238E+02  0.33299718989E+03  0.33980519160E+03  0.00000000000E+00 0. -1.
</event>
<event>
 6    1  0.3240171E-005  0.4988053E+02  0.7818608E-02  0.1453798E+00
          2   -1    0    0  502    0  0.00000000000E+00  0.00000000000E+00  0.68094823217E+02  0.68094823217E+02  0.00000000000E+00 0. -1.
          1   -1    0    0  501    0 -0.00000000000E+00 -0.00000000000E+00 -0.31226606627E+03  0.31226606627E+03  0.00000000000E+00 0. -1.
          2    1    1    2  501    0  0.23989589001E+02 -0.23275583492E+02 -0.20561547694E+03  0.20831461188E+03  0.00000000000E+00 0. -1.
          1    1    1    2  502    0 -0.12892749137E+02 -0.20704359229E+02 -0.34414994165E+02  0.42181575300E+02  0.00000000000E+00 0. -1.
         22    1    1    2    0    0  0.88224372721E+01 -0.21386004629E+02 -0.44749243664E+02  0.50375503987E+02  0.00000000000E+00 0. -1.
         22    1    1    2    0    0 -0.19919277136E+02  0.65365947350E+02  0.40608471713E+02  0.79489198319E+02  0.00000000000E+00 0. -1.
</event>
<event>
 6    1  0.3240171E-005  0.5799241E+02  0.7818608E-02  0.1408420E+00
          2   -1    0    0  502    0  0.00000000000E+00  0.00000000000E+00  0.31517233171E+02  0.31517233171E+02  0.00000000000E+00 0. -1.
          1   -1    0    0  501    0 -0.00000000000E+00 -0.00000000000E+00 -0.40023096901E+03  0.40023096901E+03  0.00000000000E+00 0. -1.
          2    1    1    2  501    0  0.15427780245E+02 -0.30926196628E+02 -0.17337360226E+03  0.17678476179E+03  0.00000000000E+00 0. -1.
          1    1    1    2  502    0 -0.26226626617E+02  0.95509946613E+01 -0.51495732544E+01  0.28382662797E+02  0.00000000000E+00 0. -1.
         22    1    1    2    0    0  0.15089443209E+01 -0.33363525301E+02 -0.15986692401E+03  0.16331820207E+03  0.00000000000E+00 0. -1.
         22    1    1    2    0    0  0.92899020514E+01  0.54738727268E+02 -0.30323636314E+02  0.63262575528E+02  0.00000000000E+00 0.  1.
</event>
<event>
 6    1  0.3240171E-005  0.7262647E+02  0.7818608E-02  0.1353779E+00
          2   -1    0    0  502    0  0.00000000000E+00  0.00000000000E+00  0.23528161592E+02  0.23528161592E+02  0.00000000000E+00 0.  1.
          1   -1    0    0  501    0 -0.00000000000E+00 -0.00000000000E+00 -0.13313966497E+04  0.13313966497E+04  0.00000000000E+00 0.  1.
          2    1    1    2  501    0  0.62028264233E+02 -0.28159630457E+02 -0.37618245042E+03  0.38230054454E+03  0.00000000000E+00 0.  1.
          1    1    1    2  502    0 -0.33709086835E+02  0.10920164461E+02 -0.75712626664E+03  0.75795496974E+03  0.00000000000E+00 0.  1.
         22    1    1    2    0    0  0.33359226698E+02 -0.61923730039E+01 -0.13167867984E+03  0.13597962426E+03  0.00000000000E+00 0.  1.
         22    1    1    2    0    0 -0.61678404095E+02  0.23431839000E+02 -0.42881091162E+02  0.78689672702E+02  0.00000000000E+00 0.  1.
</event>
<event>
 6    1  0.3240171E-005  0.1660549E+03  0.7818608E-02  0.1230255E+00
          2   -1    0    0  502    0  0.00000000000E+00  0.00000000000E+00  0.71228162412E+02  0.71228162412E+02  0.00000000000E+00 0. -1.
          1   -1    0    0  501    0 -0.00000000000E+00 -0.00000000000E+00 -0.65244807296E+03  0.65244807296E+03  0.00000000000E+00 0. -1.
          2    1    1    2  501    0  0.11502646463E+03  0.53350774842E+02 -0.18555815179E+03  0.22474256481E+03  0.00000000000E+00 0. -1.
          1    1    1    2  502    0 -0.13862306972E+03 -0.45795799315E+02 -0.32625639524E+03  0.35743089700E+03  0.00000000000E+00 0. -1.
         22    1    1    2    0    0  0.12580433024E+02 -0.57506432569E+02 -0.47469038014E+01  0.59057515843E+02  0.00000000000E+00 0.  1.
         22    1    1    2    0    0  0.11016172072E+02  0.49951457042E+02 -0.64658459712E+02  0.82445257718E+02  0.00000000000E+00 0.  1.
</event>
<event>
 6    1  0.3240171E-005  0.7613794E+02  0.7818608E-02  0.1391471E+00
          2   -1    0    0  502    0  0.00000000000E+00  0.00000000000E+00  0.84356448860E+02  0.84356448860E+02  0.00000000000E+00 0. -1.
          1   -1    0    0  501    0 -0.00000000000E+00 -0.00000000000E+00 -0.37587175470E+03  0.37587175470E+03  0.00000000000E+00 0. -1.
          2    1    1    2  501    0  0.31863554928E+02  0.99916091173E+01 -0.20755741807E+01  0.33457830079E+02  0.00000000000E+00 0. -1.
          1    1    1    2  502    0 -0.28697107147E+02  0.18445619996E+00 -0.29808374195E+03  0.29946197621E+03  0.00000000000E+00 0. -1.
         22    1    1    2    0    0 -0.50634959333E+01  0.31798020408E+02  0.55629666543E+02  0.64276067806E+02  0.00000000000E+00 0. -1.
         22    1    1    2    0    0  0.18970481521E+01 -0.41974085725E+02 -0.46985656260E+02  0.63032329470E+02  0.00000000000E+00 0. -1.
</event>
<event>
 6    1  0.3240171E-005  0.6250222E+02  0.7818608E-02  0.1445106E+00
          2   -1    0    0  502    0  0.00000000000E+00  0.00000000000E+00  0.55883685826E+02  0.55883685826E+02  0.00000000000E+00 0. -1.
          1   -1    0    0  501    0 -0.00000000000E+00 -0.00000000000E+00 -0.26102526044E+03  0.26102526044E+03  0.00000000000E+00 0. -1.
          2    1    1    2  501    0 -0.22868023215E+02  0.15701835155E+02 -0.66277717465E+02  0.71848660011E+02  0.00000000000E+00 0. -1.
          1    1    1    2  502    0  0.13195109181E+02 -0.57688797634E+02 -0.79141393347E+02  0.98820384636E+02  0.00000000000E+00 0. -1.
         22    1    1    2    0    0 -0.11949797334E+02  0.22737931188E+02  0.37132411977E+02  0.45151159345E+02  0.00000000000E+00 0. -1.
         22    1    1    2    0    0  0.21622711368E+02  0.19249031290E+02 -0.96854875777E+02  0.10108874227E+03  0.00000000000E+00 0.  1.
</event>
<event>
 6    1  0.3240171E-005  0.8223849E+02  0.7818608E-02  0.1362154E+00
          2   -1    0    0  502    0  0.00000000000E+00  0.00000000000E+00  0.25996519615E+02  0.25996519615E+02  0.00000000000E+00 0.  1.
          1   -1    0    0  501    0 -0.00000000000E+00 -0.00000000000E+00 -0.58694945004E+03  0.58694945004E+03  0.00000000000E+00 0.  1.
          2    1    1    2  501    0 -0.59612141904E+01 -0.20687649505E+02 -0.20532110078E+03  0.20644677121E+03  0.00000000000E+00 0.  1.
          1    1    1    2  502    0 -0.48674906780E+02 -0.20303444398E+02 -0.69718083250E+02  0.87419034178E+02  0.00000000000E+00 0.  1.
         22    1    1    2    0    0  0.15125193555E+02  0.54328335849E+02 -0.26769859331E+03  0.27357426124E+03  0.00000000000E+00 0.  1.
         22    1    1    2    0    0  0.39510927416E+02 -0.13337241946E+02 -0.18215153082E+02  0.45505903021E+02  0.00000000000E+00 0.  1.
</event>
<event>
 6    1  0.3240171E-005  0.8278537E+02  0.7818608E-02  0.1327025E+00
          2   -1    0    0  502    0  0.00000000000E+00  0.00000000000E+00  0.74008860784E+03  0.74008860784E+03  0.00000000000E+00 0. -1.
          1   -1    0    0  501    0 -0.00000000000E+00 -0.00000000000E+00 -0.59375588514E+02  0.59375588514E+02  0.00000000000E+00 0. -1.
          2    1    1    2  501    0  0.14587402138E+02 -0.32037977165E+02  0.10368121224E+03  0.10949437453E+03  0.00000000000E+00 0. -1.
          1    1    1    2  502    0 -0.16232443392E+02  0.12710245333E+02 -0.47608480696E+02  0.51880728494E+02  0.00000000000E+00 0. -1.
         22    1    1    2    0    0  0.54912108458E+02 -0.23641288250E+02  0.23508978734E+03  0.24257258352E+03  0.00000000000E+00 0. -1.
         22    1    1    2    0    0 -0.53267067204E+02  0.42969020082E+02  0.38955050044E+03  0.39551650981E+03  0.00000000000E+00 0.  1.
</event>
<event>
 6    1  0.3240171E-005  0.8764814E+02  0.7818608E-02  0.1314096E+00
          2   -1    0    0  502    0  0.00000000000E+00  0.00000000000E+00  0.29267795142E+03  0.29267795142E+03  0.00000000000E+00 0. -1.
          1   -1    0    0  501    0 -0.00000000000E+00 -0.00000000000E+00 -0.49303881407E+03  0.49303881407E+03  0.00000000000E+00 0.  1.
          2    1    1    2  501    0  0.23235870797E+02  0.35927166880E+02 -0.27339986976E+01  0.42873555493E+02  0.00000000000E+00 0. -1.
          1    1    1    2  502    0  0.58793995346E+02 -0.31169717015E+02 -0.44675259133E+03  0.45168148402E+03  0.00000000000E+00 0.  1.
         22    1    1    2    0    0 -0.91631642163E+01  0.38441134581E+02  0.15148034634E+02  0.42321948911E+02  0.00000000000E+00 0.  1.
         22    1    1    2    0    0 -0.72866701927E+02 -0.43198584447E+02  0.23397769274E+03  0.24883977706E+03  0.00000000000E+00 0.  1.
</event>
<event>
 6    1  0.3240171E-005  0.8167682E+02  0.7818608E-02  0.1330622E+00
          2   -1    0    0  502    0  0.00000000000E+00  0.00000000000E+00  0.51784207840E+03  0.51784207840E+03  0.00000000000E+00 0. -1.
          1   -1    0    0  501    0 -0.00000000000E+00 -0.00000000000E+00 -0.15832251010E+03  0.15832251010E+03  0.00000000000E+00 0.  1.
          2    1    1    2  501    0  0.28433128633E+02 -0.11321485070E+02  0.85093791990E+02  0.90429930130E+02  0.00000000000E+00 0. -1.
          1    1    1    2  502    0 -0.21478279074E+02 -0.38402239494E+01 -0.14558188147E+03  0.14720783948E+03  0.00000000000E+00 0.  1.
         22    1    1    2    0    0  0.54749233197E+02  0.18902077118E+02  0.27253803236E+03  0.27862474071E+03  0.00000000000E+00 0. -1.
         22    1    1    2    0    0 -0.61704082757E+02 -0.37403680994E+01  0.14746962543E+03  0.15990207818E+03  0.00000000000E+00 0.  1.
</event>
<event>
 6    1  0.3240171E-005  0.5897979E+02  0.7818608E-02  0.1443549E+00
          2   -1    0    0  502    0  0.00000000000E+00  0.00000000000E+00  0.78605214915E+02  0.78605214915E+02  0.00000000000E+00 0. -1.
          1   -1    0    0  501    0 -0.00000000000E+00 -0.00000000000E+00 -0.42234159881E+03  0.42234159881E+03  0.00000000000E+00 0. -1.
          2    1    1    2  501    0  0.17768970276E+02 -0.11978151504E+02 -0.10152138201E+03  0.10375838965E+03  0.00000000000E+00 0. -1.
          1    1    1    2  502    0 -0.21210023752E+02  0.14995144407E+02 -0.26957975815E+03  0.27082829517E+03  0.00000000000E+00 0. -1.
         22    1    1    2    0    0 -0.19681644649E+02 -0.24265891930E+02 -0.40753177761E+02  0.51351943925E+02  0.00000000000E+00 0.  1.
         22    1    1    2    0    0  0.23122698125E+02  0.21248899027E+02  0.68117934021E+02  0.75008184978E+02  0.00000000000E+00 0. -1.
</event>
<event>
 6    1  0.3549581E-005  0.1036352E+03  0.7818608E-02  0.1280611E+00
          2   -1    0    0  502    0  0.00000000000E+00  0.00000000000E+00  0.43776678302E+03  0.43776678302E+03  0.00000000000E+00 0.  1.
          1   -1    0    0  501    0 -0.00000000000E+00 -0.00000000000E+00 -0.68370901735E+03  0.68370901735E+03  0.00000000000E+00 0.  1.
          2    1    1    2  501    0 -0.75261615561E+02 -0.23922569125E+02 -0.12774918784E+03  0.15018806572E+03  0.00000000000E+00 0.  1.
          1    1    1    2  502    0 -0.73901137111E+01  0.79158024493E+02 -0.52678220647E+03  0.53274768857E+03  0.00000000000E+00 0.  1.
         22    1    1    2    0    0  0.20728010944E+01 -0.13721151188E+02 -0.52900827119E+01  0.14850975368E+02  0.00000000000E+00 0.  1.
         22    1    1    2    0    0  0.80578928178E+02 -0.41514304180E+02  0.41387924268E+03  0.42368907071E+03  0.00000000000E+00 0.  1.
</event>
<event>
 6    1  0.3240171E-005  0.1091685E+03  0.7818608E-02  0.1350497E+00
          2   -1    0    0  502    0  0.00000000000E+00  0.00000000000E+00  0.42257558840E+02  0.42257558840E+02  0.00000000000E+00 0. -1.
          1   -1    0    0  501    0 -0.00000000000E+00 -0.00000000000E+00 -0.67819378944E+03  0.67819378944E+03  0.00000000000E+00 0. -1.
          2    1    1    2  501    0 -0.33477498233E+01  0.21153644080E+02 -0.49129209253E+03  0.49175868500E+03  0.00000000000E+00 0. -1.
          1    1    1    2  502    0  0.12968891917E+02  0.25780071389E+02  0.54481886508E+01  0.29368128948E+02  0.00000000000E+00 0. -1.
         22    1    1    2    0    0  0.11258934291E+02 -0.52876227257E+02 -0.16457554769E+03  0.17322750910E+03  0.00000000000E+00 0. -1.
         22    1    1    2    0    0 -0.20880076384E+02  0.59425117877E+01  0.14483220975E+02  0.26097025232E+02  0.00000000000E+00 0.  1.
</event>
<event>
 6    1  0.3240171E-005  0.1024174E+03  0.7818608E-02  0.1348689E+00
          2   -1    0    0  502    0  0.00000000000E+00  0.00000000000E+00  0.66919079325E+02  0.66919079325E+02  0.00000000000E+00 0.  1.
          1   -1    0    0  501    0 -0.00000000000E+00 -0.00000000000E+00 -0.70131120814E+03  0.70131120814E+03  0.00000000000E+00 0.  1.
          2    1    1    2  501    0  0.16762343085E+02  0.20193514100E+02 -0.24717521862E+02  0.36051491569E+02  0.00000000000E+00 0.  1.
          1    1    1    2  502    0 -0.99453366859E+02 -0.20690464155E+02 -0.56289922153E+03  0.57199178411E+03  0.00000000000E+00 0.  1.
         22    1    1    2    0    0  0.65999399876E+02  0.21865993858E+02 -0.87190893221E+02  0.11151813454E+03  0.00000000000E+00 0.  1.
         22    1    1    2    0    0  0.16691623898E+02 -0.21369043802E+02  0.40415507800E+02  0.48668877244E+02  0.00000000000E+00 0.  1.
</event>
<event>
 6    1  0.3240171E-005  0.1028190E+04  0.7818608E-02  0.1034260E+00
          2   -1    0    0  502    0  0.00000000000E+00  0.00000000000E+00  0.86333964302E+03  0.86333964302E+03  0.00000000000E+00 0. -1.
          1   -1    0    0  501    0 -0.00000000000E+00 -0.00000000000E+00 -0.12563553469E+04  0.12563553469E+04  0.00000000000E+00 0. -1.
          2    1    1    2  501    0 -0.19613856400E+03  0.19158059893E+03 -0.24883660943E+03  0.37026088150E+03  0.00000000000E+00 0. -1.
          1    1    1    2  502    0  0.43627593570E+03 -0.63303548376E+02 -0.86373071480E+03  0.96972922973E+03  0.00000000000E+00 0. -1.
         22    1    1    2    0    0 -0.28245586858E+02 -0.12977073381E+02  0.14069869214E+02  0.34120064920E+02  0.00000000000E+00 0. -1.
         22    1    1    2    0    0 -0.21189178484E+03 -0.11529997718E+03  0.70548175118E+03  0.74558481373E+03  0.00000000000E+00 0. -1.
</event>
<event>
 6    1  0.3240171E-005  0.4391726E+03  0.7818608E-02  0.1031751E+00
          2   -1    0    0  502    0  0.00000000000E+00  0.00000000000E+00  0.39493794175E+03  0.39493794175E+03  0.00000000000E+00 0.  1.
          1   -1    0    0  501    0 -0.00000000000E+00 -0.00000000000E+00 -0.54881366615E+03  0.54881366615E+03  0.00000000000E+00 0.  1.
          2    1    1    2  501    0 -0.28920492633E+02  0.40438666026E+03 -0.65843788928E+02  0.41073150650E+03  0.00000000000E+00 0.  1.
          1    1    1    2  502    0 -0.13837138484E+02  0.40315641584E+02 -0.53074156478E+02  0.68071164553E+02  0.00000000000E+00 0.  1.
         22    1    1    2    0    0  0.32785645733E+02 -0.44834974544E+03 -0.24762106053E+02  0.45022833617E+03  0.00000000000E+00 0.  1.
         22    1    1    2    0    0  0.99719853837E+01  0.36474435927E+01 -0.10195672942E+02  0.14720600667E+02  0.00000000000E+00 0. -1.
</event>
<event>
 6    1  0.3240171E-005  0.1234791E+03  0.7818608E-02  0.1296109E+00
          2   -1    0    0  502    0  0.00000000000E+00  0.00000000000E+00  0.61513466595E+02  0.61513466595E+02  0.00000000000E+00 0. -1.
          1   -1    0    0  501    0 -0.00000000000E+00 -0.00000000000E+00 -0.22414178561E+04  0.22414178561E+04  0.00000000000E+00 0. -1.
          2    1    1    2  501    0 -0.21093757377E+02  0.23198968668E+02 -0.66004215813E+02  0.73073218436E+02  0.00000000000E+00 0. -1.
          1    1    1    2  502    0  0.11747404289E+03 -0.15169695881E+01 -0.20593498496E+04  0.20626982947E+04  0.00000000000E+00 0. -1.
         22    1    1    2    0    0 -0.77394450131E+02  0.12916730495E+02 -0.86205014324E+02  0.11656777999E+03  0.00000000000E+00 0. -1.
         22    1    1    2    0    0 -0.18985835384E+02 -0.34598729575E+02  0.31654690278E+02  0.50592029511E+02  0.00000000000E+00 0.  1.
</event>
<event>
 6    1  0.3240171E-005  0.1308533E+03  0.7818608E-02  0.1303411E+00
          2   -1    0    0  502    0  0.00000000000E+00  0.00000000000E+00  0.21646531983E+03  0.21646531983E+03  0.00000000000E+00 0. -1.
          1   -1    0    0  501    0 -0.00000000000E+00 -0.00000000000E+00 -0.94930918729E+03  0.94930918729E+03  0.00000000000E+00 0.  1.
          2    1    1    2  501    0  0.15452923254E+02  0.28733698481E+02  0.78477229609E+00  0.32634860702E+02  0.00000000000E+00 0. -1.
          1    1    1    2  502    0 -0.74877004501E+02  0.23585523816E+02 -0.90379970624E+03  0.90720270708E+03  0.00000000000E+00 0.  1.
         22    1    1    2    0    0 -0.18027984189E+02  0.22695503087E+02  0.80959457661E+02  0.85991440615E+02  0.00000000000E+00 0.  1.
         22    1    1    2    0    0  0.77452065436E+02 -0.75014725384E+02  0.89211608820E+02  0.13994549872E+03  0.00000000000E+00 0. -1.
</event>
<event>
 6    1  0.3240171E-005  0.4921392E+02  0.7818608E-02  0.1471099E+00
          2   -1    0    0  502    0  0.00000000000E+00  0.00000000000E+00  0.28401373765E+03  0.28401373765E+03  0.00000000000E+00 0.  1.
          1   -1    0    0  501    0 -0.00000000000E+00 -0.00000000000E+00 -0.22743444811E+03  0.22743444811E+03  0.00000000000E+00 0. -1.
          2    1    1    2  501    0 -0.15519133563E+02 -0.20073087845E+02  0.12081758048E+02  0.28102335129E+02  0.00000000000E+00 0.  1.
          1    1    1    2  502    0  0.22121836382E+02  0.40074066408E+02 -0.20200175053E+03  0.20712318475E+03  0.00000000000E+00 0. -1.
         22    1    1    2    0    0 -0.42615101394E+02 -0.21176647203E+02  0.28931322160E+02  0.55691279887E+02  0.00000000000E+00 0.  1.
         22    1    1    2    0    0  0.36012398575E+02  0.11756686399E+01  0.21756795987E+03  0.22053138600E+03  0.00000000000E+00 0.  1.
</event>
<event>
 6    1  0.3240171E-005  0.1460431E+03  0.7818608E-02  0.1235915E+00
          2   -1    0    0  502    0  0.00000000000E+00  0.00000000000E+00  0.11537401579E+04  0.11537401579E+04  0.00000000000E+00 0.  1.
          1   -1    0    0  501    0 -0.00000000000E+00 -0.00000000000E+00 -0.14357597956E+03  0.14357597956E+03  0.00000000000E+00 0. -1.
          2    1    1    2  501    0  0.73675290954E+02 -0.17876382488E+02 -0.15274988420E+02  0.77336529656E+02  0.00000000000E+00 0.  1.
          1    1    1    2  502    0 -0.20996176294E+03 -0.12757264464E+03  0.10116608415E+03  0.26569399342E+03  0.00000000000E+00 0. -1.
         22    1    1    2    0    0  0.71838186035E+01 -0.87188241151E+01  0.35232674820E+01  0.11833788803E+02  0.00000000000E+00 0. -1.
         22    1    1    2    0    0  0.12910265338E+03  0.15416785125E+03  0.92074981510E+03  0.94245182555E+03  0.00000000000E+00 0.  1.
</event>
<event>
 6    1  0.3240171E-005  0.1686334E+03  0.7818608E-02  0.1181537E+00
          2   -1    0    0  502    0  0.00000000000E+00  0.00000000000E+00  0.47866657907E+03  0.47866657907E+03  0.00000000000E+00 0. -1.
          1   -1    0    0  501    0 -0.00000000000E+00 -0.00000000000E+00 -0.39458119829E+03  0.39458119829E+03  0.00000000000E+00 0. -1.
          2    1    1    2  501    0  0.11733977184E+03 -0.87096452790E+02  0.11358772243E+03  0.18508534472E+03  0.00000000000E+00 0. -1.
          1    1    1    2  502    0 -0.42864937632E+02 -0.19699093199E+02 -0.33169582893E+03  0.33503369992E+03  0.00000000000E+00 0. -1.
         22    1    1    2    0    0  0.20293626765E+02 -0.16496717645E+02  0.58017013978E+02  0.63639193044E+02  0.00000000000E+00 0. -1.
         22    1    1    2    0    0 -0.94768460974E+02  0.12329226363E+03  0.24417647330E+03  0.28948953967E+03  0.00000000000E+00 0. -1.
</event>
<event>
 6    1  0.3240171E-005  0.1200047E+03  0.7818608E-02  0.1306422E+00
          2   -1    0    0  502    0  0.00000000000E+00  0.00000000000E+00  0.62542856315E+03  0.62542856315E+03  0.00000000000E+00 0. -1.
          1   -1    0    0  501    0 -0.00000000000E+00 -0.00000000000E+00 -0.20041226318E+04  0.20041226318E+04  0.00000000000E+00 0.  1.
          2    1    1    2  501    0 -0.52569624226E+02  0.19863996967E+02  0.18475423294E+03  0.19311206683E+03  0.00000000000E+00 0. -1.
          1    1    1    2  502    0  0.28891872727E+02  0.26202794747E+02 -0.19885614013E+04  0.19889438840E+04  0.00000000000E+00 0.  1.
         22    1    1    2    0    0  0.19081229829E+02  0.30010341546E+02  0.34610884199E+02  0.49624865103E+02  0.00000000000E+00 0. -1.
         22    1    1    2    0    0  0.45965216700E+01 -0.76077133260E+02  0.39050221551E+03  0.39787037906E+03  0.00000000000E+00 0. -1.
</event>
<event>
 6    1  0.3240171E-005  0.1112819E+03  0.7818608E-02  0.1326417E+00
          2   -1    0    0  502    0  0.00000000000E+00  0.00000000000E+00  0.17185859125E+03  0.17185859125E+03  0.00000000000E+00 0. -1.
          1   -1    0    0  501    0 -0.00000000000E+00 -0.00000000000E+00 -0.11972880225E+03  0.11972880225E+03  0.00000000000E+00 0. -1.
          2    1    1    2  501    0 -0.69191940983E+02  0.17195364311E+02 -0.12182572112E+02  0.72329940647E+02  0.00000000000E+00 0. -1.
          1    1    1    2  502    0  0.72660962687E+02 -0.71050107423E+01 -0.14178782411E+02  0.74371597717E+02  0.00000000000E+00 0. -1.
         22    1    1    2    0    0 -0.12428784712E+01  0.31113086970E+02  0.95354293271E+02  0.10030957169E+03  0.00000000000E+00 0. -1.
         22    1    1    2    0    0 -0.22261432333E+01 -0.41203440539E+02 -0.16863149755E+02  0.44576283443E+02  0.00000000000E+00 0. -1.
</event>
<event>
 6    1  0.3240171E-005  0.1746367E+03  0.7818608E-02  0.1173550E+00
          2   -1    0    0  502    0  0.00000000000E+00  0.00000000000E+00  0.18032140993E+03  0.18032140993E+03  0.00000000000E+00 0. -1.
          1   -1    0    0  501    0 -0.00000000000E+00 -0.00000000000E+00 -0.10317207474E+04  0.10317207474E+04  0.00000000000E+00 0. -1.
          2    1    1    2  501    0 -0.99034706076E+02 -0.73244508135E+02 -0.62069666621E+00  0.12317879787E+03  0.00000000000E+00 0. -1.
          1    1    1    2  502    0 -0.96482004698E+02 -0.42058114035E+02 -0.81891470857E+03  0.82565062956E+03  0.00000000000E+00 0. -1.
         22    1    1    2    0    0 -0.17139343606E+02 -0.22900174504E+01  0.35213369579E+01  0.17646560377E+02  0.00000000000E+00 0.  1.
         22    1    1    2    0    0  0.21265605438E+03  0.11759263962E+03 -0.35385269233E+02  0.24556616957E+03  0.00000000000E+00 0. -1.
</event>
<event>
 6    1  0.3240171E-005  0.4143091E+02  0.7818608E-02  0.1547864E+00
          2   -1    0    0  502    0  0.00000000000E+00  0.00000000000E+00  0.13561790669E+03  0.13561790669E+03  0.00000000000E+00 0.  1.
          1   -1    0    0  501    0 -0.00000000000E+00 -0.00000000000E+00 -0.12688745490E+03  0.12688745490E+03  0.00000000000E+00 0. -1.
          2    1    1    2  501    0 -0.24909380636E+02  0.14330066519E+02 -0.43392440185E+02  0.52045479298E+02  0.00000000000E+00 0.  1.
          1    1    1    2  502    0  0.11172495442E+02 -0.33004251818E+02 -0.38675509690E+02  0.52056703144E+02  0.00000000000E+00 0. -1.
         22    1    1    2    0    0  0.21245457016E+02  0.15487493647E+01  0.12101125138E+03  0.12287184799E+03  0.00000000000E+00 0.  1.
         22    1    1    2    0    0 -0.75085718209E+01  0.17125435934E+02 -0.30212849706E+02  0.35531331161E+02  0.00000000000E+00 0.  1.
</event>
<event>
 6    1  0.3240171E-005  0.3982923E+03  0.7818608E-02  0.1149306E+00
          2   -1    0    0  502    0  0.00000000000E+00  0.00000000000E+00  0.17963124751E+03  0.17963124751E+03  0.00000000000E+00 0. -1.
          1   -1    0    0  501    0 -0.00000000000E+00 -0.00000000000E+00 -0.13061457139E+04  0.13061457139E+04  0.00000000000E+00 0. -1.
          2    1    1    2  501    0 -0.42287046002E+02 -0.92295810213E+02 -0.20106232258E+03  0.22523935803E+03  0.00000000000E+00 0. -1.
          1    1    1    2  502    0  0.36294270223E+02 -0.27149166650E+02 -0.10483286984E+04  0.10493080631E+04  0.00000000000E+00 0. -1.
         22    1    1    2    0    0  0.96556579248E+01 -0.23692600768E+02  0.57037823410E+01  0.26212672395E+02  0.00000000000E+00 0. -1.
         22    1    1    2    0    0 -0.36628821455E+01  0.14313757763E+03  0.11717277230E+03  0.18501686789E+03  0.00000000000E+00 0. -1.
</event>
<event>
 6    1  0.3240171E-005  0.6829982E+02  0.7818608E-02  0.1459681E+00
          2   -1    0    0  502    0  0.00000000000E+00  0.00000000000E+00  0.90236078979E+02  0.90236078979E+02  0.00000000000E+00 0. -1.
          1   -1    0    0  501    0 -0.00000000000E+00 -0.00000000000E+00 -0.41616953805E+03  0.41616953805E+03  0.00000000000E+00 0. -1.
          2    1    1    2  501    0  0.38092244356E+02 -0.91776855689E+01 -0.15016094011E+03  0.15518877836E+03  0.00000000000E+00 0. -1.
          1    1    1    2  502    0 -0.38105021480E+02  0.45665171423E+02 -0.21003724900E+03  0.21829554854E+03  0.00000000000E+00 0. -1.
         22    1    1    2    0    0 -0.85891573772E+01 -0.13371281901E+02  0.79675233169E+02  0.81244738812E+02  0.00000000000E+00 0. -1.
         22    1    1    2    0    0  0.86019345006E+01 -0.23116203954E+02 -0.45410503122E+02  0.51676551318E+02  0.00000000000E+00 0. -1.
</event>
<event>
 6    1  0.3240171E-005  0.8835026E+02  0.7818608E-02  0.1350506E+00
          2   -1    0    0  502    0  0.00000000000E+00  0.00000000000E+00  0.26723544604E+03  0.26723544604E+03  0.00000000000E+00 0.  1.
          1   -1    0    0  501    0 -0.00000000000E+00 -0.00000000000E+00 -0.12699927757E+03  0.12699927757E+03  0.00000000000E+00 0.  1.
          2    1    1    2  501    0 -0.52120786552E+02 -0.43110753044E+01 -0.50458126637E+02  0.72671757271E+02  0.00000000000E+00 0.  1.
          1    1    1    2  502    0  0.88326974036E+02  0.53921830273E+02  0.25086797633E+02  0.10648270065E+03  0.00000000000E+00 0.  1.
         22    1    1    2    0    0 -0.28672495899E+02 -0.93604570587E+01 -0.12261230779E+02  0.32558684827E+02  0.00000000000E+00 0. -1.
         22    1    1    2    0    0 -0.75336915850E+01 -0.40250297910E+02  0.17786872825E+03  0.18252158087E+03  0.00000000000E+00 0. -1.
</event>
<event>
 6    1  0.3240171E-005  0.2168288E+03  0.7818608E-02  0.1266024E+00
          2   -1    0    0  502    0  0.00000000000E+00  0.00000000000E+00  0.52159345355E+02  0.52159345355E+02  0.00000000000E+00 0.  1.
          1   -1    0    0  501    0 -0.00000000000E+00 -0.00000000000E+00 -0.69149712368E+03  0.69149712368E+03  0.00000000000E+00 0. -1.
          2    1    1    2  501    0 -0.61426922652E+02  0.43399501455E+02 -0.54736795564E+02  0.93020967215E+02  0.00000000000E+00 0.  1.
          1    1    1    2  502    0  0.50572954181E+02  0.82332303028E+02 -0.29613491482E+03  0.31149979067E+03  0.00000000000E+00 0. -1.
         22    1    1    2    0    0  0.11890048299E+02 -0.11286385567E+03 -0.30066721213E+03  0.32137267404E+03  0.00000000000E+00 0. -1.
         22    1    1    2    0    0 -0.10360798286E+01 -0.12867948808E+02  0.12201144187E+02  0.17763037111E+02  0.00000000000E+00 0.  1.
</event>
<event>
 6    1  0.3240171E-005  0.1008207E+03  0.7818608E-02  0.1280123E+00
          2   -1    0    0  502    0  0.00000000000E+00  0.00000000000E+00  0.19854564173E+03  0.19854564173E+03  0.00000000000E+00 0. -1.
          1   -1    0    0  501    0 -0.00000000000E+00 -0.00000000000E+00 -0.86063496242E+03  0.86063496242E+03  0.00000000000E+00 0.  1.
          2    1    1    2  501    0 -0.66028929676E+02 -0.15680657461E+02  0.17878600748E+02  0.70180816020E+02  0.00000000000E+00 0. -1.
          1    1    1    2  502    0  0.11987644679E+02  0.51293830034E+02 -0.80294008212E+03  0.80466610224E+03  0.00000000000E+00 0.  1.
         22    1    1    2    0    0  0.91868153276E+02 -0.36619828232E+02  0.96300989317E+02  0.13803858138E+03  0.00000000000E+00 0. -1.
         22    1    1    2    0    0 -0.37826868280E+02  0.10066556585E+01  0.26671171366E+02  0.46295104509E+02  0.00000000000E+00 0. -1.
</event>
<event>
 6    1  0.3240171E-005  0.8541127E+02  0.7818608E-02  0.1323912E+00
          2   -1    0    0  502    0  0.00000000000E+00  0.00000000000E+00  0.20245196517E+02  0.20245196517E+02  0.00000000000E+00 0.  1.
          1   -1    0    0  501    0 -0.00000000000E+00 -0.00000000000E+00 -0.89229042793E+03  0.89229042793E+03  0.00000000000E+00 0.  1.
          2    1    1    2  501    0  0.39748928389E+02 -0.23866275947E+02 -0.93934527902E+02  0.10475338643E+03  0.00000000000E+00 0.  1.
          1    1    1    2  502    0 -0.42028933405E+02 -0.80285121274E+01 -0.48003949182E+03  0.48194273722E+03  0.00000000000E+00 0.  1.
         22    1    1    2    0    0 -0.15024196260E+02  0.69256628696E+02 -0.94358589020E+02  0.11800741677E+03  0.00000000000E+00 0.  1.
         22    1    1    2    0    0  0.17304201276E+02 -0.37361840621E+02 -0.20371262267E+03  0.20783208403E+03  0.00000000000E+00 0.  1.
</event>
<event>
 6    1  0.3240171E-005  0.3996969E+03  0.7818608E-02  0.1121626E+00
          2   -1    0    0  502    0  0.00000000000E+00  0.00000000000E+00  0.15448539303E+03  0.15448539303E+03  0.00000000000E+00 0.  1.
          1   -1    0    0  501    0 -0.00000000000E+00 -0.00000000000E+00 -0.18449622222E+04  0.18449622222E+04  0.00000000000E+00 0.  1.
          2    1    1    2  501    0  0.33465040191E+03 -0.19315117758E+02 -0.31582842600E+03  0.46055570775E+03  0.00000000000E+00 0.  1.
          1    1    1    2  502    0 -0.35133132835E+03 -0.43259960409E+02 -0.13527340094E+04  0.13982826705E+04  0.00000000000E+00 0.  1.
         22    1    1    2    0    0 -0.49481236509E+02  0.38721178614E+01 -0.64137101458E+00  0.49636653996E+02  0.00000000000E+00 0.  1.
         22    1    1    2    0    0  0.66162162953E+02  0.58702960306E+02 -0.21273022741E+02  0.90972582967E+02  0.00000000000E+00 0.  1.
</event>
<event>
 6    1  0.3240171E-005  0.1666509E+03  0.7818608E-02  0.1189195E+00
          2   -1    0    0  502    0  0.00000000000E+00  0.00000000000E+00  0.78791006794E+03  0.78791006794E+03  0.00000000000E+00 0.  1.
          1   -1    0    0  501    0 -0.00000000000E+00 -0.00000000000E+00 -0.14778151316E+03  0.14778151316E+03  0.00000000000E+00 0.  1.
          2    1    1    2  501    0 -0.10266752544E+03  0.66007657411E+02  0.73699407405E+02  0.14258062375E+03  0.00000000000E+00 0.  1.
          1    1    1    2  502    0  0.99294964481E+01  0.20870449066E+02 -0.10022148562E+03  0.10285191648E+03  0.00000000000E+00 0.  1.
         22    1    1    2    0    0  0.95559702006E+01  0.28150717388E+02  0.56848595125E+02  0.64152491952E+02  0.00000000000E+00 0.  1.
         22    1    1    2    0    0  0.83182058787E+02 -0.11502882387E+03  0.60980203787E+03  0.62610654893E+03  0.00000000000E+00 0.  1.
</event>
<event>
 6    1  0.3240171E-005  0.1324954E+03  0.7818608E-02  0.1227228E+00
          2   -1    0    0  502    0  0.00000000000E+00  0.00000000000E+00  0.31589328800E+02  0.31589328800E+02  0.00000000000E+00 0.  1.
          1   -1    0    0  501    0 -0.00000000000E+00 -0.00000000000E+00 -0.11164870961E+04  0.11164870961E+04  0.00000000000E+00 0. -1.
          2    1    1    2  501    0  0.50056598574E+01  0.95667502527E+02 -0.16294833885E+03  0.18902245582E+03  0.00000000000E+00 0.  1.
          1    1    1    2  502    0  0.20921926335E+02 -0.23715161636E+01 -0.58354811150E+03  0.58392786329E+03  0.00000000000E+00 0. -1.
         22    1    1    2    0    0  0.27623542713E+02  0.21355676225E+02 -0.62552531461E+02  0.71637589374E+02  0.00000000000E+00 0.  1.
         22    1    1    2    0    0 -0.53551128905E+02 -0.11465166259E+03 -0.27584878548E+03  0.30348851641E+03  0.00000000000E+00 0.  1.
</event>
<event>
 6    1  0.3240171E-005  0.4862037E+02  0.7818608E-02  0.1557753E+00
          2   -1    0    0  502    0  0.00000000000E+00  0.00000000000E+00  0.43172989746E+02  0.43172989746E+02  0.00000000000E+00 0.  1.
          1   -1    0    0  501    0 -0.00000000000E+00 -0.00000000000E+00 -0.50794401804E+03  0.50794401804E+03  0.00000000000E+00 0.  1.
          2    1    1    2  501    0  0.16525357426E+02 -0.11706593181E+02 -0.83355368886E+02  0.85780238308E+02  0.00000000000E+00 0.  1.
          1    1    1    2  502    0 -0.42294644811E+02  0.14196727217E+02 -0.31325482706E+03  0.31641581932E+03  0.00000000000E+00 0.  1.
         22    1    1    2    0    0  0.25799392719E+02  0.91235662823E+01 -0.10592947027E+03  0.10940704181E+03  0.00000000000E+00 0. -1.
         22    1    1    2    0    0 -0.30105333831E-01 -0.11613700318E+02  0.37768637925E+02  0.39513908337E+02  0.00000000000E+00 0.  1.
</event>
<event>
 6    1  0.3240171E-005  0.4800530E+02  0.7818608E-02  0.1461355E+00
          2   -1    0    0  502    0  0.00000000000E+00  0.00000000000E+00  0.13771580731E+03  0.13771580731E+03  0.00000000000E+00 0.  1.
          1   -1    0    0  501    0 -0.00000000000E+00 -0.00000000000E+00 -0.11582464682E+03  0.11582464682E+03  0.00000000000E+00 0.  1.
          2    1    1    2  501    0 -0.37861853848E+02  0.19398002524E+02  0.32055927698E+02  0.53267109733E+02  0.00000000000E+00 0.  1.
          1    1    1    2  502    0 -0.11565077360E+02  0.16341664384E+02 -0.51305939490E+02  0.55073591096E+02  0.00000000000E+00 0.  1.
         22    1    1    2    0    0  0.70082440504E+02 -0.46363701942E+02  0.69141330773E+02  0.10881941438E+03  0.00000000000E+00 0.  1.
         22    1    1    2    0    0 -0.20655509296E+02  0.10624035034E+02 -0.28000158485E+02  0.36380338919E+02  0.00000000000E+00 0.  1.
</event>
<event>
 6    1  0.3240171E-005  0.1401416E+03  0.7818608E-02  0.1305633E+00
          2   -1    0    0  502    0  0.00000000000E+00  0.00000000000E+00  0.26505859088E+02  0.26505859088E+02  0.00000000000E+00 0. -1.
          1   -1    0    0  501    0 -0.00000000000E+00 -0.00000000000E+00 -0.21020213804E+04  0.21020213804E+04  0.00000000000E+00 0.  1.
          2    1    1    2  501    0 -0.68071344971E+02 -0.81071149256E+02 -0.60915025969E+03  0.61828009683E+03  0.00000000000E+00 0. -1.
          1    1    1    2  502    0  0.71251346878E+02  0.10702174614E+03 -0.12514784291E+04  0.12580654463E+04  0.00000000000E+00 0.  1.
         22    1    1    2    0    0 -0.11949954340E+02 -0.46838173086E+02 -0.22295418547E+03  0.22813413748E+03  0.00000000000E+00 0.  1.
         22    1    1    2    0    0  0.87699524333E+01  0.20887576201E+02  0.80673529655E+01  0.24047558901E+02  0.00000000000E+00 0. -1.
</event>
<event>
 6    1  0.3240171E-005  0.1051860E+03  0.7818608E-02  0.1272105E+00
          2   -1    0    0  502    0  0.00000000000E+00  0.00000000000E+00  0.84567850695E+03  0.84567850695E+03  0.00000000000E+00 0. -1.
          1   -1    0    0  501    0 -0.00000000000E+00 -0.00000000000E+00 -0.44495746326E+02  0.44495746326E+02  0.00000000000E+00 0. -1.
          2    1    1    2  501    0 -0.47389181965E+02  0.10045694935E+03  0.86819314955E+02  0.14097846179E+03  0.00000000000E+00 0. -1.
          1    1    1    2  502    0  0.96562689313E+01 -0.47975980452E+02  0.43259050079E+03  0.43534983588E+03  0.00000000000E+00 0. -1.
         22    1    1    2    0    0  0.35104480386E+02 -0.84704567981E+02  0.25773313778E+03  0.27355723110E+03  0.00000000000E+00 0. -1.
         22    1    1    2    0    0  0.26284326480E+01  0.32223599079E+02  0.24039807097E+02  0.40288724490E+02  0.00000000000E+00 0.  1.
</event>
<event>
 6    1  0.3240171E-005  0.6854488E+02  0.7818608E-02  0.1387114E+00
          2   -1    0    0  502    0  0.00000000000E+00  0.00000000000E+00  0.34500293195E+02  0.34500293195E+02  0.00000000000E+00 0. -1.
          1   -1    0    0  501    0 -0.00000000000E+00 -0.00000000000E+00 -0.93672612800E+03  0.93672612800E+03  0.00000000000E+00 0. -1.
          2    1    1    2  501    0  0.18159691397E+02 -0.22250306213E+02 -0.70214802583E+03  0.70273515686E+03  0.00000000000E+00 0. -1.
          1    1    1    2  502    0 -0.47356655114E+02 -0.74579955878E+00 -0.55209086367E+02  0.72740994069E+02  0.00000000000E+00 0. -1.
         22    1    1    2    0    0  0.16154537362E+02 -0.23336314601E+02 -0.14486292753E+03  0.14761714138E+03  0.00000000000E+00 0.  1.
         22    1    1    2    0    0  0.13042426355E+02  0.46332420373E+02 -0.57950826090E-02  0.48133128887E+02  0.00000000000E+00 0. -1.
</event>
<event>
 6    1  0.3240171E-005  0.9873157E+02  0.7818608E-02  0.1316431E+00
          2   -1    0    0  502    0  0.00000000000E+00  0.00000000000E+00  0.76244619411E+03  0.76244619411E+03  0.00000000000E+00 0.  1.
          1   -1    0    0  501    0 -0.00000000000E+00 -0.00000000000E+00 -0.12236399030E+02  0.12236399030E+02  0.00000000000E+00 0. -1.
          2    1    1    2  501    0 -0.20786319175E+02 -0.25896212095E+02  0.11869112695E+03  0.12324880722E+03  0.00000000000E+00 0.  1.
          1    1    1    2  502    0  0.91059109578E+01  0.30442795995E+02  0.14127566161E+03  0.14480502065E+03  0.00000000000E+00 0. -1.
         22    1    1    2    0    0 -0.54464244927E+02  0.28003464855E+01  0.30398162039E+03  0.30883494208E+03  0.00000000000E+00 0.  1.
         22    1    1    2    0    0  0.66144653144E+02 -0.73469303858E+01  0.18626138613E+03  0.19779382318E+03  0.00000000000E+00 0. -1.
</event>
<event>
 6    1  0.3240171E-005  0.1043954E+03  0.7818608E-02  0.1300372E+00
          2   -1    0    0  502    0  0.00000000000E+00  0.00000000000E+00  0.55241766652E+02  0.55241766652E+02  0.00000000000E+00 0.  1.
          1   -1    0    0  501    0 -0.00000000000E+00 -0.00000000000E+00 -0.10183163522E+04  0.10183163522E+04  0.00000000000E+00 0.  1.
          2    1    1    2  501    0 -0.74448991607E+02  0.77884710687E+02 -0.16377104682E+03  0.19603478336E+03  0.00000000000E+00 0.  1.
          1    1    1    2  502    0  0.62775888523E+02 -0.68051170712E+02 -0.71886357807E+03  0.72480108850E+03  0.00000000000E+00 0.  1.
         22    1    1    2    0    0 -0.42851634109E+02  0.16052465072E+02 -0.80232347528E+02  0.92364353354E+02  0.00000000000E+00 0.  1.
         22    1    1    2    0    0  0.54524737193E+02 -0.25886005047E+02 -0.20761314673E+00  0.60357893655E+02  0.00000000000E+00 0.  1.
</event>
<event>
 6    1  0.5511758E-005  0.4446787E+03  0.7818608E-02  0.1090986E+00
          2   -1    0    0  502    0  0.00000000000E+00  0.00000000000E+00  0.77196991110E+03  0.77196991110E+03  0.00000000000E+00 0. -1.
          1   -1    0    0  501    0 -0.00000000000E+00 -0.00000000000E+00 -0.36032491849E+03  0.36032491849E+03  0.00000000000E+00 0. -1.
          2    1    1    2  501    0  0.27944418676E+03 -0.26885896773E+03 -0.34707837269E+02  0.38933126257E+03  0.00000000000E+00 0. -1.
          1    1    1    2  502    0 -0.34152748820E+03  0.29434243695E+03  0.36132044588E+03  0.57778106580E+03  0.00000000000E+00 0. -1.
         22    1    1    2    0    0  0.10155722091E+02  0.34179512801E+02 -0.14116726011E+02  0.38349181736E+02  0.00000000000E+00 0. -1.
         22    1    1    2    0    0  0.51927579348E+02 -0.59662982015E+02  0.99149110000E+02  0.12683331949E+03  0.00000000000E+00 0. -1.
</event>
<event>
 6    1  0.3240171E-005  0.2421573E+03  0.7818608E-02  0.1217784E+00
          2   -1    0    0  502    0  0.00000000000E+00  0.00000000000E+00  0.86895883818E+02  0.86895883818E+02  0.00000000000E+00 0.  1.
          1   -1    0    0  501    0 -0.00000000000E+00 -0.00000000000E+00 -0.51831991654E+03  0.51831991654E+03  0.00000000000E+00 0. -1.
          2    1    1    2  501    0 -0.15091050787E+02  0.53862252220E+02 -0.24321889665E+03  0.24956825462E+03  0.00000000000E+00 0.  1.
          1    1    1    2  502    0  0.52948998910E+02  0.33523375070E+02 -0.18645069056E+03  0.19670097400E+03  0.00000000000E+00 0. -1.
         22    1    1    2    0    0 -0.78123317690E+01  0.23347605122E+02  0.31036545370E+02  0.39615783990E+02  0.00000000000E+00 0.  1.
         22    1    1    2    0    0 -0.30045616354E+02 -0.11073323241E+03 -0.32790990888E+02  0.11933078775E+03  0.00000000000E+00 0.  1.
</event>
<event>
 6    1  0.3240171E-005  0.1204824E+03  0.7818608E-02  0.1330214E+00
          2   -1    0    0  502    0  0.00000000000E+00  0.00000000000E+00  0.49099717158E+02  0.49099717158E+02  0.00000000000E+00 0. -1.
          1   -1    0    0  501    0 -0.00000000000E+00 -0.00000000000E+00 -0.19644049051E+04  0.19644049051E+04  0.00000000000E+00 0. -1.
          2    1    1    2  501    0  0.64443754198E+02  0.30517131352E+02 -0.14654696001E+04  0.14672032720E+04  0.00000000000E+00 0. -1.
          1    1    1    2  502    0 -0.87163514783E+02 -0.19210798719E+02 -0.39722601010E+03  0.40713024476E+03  0.00000000000E+00 0. -1.
         22    1    1    2    0    0  0.20883072357E+02  0.11565779028E+02 -0.91200941493E+02  0.94273441036E+02  0.00000000000E+00 0.  1.
         22    1    1    2    0    0  0.18366882281E+01 -0.22872111662E+02  0.38591363729E+02  0.44897664415E+02  0.00000000000E+00 0. -1.
</event>
<event>
 6    1  0.3240171E-005  0.1599969E+03  0.7818608E-02  0.1205265E+00
          2   -1    0    0  502    0  0.00000000000E+00  0.00000000000E+00  0.32580863301E+03  0.32580863301E+03  0.00000000000E+00 0.  1.
          1   -1    0    0  501    0 -0.00000000000E+00 -0.00000000000E+00 -0.37334046841E+03  0.37334046841E+03  0.00000000000E+00 0.  1.
          2    1    1    2  501    0 -0.13989406626E+03 -0.62686724653E+02  0.71132529728E+02  0.16899648519E+03  0.00000000000E+00 0.  1.
          1    1    1    2  502    0  0.70991683118E+02  0.12965087627E+03 -0.27313538104E+03  0.31056739231E+03  0.00000000000E+00 0.  1.
         22    1    1    2    0    0 -0.16397284941E+02  0.47546106237E+01 -0.10835995895E+02  0.20221179062E+02  0.00000000000E+00 0. -1.
         22    1    1    2    0    0  0.85299668082E+02 -0.71718762239E+02  0.16530701180E+03  0.19936404486E+03  0.00000000000E+00 0.  1.
</event>
<event>
 6    1  0.3240171E-005  0.1523116E+03  0.7818608E-02  0.1322447E+00
          2   -1    0    0  502    0  0.00000000000E+00  0.00000000000E+00  0.26623691523E+02  0.26623691523E+02  0.00000000000E+00 0. -1.
          1   -1    0    0  501    0 -0.00000000000E+00 -0.00000000000E+00 -0.18113659550E+04  0.18113659550E+04  0.00000000000E+00 0.  1.
          2    1    1    2  501    0  0.27507785155E+02 -0.96773219404E+02 -0.56558105534E+03  0.57445945409E+03  0.00000000000E+00 0. -1.
          1    1    1    2  502    0  0.73362320600E+01  0.14562139820E+03 -0.95668703095E+03  0.96773420272E+03  0.00000000000E+00 0.  1.
         22    1    1    2    0    0 -0.11176279678E+02 -0.66992519429E+01  0.11627855221E+02  0.17464141006E+02  0.00000000000E+00 0. -1.
         22    1    1    2    0    0 -0.23667737537E+02 -0.42148926856E+02 -0.27410203237E+03  0.27833184867E+03  0.00000000000E+00 0. -1.
</event>
<event>
 6    1  0.3240171E-005  0.1112862E+03  0.7818608E-02  0.1260148E+00
          2   -1    0    0  502    0  0.00000000000E+00  0.00000000000E+00  0.24632618303E+03  0.24632618303E+03  0.00000000000E+00 0. -1.
          1   -1    0    0  501    0 -0.00000000000E+00 -0.00000000000E+00 -0.56294596053E+03  0.56294596053E+03  0.00000000000E+00 0. -1.
          2    1    1    2  501    0 -0.69973116078E+02 -0.63084003613E+02  0.53891872742E+02  0.10853645670E+03  0.00000000000E+00 0. -1.
          1    1    1    2  502    0  0.44221975854E+01  0.41920471093E+02 -0.50322934596E+03  0.50499173890E+03  0.00000000000E+00 0. -1.
         22    1    1    2    0    0  0.79967243662E+02  0.57192968785E+02  0.11950670668E+03  0.15475027844E+03  0.00000000000E+00 0. -1.
         22    1    1    2    0    0 -0.14416325169E+02 -0.36029436265E+02  0.13210989034E+02  0.40993669513E+02  0.00000000000E+00 0.  1.
</event>
<event>
 6    1  0.3240171E-005  0.2106406E+03  0.7818608E-02  0.1223387E+00
          2   -1    0    0  502    0  0.00000000000E+00  0.00000000000E+00  0.24855143486E+03  0.24855143486E+03  0.00000000000E+00 0.  1.
          1   -1    0    0  501    0 -0.00000000000E+00 -0.00000000000E+00 -0.26295497350E+03  0.26295497350E+03  0.00000000000E+00 0.  1.
          2    1    1    2  501    0 -0.96467255107E+01 -0.51449627878E+02  0.19212050899E+02  0.55760437781E+02  0.00000000000E+00 0.  1.
          1    1    1    2  502    0  0.90223911260E+02  0.18798268992E+03 -0.11192762822E+03  0.23665510734E+03  0.00000000000E+00 0.  1.
         22    1    1    2    0    0 -0.10134454708E+03 -0.11055463676E+03  0.19114303064E+02  0.15118995176E+03  0.00000000000E+00 0.  1.
         22    1    1    2    0    0  0.20767361331E+02 -0.25978425279E+02  0.59197735619E+02  0.67900911475E+02  0.00000000000E+00 0.  1.
</event>
<event>
 6    1  0.6167497E-005  0.2367757E+03  0.7818608E-02  0.1208336E+00
          2   -1    0    0  502    0  0.00000000000E+00  0.00000000000E+00  0.61068323722E+03  0.61068323722E+03  0.00000000000E+00 0.  1.
          1   -1    0    0  501    0 -0.00000000000E+00 -0.00000000000E+00 -0.43477834839E+03  0.43477834839E+03  0.00000000000E+00 0.  1.
          2    1    1    2  501    0 -0.46694203788E+02  0.14865765979E+01  0.85291983409E+01  0.47490060031E+02  0.00000000000E+00 0.  1.
          1    1    1    2  502    0 -0.57359156295E+02  0.34692448324E+02 -0.40088858088E+03  0.40645453997E+03  0.00000000000E+00 0.  1.
         22    1    1    2    0    0  0.91496460891E+02 -0.65378688607E+01  0.54273301766E+03  0.55043026311E+03  0.00000000000E+00 0.  1.
         22    1    1    2    0    0  0.12556899192E+02 -0.29641156061E+02  0.25531253704E+02  0.41086722498E+02  0.00000000000E+00 0.  1.
</event>
<event>
 6    1  0.3240171E-005  0.9462242E+02  0.7818608E-02  0.1311518E+00
          2   -1    0    0  502    0  0.00000000000E+00  0.00000000000E+00  0.23885056442E+02  0.23885056442E+02  0.00000000000E+00 0. -1.
          1   -1    0    0  501    0 -0.00000000000E+00 -0.00000000000E+00 -0.52388553337E+03  0.52388553337E+03  0.00000000000E+00 0. -1.
          2    1    1    2  501    0 -0.26513853273E+02 -0.20356836598E+02 -0.10700152561E+03  0.11210134564E+03  0.00000000000E+00 0. -1.
          1    1    1    2  502    0  0.22959974347E+02 -0.21682757586E+01 -0.22059203206E+03  0.22179428859E+03  0.00000000000E+00 0. -1.
         22    1    1    2    0    0  0.56723643274E+02 -0.18156584645E+02 -0.77967921188E+02  0.98113352846E+02  0.00000000000E+00 0. -1.
         22    1    1    2    0    0 -0.53169764348E+02  0.40681697002E+02 -0.94438998071E+02  0.11576160274E+03  0.00000000000E+00 0. -1.
</event>
<event>
 6    1  0.3240171E-005  0.1273637E+03  0.7818608E-02  0.1305362E+00
          2   -1    0    0  502    0  0.00000000000E+00  0.00000000000E+00  0.21856547585E+03  0.21856547585E+03  0.00000000000E+00 0. -1.
          1   -1    0    0  501    0 -0.00000000000E+00 -0.00000000000E+00 -0.80628407573E+03  0.80628407573E+03  0.00000000000E+00 0.  1.
          2    1    1    2  501    0 -0.48443498189E+02  0.10327549297E+03 -0.58239429335E+02  0.12807978410E+03  0.00000000000E+00 0. -1.
          1    1    1    2  502    0  0.39075968660E+02 -0.11158792887E+03 -0.68623335169E+03  0.69634403148E+03  0.00000000000E+00 0.  1.
         22    1    1    2    0    0  0.29988395747E+02  0.45343396737E+01  0.17190493748E+03  0.17455993712E+03  0.00000000000E+00 0. -1.
         22    1    1    2    0    0 -0.20620866217E+02  0.37780962300E+01 -0.15150756333E+02  0.25865798889E+02  0.00000000000E+00 0. -1.
</event>
<event>
 6    1  0.3240171E-005  0.7818335E+02  0.7818608E-02  0.1336403E+00
          2   -1    0    0  502    0  0.00000000000E+00  0.00000000000E+00  0.47863132196E+02  0.47863132196E+02  0.00000000000E+00 0.  1.
          1   -1    0    0  501    0 -0.00000000000E+00 -0.00000000000E+00 -0.35918983342E+03  0.35918983342E+03  0.00000000000E+00 0.  1.
          2    1    1    2  501    0 -0.26152763396E+02 -0.28654380172E+02 -0.22416149431E+02  0.44805404714E+02  0.00000000000E+00 0.  1.
          1    1    1    2  502    0  0.15452267514E+02  0.21467822062E+02 -0.21279160781E+03  0.21442926179E+03  0.00000000000E+00 0.  1.
         22    1    1    2    0    0 -0.47681412466E+02 -0.26737830781E+02 -0.53806992948E+02  0.76704766343E+02  0.00000000000E+00 0.  1.
         22    1    1    2    0    0  0.58381908348E+02  0.33924388892E+02 -0.22311951029E+02  0.71113532768E+02  0.00000000000E+00 0.  1.
</event>
<event>
 6    1  0.3240171E-005  0.1560839E+03  0.7818608E-02  0.1254265E+00
          2   -1    0    0  502    0  0.00000000000E+00  0.00000000000E+00  0.31273611174E+03  0.31273611174E+03  0.00000000000E+00 0.  1.
          1   -1    0    0  501    0 -0.00000000000E+00 -0.00000000000E+00 -0.40664119817E+03  0.40664119817E+03  0.00000000000E+00 0.  1.
          2    1    1    2  501    0 -0.43552154693E+02  0.12467263230E+03  0.27464866595E+02  0.13488652386E+03  0.00000000000E+00 0.  1.
          1    1    1    2  502    0  0.46462851071E+02 -0.13063349829E+03 -0.32182918807E+03  0.35042536110E+03  0.00000000000E+00 0.  1.
         22    1    1    2    0    0  0.40397631193E+02 -0.16416578276E+02  0.17237786132E+03  0.17780776057E+03  0.00000000000E+00 0.  1.
         22    1    1    2    0    0 -0.43308327571E+02  0.22377444266E+02  0.28081373734E+02  0.56257664364E+02  0.00000000000E+00 0.  1.
</event>
<event>
 6    1  0.4465519E-005  0.1368563E+03  0.7818608E-02  0.1295672E+00
          2   -1    0    0  502    0  0.00000000000E+00  0.00000000000E+00  0.41971207923E+03  0.41971207923E+03  0.00000000000E+00 0.  1.
          1   -1    0    0  501    0 -0.00000000000E+00 -0.00000000000E+00 -0.41096986265E+03  0.41096986265E+03  0.00000000000E+00 0. -1.
          2    1    1    2  501    0  0.32800859798E+01 -0.49270212325E+02  0.61279807441E+02  0.78698968142E+02  0.00000000000E+00 0.  1.
          1    1    1    2  502    0  0.35324262112E+02  0.78589488592E+02 -0.38515640061E+03  0.39467653102E+03  0.00000000000E+00 0. -1.
         22    1    1    2    0    0  0.23441316103E+02 -0.17449619381E+02  0.13850638165E+02  0.32339212958E+02  0.00000000000E+00 0.  1.
         22    1    1    2    0    0 -0.62045664195E+02 -0.11869656886E+02  0.31876817158E+03  0.32496722975E+03  0.00000000000E+00 0.  1.
</event>
<event>
 6    1  0.3240171E-005  0.7609037E+02  0.7818608E-02  0.1367852E+00
          2   -1    0    0  502    0  0.00000000000E+00  0.00000000000E+00  0.11651106092E+03  0.11651106092E+03  0.00000000000E+00 0.  1.
          1   -1    0    0  501    0 -0.00000000000E+00 -0.00000000000E+00 -0.12961058816E+04  0.12961058816E+04  0.00000000000E+00 0.  1.
          2    1    1    2  501    0  0.71951946576E+02 -0.39904411514E+02 -0.14895517942E+03  0.17016782936E+03  0.00000000000E+00 0.  1.
          1    1    1    2  502    0 -0.63667789995E+02  0.22188291451E+02 -0.10949358626E+04  0.10970097770E+04  0.00000000000E+00 0.  1.
         22    1    1    2    0    0  0.16995886048E+02 -0.22939986969E+02 -0.28925954947E+02  0.40642514861E+02  0.00000000000E+00 0.  1.
         22    1    1    2    0    0 -0.25280042628E+02  0.40656107031E+02  0.93222176270E+02  0.10479682124E+03  0.00000000000E+00 0.  1.
</event>
<event>
 6    1  0.3240171E-005  0.4762966E+03  0.7818608E-02  0.1131555E+00
          2   -1    0    0  502    0  0.00000000000E+00  0.00000000000E+00  0.10506049471E+04  0.10506049471E+04  0.00000000000E+00 0.  1.
          1   -1    0    0  501    0 -0.00000000000E+00 -0.00000000000E+00 -0.75922317466E+03  0.75922317466E+03  0.00000000000E+00 0. -1.
          2    1    1    2  501    0  0.14276404718E+01  0.23660086095E+03  0.55870457868E+03  0.60673949254E+03  0.00000000000E+00 0.  1.
          1    1    1    2  502    0  0.14300509380E+03 -0.45374048203E+02 -0.68686270661E+03  0.70305735103E+03  0.00000000000E+00 0. -1.
         22    1    1    2    0    0 -0.15311009884E+03 -0.16998112260E+03  0.29456948849E+03  0.37297113555E+03  0.00000000000E+00 0.  1.
         22    1    1    2    0    0  0.86773645642E+01 -0.21245690148E+02  0.12497041189E+03  0.12706014267E+03  0.00000000000E+00 0.  1.
</event>
<event>
 6    1  0.3240171E-005  0.9368688E+02  0.7818608E-02  0.1316090E+00
          2   -1    0    0  502    0  0.00000000000E+00  0.00000000000E+00  0.11760582279E+03  0.11760582279E+03  0.00000000000E+00 0. -1.
          1   -1    0    0  501    0 -0.00000000000E+00 -0.00000000000E+00 -0.10556016403E+04  0.10556016403E+04  0.00000000000E+00 0.  1.
          2    1    1    2  501    0  0.87256381836E+02 -0.32605676475E+02 -0.20612768273E+03  0.22619776281E+03  0.00000000000E+00 0. -1.
          1    1    1    2  502    0 -0.86640089270E+02 -0.27281808875E+02 -0.79268135029E+03  0.79786873937E+03  0.00000000000E+00 0.  1.
         22    1    1    2    0    0  0.19321489253E+02  0.40645145099E+00 -0.31840893980E+02  0.37246847909E+02  0.00000000000E+00 0. -1.
         22    1    1    2    0    0 -0.19937781819E+02  0.59481033899E+02  0.92654109448E+02  0.11189411305E+03  0.00000000000E+00 0. -1.
</event>
<event>
 6    1  0.3240171E-005  0.1509006E+03  0.7818608E-02  0.1201544E+00
          2   -1    0    0  502    0  0.00000000000E+00  0.00000000000E+00  0.41656011005E+03  0.41656011005E+03  0.00000000000E+00 0.  1.
          1   -1    0    0  501    0 -0.00000000000E+00 -0.00000000000E+00 -0.55205845383E+03  0.55205845383E+03  0.00000000000E+00 0.  1.
          2    1    1    2  501    0  0.13155330047E+03  0.36556127692E+02  0.12236765615E+03  0.18334793320E+03  0.00000000000E+00 0.  1.
          1    1    1    2  502    0 -0.23714104893E+02 -0.50846855511E+02 -0.49264544271E+03  0.49582990401E+03  0.00000000000E+00 0.  1.
         22    1    1    2    0    0  0.27225643037E+02 -0.13045056585E+02  0.29596323577E+02  0.42277080190E+02  0.00000000000E+00 0.  1.
         22    1    1    2    0    0 -0.13506483861E+03  0.27335784403E+02  0.20518311920E+03  0.24716364648E+03  0.00000000000E+00 0.  1.
</event>
<event>
 6    1  0.3240171E-005  0.4469565E+02  0.7818608E-02  0.1491369E+00
          2   -1    0    0  502    0  0.00000000000E+00  0.00000000000E+00  0.87349568005E+02  0.87349568005E+02  0.00000000000E+00 0. -1.
          1   -1    0    0  501    0 -0.00000000000E+00 -0.00000000000E+00 -0.47043529782E+03  0.47043529782E+03  0.00000000000E+00 0. -1.
          2    1    1    2  501    0  0.11370580123E+02 -0.17549527602E+02 -0.52834485680E+02  0.56822168988E+02  0.00000000000E+00 0. -1.
          1    1    1    2  502    0 -0.45767348144E+02  0.27546132016E+02 -0.36406041178E+03  0.36795845278E+03  0.00000000000E+00 0. -1.
         22    1    1    2    0    0 -0.15424584191E+01 -0.13805777758E+02 -0.44575061269E+02  0.46689557340E+02  0.00000000000E+00 0.  1.
         22    1    1    2    0    0  0.35939226440E+02  0.38091733443E+01  0.78384228921E+02  0.86314686713E+02  0.00000000000E+00 0. -1.
</event>
<event>
 6    1  0.3240171E-005  0.1829423E+03  0.7818608E-02  0.1240729E+00
          2   -1    0    0  502    0  0.00000000000E+00  0.00000000000E+00  0.54813364612E+02  0.54813364612E+02  0.00000000000E+00 0.  1.
          1   -1    0    0  501    0 -0.00000000000E+00 -0.00000000000E+00 -0.69783413101E+03  0.69783413101E+03  0.00000000000E+00 0. -1.
          2    1    1    2  501    0  0.78555926547E+02 -0.19229194757E+02 -0.10138940830E+03  0.12969428531E+03  0.00000000000E+00 0.  1.
          1    1    1    2  502    0 -0.22398767393E+02 -0.38351105403E+01 -0.47001153907E+03  0.47056058028E+03  0.00000000000E+00 0. -1.
         22    1    1    2    0    0 -0.83537345252E+02  0.47959528912E+02 -0.60511992596E+02  0.11375546454E+03  0.00000000000E+00 0.  1.
         22    1    1    2    0    0  0.27380186098E+02 -0.24895223615E+02 -0.11107826442E+02  0.38637165500E+02  0.00000000000E+00 0. -1.
</event>
<event>
 6    1  0.3240171E-005  0.4710410E+03  0.7818608E-02  0.1113021E+00
          2   -1    0    0  502    0  0.00000000000E+00  0.00000000000E+00  0.19080731750E+03  0.19080731750E+03  0.00000000000E+00 0. -1.
          1   -1    0    0  501    0 -0.00000000000E+00 -0.00000000000E+00 -0.12074678334E+04  0.12074678334E+04  0.00000000000E+00 0. -1.
          2    1    1    2  501    0  0.76170222677E+02 -0.63172267438E+00 -0.30043570809E+03  0.30994179549E+03  0.00000000000E+00 0. -1.
          1    1    1    2  502    0  0.28986074262E+02 -0.65777106644E+01 -0.86436206679E+03  0.86487296251E+03  0.00000000000E+00 0. -1.
         22    1    1    2    0    0  0.20479378608E+01  0.37832539788E+02 -0.20829870080E+00  0.37888500955E+02  0.00000000000E+00 0.  1.
         22    1    1    2    0    0 -0.10720423480E+03 -0.30623106449E+02  0.14834555766E+03  0.18557189196E+03  0.00000000000E+00 0. -1.
</event>
<event>
 6    1  0.3240171E-005  0.1218832E+03  0.7818608E-02  0.1292615E+00
          2   -1    0    0  502    0  0.00000000000E+00  0.00000000000E+00  0.36233294855E+02  0.36233294855E+02  0.00000000000E+00 0.  1.
          1   -1    0    0  501    0 -0.00000000000E+00 -0.00000000000E+00 -0.18629267220E+04  0.18629267220E+04  0.00000000000E+00 0. -1.
          2    1    1    2  501    0 -0.41035654642E+02  0.89586299283E+01 -0.50207422986E+02  0.65459661815E+02  0.00000000000E+00 0.  1.
          1    1    1    2  502    0 -0.17686083701E+02 -0.48738438044E+02 -0.16141521850E+04  0.16149846777E+04  0.00000000000E+00 0. -1.
         22    1    1    2    0    0 -0.86110732544E+01  0.42937269481E+02 -0.93035796731E+00  0.43802114778E+02  0.00000000000E+00 0.  1.
         22    1    1    2    0    0  0.67332811597E+02 -0.31574613648E+01 -0.16140346118E+03  0.17491356254E+03  0.00000000000E+00 0.  1.
</event>
<event>
 6    1  0.3240171E-005  0.8107290E+02  0.7818608E-02  0.1330411E+00
          2   -1    0    0  502    0  0.00000000000E+00  0.00000000000E+00  0.34196319810E+02  0.34196319810E+02  0.00000000000E+00 0.  1.
          1   -1    0    0  501    0 -0.00000000000E+00 -0.00000000000E+00 -0.11720872900E+04  0.11720872900E+04  0.00000000000E+00 0.  1.
          2    1    1    2  501    0 -0.16059293727E+02  0.14598000411E+02 -0.43533076963E+02  0.48642895893E+02  0.00000000000E+00 0.  1.
          1    1    1    2  502    0 -0.17074772392E+02 -0.33614330084E+02 -0.98084944069E+03  0.98157378548E+03  0.00000000000E+00 0.  1.
         22    1    1    2    0    0 -0.44147511293E+02  0.32317823731E+02 -0.34124095937E+02  0.64481768025E+02  0.00000000000E+00 0.  1.
         22    1    1    2    0    0  0.77281577412E+02 -0.13301494057E+02 -0.79384356597E+02  0.11158516041E+03  0.00000000000E+00 0. -1.
</event>
<event>
 6    1  0.3240171E-005  0.1171928E+03  0.7818608E-02  0.1251089E+00
          2   -1    0    0  502    0  0.00000000000E+00  0.00000000000E+00  0.49084946760E+03  0.49084946760E+03  0.00000000000E+00 0. -1.
          1   -1    0    0  501    0 -0.00000000000E+00 -0.00000000000E+00 -0.80044753037E+02  0.80044753037E+02  0.00000000000E+00 0.  1.
          2    1    1    2  501    0 -0.18164231306E+02  0.78596545822E+02  0.13929617911E+03  0.16096826342E+03  0.00000000000E+00 0. -1.
          1    1    1    2  502    0  0.19111249881E+02 -0.75926643462E+01 -0.51505254965E+02  0.55458810959E+02  0.00000000000E+00 0.  1.
         22    1    1    2    0    0 -0.86409389409E+01 -0.10597996976E+03  0.20215685802E+03  0.22841588180E+03  0.00000000000E+00 0. -1.
         22    1    1    2    0    0  0.76939203654E+01  0.34976088280E+02  0.12085693240E+03  0.12605126445E+03  0.00000000000E+00 0. -1.
</event>
<event>
 6    1  0.3240171E-005  0.3025864E+03  0.7818608E-02  0.1138529E+00
          2   -1    0    0  502    0  0.00000000000E+00  0.00000000000E+00  0.77938344944E+03  0.77938344944E+03  0.00000000000E+00 0. -1.
          1   -1    0    0  501    0 -0.00000000000E+00 -0.00000000000E+00 -0.18058198925E+03  0.18058198925E+03  0.00000000000E+00 0. -1.
          2    1    1    2  501    0  0.25790690588E+03  0.85019709471E+01  0.10935311104E+02  0.25827860275E+03  0.00000000000E+00 0. -1.
          1    1    1    2  502    0 -0.23241527931E+03 -0.16969458685E+02  0.48332759683E+03  0.53657281933E+03  0.00000000000E+00 0. -1.
         22    1    1    2    0    0 -0.75131658776E+02 -0.77911314490E+01  0.59856517490E+02  0.96375674139E+02  0.00000000000E+00 0. -1.
         22    1    1    2    0    0  0.49640032209E+02  0.16258619187E+02  0.44682034763E+02  0.68738342474E+02  0.00000000000E+00 0. -1.
</event>
<event>
 6    1  0.3240171E-005  0.1646759E+03  0.7818608E-02  0.1306650E+00
          2   -1    0    0  502    0  0.00000000000E+00  0.00000000000E+00  0.10931722304E+03  0.10931722304E+03  0.00000000000E+00 0.  1.
          1   -1    0    0  501    0 -0.00000000000E+00 -0.00000000000E+00 -0.60026283866E+03  0.60026283866E+03  0.00000000000E+00 0. -1.
          2    1    1    2  501    0 -0.22141849975E+02  0.36183692751E+02  0.20026580275E+02  0.46910393932E+02  0.00000000000E+00 0.  1.
          1    1    1    2  502    0 -0.12399154337E+02  0.60689734457E+02 -0.49671849496E+03  0.50056592586E+03  0.00000000000E+00 0. -1.
         22    1    1    2    0    0  0.45878693997E+02 -0.10457376970E+03 -0.49368022974E+02  0.12440952361E+03  0.00000000000E+00 0. -1.
         22    1    1    2    0    0 -0.11337689685E+02  0.77003424936E+01  0.35114322032E+02  0.37694218305E+02  0.00000000000E+00 0.  1.
</event>
<event>
 6    1  0.3240171E-005  0.1403368E+03  0.7818608E-02  0.1213899E+00
          2   -1    0    0  502    0  0.00000000000E+00  0.00000000000E+00  0.13773198180E+03  0.13773198180E+03  0.00000000000E+00 0.  1.
          1   -1    0    0  501    0 -0.00000000000E+00 -0.00000000000E+00 -0.32978958453E+03  0.32978958453E+03  0.00000000000E+00 0.  1.
          2    1    1    2  501    0  0.11499509276E+03  0.46009787681E+02 -0.61865765779E+02  0.13844906969E+03  0.00000000000E+00 0.  1.
          1    1    1    2  502    0 -0.60282193084E+02  0.54399433167E+02 -0.13849945973E+03  0.16054700707E+03  0.00000000000E+00 0.  1.
         22    1    1    2    0    0 -0.86761189247E+02 -0.10414996530E+03  0.11826491532E+02  0.13606831054E+03  0.00000000000E+00 0.  1.
         22    1    1    2    0    0  0.32048289571E+02  0.37407444544E+01 -0.35188687555E+01  0.32457179033E+02  0.00000000000E+00 0. -1.
</event>
<event>
 6    1  0.3240171E-005  0.6097499E+02  0.7818608E-02  0.1407399E+00
          2   -1    0    0  502    0  0.00000000000E+00  0.00000000000E+00  0.24907719918E+02  0.24907719918E+02  0.00000000000E+00 0. -1.
          1   -1    0    0  501    0 -0.00000000000E+00 -0.00000000000E+00 -0.60540168771E+03  0.60540168771E+03  0.00000000000E+00 0. -1.
          2    1    1    2  501    0 -0.11686661121E+02 -0.24351235256E+02 -0.20621662884E+03  0.20797802460E+03  0.00000000000E+00 0. -1.
          1    1    1    2  502    0  0.27157074457E+02  0.25801735910E+02 -0.21518684919E+03  0.21842302153E+03  0.00000000000E+00 0. -1.
         22    1    1    2    0    0 -0.23704972959E+02  0.42146437322E+02 -0.11377399187E+02  0.49675880809E+02  0.00000000000E+00 0. -1.
         22    1    1    2    0    0  0.82345596228E+01 -0.43596937975E+02 -0.14771309058E+03  0.15423248069E+03  0.00000000000E+00 0. -1.
</event>
<event>
 6    1  0.3240171E-005  0.1191140E+03  0.7818608E-02  0.1288743E+00
          2   -1    0    0  502    0  0.00000000000E+00  0.00000000000E+00  0.14098512251E+03  0.14098512251E+03  0.00000000000E+00 0. -1.
          1   -1    0    0  501    0 -0.00000000000E+00 -0.00000000000E+00 -0.16502903897E+03  0.16502903897E+03  0.00000000000E+00 0. -1.
          2    1    1    2  501    0 -0.94556390296E+01  0.28861528899E+02 -0.30465762199E+02  0.43018131366E+02  0.00000000000E+00 0. -1.
          1    1    1    2  502    0 -0.60656939059E+02  0.31134455627E+02 -0.61890301310E+02  0.92081637580E+02  0.00000000000E+00 0. -1.
         22    1    1    2    0    0 -0.14979225681E+02 -0.48167322644E+02  0.68419755583E+02  0.85004300636E+02  0.00000000000E+00 0. -1.
         22    1    1    2    0    0  0.85091803770E+02 -0.11828661882E+02 -0.10760854043E+00  0.85910091900E+02  0.00000000000E+00 0. -1.
</event>
<event>
 6    1  0.3240171E-005  0.1658703E+03  0.7818608E-02  0.1205356E+00
          2   -1    0    0  502    0  0.00000000000E+00  0.00000000000E+00  0.33018406483E+03  0.33018406483E+03  0.00000000000E+00 0. -1.
          1   -1    0    0  501    0 -0.00000000000E+00 -0.00000000000E+00 -0.44708091805E+03  0.44708091805E+03  0.00000000000E+00 0. -1.
          2    1    1    2  501    0  0.15284921873E+03  0.85516461023E+02 -0.89512417210E+00  0.17514779479E+03  0.00000000000E+00 0. -1.
          1    1    1    2  502    0 -0.15045317267E+03  0.13352861394E+02 -0.31504597283E+03  0.34938291468E+03  0.00000000000E+00 0. -1.
         22    1    1    2    0    0  0.35869697933E+02 -0.66730884718E+01  0.82524433481E+01  0.37406792976E+02  0.00000000000E+00 0. -1.
         22    1    1    2    0    0 -0.38265743992E+02 -0.92196233945E+02  0.19079180044E+03  0.21532748044E+03  0.00000000000E+00 0. -1.
</event>
<event>
 6    1  0.3240171E-005  0.6444468E+02  0.7818608E-02  0.1382539E+00
          2   -1    0    0  502    0  0.00000000000E+00  0.00000000000E+00  0.62934126932E+02  0.62934126932E+02  0.00000000000E+00 0. -1.
          1   -1    0    0  501    0 -0.00000000000E+00 -0.00000000000E+00 -0.75261736304E+03  0.75261736304E+03  0.00000000000E+00 0.  1.
          2    1    1    2  501    0 -0.60360628349E+02  0.38373891740E+02 -0.18336611073E+03  0.19682248751E+03  0.00000000000E+00 0. -1.
          1    1    1    2  502    0  0.36459692406E+02 -0.11720448589E+02 -0.48327199438E+03  0.48478706525E+03  0.00000000000E+00 0.  1.
         22    1    1    2    0    0 -0.13180908545E+02  0.20381097743E+02 -0.59199164402E+02  0.63981767412E+02  0.00000000000E+00 0. -1.
         22    1    1    2    0    0  0.37081844488E+02 -0.47034540894E+02  0.36154033404E+02  0.69960169805E+02  0.00000000000E+00 0. -1.
</event>
<event>
 6    1  0.3240171E-005  0.1426741E+03  0.7818608E-02  0.1292141E+00
          2   -1    0    0  502    0  0.00000000000E+00  0.00000000000E+00  0.24490842936E+03  0.24490842936E+03  0.00000000000E+00 0.  1.
          1   -1    0    0  501    0 -0.00000000000E+00 -0.00000000000E+00 -0.11324860469E+04  0.11324860469E+04  0.00000000000E+00 0.  1.
          2    1    1    2  501    0  0.56122868976E+02  0.50929290118E+02  0.57852507627E+02  0.95344017394E+02  0.00000000000E+00 0.  1.
          1    1    1    2  502    0 -0.32832182744E+02 -0.35214869190E+02 -0.10882357645E+04  0.10893002885E+04  0.00000000000E+00 0.  1.
         22    1    1    2    0    0 -0.45462727570E+02 -0.32056986507E+02  0.92602222839E+01  0.56393809047E+02  0.00000000000E+00 0.  1.
         22    1    1    2    0    0  0.22172041339E+02  0.16342565579E+02  0.13354541707E+03  0.13635636137E+03  0.00000000000E+00 0.  1.
</event>
<event>
 6    1  0.3240171E-005  0.1413087E+03  0.7818608E-02  0.1265879E+00
          2   -1    0    0  502    0  0.00000000000E+00  0.00000000000E+00  0.10921793909E+04  0.10921793909E+04  0.00000000000E+00 0.  1.
          1   -1    0    0  501    0 -0.00000000000E+00 -0.00000000000E+00 -0.51243727756E+02  0.51243727756E+02  0.00000000000E+00 0. -1.
          2    1    1    2  501    0  0.18287610447E+02  0.12756518698E+02  0.37926148463E+02  0.43994979286E+02  0.00000000000E+00 0.  1.
          1    1    1    2  502    0  0.41129372678E+02 -0.10591921893E+03  0.36726131990E+02  0.11941237376E+03  0.00000000000E+00 0. -1.
         22    1    1    2    0    0 -0.41213711220E+02 -0.22114125463E+02  0.28083276978E+03  0.28470098194E+03  0.00000000000E+00 0.  1.
         22    1    1    2    0    0 -0.18203271905E+02  0.11527682569E+03  0.68545061294E+03  0.69531478370E+03  0.00000000000E+00 0.  1.
</event>
<event>
 6    1  0.3240171E-005  0.4172625E+03  0.7818608E-02  0.1166733E+00
          2   -1    0    0  502    0  0.00000000000E+00  0.00000000000E+00  0.70691973934E+02  0.70691973934E+02  0.00000000000E+00 0.  1.
          1   -1    0    0  501    0 -0.00000000000E+00 -0.00000000000E+00 -0.97873277889E+03  0.97873277889E+03  0.00000000000E+00 0.  1.
          2    1    1    2  501    0 -0.21794196664E+02  0.17832160459E+03 -0.38374792967E+03  0.42371695175E+03  0.00000000000E+00 0.  1.
          1    1    1    2  502    0 -0.18671586504E+02  0.25701682574E+02 -0.28104523654E+03  0.28283498654E+03  0.00000000000E+00 0.  1.
         22    1    1    2    0    0  0.42567778616E+02 -0.21868285989E+03 -0.24045926818E+03  0.32780309431E+03  0.00000000000E+00 0.  1.
         22    1    1    2    0    0 -0.21019954468E+01  0.14659572724E+02 -0.27883705646E+01  0.15069720227E+02  0.00000000000E+00 0. -1.
</event>
<event>
 6    1  0.3240171E-005  0.6987614E+02  0.7818608E-02  0.1361998E+00
          2   -1    0    0  502    0  0.00000000000E+00  0.00000000000E+00  0.46832950599E+02  0.46832950599E+02  0.00000000000E+00 0. -1.
          1   -1    0    0  501    0 -0.00000000000E+00 -0.00000000000E+00 -0.35236144636E+03  0.35236144636E+03  0.00000000000E+00 0. -1.
          2    1    1    2  501    0 -0.49626662360E+02 -0.46349510721E+01  0.36014594643E-01  0.49842649263E+02  0.00000000000E+00 0. -1.
          1    1    1    2  502    0 -0.26975972111E+01  0.22771953645E+02 -0.81264842215E+02  0.84438222883E+02  0.00000000000E+00 0. -1.
         22    1    1    2    0    0  0.70548912715E+02 -0.19686132561E+02 -0.23330098180E+03  0.24452820084E+03  0.00000000000E+00 0. -1.
         22    1    1    2    0    0 -0.18224653143E+02  0.15491299876E+01  0.90013136547E+01  0.20385323971E+02  0.00000000000E+00 0.  1.
</event>
<event>
 6    1  0.3240171E-005  0.8943061E+02  0.7818608E-02  0.1406192E+00
          2   -1    0    0  502    0  0.00000000000E+00  0.00000000000E+00  0.81922054640E+02  0.81922054640E+02  0.00000000000E+00 0. -1.
          1   -1    0    0  501    0 -0.00000000000E+00 -0.00000000000E+00 -0.15055588146E+03  0.15055588146E+03  0.00000000000E+00 0. -1.
          2    1    1    2  501    0 -0.27263026408E+02  0.26077283995E+01  0.11050708040E+02  0.29532880058E+02  0.00000000000E+00 0. -1.
          1    1    1    2  502    0 -0.40165353353E+01  0.20552080278E+02 -0.72879227374E+02  0.75828110503E+02  0.00000000000E+00 0. -1.
         22    1    1    2    0    0  0.30222744560E+02 -0.39003498480E+02 -0.56461362743E+02  0.74983816022E+02  0.00000000000E+00 0. -1.
         22    1    1    2    0    0  0.10568171833E+01  0.15843689803E+02  0.49656055259E+02  0.52133129515E+02  0.00000000000E+00 0. -1.
</event>
<event>
 6    1  0.3240171E-005  0.1363100E+03  0.7818608E-02  0.1307694E+00
          2   -1    0    0  502    0  0.00000000000E+00  0.00000000000E+00  0.67402385563E+02  0.67402385563E+02  0.00000000000E+00 0. -1.
          1   -1    0    0  501    0 -0.00000000000E+00 -0.00000000000E+00 -0.41666345618E+03  0.41666345618E+03  0.00000000000E+00 0. -1.
          2    1    1    2  501    0 -0.23704046478E+02  0.44968110508E+01 -0.79690064414E+02  0.83262293359E+02  0.00000000000E+00 0. -1.
          1    1    1    2  502    0  0.47136288213E+02  0.72044740997E+02 -0.23705766374E+03  0.25220747473E+03  0.00000000000E+00 0. -1.
         22    1    1    2    0    0 -0.61884646491E+00  0.23702245763E+02  0.21900375763E+02  0.32277017887E+02  0.00000000000E+00 0.  1.
         22    1    1    2    0    0 -0.22813395270E+02 -0.10024379781E+03 -0.54413718222E+02  0.11631905576E+03  0.00000000000E+00 0. -1.
</event>
<event>
 6    1  0.3240171E-005  0.7859531E+02  0.7818608E-02  0.1400558E+00
          2   -1    0    0  502    0  0.00000000000E+00  0.00000000000E+00  0.13090125131E+03  0.13090125131E+03  0.00000000000E+00 0.  1.
          1   -1    0    0  501    0 -0.00000000000E+00 -0.00000000000E+00 -0.84307854010E+02  0.84307854010E+02  0.00000000000E+00 0.  1.
          2    1    1    2  501    0 -0.40041109975E+02 -0.22810845140E+02 -0.13113376200E+02  0.47912271699E+02  0.00000000000E+00 0.  1.
          1    1    1    2  502    0  0.19155618046E+02  0.85007228141E+01  0.29574402363E+02  0.36247003548E+02  0.00000000000E+00 0.  1.
         22    1    1    2    0    0 -0.56470346462E+01  0.24818905815E+02  0.74258493522E+02  0.78499623861E+02  0.00000000000E+00 0.  1.
         22    1    1    2    0    0  0.26532526575E+02 -0.10508783489E+02 -0.44126122381E+02  0.52550206216E+02  0.00000000000E+00 0. -1.
</event>
<event>
 6    1  0.3240171E-005  0.1769791E+03  0.7818608E-02  0.1256624E+00
          2   -1    0    0  502    0  0.00000000000E+00  0.00000000000E+00  0.78289932539E+03  0.78289932539E+03  0.00000000000E+00 0. -1.
          1   -1    0    0  501    0 -0.00000000000E+00 -0.00000000000E+00 -0.97881350596E+03  0.97881350596E+03  0.00000000000E+00 0.  1.
          2    1    1    2  501    0  0.36598296422E+02  0.19183922131E+02  0.66104581923E+02  0.77956872183E+02  0.00000000000E+00 0. -1.
          1    1    1    2  502    0 -0.10249188499E+03  0.79458103926E+02 -0.95763860676E+03  0.96637977934E+03  0.00000000000E+00 0.  1.
         22    1    1    2    0    0  0.87095390915E+02 -0.11775829555E+03  0.56531312166E+03  0.58397906539E+03  0.00000000000E+00 0. -1.
         22    1    1    2    0    0 -0.21201802347E+02  0.19116269494E+02  0.13030672260E+03  0.13339711443E+03  0.00000000000E+00 0. -1.
</event>
<event>
 6    1  0.3240171E-005  0.1973009E+03  0.7818608E-02  0.1200483E+00
          2   -1    0    0  502    0  0.00000000000E+00  0.00000000000E+00  0.42494472521E+03  0.42494472521E+03  0.00000000000E+00 0. -1.
          1   -1    0    0  501    0 -0.00000000000E+00 -0.00000000000E+00 -0.96989446842E+03  0.96989446842E+03  0.00000000000E+00 0. -1.
          2    1    1    2  501    0 -0.11130827211E+03  0.10213692144E+03  0.14309956368E+03  0.20808403901E+03  0.00000000000E+00 0. -1.
          1    1    1    2  502    0  0.76447873613E+02 -0.16729117427E+03 -0.90701731638E+03  0.92547880937E+03  0.00000000000E+00 0. -1.
         22    1    1    2    0    0 -0.30951729263E+02  0.68554852699E+02  0.13495174165E+03  0.15449838170E+03  0.00000000000E+00 0. -1.
         22    1    1    2    0    0  0.65812127765E+02 -0.34005998755E+01  0.84016267834E+02  0.10677796356E+03  0.00000000000E+00 0.  1.
</event>
<event>
 6    1  0.3240171E-005  0.1257614E+03  0.7818608E-02  0.1334108E+00
          2   -1    0    0  502    0  0.00000000000E+00  0.00000000000E+00  0.12604045200E+03  0.12604045200E+03  0.00000000000E+00 0.  1.
          1   -1    0    0  501    0 -0.00000000000E+00 -0.00000000000E+00 -0.37825291411E+03  0.37825291411E+03  0.00000000000E+00 0.  1.
          2    1    1    2  501    0  0.57149212907E+01  0.24954056239E+02 -0.18492595479E+03  0.18668951230E+03  0.00000000000E+00 0.  1.
          1    1    1    2  502    0 -0.31354804277E+02  0.14427167175E+02 -0.15310637498E+03  0.15694849143E+03  0.00000000000E+00 0.  1.
         22    1    1    2    0    0  0.90399213218E+01 -0.48299795472E+02 -0.20086643477E+02  0.53085437422E+02  0.00000000000E+00 0.  1.
         22    1    1    2    0    0  0.16599961665E+02  0.89185720578E+01  0.10590651113E+03  0.10756992495E+03  0.00000000000E+00 0.  1.
</event>
<event>
 6    1  0.3240171E-005  0.9988928E+02  0.7818608E-02  0.1369874E+00
          2   -1    0    0  502    0  0.00000000000E+00  0.00000000000E+00  0.40833683319E+02  0.40833683319E+02  0.00000000000E+00 0. -1.
          1   -1    0    0  501    0 -0.00000000000E+00 -0.00000000000E+00 -0.88636024417E+03  0.88636024417E+03  0.00000000000E+00 0. -1.
          2    1    1    2  501    0  0.31393291943E+02 -0.59823330847E+01 -0.39395062978E+02  0.50727685491E+02  0.00000000000E+00 0. -1.
          1    1    1    2  502    0 -0.69738092880E+02  0.54460201709E+02 -0.69275452670E+03  0.69838252371E+03  0.00000000000E+00 0. -1.
         22    1    1    2    0    0  0.19753453797E+02 -0.57028863600E+02 -0.13526567681E+03  0.14811918695E+03  0.00000000000E+00 0.  1.
         22    1    1    2    0    0  0.18591347139E+02  0.85509949760E+01  0.21888705636E+02  0.29964531332E+02  0.00000000000E+00 0. -1.
</event>
<event>
 6    1  0.3240171E-005  0.7503175E+02  0.7818608E-02  0.1385633E+00
          2   -1    0    0  502    0  0.00000000000E+00  0.00000000000E+00  0.23970572307E+03  0.23970572307E+03  0.00000000000E+00 0.  1.
          1   -1    0    0  501    0 -0.00000000000E+00 -0.00000000000E+00 -0.42074722252E+03  0.42074722252E+03  0.00000000000E+00 0.  1.
          2    1    1    2  501    0  0.54945854644E+01 -0.22379179979E+02  0.14177707705E+02  0.27055970907E+02  0.00000000000E+00 0.  1.
          1    1    1    2  502    0 -0.38169333745E+02  0.45714613641E+02 -0.39237416512E+03  0.39686799996E+03  0.00000000000E+00 0.  1.
         22    1    1    2    0    0  0.65641523000E+02 -0.58700354366E+01  0.44839328169E+02  0.79710929040E+02  0.00000000000E+00 0.  1.
         22    1    1    2    0    0 -0.32966774719E+02 -0.17465398225E+02  0.15231562980E+03  0.15681804568E+03  0.00000000000E+00 0.  1.
</event>
<event>
 6    1  0.3240171E-005  0.8136619E+02  0.7818608E-02  0.1331166E+00
          2   -1    0    0  502    0  0.00000000000E+00  0.00000000000E+00  0.12191416913E+03  0.12191416913E+03  0.00000000000E+00 0. -1.
          1   -1    0    0  501    0 -0.00000000000E+00 -0.00000000000E+00 -0.57089025604E+03  0.57089025604E+03  0.00000000000E+00 0. -1.
          2    1    1    2  501    0  0.50602477397E+02 -0.35771584487E+02  0.45586777348E+02  0.76930951147E+02  0.00000000000E+00 0. -1.
          1    1    1    2  502    0 -0.16007226876E+02 -0.67452784500E+02 -0.43596302767E+03  0.44144067659E+03  0.00000000000E+00 0. -1.
         22    1    1    2    0    0 -0.46251759598E+02  0.10059196419E+03 -0.88817235126E+02  0.14193826046E+03  0.00000000000E+00 0. -1.
         22    1    1    2    0    0  0.11656509078E+02  0.26324047956E+01  0.30217398539E+02  0.32494536977E+02  0.00000000000E+00 0. -1.
</event>
<event>
 6    1  0.3240171E-005  0.2558090E+03  0.7818608E-02  0.1159698E+00
          2   -1    0    0  502    0  0.00000000000E+00  0.00000000000E+00  0.44977107841E+03  0.44977107841E+03  0.00000000000E+00 0. -1.
          1   -1    0    0  501    0 -0.00000000000E+00 -0.00000000000E+00 -0.25784687209E+03  0.25784687209E+03  0.00000000000E+00 0. -1.
          2    1    1    2  501    0  0.10005274132E+03  0.81588540131E+02 -0.46818442996E+02  0.13732882994E+03  0.00000000000E+00 0. -1.
          1    1    1    2  502    0 -0.20991273252E+03 -0.21407606270E+03  0.93180715987E+02  0.31396586076E+03  0.00000000000E+00 0. -1.
         22    1    1    2    0    0  0.53409296136E+02  0.82143572255E+02  0.67145030492E+01  0.98209999123E+02  0.00000000000E+00 0. -1.
         22    1    1    2    0    0  0.56450695058E+02  0.50343950312E+02  0.13884743028E+03  0.15811326068E+03  0.00000000000E+00 0. -1.
</event>
<event>
 6    1  0.3240171E-005  0.2890137E+03  0.7818608E-02  0.1187974E+00
          2   -1    0    0  502    0  0.00000000000E+00  0.00000000000E+00  0.77932954375E+03  0.77932954375E+03  0.00000000000E+00 0. -1.
          1   -1    0    0  501    0 -0.00000000000E+00 -0.00000000000E+00 -0.57499068182E+02  0.57499068182E+02  0.00000000000E+00 0.  1.
          2    1    1    2  501    0 -0.16300701810E+03 -0.55764890489E+02  0.28232106345E+03  0.33073583693E+03  0.00000000000E+00 0. -1.
          1    1    1    2  502    0  0.70797330077E+02  0.57883409519E+02  0.13074889174E+03  0.15955570731E+03  0.00000000000E+00 0.  1.
         22    1    1    2    0    0  0.11462033105E+03 -0.18203540750E+02  0.17516799712E+03  0.21012619161E+03  0.00000000000E+00 0.  1.
         22    1    1    2    0    0 -0.22410643021E+02  0.16085021720E+02  0.13359252325E+03  0.13641087608E+03  0.00000000000E+00 0. -1.
</event>
<event>
 6    1  0.3240171E-005  0.2798343E+03  0.7818608E-02  0.1147247E+00
          2   -1    0    0  502    0  0.00000000000E+00  0.00000000000E+00  0.10266314159E+04  0.10266314159E+04  0.00000000000E+00 0. -1.
          1   -1    0    0  501    0 -0.00000000000E+00 -0.00000000000E+00 -0.10243582047E+03  0.10243582047E+03  0.00000000000E+00 0. -1.
          2    1    1    2  501    0  0.21408802702E+03  0.14244573693E+02  0.43734453816E+03  0.48714149511E+03  0.00000000000E+00 0. -1.
          1    1    1    2  502    0 -0.26914465436E+03  0.13463708296E+02  0.24484304524E+03  0.36409920793E+03  0.00000000000E+00 0. -1.
         22    1    1    2    0    0  0.34768583704E+02  0.47057855467E+02  0.92777358037E+02  0.10968561591E+03  0.00000000000E+00 0. -1.
         22    1    1    2    0    0  0.20288043631E+02 -0.74766137456E+02  0.14923065401E+03  0.16814091745E+03  0.00000000000E+00 0. -1.
</event>
<event>
 6    1  0.3240171E-005  0.2040816E+03  0.7818608E-02  0.1246252E+00
          2   -1    0    0  502    0  0.00000000000E+00  0.00000000000E+00  0.23386983805E+03  0.23386983805E+03  0.00000000000E+00 0. -1.
          1   -1    0    0  501    0 -0.00000000000E+00 -0.00000000000E+00 -0.25631155595E+03  0.25631155595E+03  0.00000000000E+00 0. -1.
          2    1    1    2  501    0  0.15697425271E+03  0.24789083308E+01 -0.70479326009E+02  0.17208833893E+03  0.00000000000E+00 0. -1.
          1    1    1    2  502    0 -0.18463970589E+03 -0.15287303863E+02  0.51869876655E+02  0.19239544369E+03  0.00000000000E+00 0. -1.
         22    1    1    2    0    0  0.11691671649E+02  0.29207299305E+02 -0.58503911158E+02  0.66426418987E+02  0.00000000000E+00 0.  1.
         22    1    1    2    0    0  0.15973781529E+02 -0.16398903773E+02  0.54671642619E+02  0.59271192395E+02  0.00000000000E+00 0.  1.
</event>
<event>
 6    1  0.3240171E-005  0.9263908E+02  0.7818608E-02  0.1317404E+00
          2   -1    0    0  502    0  0.00000000000E+00  0.00000000000E+00  0.23659214174E+03  0.23659214174E+03  0.00000000000E+00 0. -1.
          1   -1    0    0  501    0 -0.00000000000E+00 -0.00000000000E+00 -0.77980172536E+03  0.77980172536E+03  0.00000000000E+00 0.  1.
          2    1    1    2  501    0  0.93354079639E+02 -0.70231378613E+01  0.90558867749E+02  0.13025059377E+03  0.00000000000E+00 0. -1.
          1    1    1    2  502    0 -0.86777396980E+02  0.15597348925E+01 -0.72695966877E+03  0.73212233227E+03  0.00000000000E+00 0.  1.
         22    1    1    2    0    0  0.55685331017E+02 -0.63563419983E+01  0.26416202230E+02  0.61960268837E+02  0.00000000000E+00 0.  1.
         22    1    1    2    0    0 -0.62262013675E+02  0.11819744967E+02  0.66775015166E+02  0.92060672213E+02  0.00000000000E+00 0. -1.
</event>
<event>
 6    1  0.3240171E-005  0.2010544E+03  0.7818608E-02  0.1236382E+00
          2   -1    0    0  502    0  0.00000000000E+00  0.00000000000E+00  0.77457539502E+02  0.77457539502E+02  0.00000000000E+00 0. -1.
          1   -1    0    0  501    0 -0.00000000000E+00 -0.00000000000E+00 -0.60166692624E+03  0.60166692624E+03  0.00000000000E+00 0. -1.
          2    1    1    2  501    0  0.33830739408E+02  0.16260578422E+02 -0.11011242778E+03  0.11633431176E+03  0.00000000000E+00 0. -1.
          1    1    1    2  502    0  0.46356814865E+02 -0.50515505298E+02 -0.40461015847E+03  0.41037805849E+03  0.00000000000E+00 0. -1.
         22    1    1    2    0    0 -0.10857082111E+03  0.41298558020E+02  0.11038938362E+02  0.11668355604E+03  0.00000000000E+00 0. -1.
         22    1    1    2    0    0  0.28383266835E+02 -0.70436311438E+01 -0.20525738853E+02  0.35728539452E+02  0.00000000000E+00 0. -1.
</event>
<event>
 6    1  0.3240171E-005  0.1600721E+03  0.7818608E-02  0.1267082E+00
          2   -1    0    0  502    0  0.00000000000E+00  0.00000000000E+00  0.11407109235E+04  0.11407109235E+04  0.00000000000E+00 0.  1.
          1   -1    0    0  501    0 -0.00000000000E+00 -0.00000000000E+00 -0.85167282709E+02  0.85167282709E+02  0.00000000000E+00 0.  1.
          2    1    1    2  501    0 -0.17094422090E+01  0.35383666605E+02  0.26741703145E+03  0.26975321085E+03  0.00000000000E+00 0.  1.
          1    1    1    2  502    0  0.83236143445E+02 -0.13299658617E+03  0.94242242031E+01  0.15717876291E+03  0.00000000000E+00 0.  1.
         22    1    1    2    0    0 -0.26907743366E+02 -0.16247923991E+02  0.47762211701E+02  0.57177360499E+02  0.00000000000E+00 0. -1.
         22    1    1    2    0    0 -0.54618957869E+02  0.11386084355E+03  0.73094017346E+03  0.74176887197E+03  0.00000000000E+00 0.  1.
</event>
<event>
 6    1  0.3240171E-005  0.9067229E+02  0.7818608E-02  0.1304870E+00
          2   -1    0    0  502    0  0.00000000000E+00  0.00000000000E+00  0.28008576467E+03  0.28008576467E+03  0.00000000000E+00 0. -1.
          1   -1    0    0  501    0 -0.00000000000E+00 -0.00000000000E+00 -0.10681672187E+04  0.10681672187E+04  0.00000000000E+00 0.  1.
          2    1    1    2  501    0 -0.57024573256E+02 -0.28383485140E+02 -0.15350344378E+01  0.63716406949E+02  0.00000000000E+00 0. -1.
          1    1    1    2  502    0  0.48815121094E+02 -0.29722731071E+02 -0.10167106754E+04  0.10183157439E+04  0.00000000000E+00 0.  1.
         22    1    1    2    0    0  0.23063676548E+02  0.83811454724E+02  0.21696417914E+03  0.23373007540E+03  0.00000000000E+00 0. -1.
         22    1    1    2    0    0 -0.14854224385E+02 -0.25705238513E+02  0.13200076734E+02  0.32490757069E+02  0.00000000000E+00 0. -1.
</event>
<event>
 6    1  0.3240171E-005  0.1351554E+03  0.7818608E-02  0.1289235E+00
          2   -1    0    0  502    0  0.00000000000E+00  0.00000000000E+00  0.26037026382E+03  0.26037026382E+03  0.00000000000E+00 0. -1.
          1   -1    0    0  501    0 -0.00000000000E+00 -0.00000000000E+00 -0.32908522949E+03  0.32908522949E+03  0.00000000000E+00 0. -1.
          2    1    1    2  501    0 -0.33153994813E+02 -0.59081233437E+02  0.43517680656E+02  0.80520606345E+02  0.00000000000E+00 0. -1.
          1    1    1    2  502    0  0.13024379367E+02  0.37850268670E+02 -0.28795466911E+03  0.29072352633E+03  0.00000000000E+00 0. -1.
         22    1    1    2    0    0 -0.27471425476E+02 -0.20391208308E+02  0.14295873092E+03  0.14699550789E+03  0.00000000000E+00 0.  1.
         22    1    1    2    0    0  0.47601040922E+02  0.41622173076E+02  0.32763291869E+02  0.71215852747E+02  0.00000000000E+00 0. -1.
</event>
<event>
 6    1  0.3240171E-005  0.3389102E+03  0.7818608E-02  0.1167106E+00
          2   -1    0    0  502    0  0.00000000000E+00  0.00000000000E+00  0.23028514050E+03  0.23028514050E+03  0.00000000000E+00 0. -1.
          1   -1    0    0  501    0 -0.00000000000E+00 -0.00000000000E+00 -0.84455496209E+03  0.84455496209E+03  0.00000000000E+00 0. -1.
          2    1    1    2  501    0  0.16224471327E+03  0.51465919434E+02 -0.24897165035E+02  0.17202312831E+03  0.00000000000E+00 0. -1.
          1    1    1    2  502    0 -0.22920193467E+02  0.31443833267E+01 -0.68519380393E+03  0.68558425548E+03  0.00000000000E+00 0. -1.
         22    1    1    2    0    0 -0.20692352654E+01  0.27186345208E+02  0.39132620390E+02  0.47694245763E+02  0.00000000000E+00 0. -1.
         22    1    1    2    0    0 -0.13725528453E+03 -0.81796647968E+02  0.56688526982E+02  0.16953847305E+03  0.00000000000E+00 0. -1.
</event>
<event>
 6    1  0.3240171E-005  0.1731201E+03  0.7818608E-02  0.1178628E+00
          2   -1    0    0  502    0  0.00000000000E+00  0.00000000000E+00  0.14757218443E+04  0.14757218443E+04  0.00000000000E+00 0. -1.
          1   -1    0    0  501    0 -0.00000000000E+00 -0.00000000000E+00 -0.46263801976E+02  0.46263801976E+02  0.00000000000E+00 0. -1.
          2    1    1    2  501    0 -0.23675277403E+02  0.10509760052E+03  0.48444408120E+02  0.11812233097E+03  0.00000000000E+00 0. -1.
          1    1    1    2  502    0  0.47122946711E+02  0.35618311463E+02  0.36825825362E+03  0.37296565201E+03  0.00000000000E+00 0. -1.
         22    1    1    2    0    0  0.35202534196E+01  0.22016475925E+02  0.60852036891E+02  0.64808084296E+02  0.00000000000E+00 0.  1.
         22    1    1    2    0    0 -0.26967922728E+02 -0.16273238791E+03  0.95190334371E+03  0.96608957902E+03  0.00000000000E+00 0. -1.
</event>
<event>
 6    1  0.3240171E-005  0.7532905E+02  0.7818608E-02  0.1426593E+00
          2   -1    0    0  502    0  0.00000000000E+00  0.00000000000E+00  0.12687645022E+03  0.12687645022E+03  0.00000000000E+00 0.  1.
          1   -1    0    0  501    0 -0.00000000000E+00 -0.00000000000E+00 -0.31798836192E+03  0.31798836192E+03  0.00000000000E+00 0.  1.
          2    1    1    2  501    0  0.58173535428E+01  0.56258132899E+02 -0.96695055692E+02  0.11202121636E+03  0.00000000000E+00 0.  1.
          1    1    1    2  502    0 -0.85872384114E+00 -0.66506659644E+02 -0.16981577890E+03  0.18237673082E+03  0.00000000000E+00 0.  1.
         22    1    1    2    0    0 -0.47214999856E+01  0.29628794955E+02 -0.30515119613E+02  0.42794048390E+02  0.00000000000E+00 0.  1.
         22    1    1    2    0    0 -0.23712971607E+00 -0.19380268210E+02  0.10591404251E+03  0.10767281656E+03  0.00000000000E+00 0.  1.
</event>
<event>
 6    1  0.3240171E-005  0.3634337E+03  0.7818608E-02  0.1057232E+00
          2   -1    0    0  502    0  0.00000000000E+00  0.00000000000E+00  0.80206914452E+03  0.80206914452E+03  0.00000000000E+00 0. -1.
          1   -1    0    0  501    0 -0.00000000000E+00 -0.00000000000E+00 -0.20952532735E+03  0.20952532735E+03  0.00000000000E+00 0. -1.
          2    1    1    2  501    0 -0.12764903007E+03 -0.65287043613E+02  0.19594765411E+03  0.24280065093E+03  0.00000000000E+00 0. -1.
          1    1    1    2  502    0  0.30470438981E+03  0.10207296833E+03  0.57847989056E+01  0.32139869311E+03  0.00000000000E+00 0. -1.
         22    1    1    2    0    0 -0.60695568602E+02 -0.61190533857E+02  0.24220169203E+03  0.25707954626E+03  0.00000000000E+00 0.  1.
         22    1    1    2    0    0 -0.11635979114E+03  0.24404609136E+02  0.14860967213E+03  0.19031558158E+03  0.00000000000E+00 0. -1.
</event>
<event>
 6    1  0.3240171E-005  0.7264990E+02  0.7818608E-02  0.1369577E+00
          2   -1    0    0  502    0  0.00000000000E+00  0.00000000000E+00  0.20201639327E+02  0.20201639327E+02  0.00000000000E+00 0.  1.
          1   -1    0    0  501    0 -0.00000000000E+00 -0.00000000000E+00 -0.81354804689E+03  0.81354804689E+03  0.00000000000E+00 0. -1.
          2    1    1    2  501    0  0.32834138138E+02 -0.96203988402E+01 -0.10775270644E+03  0.11305431636E+03  0.00000000000E+00 0.  1.
          1    1    1    2  502    0 -0.64760496974E+02  0.13546300966E+01 -0.44150423063E+03  0.44623059359E+03  0.00000000000E+00 0. -1.
         22    1    1    2    0    0  0.24848442598E+02 -0.44715726681E+02 -0.19599339761E+03  0.20255950537E+03  0.00000000000E+00 0.  1.
         22    1    1    2    0    0  0.70779162373E+01  0.52981495425E+02 -0.48096072883E+02  0.71905270895E+02  0.00000000000E+00 0.  1.
</event>
<event>
 6    1  0.3240171E-005  0.3253201E+03  0.7818608E-02  0.1154518E+00
          2   -1    0    0  502    0  0.00000000000E+00  0.00000000000E+00  0.38334535563E+03  0.38334535563E+03  0.00000000000E+00 0.  1.
          1   -1    0    0  501    0 -0.00000000000E+00 -0.00000000000E+00 -0.10349196897E+04  0.10349196897E+04  0.00000000000E+00 0.  1.
          2    1    1    2  501    0 -0.25691172215E+02  0.16530206224E+03  0.10894613075E+03  0.19963483543E+03  0.00000000000E+00 0.  1.
          1    1    1    2  502    0  0.66021598052E+02  0.21244360838E+02 -0.93142616141E+03  0.93400474754E+03  0.00000000000E+00 0.  1.
         22    1    1    2    0    0 -0.58636691050E+02 -0.14928676516E+03  0.69025451998E+02  0.17461189196E+03  0.00000000000E+00 0.  1.
         22    1    1    2    0    0  0.18306265212E+02 -0.37259657911E+02  0.10188024455E+03  0.11001357045E+03  0.00000000000E+00 0.  1.
</event>
<event>
 6    1  0.3240171E-005  0.3256687E+03  0.7818608E-02  0.1161327E+00
          2   -1    0    0  502    0  0.00000000000E+00  0.00000000000E+00  0.89268199263E+03  0.89268199263E+03  0.00000000000E+00 0. -1.
          1   -1    0    0  501    0 -0.00000000000E+00 -0.00000000000E+00 -0.92367679199E+03  0.92367679199E+03  0.00000000000E+00 0. -1.
          2    1    1    2  501    0  0.17686056598E+03  0.19079097929E+03  0.60965954969E+03  0.66284660677E+03  0.00000000000E+00 0. -1.
          1    1    1    2  502    0 -0.19079129709E+03 -0.20435813299E+03 -0.85723510246E+03  0.90167376942E+03  0.00000000000E+00 0. -1.
         22    1    1    2    0    0  0.46837940250E+02  0.80666029154E+00  0.18061720373E+02  0.50206265451E+02  0.00000000000E+00 0.  1.
         22    1    1    2    0    0 -0.32907209134E+02  0.12760493409E+02  0.19851903304E+03  0.20163214298E+03  0.00000000000E+00 0. -1.
</event>
<event>
 6    1  0.3240171E-005  0.3542313E+03  0.7818608E-02  0.1134839E+00
          2   -1    0    0  502    0  0.00000000000E+00  0.00000000000E+00  0.69324922927E+02  0.69324922927E+02  0.00000000000E+00 0. -1.
          1   -1    0    0  501    0 -0.00000000000E+00 -0.00000000000E+00 -0.14245437720E+04  0.14245437720E+04  0.00000000000E+00 0. -1.
          2    1    1    2  501    0 -0.15447322769E+02 -0.10349342082E+03 -0.49458346131E+03  0.50553170834E+03  0.00000000000E+00 0. -1.
          1    1    1    2  502    0  0.37282159097E+02  0.18449485454E+01 -0.81829755769E+03  0.81914849457E+03  0.00000000000E+00 0. -1.
         22    1    1    2    0    0 -0.18501679284E+02  0.49603055350E+02 -0.86122594159E+02  0.10109340464E+03  0.00000000000E+00 0. -1.
         22    1    1    2    0    0 -0.33331570442E+01  0.52045416924E+02  0.43784764095E+02  0.68095087381E+02  0.00000000000E+00 0. -1.
</event>
<event>
 6    1  0.3240171E-005  0.2217503E+03  0.7818608E-02  0.1191584E+00
          2   -1    0    0  502    0  0.00000000000E+00  0.00000000000E+00  0.19599191848E+03  0.19599191848E+03  0.00000000000E+00 0.  1.
          1   -1    0    0  501    0 -0.00000000000E+00 -0.00000000000E+00 -0.10670970204E+04  0.10670970204E+04  0.00000000000E+00 0. -1.
          2    1    1    2  501    0  0.43262834659E+02 -0.17563690813E+03 -0.54072688922E+02  0.18879579457E+03  0.00000000000E+00 0.  1.
          1    1    1    2  502    0 -0.40367555258E+02  0.19143659377E+03 -0.90284539505E+03  0.92380047430E+03  0.00000000000E+00 0. -1.
         22    1    1    2    0    0 -0.50370463903E+02  0.25346664988E+02  0.60658037572E+02  0.82819288706E+02  0.00000000000E+00 0.  1.
         22    1    1    2    0    0  0.47475184503E+02 -0.41146350628E+02  0.25154944435E+02  0.67673381348E+02  0.00000000000E+00 0.  1.
</event>
<event>
 6    1  0.3240171E-005  0.2738358E+03  0.7818608E-02  0.1165832E+00
          2   -1    0    0  502    0  0.00000000000E+00  0.00000000000E+00  0.24464568322E+04  0.24464568322E+04  0.00000000000E+00 0. -1.
          1   -1    0    0  501    0 -0.00000000000E+00 -0.00000000000E+00 -0.29369164192E+02  0.29369164192E+02  0.00000000000E+00 0.  1.
          2    1    1    2  501    0  0.91892506938E+02  0.15159550409E+03  0.14702036725E+04  0.14808525478E+04  0.00000000000E+00 0. -1.
          1    1    1    2  502    0 -0.77062153823E+02 -0.15821611672E+03  0.46990672484E+03  0.50178007652E+03  0.00000000000E+00 0.  1.
         22    1    1    2    0    0 -0.68012224173E+02  0.12400861573E+02  0.21614814619E+03  0.22693493584E+03  0.00000000000E+00 0.  1.
         22    1    1    2    0    0  0.53181871058E+02 -0.57802489406E+01  0.26082912445E+03  0.26625843621E+03  0.00000000000E+00 0. -1.
</event>
<event>
 6    1  0.3240171E-005  0.3780686E+03  0.7818608E-02  0.1182464E+00
          2   -1    0    0  502    0  0.00000000000E+00  0.00000000000E+00  0.64510987661E+03  0.64510987661E+03  0.00000000000E+00 0. -1.
          1   -1    0    0  501    0 -0.00000000000E+00 -0.00000000000E+00 -0.33984359130E+03  0.33984359130E+03  0.00000000000E+00 0. -1.
          2    1    1    2  501    0 -0.17312070046E+03 -0.73706470603E+02  0.36805587424E+03  0.41336248898E+03  0.00000000000E+00 0. -1.
          1    1    1    2  502    0  0.21979402823E+03 -0.69738477434E+02 -0.22224383477E+03  0.32025800876E+03  0.00000000000E+00 0. -1.
         22    1    1    2    0    0  0.44689172120E+01 -0.13196362501E+02  0.53838299178E+02  0.55611848222E+02  0.00000000000E+00 0. -1.
         22    1    1    2    0    0 -0.51142244988E+02  0.15664131054E+03  0.10561594666E+03  0.19572112195E+03  0.00000000000E+00 0. -1.
</event>
<event>
 6    1  0.5407999E-005  0.2029209E+03  0.7818608E-02  0.1148018E+00
          2   -1    0    0  502    0  0.00000000000E+00  0.00000000000E+00  0.16513634404E+04  0.16513634404E+04  0.00000000000E+00 0.  1.
          1   -1    0    0  501    0 -0.00000000000E+00 -0.00000000000E+00 -0.27841630536E+03  0.27841630536E+03  0.00000000000E+00 0. -1.
          2    1    1    2  501    0  0.12642776049E+03  0.10625686555E+03  0.43479198795E+03  0.46510060512E+03  0.00000000000E+00 0.  1.
          1    1    1    2  502    0  0.91863708974E+01  0.36213341221E+02 -0.25075927476E+03  0.25352713735E+03  0.00000000000E+00 0. -1.
         22    1    1    2    0    0  0.36820156721E+01  0.17169261507E+02  0.59497216828E+02  0.62034342024E+02  0.00000000000E+00 0. -1.
         22    1    1    2    0    0 -0.13929614706E+03 -0.15963946828E+03  0.11294172050E+04  0.11491176613E+04  0.00000000000E+00 0.  1.
</event>
<event>
 6    1  0.3240171E-005  0.9996104E+02  0.7818608E-02  0.1302030E+00
          2   -1    0    0  502    0  0.00000000000E+00  0.00000000000E+00  0.40529046303E+02  0.40529046303E+02  0.00000000000E+00 0.  1.
          1   -1    0    0  501    0 -0.00000000000E+00 -0.00000000000E+00 -0.43698950831E+03  0.43698950831E+03  0.00000000000E+00 0.  1.
          2    1    1    2  501    0 -0.25087448116E+02  0.92069139316E+00 -0.14356311828E+03  0.14574154060E+03  0.00000000000E+00 0.  1.
          1    1    1    2  502    0  0.45023657266E+02 -0.60361203071E+02 -0.63761338684E+02  0.98671742969E+02  0.00000000000E+00 0.  1.
         22    1    1    2    0    0  0.48315117473E+02  0.45962950907E+02 -0.92103907697E+02  0.11371047993E+03  0.00000000000E+00 0.  1.
         22    1    1    2    0    0 -0.68251326623E+02  0.13477560771E+02 -0.97032097342E+02  0.11939479111E+03  0.00000000000E+00 0.  1.
</event>
<event>
 6    1  0.3240171E-005  0.9820646E+02  0.7818608E-02  0.1285113E+00
          2   -1    0    0  502    0  0.00000000000E+00  0.00000000000E+00  0.43240977340E+03  0.43240977340E+03  0.00000000000E+00 0. -1.
          1   -1    0    0  501    0 -0.00000000000E+00 -0.00000000000E+00 -0.40715771529E+03  0.40715771529E+03  0.00000000000E+00 0. -1.
          2    1    1    2  501    0  0.36045236751E+02 -0.47321203909E+02  0.15261280434E+03  0.16379628653E+03  0.00000000000E+00 0. -1.
          1    1    1    2  502    0 -0.40322243982E+02 -0.33177078209E+02 -0.38050996466E+03  0.38407607981E+03  0.00000000000E+00 0. -1.
         22    1    1    2    0    0  0.10071065935E+02 -0.31266904642E+02  0.63240311480E+02  0.71262772126E+02  0.00000000000E+00 0.  1.
         22    1    1    2    0    0 -0.57940587042E+01  0.11176518676E+03  0.18990890694E+03  0.22043235022E+03  0.00000000000E+00 0. -1.
</event>
<event>
 6    1  0.3240171E-005  0.1744642E+03  0.7818608E-02  0.1288819E+00
          2   -1    0    0  502    0  0.00000000000E+00  0.00000000000E+00  0.10472769263E+03  0.10472769263E+03  0.00000000000E+00 0. -1.
          1   -1    0    0  501    0 -0.00000000000E+00 -0.00000000000E+00 -0.35812129381E+03  0.35812129381E+03  0.00000000000E+00 0.  1.
          2    1    1    2  501    0  0.46777010270E+02  0.67859113197E+02 -0.37596320172E+02  0.90589354916E+02  0.00000000000E+00 0. -1.
          1    1    1    2  502    0 -0.11570321654E+03  0.63923658506E+00 -0.17203795821E+03  0.20732752351E+03  0.00000000000E+00 0.  1.
         22    1    1    2    0    0  0.13345634113E+02 -0.88808001198E+01  0.43000446926E+02  0.45891317223E+02  0.00000000000E+00 0. -1.
         22    1    1    2    0    0  0.55580572154E+02 -0.59617549662E+02 -0.86759769724E+02  0.11904079079E+03  0.00000000000E+00 0. -1.
</event>
<event>
 6    1  0.3240171E-005  0.9321120E+02  0.7818608E-02  0.1297403E+00
          2   -1    0    0  502    0  0.00000000000E+00  0.00000000000E+00  0.43799257785E+03  0.43799257785E+03  0.00000000000E+00 0.  1.
          1   -1    0    0  501    0 -0.00000000000E+00 -0.00000000000E+00 -0.63006412707E+02  0.63006412707E+02  0.00000000000E+00 0.  1.
          2    1    1    2  501    0  0.31201257902E+02  0.52746908069E+02  0.40313152100E+02  0.73354652462E+02  0.00000000000E+00 0.  1.
          1    1    1    2  502    0  0.17489017012E+02 -0.24286123067E+02 -0.26441698814E+02  0.39935509585E+02  0.00000000000E+00 0.  1.
         22    1    1    2    0    0  0.29371670273E+02  0.16323295415E+02  0.31605847810E+02  0.46131058991E+02  0.00000000000E+00 0.  1.
         22    1    1    2    0    0 -0.78061945187E+02 -0.44784080417E+02  0.32950886404E+03  0.34157776952E+03  0.00000000000E+00 0.  1.
</event>
<event>
 6    1  0.3240171E-005  0.1624759E+03  0.7818608E-02  0.1186855E+00
          2   -1    0    0  502    0  0.00000000000E+00  0.00000000000E+00  0.68598949031E+03  0.68598949031E+03  0.00000000000E+00 0.  1.
          1   -1    0    0  501    0 -0.00000000000E+00 -0.00000000000E+00 -0.78426938151E+02  0.78426938151E+02  0.00000000000E+00 0.  1.
          2    1    1    2  501    0 -0.61649035966E+02  0.97112589064E+02  0.72738879178E+02  0.13609703573E+03  0.00000000000E+00 0.  1.
          1    1    1    2  502    0 -0.28535511456E+02  0.35088499698E+02 -0.11120698320E+02  0.46574114659E+02  0.00000000000E+00 0.  1.
         22    1    1    2    0    0  0.34209807844E+01  0.15332160296E+02  0.88309037901E+01  0.18021185050E+02  0.00000000000E+00 0. -1.
         22    1    1    2    0    0  0.86763566638E+02 -0.14753324906E+03  0.53711346751E+03  0.56372409302E+03  0.00000000000E+00 0.  1.
</event>
<event>
 6    1  0.3240171E-005  0.1194973E+03  0.7818608E-02  0.1245778E+00
          2   -1    0    0  502    0  0.00000000000E+00  0.00000000000E+00  0.27664338765E+03  0.27664338765E+03  0.00000000000E+00 0. -1.
          1   -1    0    0  501    0 -0.00000000000E+00 -0.00000000000E+00 -0.52448775071E+03  0.52448775071E+03  0.00000000000E+00 0. -1.
          2    1    1    2  501    0  0.12305713366E+02  0.84437296687E+02  0.84263850210E+02  0.11992282562E+03  0.00000000000E+00 0. -1.
          1    1    1    2  502    0  0.69834771884E+02  0.70121231645E+01 -0.45855545042E+03  0.46389564165E+03  0.00000000000E+00 0. -1.
         22    1    1    2    0    0  0.64119657920E+01  0.20958193179E+02  0.51073829996E+02  0.55577830806E+02  0.00000000000E+00 0. -1.
         22    1    1    2    0    0 -0.88552451043E+02 -0.11240761303E+03  0.75373407155E+02  0.16173484028E+03  0.00000000000E+00 0. -1.
</event>
<event>
 6    1  0.3240171E-005  0.1221015E+03  0.7818608E-02  0.1241382E+00
          2   -1    0    0  502    0  0.00000000000E+00  0.00000000000E+00  0.43524903716E+03  0.43524903716E+03  0.00000000000E+00 0. -1.
          1   -1    0    0  501    0 -0.00000000000E+00 -0.00000000000E+00 -0.10553722667E+03  0.10553722667E+03  0.00000000000E+00 0. -1.
          2    1    1    2  501    0  0.94527941719E+01  0.86408873001E+02  0.13711144317E+03  0.16234345228E+03  0.00000000000E+00 0. -1.
          1    1    1    2  502    0  0.23288306605E+02  0.58503132451E+01 -0.68992902150E+02  0.73051981059E+02  0.00000000000E+00 0. -1.
         22    1    1    2    0    0 -0.34597983156E+02 -0.11936432217E+03  0.17502460117E+03  0.21465896874E+03  0.00000000000E+00 0. -1.
         22    1    1    2    0    0  0.18568823789E+01  0.27105135925E+02  0.86568668290E+02  0.90731861742E+02  0.00000000000E+00 0.  1.
</event>
<event>
 6    1  0.3240171E-005  0.1060283E+03  0.7818608E-02  0.1298990E+00
          2   -1    0    0  502    0  0.00000000000E+00  0.00000000000E+00  0.19816599715E+02  0.19816599715E+02  0.00000000000E+00 0. -1.
          1   -1    0    0  501    0 -0.00000000000E+00 -0.00000000000E+00 -0.14280607118E+04  0.14280607118E+04  0.00000000000E+00 0. -1.
          2    1    1    2  501    0 -0.14790147146E+02  0.41544630004E+02 -0.13609482287E+03  0.14306119511E+03  0.00000000000E+00 0. -1.
          1    1    1    2  502    0  0.22719871980E+02 -0.13174684962E+02 -0.10191007295E+04  0.10194390917E+04  0.00000000000E+00 0. -1.
         22    1    1    2    0    0  0.53542668365E+02 -0.15056579610E+02 -0.18285151282E+03  0.19112350370E+03  0.00000000000E+00 0. -1.
         22    1    1    2    0    0 -0.61472393199E+02 -0.13313365432E+02 -0.70197046976E+02  0.94253521042E+02  0.00000000000E+00 0. -1.
</event>
<event>
 6    1  0.3240171E-005  0.2180041E+03  0.7818608E-02  0.1181549E+00
          2   -1    0    0  502    0  0.00000000000E+00  0.00000000000E+00  0.46473662979E+03  0.46473662979E+03  0.00000000000E+00 0. -1.
          1   -1    0    0  501    0 -0.00000000000E+00 -0.00000000000E+00 -0.16284460076E+03  0.16284460076E+03  0.00000000000E+00 0. -1.
          2    1    1    2  501    0  0.83548351440E+02 -0.81446721711E+02 -0.86756880253E+02  0.14539825232E+03  0.00000000000E+00 0. -1.
          1    1    1    2  502    0 -0.54755223662E+02  0.99665094817E+02  0.31037703807E+03  0.33055282695E+03  0.00000000000E+00 0. -1.
         22    1    1    2    0    0  0.16631487293E+02  0.40418690327E+02  0.61726823283E+02  0.75633839053E+02  0.00000000000E+00 0. -1.
         22    1    1    2    0    0 -0.45424615071E+02 -0.58637063432E+02  0.16545047934E+02  0.75996312236E+02  0.00000000000E+00 0. -1.
</event>
<event>
 6    1  0.3240171E-005  0.1051390E+03  0.7818608E-02  0.1366184E+00
          2   -1    0    0  502    0  0.00000000000E+00  0.00000000000E+00  0.66844338773E+02  0.66844338773E+02  0.00000000000E+00 0.  1.
          1   -1    0    0  501    0 -0.00000000000E+00 -0.00000000000E+00 -0.70254096555E+03  0.70254096555E+03  0.00000000000E+00 0. -1.
          2    1    1    2  501    0  0.32706673420E+02 -0.66484765527E+02 -0.50817966491E+03  0.51355284281E+03  0.00000000000E+00 0.  1.
          1    1    1    2  502    0 -0.32055361482E+02  0.58570093073E+02 -0.10879062846E+03  0.12764561427E+03  0.00000000000E+00 0. -1.
         22    1    1    2    0    0 -0.13859593915E+02 -0.12490300213E+02  0.51021056779E+02  0.54325354833E+02  0.00000000000E+00 0.  1.
         22    1    1    2    0    0  0.13208281977E+02  0.20404972666E+02 -0.69747390187E+02  0.73861492404E+02  0.00000000000E+00 0. -1.
</event>
<event>
 6    1  0.3240171E-005  0.8612031E+02  0.7818608E-02  0.1440305E+00
          2   -1    0    0  502    0  0.00000000000E+00  0.00000000000E+00  0.43118266941E+02  0.43118266941E+02  0.00000000000E+00 0.  1.
          1   -1    0    0  501    0 -0.00000000000E+00 -0.00000000000E+00 -0.42700454176E+03  0.42700454176E+03  0.00000000000E+00 0.  1.
          2    1    1    2  501    0 -0.30970020254E+01 -0.50724059952E+02 -0.21422026068E+03  0.22016548722E+03  0.00000000000E+00 0.  1.
          1    1    1    2  502    0  0.33934655562E+02  0.38685555075E+02 -0.58438362922E+02  0.77866393782E+02  0.00000000000E+00 0.  1.
         22    1    1    2    0    0 -0.37520494692E+02  0.38791417847E+01 -0.13813384830E+03  0.14319146381E+03  0.00000000000E+00 0.  1.
         22    1    1    2    0    0  0.66828411553E+01  0.81593630917E+01  0.26906197075E+02  0.28899463888E+02  0.00000000000E+00 0.  1.
</event>
<event>
 6    1  0.3240171E-005  0.1258955E+03  0.7818608E-02  0.1279026E+00
          2   -1    0    0  502    0  0.00000000000E+00  0.00000000000E+00  0.53179756314E+02  0.53179756314E+02  0.00000000000E+00 0. -1.
          1   -1    0    0  501    0 -0.00000000000E+00 -0.00000000000E+00 -0.15229198811E+04  0.15229198811E+04  0.00000000000E+00 0. -1.
          2    1    1    2  501    0  0.16192882414E+02  0.30267135590E+02 -0.81956350457E+02  0.88854669646E+02  0.00000000000E+00 0. -1.
          1    1    1    2  502    0 -0.49785134139E+01 -0.19982908389E+02 -0.13632511316E+04  0.13634066709E+04  0.00000000000E+00 0. -1.
         22    1    1    2    0    0 -0.31348159569E+01  0.54963052327E+02 -0.51376893414E+01  0.55291591078E+02  0.00000000000E+00 0. -1.
         22    1    1    2    0    0 -0.80795530429E+01 -0.65247279527E+02 -0.19394953327E+02  0.68546705812E+02  0.00000000000E+00 0. -1.
</event>
<event>
 6    1  0.3240171E-005  0.1774013E+03  0.7818608E-02  0.1231698E+00
          2   -1    0    0  502    0  0.00000000000E+00  0.00000000000E+00  0.75114524711E+02  0.75114524711E+02  0.00000000000E+00 0.  1.
          1   -1    0    0  501    0 -0.00000000000E+00 -0.00000000000E+00 -0.21062394495E+04  0.21062394495E+04  0.00000000000E+00 0.  1.
          2    1    1    2  501    0 -0.52963471386E+02 -0.39784767253E+02  0.91742062323E+01  0.66873934134E+02  0.00000000000E+00 0.  1.
          1    1    1    2  502    0  0.23827437890E+02 -0.24754077976E+02 -0.19298442232E+04  0.19301500556E+04  0.00000000000E+00 0.  1.
         22    1    1    2    0    0  0.23702864090E+01 -0.38952529389E+02 -0.42314996126E+02  0.57562806574E+02  0.00000000000E+00 0. -1.
         22    1    1    2    0    0  0.26765747087E+02  0.10349137462E+03 -0.68139911699E+02  0.12676717794E+03  0.00000000000E+00 0. -1.
</event>
<event>
 6    1  0.3240171E-005  0.5084832E+03  0.7818608E-02  0.1129416E+00
          2   -1    0    0  502    0  0.00000000000E+00  0.00000000000E+00  0.77938779853E+03  0.77938779853E+03  0.00000000000E+00 0. -1.
          1   -1    0    0  501    0 -0.00000000000E+00 -0.00000000000E+00 -0.19573359021E+03  0.19573359021E+03  0.00000000000E+00 0. -1.
          2    1    1    2  501    0 -0.14886143293E+03  0.48403027115E+02  0.30920079526E+01  0.15656353267E+03  0.00000000000E+00 0. -1.
          1    1    1    2  502    0  0.31843590777E+02  0.50142539688E+02 -0.96433655319E+02  0.11325960638E+03  0.00000000000E+00 0. -1.
         22    1    1    2    0    0 -0.15818788946E+02  0.12037228754E+02  0.33120015667E+02  0.38627249418E+02  0.00000000000E+00 0.  1.
         22    1    1    2    0    0  0.13283663110E+03 -0.11058279556E+03  0.64387584002E+03  0.66667100027E+03  0.00000000000E+00 0. -1.
</event>
<event>
 6    1  0.3240171E-005  0.1052922E+03  0.7818608E-02  0.1270983E+00
          2   -1    0    0  502    0  0.00000000000E+00  0.00000000000E+00  0.20811859361E+03  0.20811859361E+03  0.00000000000E+00 0. -1.
          1   -1    0    0  501    0 -0.00000000000E+00 -0.00000000000E+00 -0.21071134167E+03  0.21071134167E+03  0.00000000000E+00 0. -1.
          2    1    1    2  501    0  0.65693347413E+02  0.13336207068E+02 -0.58760383892E+02  0.89141758051E+02  0.00000000000E+00 0. -1.
          1    1    1    2  502    0 -0.82068153317E+02 -0.92868369891E+02  0.11664823793E+03  0.17019555613E+03  0.00000000000E+00 0. -1.
         22    1    1    2    0    0 -0.46906477867E+01 -0.17144142361E+02  0.23671500880E+02  0.29601752446E+02  0.00000000000E+00 0. -1.
         22    1    1    2    0    0  0.21065453691E+02  0.96676305184E+02 -0.84152102979E+02  0.12989086865E+03  0.00000000000E+00 0.  1.
</event>
<event>
 6    1  0.3240171E-005  0.7141879E+02  0.7818608E-02  0.1460084E+00
          2   -1    0    0  502    0  0.00000000000E+00  0.00000000000E+00  0.53503001607E+02  0.53503001607E+02  0.00000000000E+00 0. -1.
          1   -1    0    0  501    0 -0.00000000000E+00 -0.00000000000E+00 -0.49503528490E+03  0.49503528490E+03  0.00000000000E+00 0. -1.
          2    1    1    2  501    0 -0.65790930717E+01  0.48393247569E+02 -0.14798602140E+03  0.15583662409E+03  0.00000000000E+00 0. -1.
          1    1    1    2  502    0 -0.22294664487E+02 -0.56617513394E+02 -0.25539617018E+03  0.26254485071E+03  0.00000000000E+00 0. -1.
         22    1    1    2    0    0  0.93166973095E+01 -0.10205568237E+02  0.42740751937E+02  0.44919108940E+02  0.00000000000E+00 0. -1.
         22    1    1    2    0    0  0.19557060250E+02  0.18429834061E+02 -0.80890843645E+02  0.85237702777E+02  0.00000000000E+00 0. -1.
</event>
<event>
 6    1  0.3240171E-005  0.1011456E+03  0.7818608E-02  0.1325759E+00
          2   -1    0    0  502    0  0.00000000000E+00  0.00000000000E+00  0.85221015260E+02  0.85221015260E+02  0.00000000000E+00 0.  1.
          1   -1    0    0  501    0 -0.00000000000E+00 -0.00000000000E+00 -0.29816394293E+03  0.29816394293E+03  0.00000000000E+00 0.  1.
          2    1    1    2  501    0  0.24551300174E+02 -0.74723374165E+02 -0.15056156184E+03  0.16986798666E+03  0.00000000000E+00 0.  1.
          1    1    1    2  502    0 -0.23553041499E+02  0.71752960153E+02 -0.47613437413E+02  0.89276382526E+02  0.00000000000E+00 0.  1.
         22    1    1    2    0    0  0.22811141760E+02 -0.31573020181E+02 -0.54146357305E+02  0.66701062969E+02  0.00000000000E+00 0.  1.
         22    1    1    2    0    0 -0.23809400435E+02  0.34543434193E+02  0.39378428889E+02  0.57539526038E+02  0.00000000000E+00 0.  1.
</event>
<event>
 6    1  0.3240171E-005  0.1335364E+03  0.7818608E-02  0.1284635E+00
          2   -1    0    0  502    0  0.00000000000E+00  0.00000000000E+00  0.71363373229E+03  0.71363373229E+03  0.00000000000E+00 0.  1.
          1   -1    0    0  501    0 -0.00000000000E+00 -0.00000000000E+00 -0.66599266724E+02  0.66599266724E+02  0.00000000000E+00 0.  1.
          2    1    1    2  501    0 -0.27994613345E+02  0.27285400322E+02  0.65163025054E+02  0.75989547184E+02  0.00000000000E+00 0.  1.
          1    1    1    2  502    0 -0.37982334361E+02 -0.72219536159E+02 -0.20621804657E+02  0.84163994403E+02  0.00000000000E+00 0.  1.
         22    1    1    2    0    0  0.68370460184E+02  0.83539452939E+02  0.44333258125E+03  0.45628624527E+03  0.00000000000E+00 0.  1.
         22    1    1    2    0    0 -0.23935124784E+01 -0.38605317102E+02  0.15916066391E+03  0.16379321215E+03  0.00000000000E+00 0. -1.
</event>
<event>
 6    1  0.3240171E-005  0.1238958E+03  0.7818608E-02  0.1239031E+00
          2   -1    0    0  502    0  0.00000000000E+00  0.00000000000E+00  0.94073778420E+03  0.94073778420E+03  0.00000000000E+00 0. -1.
          1   -1    0    0  501    0 -0.00000000000E+00 -0.00000000000E+00 -0.50089787860E+02  0.50089787860E+02  0.00000000000E+00 0.  1.
          2    1    1    2  501    0  0.37940435566E+02  0.95194706811E+02  0.37425002874E+03  0.38802653630E+03  0.00000000000E+00 0. -1.
          1    1    1    2  502    0 -0.28004549219E+02 -0.16277605946E+02 -0.25348122850E+02  0.41130798246E+02  0.00000000000E+00 0.  1.
         22    1    1    2    0    0 -0.35390918150E+02 -0.10298630234E+03  0.46035949900E+03  0.47306401668E+03  0.00000000000E+00 0.  1.
         22    1    1    2    0    0  0.25455031803E+02  0.24069201478E+02  0.81386591450E+02  0.88606220841E+02  0.00000000000E+00 0. -1.
</event>
<event>
 6    1  0.3240171E-005  0.1407163E+03  0.7818608E-02  0.1249526E+00
          2   -1    0    0  502    0  0.00000000000E+00  0.00000000000E+00  0.20267810945E+03  0.20267810945E+03  0.00000000000E+00 0. -1.
          1   -1    0    0  501    0 -0.00000000000E+00 -0.00000000000E+00 -0.63546289263E+03  0.63546289263E+03  0.00000000000E+00 0.  1.
          2    1    1    2  501    0 -0.78310051617E+02  0.66814534521E+02 -0.25792199994E+02  0.10612202311E+03  0.00000000000E+00 0. -1.
          1    1    1    2  502    0  0.68046766534E+02 -0.10802521508E+03 -0.53500314225E+03  0.55002561008E+03  0.00000000000E+00 0.  1.
         22    1    1    2    0    0  0.60647809359E+02  0.24472062197E+02  0.10593186055E+03  0.12449336403E+03  0.00000000000E+00 0. -1.
         22    1    1    2    0    0 -0.50384524276E+02  0.16738618362E+02  0.22078698512E+02  0.57500004862E+02  0.00000000000E+00 0.  1.
</event>
<event>
 6    1  0.3240171E-005  0.1390403E+03  0.7818608E-02  0.1263098E+00
          2   -1    0    0  502    0  0.00000000000E+00  0.00000000000E+00  0.20671382196E+03  0.20671382196E+03  0.00000000000E+00 0. -1.
          1   -1    0    0  501    0 -0.00000000000E+00 -0.00000000000E+00 -0.24107121559E+04  0.24107121559E+04  0.00000000000E+00 0.  1.
          2    1    1    2  501    0 -0.33925807858E+02 -0.39204914276E+02 -0.34758806238E+02  0.62419230637E+02  0.00000000000E+00 0. -1.
          1    1    1    2  502    0  0.51405776981E+02  0.23549411454E+02 -0.23391610012E+04  0.23398442936E+04  0.00000000000E+00 0.  1.
         22    1    1    2    0    0  0.46621495424E+02 -0.22659484354E+02  0.10106705765E+03  0.11358506156E+03  0.00000000000E+00 0.  1.
         22    1    1    2    0    0 -0.64101464548E+02  0.38314987177E+02  0.68854415852E+02  0.10157739208E+03  0.00000000000E+00 0. -1.
</event>
<event>
 6    1  0.3240171E-005  0.1140924E+03  0.7818608E-02  0.1275990E+00
          2   -1    0    0  502    0  0.00000000000E+00  0.00000000000E+00  0.48986680553E+03  0.48986680553E+03  0.00000000000E+00 0. -1.
          1   -1    0    0  501    0 -0.00000000000E+00 -0.00000000000E+00 -0.63579698079E+02  0.63579698079E+02  0.00000000000E+00 0.  1.
          2    1    1    2  501    0 -0.44353117663E+02 -0.17048742228E+02  0.66881043220E+02  0.82042261062E+02  0.00000000000E+00 0. -1.
          1    1    1    2  502    0  0.22115062319E+02 -0.23739932498E+02 -0.38565859999E+02  0.50398273124E+02  0.00000000000E+00 0.  1.
         22    1    1    2    0    0  0.62179816809E+02  0.22715839966E+01  0.99006928725E+02  0.11693528829E+03  0.00000000000E+00 0. -1.
         22    1    1    2    0    0 -0.39941761465E+02  0.38517090729E+02  0.29896499550E+03  0.30407068113E+03  0.00000000000E+00 0. -1.
</event>
<event>
 6    1  0.3240171E-005  0.1326159E+03  0.7818608E-02  0.1272857E+00
          2   -1    0    0  502    0  0.00000000000E+00  0.00000000000E+00  0.43046711946E+03  0.43046711946E+03  0.00000000000E+00 0. -1.
          1   -1    0    0  501    0 -0.00000000000E+00 -0.00000000000E+00 -0.11374766592E+03  0.11374766592E+03  0.00000000000E+00 0. -1.
          2    1    1    2  501    0 -0.27034121697E+02 -0.19501334099E+02 -0.36136205683E+02  0.49162700584E+02  0.00000000000E+00 0. -1.
          1    1    1    2  502    0  0.68586685913E+02  0.74931530603E+02  0.33970418812E+03  0.35456706445E+03  0.00000000000E+00 0. -1.
         22    1    1    2    0    0 -0.84670346966E+02 -0.31249816435E+02  0.50862983998E+01  0.90396289271E+02  0.00000000000E+00 0.  1.
         22    1    1    2    0    0  0.43117782749E+02 -0.24180380070E+02  0.80651727043E+01  0.50088731071E+02  0.00000000000E+00 0.  1.
</event>
<event>
 6    1  0.3240171E-005  0.1687479E+03  0.7818608E-02  0.1246691E+00
          2   -1    0    0  502    0  0.00000000000E+00  0.00000000000E+00  0.82384044831E+02  0.82384044831E+02  0.00000000000E+00 0.  1.
          1   -1    0    0  501    0 -0.00000000000E+00 -0.00000000000E+00 -0.37267675802E+03  0.37267675802E+03  0.00000000000E+00 0.  1.
          2    1    1    2  501    0  0.21168096876E+02 -0.87135784962E+01 -0.68816842202E+02  0.72524289354E+02  0.00000000000E+00 0.  1.
          1    1    1    2  502    0  0.69935018219E+02 -0.10216727694E+03 -0.73419712749E+02  0.14394274372E+03  0.00000000000E+00 0.  1.
         22    1    1    2    0    0  0.20811310685E+02  0.34322121695E+02 -0.33380067920E+01  0.40277301045E+02  0.00000000000E+00 0. -1.
         22    1    1    2    0    0 -0.11191442578E+03  0.76558733743E+02 -0.14471815144E+03  0.19831646872E+03  0.00000000000E+00 0.  1.
</event>
<event>
 6    1  0.3240171E-005  0.3943321E+03  0.7818608E-02  0.1118317E+00
          2   -1    0    0  502    0  0.00000000000E+00  0.00000000000E+00  0.14731892902E+03  0.14731892902E+03  0.00000000000E+00 0.  1.
          1   -1    0    0  501    0 -0.00000000000E+00 -0.00000000000E+00 -0.84340271389E+03  0.84340271389E+03  0.00000000000E+00 0. -1.
          2    1    1    2  501    0  0.96122993211E+02  0.13585519121E+03 -0.30327074699E+03  0.34593266510E+03  0.00000000000E+00 0.  1.
          1    1    1    2  502    0 -0.43770602071E+02 -0.15245335274E+03 -0.46629446741E+03  0.49253265953E+03  0.00000000000E+00 0. -1.
         22    1    1    2    0    0 -0.13127683033E+02  0.54589915809E+02 -0.53044215774E+01  0.56396204288E+02  0.00000000000E+00 0.  1.
         22    1    1    2    0    0 -0.39224708107E+02 -0.37991754285E+02  0.78785851105E+02  0.95860113990E+02  0.00000000000E+00 0. -1.
</event>
<event>
 6    1  0.3240171E-005  0.1332456E+03  0.7818608E-02  0.1332778E+00
          2   -1    0    0  502    0  0.00000000000E+00  0.00000000000E+00  0.50903589125E+02  0.50903589125E+02  0.00000000000E+00 0.  1.
          1   -1    0    0  501    0 -0.00000000000E+00 -0.00000000000E+00 -0.69498729674E+03  0.69498729674E+03  0.00000000000E+00 0. -1.
          2    1    1    2  501    0  0.47882273145E+02  0.15281390978E+02 -0.83447382585E+02  0.97415084314E+02  0.00000000000E+00 0.  1.
          1    1    1    2  502    0 -0.11586861252E+03  0.25401317069E+02 -0.45251518314E+03  0.46780418259E+03  0.00000000000E+00 0. -1.
         22    1    1    2    0    0 -0.16216429363E+02 -0.13316123334E+00  0.17656135885E+02  0.23973515545E+02  0.00000000000E+00 0. -1.
         22    1    1    2    0    0  0.84202768738E+02 -0.40549546814E+02 -0.12577727778E+03  0.15669810342E+03  0.00000000000E+00 0.  1.
</event>
<event>
 6    1  0.3240171E-005  0.3912571E+02  0.7818608E-02  0.1519294E+00
          2   -1    0    0  502    0  0.00000000000E+00  0.00000000000E+00  0.76482437989E+02  0.76482437989E+02  0.00000000000E+00 0. -1.
          1   -1    0    0  501    0 -0.00000000000E+00 -0.00000000000E+00 -0.57267358441E+03  0.57267358441E+03  0.00000000000E+00 0. -1.
          2    1    1    2  501    0 -0.34691232783E+02  0.30737026269E+02 -0.17189099521E+03  0.17803022398E+03  0.00000000000E+00 0. -1.
          1    1    1    2  502    0  0.33978677058E+02 -0.40520567634E+00 -0.33593292663E+03  0.33764722105E+03  0.00000000000E+00 0. -1.
         22    1    1    2    0    0  0.14914983707E+02 -0.33336891174E+02  0.66963457148E+02  0.76275223010E+02  0.00000000000E+00 0. -1.
         22    1    1    2    0    0 -0.14202427981E+02  0.30050705818E+01 -0.55330681727E+02  0.57203354361E+02  0.00000000000E+00 0. -1.
</event>
<event>
 6    1  0.3240171E-005  0.7401877E+02  0.7818608E-02  0.1349130E+00
          2   -1    0    0  502    0  0.00000000000E+00  0.00000000000E+00  0.22661424111E+02  0.22661424111E+02  0.00000000000E+00 0. -1.
          1   -1    0    0  501    0 -0.00000000000E+00 -0.00000000000E+00 -0.56552474005E+03  0.56552474005E+03  0.00000000000E+00 0.  1.
          2    1    1    2  501    0  0.23274568219E+02 -0.50633750889E+01 -0.14379417807E+03  0.14575358980E+03  0.00000000000E+00 0. -1.
          1    1    1    2  502    0  0.15523117720E+02 -0.29159702609E+02 -0.18817189498E+03  0.19104951584E+03  0.00000000000E+00 0.  1.
         22    1    1    2    0    0  0.24793083948E+02 -0.25515113790E+02 -0.12094089548E+03  0.12606513492E+03  0.00000000000E+00 0. -1.
         22    1    1    2    0    0 -0.63590769887E+02  0.59738191488E+02 -0.89956347407E+02  0.12531792360E+03  0.00000000000E+00 0. -1.
</event>
<event>
 6    1  0.3240171E-005  0.1051336E+03  0.7818608E-02  0.1287078E+00
          2   -1    0    0  502    0  0.00000000000E+00  0.00000000000E+00  0.15482759722E+03  0.15482759722E+03  0.00000000000E+00 0.  1.
          1   -1    0    0  501    0 -0.00000000000E+00 -0.00000000000E+00 -0.25849608934E+03  0.25849608934E+03  0.00000000000E+00 0. -1.
          2    1    1    2  501    0  0.19213132803E+02  0.66082420924E+02  0.37085699536E+02  0.78175315397E+02  0.00000000000E+00 0.  1.
          1    1    1    2  502    0 -0.44098894597E+02 -0.52644769796E+02 -0.18808649117E+03  0.20023164698E+03  0.00000000000E+00 0. -1.
         22    1    1    2    0    0  0.64951152120E+02 -0.38945680777E+02  0.43330377505E+02  0.87252162309E+02  0.00000000000E+00 0.  1.
         22    1    1    2    0    0 -0.40065390326E+02  0.25508029649E+02  0.40019220179E+01  0.47664561871E+02  0.00000000000E+00 0. -1.
</event>
<event>
 6    1  0.3240171E-005  0.3482777E+03  0.7818608E-02  0.1187133E+00
          2   -1    0    0  502    0  0.00000000000E+00  0.00000000000E+00  0.21240121696E+03  0.21240121696E+03  0.00000000000E+00 0.  1.
          1   -1    0    0  501    0 -0.00000000000E+00 -0.00000000000E+00 -0.57115714582E+03  0.57115714582E+03  0.00000000000E+00 0. -1.
          2    1    1    2  501    0 -0.33095137709E+02 -0.20141775525E+03  0.68055363594E+02  0.21516489673E+03  0.00000000000E+00 0.  1.
          1    1    1    2  502    0  0.54860185506E+02  0.23465808871E+03 -0.32742971198E+03  0.40655168779E+03  0.00000000000E+00 0. -1.
         22    1    1    2    0    0 -0.21144493820E+02 -0.17191857747E+02 -0.12700120592E+03  0.12989209328E+03  0.00000000000E+00 0. -1.
         22    1    1    2    0    0 -0.62055397699E+00 -0.16048475715E+02  0.27619625451E+02  0.31949684976E+02  0.00000000000E+00 0. -1.
</event>
<event>
 6    1  0.3240171E-005  0.1073584E+03  0.7818608E-02  0.1323884E+00
          2   -1    0    0  502    0  0.00000000000E+00  0.00000000000E+00  0.22878521376E+03  0.22878521376E+03  0.00000000000E+00 0.  1.
          1   -1    0    0  501    0 -0.00000000000E+00 -0.00000000000E+00 -0.43991262960E+03  0.43991262960E+03  0.00000000000E+00 0. -1.
          2    1    1    2  501    0 -0.27178485579E+02  0.18616356169E+02  0.88132621699E+01  0.34101501220E+02  0.00000000000E+00 0.  1.
          1    1    1    2  502    0  0.84106088426E+02 -0.55778167000E+02 -0.39556338102E+03  0.40823452381E+03  0.00000000000E+00 0. -1.
         22    1    1    2    0    0  0.34151390264E+02  0.12215128390E+02  0.96741678614E+02  0.10331737124E+03  0.00000000000E+00 0. -1.
         22    1    1    2    0    0 -0.91078993111E+02  0.24946682441E+02  0.78881024395E+02  0.12304444709E+03  0.00000000000E+00 0.  1.
</event>
<event>
 6    1  0.3240171E-005  0.2117260E+03  0.7818608E-02  0.1218474E+00
          2   -1    0    0  502    0  0.00000000000E+00  0.00000000000E+00  0.27602622994E+03  0.27602622994E+03  0.00000000000E+00 0. -1.
          1   -1    0    0  501    0 -0.00000000000E+00 -0.00000000000E+00 -0.72906278809E+03  0.72906278809E+03  0.00000000000E+00 0. -1.
          2    1    1    2  501    0 -0.66401385222E+02  0.17520292159E+02  0.26741222908E+02  0.73696659351E+02  0.00000000000E+00 0. -1.
          1    1    1    2  502    0  0.16878228661E+03  0.99190337093E+02 -0.64530144500E+03  0.67434422824E+03  0.00000000000E+00 0. -1.
         22    1    1    2    0    0 -0.10332502476E+03 -0.80419424738E+02  0.57343885542E+02  0.14293937815E+03  0.00000000000E+00 0. -1.
         22    1    1    2    0    0  0.94412337012E+00 -0.36291204514E+02  0.10817977840E+03  0.11410875229E+03  0.00000000000E+00 0. -1.
</event>
<event>
 6    1  0.3240171E-005  0.1134661E+03  0.7818608E-02  0.1269812E+00
          2   -1    0    0  502    0  0.00000000000E+00  0.00000000000E+00  0.48349566870E+03  0.48349566870E+03  0.00000000000E+00 0. -1.
          1   -1    0    0  501    0 -0.00000000000E+00 -0.00000000000E+00 -0.49329885547E+02  0.49329885547E+02  0.00000000000E+00 0. -1.
          2    1    1    2  501    0 -0.25128937088E+01  0.40720429190E+02  0.55246701112E+01  0.41170255865E+02  0.00000000000E+00 0. -1.
          1    1    1    2  502    0 -0.43447858783E+02 -0.91602835480E+01  0.23302584035E+01  0.44464112852E+02  0.00000000000E+00 0. -1.
         22    1    1    2    0    0  0.13137770847E+02  0.46783826781E+02  0.12424930456E+03  0.13341370677E+03  0.00000000000E+00 0.  1.
         22    1    1    2    0    0  0.32822981645E+02 -0.78343972423E+02  0.30206155008E+03  0.31377747876E+03  0.00000000000E+00 0. -1.
</event>
<event>
 6    1  0.3240171E-005  0.1124767E+03  0.7818608E-02  0.1338468E+00
          2   -1    0    0  502    0  0.00000000000E+00  0.00000000000E+00  0.67758072644E+02  0.67758072644E+02  0.00000000000E+00 0. -1.
          1   -1    0    0  501    0 -0.00000000000E+00 -0.00000000000E+00 -0.54648119237E+03  0.54648119237E+03  0.00000000000E+00 0. -1.
          2    1    1    2  501    0 -0.20943023232E+02  0.24428704270E+02 -0.41495958732E+03  0.41620527498E+03  0.00000000000E+00 0. -1.
          1    1    1    2  502    0  0.29035249029E+02 -0.41015789748E+02 -0.47386285434E+02  0.69070983358E+02  0.00000000000E+00 0. -1.
         22    1    1    2    0    0 -0.16563244274E+02  0.39484225359E+02 -0.63094416532E+02  0.76251232846E+02  0.00000000000E+00 0. -1.
         22    1    1    2    0    0  0.84710184763E+01 -0.22897139881E+02  0.46717169557E+02  0.52711773829E+02  0.00000000000E+00 0. -1.
</event>
<event>
 6    1  0.3240171E-005  0.8347225E+02  0.7818608E-02  0.1325173E+00
          2   -1    0    0  502    0  0.00000000000E+00  0.00000000000E+00  0.91799016629E+02  0.91799016629E+02  0.00000000000E+00 0. -1.
          1   -1    0    0  501    0 -0.00000000000E+00 -0.00000000000E+00 -0.13856396087E+03  0.13856396087E+03  0.00000000000E+00 0. -1.
          2    1    1    2  501    0  0.30620241588E+02 -0.56040533521E+01  0.28187628753E+01  0.31256199914E+02  0.00000000000E+00 0. -1.
          1    1    1    2  502    0  0.25222262929E+02  0.23314245871E+02 -0.54956639785E+02  0.64807012462E+02  0.00000000000E+00 0. -1.
         22    1    1    2    0    0  0.22272701684E+02 -0.44725514011E+02  0.11982368258E+02  0.51381144333E+02  0.00000000000E+00 0. -1.
         22    1    1    2    0    0 -0.78115206201E+02  0.27015321492E+02 -0.66094355912E+01  0.82918620792E+02  0.00000000000E+00 0. -1.
</event>
<event>
 6    1  0.3240171E-005  0.6176336E+02  0.7818608E-02  0.1460461E+00
          2   -1    0    0  502    0  0.00000000000E+00  0.00000000000E+00  0.14890862569E+03  0.14890862569E+03  0.00000000000E+00 0. -1.
          1   -1    0    0  501    0 -0.00000000000E+00 -0.00000000000E+00 -0.77651778894E+02  0.77651778894E+02  0.00000000000E+00 0. -1.
          2    1    1    2  501    0  0.19881239022E+02  0.12032254855E+02  0.14649279054E+02  0.27470715294E+02  0.00000000000E+00 0. -1.
          1    1    1    2  502    0 -0.12637899520E+01 -0.33296261976E+02 -0.31278645305E+02  0.45701114634E+02  0.00000000000E+00 0. -1.
         22    1    1    2    0    0 -0.80826125242E+01 -0.19651453568E+02  0.10549671455E+03  0.10761535687E+03  0.00000000000E+00 0. -1.
         22    1    1    2    0    0 -0.10534836546E+02  0.40915460688E+02 -0.17610501498E+02  0.45773217796E+02  0.00000000000E+00 0. -1.
</event>
<event>
 6    1  0.3240171E-005  0.1659018E+03  0.7818608E-02  0.1243439E+00
          2   -1    0    0  502    0  0.00000000000E+00  0.00000000000E+00  0.42668429637E+03  0.42668429637E+03  0.00000000000E+00 0.  1.
          1   -1    0    0  501    0 -0.00000000000E+00 -0.00000000000E+00 -0.48524545686E+02  0.48524545686E+02  0.00000000000E+00 0.  1.
          2    1    1    2  501    0 -0.29906178815E+02  0.22693719350E+02 -0.21178152654E+02  0.43103347655E+02  0.00000000000E+00 0.  1.
          1    1    1    2  502    0 -0.13455222666E+01  0.22222672319E+02  0.28475250867E+02  0.36145504660E+02  0.00000000000E+00 0.  1.
         22    1    1    2    0    0 -0.42321263060E+02 -0.16504427584E+02  0.23071679472E+03  0.23514617753E+03  0.00000000000E+00 0.  1.
         22    1    1    2    0    0  0.73572964143E+02 -0.28411964085E+02  0.14014585775E+03  0.16081381221E+03  0.00000000000E+00 0. -1.
</event>
<event>
 6    1  0.3240171E-005  0.7892675E+03  0.7818608E-02  0.1085500E+00
          2   -1    0    0  502    0  0.00000000000E+00  0.00000000000E+00  0.83623586133E+03  0.83623586133E+03  0.00000000000E+00 0.  1.
          1   -1    0    0  501    0 -0.00000000000E+00 -0.00000000000E+00 -0.28117977117E+04  0.28117977117E+04  0.00000000000E+00 0.  1.
          2    1    1    2  501    0  0.30834764135E+03  0.58245337592E+02 -0.18581141061E+01  0.31380605454E+03  0.00000000000E+00 0.  1.
          1    1    1    2  502    0 -0.60042248172E+03  0.10888526346E+03 -0.25683208923E+04  0.26398172973E+04  0.00000000000E+00 0.  1.
         22    1    1    2    0    0  0.28682265351E+03 -0.18262542385E+03  0.54711302722E+03  0.64416763700E+03  0.00000000000E+00 0.  1.
         22    1    1    2    0    0  0.52521868509E+01  0.15494822802E+02  0.47504128884E+02  0.50242584143E+02  0.00000000000E+00 0. -1.
</event>
<event>
 6    1  0.3240171E-005  0.8899080E+02  0.7818608E-02  0.1414456E+00
          2   -1    0    0  502    0  0.00000000000E+00  0.00000000000E+00  0.11524595069E+03  0.11524595069E+03  0.00000000000E+00 0. -1.
          1   -1    0    0  501    0 -0.00000000000E+00 -0.00000000000E+00 -0.42724565272E+03  0.42724565272E+03  0.00000000000E+00 0.  1.
          2    1    1    2  501    0  0.85881262906E+01  0.18482224126E+02 -0.36893769913E+02  0.42148532361E+02  0.00000000000E+00 0. -1.
          1    1    1    2  502    0 -0.53485592467E+02 -0.54565743188E+02 -0.33734844616E+03  0.34589319603E+03  0.00000000000E+00 0.  1.
         22    1    1    2    0    0  0.45985493225E+02  0.50207979751E+02 -0.20027532881E+02  0.70969069961E+02  0.00000000000E+00 0. -1.
         22    1    1    2    0    0 -0.10880270477E+01 -0.14124460689E+02  0.82270046926E+02  0.83480805062E+02  0.00000000000E+00 0. -1.
</event>
<event>
 6    1  0.3240171E-005  0.7335987E+02  0.7818608E-02  0.1385357E+00
          2   -1    0    0  502    0  0.00000000000E+00  0.00000000000E+00  0.33494390894E+03  0.33494390894E+03  0.00000000000E+00 0.  1.
          1   -1    0    0  501    0 -0.00000000000E+00 -0.00000000000E+00 -0.38452155498E+02  0.38452155498E+02  0.00000000000E+00 0.  1.
          2    1    1    2  501    0  0.27335477065E+02 -0.10763378979E+02  0.16828983899E+02  0.33856953975E+02  0.00000000000E+00 0.  1.
          1    1    1    2  502    0 -0.52430945395E+02  0.23103876932E+02  0.42817634468E+02  0.71527218495E+02  0.00000000000E+00 0.  1.
         22    1    1    2    0    0 -0.23914622933E+02  0.32182241204E+02  0.16709598265E+03  0.17183909118E+03  0.00000000000E+00 0.  1.
         22    1    1    2    0    0  0.49010091262E+02 -0.44522739158E+02  0.69749152422E+02  0.96172800787E+02  0.00000000000E+00 0.  1.
</event>
<event>
 6    1  0.3240171E-005  0.1429277E+03  0.7818608E-02  0.1290044E+00
          2   -1    0    0  502    0  0.00000000000E+00  0.00000000000E+00  0.40712747957E+02  0.40712747957E+02  0.00000000000E+00 0.  1.
          1   -1    0    0  501    0 -0.00000000000E+00 -0.00000000000E+00 -0.16369467184E+04  0.16369467184E+04  0.00000000000E+00 0.  1.
          2    1    1    2  501    0  0.87747944759E+02 -0.57729252905E+02 -0.40786147470E+03  0.42116902900E+03  0.00000000000E+00 0.  1.
          1    1    1    2  502    0 -0.10802870987E+03  0.62184644468E+02 -0.10827895179E+04  0.10899404903E+04  0.00000000000E+00 0.  1.
         22    1    1    2    0    0 -0.15562221462E+02 -0.23868297284E+02  0.19806452204E+02  0.34701208927E+02  0.00000000000E+00 0.  1.
         22    1    1    2    0    0  0.35842986575E+02  0.19412905721E+02 -0.12538942996E+03  0.13184873811E+03  0.00000000000E+00 0.  1.
</event>
<event>
 6    1  0.3240171E-005  0.1346777E+03  0.7818608E-02  0.1277929E+00
          2   -1    0    0  502    0  0.00000000000E+00  0.00000000000E+00  0.10841178443E+04  0.10841178443E+04  0.00000000000E+00 0.  1.
          1   -1    0    0  501    0 -0.00000000000E+00 -0.00000000000E+00 -0.65935927316E+03  0.65935927316E+03  0.00000000000E+00 0.  1.
          2    1    1    2  501    0 -0.21339314395E+02 -0.92807344730E+02  0.65995022046E+03  0.66678547005E+03  0.00000000000E+00 0.  1.
          1    1    1    2  502    0  0.12954346900E+01  0.11939859557E+03 -0.64095191609E+03  0.65197934133E+03  0.00000000000E+00 0.  1.
         22    1    1    2    0    0 -0.64603441003E+01  0.42335602500E+02  0.80591753112E+02  0.91263738444E+02  0.00000000000E+00 0. -1.
         22    1    1    2    0    0  0.26504223805E+02 -0.68926853344E+02  0.32516851367E+03  0.33344856766E+03  0.00000000000E+00 0. -1.
</event>
<event>
 6    1  0.3240171E-005  0.7875726E+02  0.7818608E-02  0.1336454E+00
          2   -1    0    0  502    0  0.00000000000E+00  0.00000000000E+00  0.71093124663E+03  0.71093124663E+03  0.00000000000E+00 0.  1.
          1   -1    0    0  501    0 -0.00000000000E+00 -0.00000000000E+00 -0.11681080853E+04  0.11681080853E+04  0.00000000000E+00 0. -1.
          2    1    1    2  501    0 -0.21367711228E+02 -0.16798709773E+02  0.11724549428E+03  0.12035481570E+03  0.00000000000E+00 0.  1.
          1    1    1    2  502    0  0.60707008638E+02 -0.31440617758E+02 -0.11570799083E+04  0.11590978248E+04  0.00000000000E+00 0. -1.
         22    1    1    2    0    0 -0.25076175943E+02  0.86463528187E+02  0.49204268633E+03  0.50021071707E+03  0.00000000000E+00 0.  1.
         22    1    1    2    0    0 -0.14263121467E+02 -0.38224200656E+02  0.90614889046E+02  0.99375974293E+02  0.00000000000E+00 0.  1.
</event>
<event>
 6    1  0.3240171E-005  0.1479333E+03  0.7818608E-02  0.1226755E+00
          2   -1    0    0  502    0  0.00000000000E+00  0.00000000000E+00  0.55027515493E+02  0.55027515493E+02  0.00000000000E+00 0.  1.
          1   -1    0    0  501    0 -0.00000000000E+00 -0.00000000000E+00 -0.59239610733E+03  0.59239610733E+03  0.00000000000E+00 0.  1.
          2    1    1    2  501    0  0.46916520809E+02 -0.86514674803E+01 -0.21559076684E+03  0.22080621948E+03  0.00000000000E+00 0.  1.
          1    1    1    2  502    0  0.47048377915E+01  0.19927174467E+02 -0.28875403156E+03  0.28947904678E+03  0.00000000000E+00 0.  1.
         22    1    1    2    0    0 -0.85932094656E+02 -0.32409697071E+02 -0.30457786331E+02  0.96759444523E+02  0.00000000000E+00 0.  1.
         22    1    1    2    0    0  0.34310736056E+02  0.21133990084E+02 -0.25660071095E+01  0.40378912047E+02  0.00000000000E+00 0.  1.
</event>
<event>
 6    1  0.3240171E-005  0.1394336E+03  0.7818608E-02  0.1292403E+00
          2   -1    0    0  502    0  0.00000000000E+00  0.00000000000E+00  0.71476867333E+02  0.71476867333E+02  0.00000000000E+00 0.  1.
          1   -1    0    0  501    0 -0.00000000000E+00 -0.00000000000E+00 -0.38063087704E+03  0.38063087704E+03  0.00000000000E+00 0. -1.
          2    1    1    2  501    0 -0.13658772566E+02 -0.28190403990E+02 -0.75362357895E+02  0.81613393096E+02  0.00000000000E+00 0.  1.
          1    1    1    2  502    0  0.32919547378E+02  0.22217129087E+02 -0.23945740647E+03  0.24272854579E+03  0.00000000000E+00 0. -1.
         22    1    1    2    0    0 -0.38184624963E+02 -0.16481837007E+02  0.55842079721E+02  0.69627971407E+02  0.00000000000E+00 0.  1.
         22    1    1    2    0    0  0.18923850151E+02  0.22455111911E+02 -0.50176325057E+02  0.58137834082E+02  0.00000000000E+00 0. -1.
</event>
<event>
 6    1  0.3240171E-005  0.5325879E+02  0.7818608E-02  0.1435323E+00
          2   -1    0    0  502    0  0.00000000000E+00  0.00000000000E+00  0.76933119077E+02  0.76933119077E+02  0.00000000000E+00 0. -1.
          1   -1    0    0  501    0 -0.00000000000E+00 -0.00000000000E+00 -0.14508735727E+03  0.14508735727E+03  0.00000000000E+00 0. -1.
          2    1    1    2  501    0 -0.57354024238E+01 -0.22934178157E+02 -0.72974311498E+02  0.76708027659E+02  0.00000000000E+00 0. -1.
          1    1    1    2  502    0  0.19260176784E+02  0.84349800369E+01 -0.89864075622E+01  0.22866106333E+02  0.00000000000E+00 0. -1.
         22    1    1    2    0    0  0.19457292275E+02  0.24884903782E+02 -0.44551074744E+02  0.54613578163E+02  0.00000000000E+00 0. -1.
         22    1    1    2    0    0 -0.32982066635E+02 -0.10385705662E+02  0.58357555609E+02  0.67832764195E+02  0.00000000000E+00 0. -1.
</event>
<event>
 6    1  0.3240171E-005  0.1196575E+03  0.7818608E-02  0.1363832E+00
          2   -1    0    0  502    0  0.00000000000E+00  0.00000000000E+00  0.63668222778E+02  0.63668222778E+02  0.00000000000E+00 0.  1.
          1   -1    0    0  501    0 -0.00000000000E+00 -0.00000000000E+00 -0.33753117567E+03  0.33753117567E+03  0.00000000000E+00 0.  1.
          2    1    1    2  501    0  0.18993638912E+02 -0.13685598601E+02 -0.54530492580E+02  0.59343310906E+02  0.00000000000E+00 0.  1.
          1    1    1    2  502    0  0.80016200576E+02  0.24608670319E+02 -0.22484412044E+02  0.86681761602E+02  0.00000000000E+00 0.  1.
         22    1    1    2    0    0 -0.95109028331E+02  0.16488771464E+01 -0.21362705237E+03  0.23384816349E+03  0.00000000000E+00 0.  1.
         22    1    1    2    0    0 -0.39008111572E+01 -0.12571948865E+02  0.16779004102E+02  0.21326162444E+02  0.00000000000E+00 0.  1.
</event>
<event>
 6    1  0.3240171E-005  0.1796747E+03  0.7818608E-02  0.1247519E+00
          2   -1    0    0  502    0  0.00000000000E+00  0.00000000000E+00  0.14711104164E+03  0.14711104164E+03  0.00000000000E+00 0. -1.
          1   -1    0    0  501    0 -0.00000000000E+00 -0.00000000000E+00 -0.56921591829E+03  0.56921591829E+03  0.00000000000E+00 0. -1.
          2    1    1    2  501    0  0.30032286096E+02  0.25570987297E+02 -0.43508071778E+03  0.43686501872E+03  0.00000000000E+00 0. -1.
          1    1    1    2  502    0 -0.35019841792E+02 -0.11451563807E+03 -0.28804152446E+02  0.12316614745E+03  0.00000000000E+00 0. -1.
         22    1    1    2    0    0 -0.73882917937E-01  0.56634962574E+02 -0.39255804224E+02  0.68909669929E+02  0.00000000000E+00 0. -1.
         22    1    1    2    0    0  0.50614386136E+01  0.32309688194E+02  0.81035797801E+02  0.87386123826E+02  0.00000000000E+00 0. -1.
</event>
<event>
 6    1  0.3240171E-005  0.3070186E+03  0.7818608E-02  0.1223066E+00
          2   -1    0    0  502    0  0.00000000000E+00  0.00000000000E+00  0.31382653640E+03  0.31382653640E+03  0.00000000000E+00 0. -1.
          1   -1    0    0  501    0 -0.00000000000E+00 -0.00000000000E+00 -0.41175731055E+03  0.41175731055E+03  0.00000000000E+00 0.  1.
          2    1    1    2  501    0  0.14446629409E+03 -0.38764422564E+02  0.16260111523E+03  0.22093508833E+03  0.00000000000E+00 0. -1.
          1    1    1    2  502    0 -0.63879752012E+02  0.12956806064E+03 -0.29458041858E+03  0.32809469375E+03  0.00000000000E+00 0.  1.
         22    1    1    2    0    0 -0.71079247297E+02 -0.95955342888E+02 -0.20311436566E+02  0.12112902906E+03  0.00000000000E+00 0. -1.
         22    1    1    2    0    0 -0.95072947774E+01  0.51517048096E+01  0.54359965768E+02  0.55425035811E+02  0.00000000000E+00 0. -1.
</event>
<event>
 6    1  0.3240171E-005  0.9757358E+02  0.7818608E-02  0.1300017E+00
          2   -1    0    0  502    0  0.00000000000E+00  0.00000000000E+00  0.22838782860E+03  0.22838782860E+03  0.00000000000E+00 0.  1.
          1   -1    0    0  501    0 -0.00000000000E+00 -0.00000000000E+00 -0.40406237248E+03  0.40406237248E+03  0.00000000000E+00 0.  1.
          2    1    1    2  501    0  0.34626850427E+01  0.34526329051E+02  0.12229448526E+02  0.36791534307E+02  0.00000000000E+00 0.  1.
          1    1    1    2  502    0  0.35278500764E+02  0.32445676203E+00 -0.36931309111E+03  0.37099438966E+03  0.00000000000E+00 0.  1.
         22    1    1    2    0    0  0.62579974126E+01 -0.71554122936E+02  0.77763192205E+02  0.10585966702E+03  0.00000000000E+00 0.  1.
         22    1    1    2    0    0 -0.44999183219E+02  0.36703337123E+02  0.10364590650E+03  0.11880461010E+03  0.00000000000E+00 0.  1.
</event>
<event>
 6    1  0.3240171E-005  0.6290946E+02  0.7818608E-02  0.1408269E+00
          2   -1    0    0  502    0  0.00000000000E+00  0.00000000000E+00  0.91238403937E+02  0.91238403937E+02  0.00000000000E+00 0. -1.
          1   -1    0    0  501    0 -0.00000000000E+00 -0.00000000000E+00 -0.64878732333E+03  0.64878732333E+03  0.00000000000E+00 0. -1.
          2    1    1    2  501    0  0.21776512881E+02 -0.15459126206E+01 -0.56188061898E+03  0.56230457614E+03  0.00000000000E+00 0. -1.
          1    1    1    2  502    0  0.14006757315E+02 -0.22425251260E+02 -0.31235509440E+02  0.40923565272E+02  0.00000000000E+00 0. -1.
         22    1    1    2    0    0 -0.29096488590E+02  0.33540282350E+02  0.79652663578E+02  0.91192669681E+02  0.00000000000E+00 0. -1.
         22    1    1    2    0    0 -0.66867816056E+01 -0.95691184689E+01 -0.44085454543E+02  0.45604916169E+02  0.00000000000E+00 0.  1.
</event>
<event>
 6    1  0.3240171E-005  0.1226020E+03  0.7818608E-02  0.1331073E+00
          2   -1    0    0  502    0  0.00000000000E+00  0.00000000000E+00  0.74337803135E+02  0.74337803135E+02  0.00000000000E+00 0. -1.
          1   -1    0    0  501    0 -0.00000000000E+00 -0.00000000000E+00 -0.24079465763E+04  0.24079465763E+04  0.00000000000E+00 0. -1.
          2    1    1    2  501    0 -0.71122065331E+02 -0.33783599294E+02 -0.47057796143E+02  0.91728490318E+02  0.00000000000E+00 0. -1.
          1    1    1    2  502    0  0.98715156645E+02  0.16353810354E+02 -0.22545848108E+04  0.22568041116E+04  0.00000000000E+00 0. -1.
         22    1    1    2    0    0 -0.46621781715E+02  0.27329407658E+02 -0.70991320207E+02  0.89220258898E+02  0.00000000000E+00 0. -1.
         22    1    1    2    0    0  0.19028690402E+02 -0.98996187181E+01  0.39025153945E+02  0.44531518609E+02  0.00000000000E+00 0. -1.
</event>
<event>
 6    1  0.3240171E-005  0.1046699E+03  0.7818608E-02  0.1351480E+00
          2   -1    0    0  502    0  0.00000000000E+00  0.00000000000E+00  0.23313932369E+03  0.23313932369E+03  0.00000000000E+00 0. -1.
          1   -1    0    0  501    0 -0.00000000000E+00 -0.00000000000E+00 -0.18483974943E+03  0.18483974943E+03  0.00000000000E+00 0. -1.
          2    1    1    2  501    0 -0.81048751277E+02 -0.24911228887E+02 -0.10640455433E+03  0.13605660069E+03  0.00000000000E+00 0. -1.
          1    1    1    2  502    0  0.10476025708E+03  0.38938500779E+02  0.81140649247E+02  0.13811127133E+03  0.00000000000E+00 0. -1.
         22    1    1    2    0    0 -0.83163650045E+01 -0.22748518131E+02  0.10498911877E+03  0.10774679608E+03  0.00000000000E+00 0.  1.
         22    1    1    2    0    0 -0.15395140801E+02  0.87212462386E+01 -0.31425639429E+02  0.36064405024E+02  0.00000000000E+00 0.  1.
</event>
<event>
 6    1  0.3240171E-005  0.7806192E+02  0.7818608E-02  0.1340737E+00
          2   -1    0    0  502    0  0.00000000000E+00  0.00000000000E+00  0.12507502987E+03  0.12507502987E+03  0.00000000000E+00 0. -1.
          1   -1    0    0  501    0 -0.00000000000E+00 -0.00000000000E+00 -0.11513209464E+04  0.11513209464E+04  0.00000000000E+00 0.  1.
          2    1    1    2  501    0  0.29377208650E+02 -0.41428692402E+02 -0.17588216317E+02  0.53746649155E+02  0.00000000000E+00 0. -1.
          1    1    1    2  502    0 -0.19875012632E+02  0.43469093300E+02 -0.10784815533E+04  0.10795401980E+04  0.00000000000E+00 0.  1.
         22    1    1    2    0    0 -0.32731530722E+02  0.51833390174E+02  0.55553781988E+02  0.82730140418E+02  0.00000000000E+00 0. -1.
         22    1    1    2    0    0  0.23229334704E+02 -0.53873791073E+02  0.14270071072E+02  0.60378988760E+02  0.00000000000E+00 0. -1.
</event>
<event>
 6    1  0.3240171E-005  0.2275565E+03  0.7818608E-02  0.1248002E+00
          2   -1    0    0  502    0  0.00000000000E+00  0.00000000000E+00  0.12088936155E+03  0.12088936155E+03  0.00000000000E+00 0. -1.
          1   -1    0    0  501    0 -0.00000000000E+00 -0.00000000000E+00 -0.48491840452E+03  0.48491840452E+03  0.00000000000E+00 0.  1.
          2    1    1    2  501    0  0.21636063728E+02 -0.10007025723E+03 -0.53152648086E+02  0.11535761628E+03  0.00000000000E+00 0. -1.
          1    1    1    2  502    0 -0.14142940144E+03  0.91658235398E+02 -0.25790496073E+03  0.30808842314E+03  0.00000000000E+00 0.  1.
         22    1    1    2    0    0  0.13409351493E+03  0.13619477473E+01 -0.76161976399E+02  0.15421923452E+03  0.00000000000E+00 0. -1.
         22    1    1    2    0    0 -0.14300177222E+02  0.70500740846E+01  0.23190542242E+02  0.28142492119E+02  0.00000000000E+00 0. -1.
</event>
<event>
 6    1  0.3240171E-005  0.2917342E+03  0.7818608E-02  0.1186992E+00
          2   -1    0    0  502    0  0.00000000000E+00  0.00000000000E+00  0.62231507779E+03  0.62231507779E+03  0.00000000000E+00 0.  1.
          1   -1    0    0  501    0 -0.00000000000E+00 -0.00000000000E+00 -0.35559619865E+03  0.35559619865E+03  0.00000000000E+00 0.  1.
          2    1    1    2  501    0  0.13072448973E+02  0.19603937636E+02  0.29935302976E+02  0.38096268285E+02  0.00000000000E+00 0.  1.
          1    1    1    2  502    0 -0.32339869320E+02 -0.28841750096E+03 -0.24161600565E+03  0.37763582483E+03  0.00000000000E+00 0.  1.
         22    1    1    2    0    0  0.45563800975E+02  0.26107392012E+03  0.40680293310E+03  0.48551444685E+03  0.00000000000E+00 0.  1.
         22    1    1    2    0    0 -0.26296380628E+02  0.77396431973E+01  0.71596648723E+02  0.76664736479E+02  0.00000000000E+00 0.  1.
</event>
<event>
 6    1  0.3240171E-005  0.7010443E+02  0.7818608E-02  0.1385181E+00
          2   -1    0    0  502    0  0.00000000000E+00  0.00000000000E+00  0.72783100645E+02  0.72783100645E+02  0.00000000000E+00 0.  1.
          1   -1    0    0  501    0 -0.00000000000E+00 -0.00000000000E+00 -0.46618250877E+03  0.46618250877E+03  0.00000000000E+00 0. -1.
          2    1    1    2  501    0 -0.22941860528E+02  0.18027662324E+02 -0.69030532293E+02  0.74943578524E+02  0.00000000000E+00 0.  1.
          1    1    1    2  502    0  0.61745870686E+02 -0.62318330719E+02 -0.31397349027E+03  0.32599920166E+03  0.00000000000E+00 0. -1.
         22    1    1    2    0    0  0.27248229678E+01  0.24333339309E+02 -0.63297845453E+02  0.67868647409E+02  0.00000000000E+00 0. -1.
         22    1    1    2    0    0 -0.41528833126E+02  0.19957329086E+02  0.52902459889E+02  0.70154181824E+02  0.00000000000E+00 0.  1.
</event>
<event>
 6    1  0.3240171E-005  0.1322573E+03  0.7818608E-02  0.1236491E+00
          2   -1    0    0  502    0  0.00000000000E+00  0.00000000000E+00  0.57402375686E+03  0.57402375686E+03  0.00000000000E+00 0. -1.
          1   -1    0    0  501    0 -0.00000000000E+00 -0.00000000000E+00 -0.15541242596E+03  0.15541242596E+03  0.00000000000E+00 0. -1.
          2    1    1    2  501    0 -0.27345881574E+02  0.46286578767E+02  0.87248288845E+02  0.10248174725E+03  0.00000000000E+00 0. -1.
          1    1    1    2  502    0 -0.46325777309E+02  0.96419007809E+02 -0.10222135591E+03  0.14795914407E+03  0.00000000000E+00 0. -1.
         22    1    1    2    0    0 -0.31088448486E+02 -0.36740862550E+02  0.60869176521E+02  0.77597933352E+02  0.00000000000E+00 0. -1.
         22    1    1    2    0    0  0.10476010737E+03 -0.10596472403E+03  0.37271522144E+03  0.40139735815E+03  0.00000000000E+00 0. -1.
</event>
<event>
 6    1  0.3240171E-005  0.1183144E+03  0.7818608E-02  0.1246692E+00
          2   -1    0    0  502    0  0.00000000000E+00  0.00000000000E+00  0.79780078210E+03  0.79780078210E+03  0.00000000000E+00 0.  1.
          1   -1    0    0  501    0 -0.00000000000E+00 -0.00000000000E+00 -0.22001718904E+03  0.22001718904E+03  0.00000000000E+00 0.  1.
          2    1    1    2  501    0  0.17671084726E+02  0.88078714602E+02  0.34476393514E+03  0.35627559301E+03  0.00000000000E+00 0.  1.
          1    1    1    2  502    0 -0.25585976285E+02  0.70551921193E+01 -0.19998607291E+03  0.20173955308E+03  0.00000000000E+00 0.  1.
         22    1    1    2    0    0  0.24933770654E+01  0.25337179669E+02  0.15044851562E+03  0.15258750098E+03  0.00000000000E+00 0. -1.
         22    1    1    2    0    0  0.54215144939E+01 -0.12047108639E+03  0.28255721521E+03  0.30721532407E+03  0.00000000000E+00 0.  1.
</event>
<event>
 6    1  0.3240171E-005  0.9740041E+02  0.7818608E-02  0.1286591E+00
          2   -1    0    0  502    0  0.00000000000E+00  0.00000000000E+00  0.69367043360E+02  0.69367043360E+02  0.00000000000E+00 0. -1.
          1   -1    0    0  501    0 -0.00000000000E+00 -0.00000000000E+00 -0.10543620115E+04  0.10543620115E+04  0.00000000000E+00 0. -1.
          2    1    1    2  501    0  0.11592652899E+01 -0.32195582906E+02 -0.67523342744E+03  0.67600153919E+03  0.00000000000E+00 0. -1.
          1    1    1    2  502    0  0.69531753441E+02  0.53087944202E+02 -0.29150674768E+03  0.30435042057E+03  0.00000000000E+00 0. -1.
         22    1    1    2    0    0 -0.81521241410E+02 -0.23540651682E+02  0.32910703400E+02  0.91010930558E+02  0.00000000000E+00 0. -1.
         22    1    1    2    0    0  0.10830222679E+02  0.26482903871E+01 -0.51165496425E+02  0.52366164550E+02  0.00000000000E+00 0.  1.
</event>
<event>
 6    1  0.3240171E-005  0.8090428E+02  0.7818608E-02  0.1331815E+00
          2   -1    0    0  502    0  0.00000000000E+00  0.00000000000E+00  0.11159628204E+03  0.11159628204E+03  0.00000000000E+00 0.  1.
          1   -1    0    0  501    0 -0.00000000000E+00 -0.00000000000E+00 -0.31640049627E+04  0.31640049627E+04  0.00000000000E+00 0. -1.
          2    1    1    2  501    0  0.33114597740E+02 -0.83315238027E+02 -0.76890527913E+02  0.11811079017E+03  0.00000000000E+00 0.  1.
          1    1    1    2  502    0 -0.72931052913E+01  0.47013146416E+02 -0.30204941428E+04  0.30208687975E+04  0.00000000000E+00 0. -1.
         22    1    1    2    0    0 -0.17828003220E+02  0.66606679884E+02  0.68684442295E+02  0.97323379089E+02  0.00000000000E+00 0.  1.
         22    1    1    2    0    0 -0.79934892288E+01 -0.30304588273E+02 -0.23708452223E+02  0.39298277917E+02  0.00000000000E+00 0.  1.
</event>
<event>
 6    1  0.3240171E-005  0.2101573E+03  0.7818608E-02  0.1194308E+00
          2   -1    0    0  502    0  0.00000000000E+00  0.00000000000E+00  0.54697520739E+03  0.54697520739E+03  0.00000000000E+00 0. -1.
          1   -1    0    0  501    0 -0.00000000000E+00 -0.00000000000E+00 -0.11770235603E+03  0.11770235603E+03  0.00000000000E+00 0. -1.
          2    1    1    2  501    0  0.41691663691E+02 -0.85030443600E+02  0.18411415614E+02  0.96474615237E+02  0.00000000000E+00 0. -1.
          1    1    1    2  502    0 -0.37980693587E+02  0.20783109548E+03  0.16965172670E+03  0.27095757178E+03  0.00000000000E+00 0. -1.
         22    1    1    2    0    0 -0.51881976819E+02 -0.34659028016E+02  0.14631416813E+03  0.15906232595E+03  0.00000000000E+00 0. -1.
         22    1    1    2    0    0  0.48171006715E+02 -0.88141623862E+02  0.94895540916E+02  0.13818305045E+03  0.00000000000E+00 0. -1.
</event>
<event>
 6    1  0.3240171E-005  0.3093680E+03  0.7818608E-02  0.1155601E+00
          2   -1    0    0  502    0  0.00000000000E+00  0.00000000000E+00  0.17846345168E+03  0.17846345168E+03  0.00000000000E+00 0. -1.
          1   -1    0    0  501    0 -0.00000000000E+00 -0.00000000000E+00 -0.22737963946E+04  0.22737963946E+04  0.00000000000E+00 0.  1.
          2    1    1    2  501    0  0.19089103845E+03 -0.18781966314E+03 -0.69449882421E+02  0.27665664747E+03  0.00000000000E+00 0. -1.
          1    1    1    2  502    0 -0.22045543159E+03  0.18263836941E+03 -0.20256878693E+04  0.20458173709E+04  0.00000000000E+00 0.  1.
         22    1    1    2    0    0  0.28101368452E+02  0.37749695080E+02  0.50807374474E+02  0.69253994025E+02  0.00000000000E+00 0. -1.
         22    1    1    2    0    0  0.14630246798E+01 -0.32568401355E+02 -0.51002565768E+02  0.60531833963E+02  0.00000000000E+00 0. -1.
</event>
<event>
 6    1  0.3240171E-005  0.6408412E+02  0.7818608E-02  0.1396011E+00
          2   -1    0    0  502    0  0.00000000000E+00  0.00000000000E+00  0.75489012992E+02  0.75489012992E+02  0.00000000000E+00 0.  1.
          1   -1    0    0  501    0 -0.00000000000E+00 -0.00000000000E+00 -0.57845752785E+03  0.57845752785E+03  0.00000000000E+00 0.  1.
          2    1    1    2  501    0 -0.71931913947E+02 -0.22832478614E+02 -0.39634190509E+03  0.40346304422E+03  0.00000000000E+00 0.  1.
          1    1    1    2  502    0  0.31941116249E+02  0.58218690394E+00 -0.11594664332E+03  0.12026719397E+03  0.00000000000E+00 0.  1.
         22    1    1    2    0    0 -0.88260514767E+01  0.11110613988E+02 -0.50355593266E+02  0.52316638854E+02  0.00000000000E+00 0. -1.
         22    1    1    2    0    0  0.48816849176E+02  0.11139677722E+02  0.59675626816E+02  0.77899663793E+02  0.00000000000E+00 0.  1.
</event>
<event>
 6    1  0.3240171E-005  0.7290974E+02  0.7818608E-02  0.1362314E+00
          2   -1    0    0  502    0  0.00000000000E+00  0.00000000000E+00  0.71254243089E+03  0.71254243089E+03  0.00000000000E+00 0. -1.
          1   -1    0    0  501    0 -0.00000000000E+00 -0.00000000000E+00 -0.39018396709E+03  0.39018396709E+03  0.00000000000E+00 0.  1.
          2    1    1    2  501    0  0.57293694203E+00  0.59583432883E+02  0.17661855499E+03  0.18639910863E+03  0.00000000000E+00 0. -1.
          1    1    1    2  502    0 -0.10748616481E+02 -0.66131656585E+02 -0.37460811978E+03  0.38055245652E+03  0.00000000000E+00 0.  1.
         22    1    1    2    0    0 -0.16277143828E+01 -0.59661420298E+02  0.21675591852E+03  0.22482273626E+03  0.00000000000E+00 0.  1.
         22    1    1    2    0    0  0.11803393922E+02  0.66209643999E+02  0.30359211007E+03  0.31095209657E+03  0.00000000000E+00 0. -1.
</event>
<event>
 6    1  0.3240171E-005  0.1150797E+03  0.7818608E-02  0.1362071E+00
          2   -1    0    0  502    0  0.00000000000E+00  0.00000000000E+00  0.11814247601E+03  0.11814247601E+03  0.00000000000E+00 0. -1.
          1   -1    0    0  501    0 -0.00000000000E+00 -0.00000000000E+00 -0.31504269596E+03  0.31504269596E+03  0.00000000000E+00 0. -1.
          2    1    1    2  501    0 -0.45269052353E+02  0.62571563748E+02 -0.46207245946E+02  0.89997762576E+02  0.00000000000E+00 0. -1.
          1    1    1    2  502    0  0.54149487766E+02 -0.91066273933E+02 -0.18161138177E+03  0.21025681264E+03  0.00000000000E+00 0. -1.
         22    1    1    2    0    0 -0.15236124378E+02 -0.34190149959E+00  0.76838761427E+02  0.78335506894E+02  0.00000000000E+00 0. -1.
         22    1    1    2    0    0  0.63556889650E+01  0.28836611684E+02 -0.45920353672E+02  0.54595089861E+02  0.00000000000E+00 0.  1.
</event>
<event>
 6    1  0.3240171E-005  0.5569400E+02  0.7818608E-02  0.1511726E+00
          2   -1    0    0  502    0  0.00000000000E+00  0.00000000000E+00  0.62965162063E+02  0.62965162063E+02  0.00000000000E+00 0. -1.
          1   -1    0    0  501    0 -0.00000000000E+00 -0.00000000000E+00 -0.28749607189E+03  0.28749607189E+03  0.00000000000E+00 0. -1.
          2    1    1    2  501    0 -0.32059638994E+02  0.20352757633E+02 -0.14087317615E+03  0.14590170305E+03  0.00000000000E+00 0. -1.
          1    1    1    2  502    0  0.22586831933E+02 -0.45469304711E+02 -0.56919181844E+02  0.76271986400E+02  0.00000000000E+00 0. -1.
         22    1    1    2    0    0  0.10199978083E+02  0.11005902654E+02 -0.75779929237E+02  0.77251324399E+02  0.00000000000E+00 0.  1.
         22    1    1    2    0    0 -0.72717102218E+00  0.14110644423E+02  0.49041377407E+02  0.51036220096E+02  0.00000000000E+00 0. -1.
</event>
<event>
 6    1  0.3240171E-005  0.6950965E+03  0.7818608E-02  0.1075961E+00
          2   -1    0    0  502    0  0.00000000000E+00  0.00000000000E+00  0.79320743325E+03  0.79320743325E+03  0.00000000000E+00 0.  1.
          1   -1    0    0  501    0 -0.00000000000E+00 -0.00000000000E+00 -0.48940380893E+03  0.48940380893E+03  0.00000000000E+00 0.  1.
          2    1    1    2  501    0  0.53920896202E+02 -0.18871877779E+03 -0.12650923783E+03  0.23350980149E+03  0.00000000000E+00 0.  1.
          1    1    1    2  502    0 -0.96804458352E+02  0.32711015025E+03 -0.19690823295E+03  0.39388450815E+03  0.00000000000E+00 0.  1.
         22    1    1    2    0    0  0.73058929919E+02 -0.13146946479E+03  0.57647283865E+03  0.59577072865E+03  0.00000000000E+00 0.  1.
         22    1    1    2    0    0 -0.30175367769E+02 -0.69219076765E+01  0.50748256436E+02  0.59446203892E+02  0.00000000000E+00 0.  1.
</event>
<event>
 6    1  0.3240171E-005  0.6238458E+02  0.7818608E-02  0.1458331E+00
          2   -1    0    0  502    0  0.00000000000E+00  0.00000000000E+00  0.15642747501E+03  0.15642747501E+03  0.00000000000E+00 0. -1.
          1   -1    0    0  501    0 -0.00000000000E+00 -0.00000000000E+00 -0.38767818509E+03  0.38767818509E+03  0.00000000000E+00 0. -1.
          2    1    1    2  501    0  0.28063873341E+02  0.32678633813E+02 -0.28017617127E+03  0.28346809529E+03  0.00000000000E+00 0. -1.
          1    1    1    2  502    0 -0.41192836043E+02 -0.30212231287E+02  0.11225944762E+03  0.12333617571E+03  0.00000000000E+00 0. -1.
         22    1    1    2    0    0  0.62276487537E+01 -0.20336630061E+02  0.32901695380E+02  0.39177591684E+02  0.00000000000E+00 0.  1.
         22    1    1    2    0    0  0.69013139478E+01  0.17870227535E+02 -0.96235681801E+02  0.98123797410E+02  0.00000000000E+00 0. -1.
</event>
<event>
 6    1  0.3240171E-005  0.1940200E+03  0.7818608E-02  0.1219938E+00
          2   -1    0    0  502    0  0.00000000000E+00  0.00000000000E+00  0.57195481000E+02  0.57195481000E+02  0.00000000000E+00 0. -1.
          1   -1    0    0  501    0 -0.00000000000E+00 -0.00000000000E+00 -0.81416525234E+03  0.81416525234E+03  0.00000000000E+00 0.  1.
          2    1    1    2  501    0 -0.78370644877E+02 -0.34864533580E+02 -0.25041480527E+03  0.26469807022E+03  0.00000000000E+00 0. -1.
          1    1    1    2  502    0  0.10484379452E+03  0.75016784357E+02 -0.43133369739E+03  0.45018718073E+03  0.00000000000E+00 0.  1.
         22    1    1    2    0    0 -0.32449638286E+02 -0.85507627145E+02 -0.49588527732E+02  0.10403631773E+03  0.00000000000E+00 0. -1.
         22    1    1    2    0    0  0.59764886414E+01  0.45355376368E+02 -0.25632740952E+02  0.52439164664E+02  0.00000000000E+00 0. -1.
</event>
<event>
 6    1  0.3240171E-005  0.9614933E+02  0.7818608E-02  0.1347689E+00
          2   -1    0    0  502    0  0.00000000000E+00  0.00000000000E+00  0.35493406168E+03  0.35493406168E+03  0.00000000000E+00 0. -1.
          1   -1    0    0  501    0 -0.00000000000E+00 -0.00000000000E+00 -0.60275565429E+03  0.60275565429E+03  0.00000000000E+00 0. -1.
          2    1    1    2  501    0  0.30801899656E+02 -0.18904290171E+02  0.59081583578E+02  0.69258665359E+02  0.00000000000E+00 0. -1.
          1    1    1    2  502    0  0.10398494746E+02  0.45634193397E+02 -0.58020274694E+03  0.58208748128E+03  0.00000000000E+00 0. -1.
         22    1    1    2    0    0  0.11964255122E+02  0.31116634606E+02  0.18571750598E+03  0.18868593053E+03  0.00000000000E+00 0. -1.
         22    1    1    2    0    0 -0.53164649524E+02 -0.57846537832E+02  0.87582064776E+02  0.11765763880E+03  0.00000000000E+00 0.  1.
</event>
<event>
 6    1  0.3240171E-005  0.1074708E+03  0.7818608E-02  0.1282240E+00
          2   -1    0    0  502    0  0.00000000000E+00  0.00000000000E+00  0.55463909160E+02  0.55463909160E+02  0.00000000000E+00 0.  1.
          1   -1    0    0  501    0 -0.00000000000E+00 -0.00000000000E+00 -0.47873461133E+03  0.47873461133E+03  0.00000000000E+00 0.  1.
          2    1    1    2  501    0 -0.50163022917E+02 -0.48745935225E+02 -0.10471478879E+03  0.12592728878E+03  0.00000000000E+00 0.  1.
          1    1    1    2  502    0  0.15699956112E+02  0.37437743485E+02 -0.27061381685E+03  0.27364193963E+03  0.00000000000E+00 0.  1.
         22    1    1    2    0    0  0.21931512344E+02  0.65423058049E+02 -0.17076374526E+02  0.71082841285E+02  0.00000000000E+00 0.  1.
         22    1    1    2    0    0  0.12531554460E+02 -0.54114866308E+02 -0.30865722012E+02  0.63546450790E+02  0.00000000000E+00 0.  1.
</event>
<event>
 6    1  0.3240171E-005  0.1000488E+03  0.7818608E-02  0.1337909E+00
          2   -1    0    0  502    0  0.00000000000E+00  0.00000000000E+00  0.23457986292E+03  0.23457986292E+03  0.00000000000E+00 0.  1.
          1   -1    0    0  501    0 -0.00000000000E+00 -0.00000000000E+00 -0.13719743675E+04  0.13719743675E+04  0.00000000000E+00 0. -1.
          2    1    1    2  501    0  0.90805909138E+01 -0.19845518580E+02 -0.15142096401E+02  0.26562846656E+02  0.00000000000E+00 0.  1.
          1    1    1    2  502    0 -0.16394257968E+02  0.87306860161E+02 -0.13278973462E+04  0.13308653657E+04  0.00000000000E+00 0. -1.
         22    1    1    2    0    0  0.31386957369E+02 -0.15548882938E+02  0.18500988461E+03  0.18829648498E+03  0.00000000000E+00 0.  1.
         22    1    1    2    0    0 -0.24073290314E+02 -0.51912458643E+02  0.20635053404E+02  0.60829533106E+02  0.00000000000E+00 0.  1.
</event>
<event>
 6    1  0.3240171E-005  0.1339910E+04  0.7818608E-02  0.9776409E-01
          2   -1    0    0  502    0  0.00000000000E+00  0.00000000000E+00  0.15810965151E+04  0.15810965151E+04  0.00000000000E+00 0. -1.
          1   -1    0    0  501    0 -0.00000000000E+00 -0.00000000000E+00 -0.60054953991E+03  0.60054953991E+03  0.00000000000E+00 0. -1.
          2    1    1    2  501    0  0.27223379402E+03 -0.23745419075E+03 -0.23089929365E+03  0.42873093558E+03  0.00000000000E+00 0. -1.
          1    1    1    2  502    0  0.34250490302E+02 -0.47214656495E+02 -0.23491997347E+03  0.24205312187E+03  0.00000000000E+00 0. -1.
         22    1    1    2    0    0 -0.81668600048E+02  0.12356154447E+02  0.31641792732E+03  0.32702100776E+03  0.00000000000E+00 0. -1.
         22    1    1    2    0    0 -0.22481568428E+03  0.27231269280E+03  0.11299483150E+04  0.11838409898E+04  0.00000000000E+00 0. -1.
</event>
<event>
 6    1  0.3240171E-005  0.1467404E+03  0.7818608E-02  0.1324040E+00
          2   -1    0    0  502    0  0.00000000000E+00  0.00000000000E+00  0.78978340192E+02  0.78978340192E+02  0.00000000000E+00 0. -1.
          1   -1    0    0  501    0 -0.00000000000E+00 -0.00000000000E+00 -0.20154788174E+04  0.20154788174E+04  0.00000000000E+00 0. -1.
          2    1    1    2  501    0 -0.82549308666E+02  0.11066636639E+03 -0.48491919727E+03  0.50419050060E+03  0.00000000000E+00 0. -1.
          1    1    1    2  502    0  0.72168127357E+02 -0.12471831470E+03 -0.14551985191E+04  0.14623151598E+04  0.00000000000E+00 0. -1.
         22    1    1    2    0    0  0.13933468784E+02  0.25482057934E+01  0.64424764815E+02  0.65963514359E+02  0.00000000000E+00 0. -1.
         22    1    1    2    0    0 -0.35522874760E+01  0.11503742514E+02 -0.60807525652E+02  0.61987982820E+02  0.00000000000E+00 0. -1.
</event>
<event>
 6    1  0.3240171E-005  0.5605326E+02  0.7818608E-02  0.1485371E+00
          2   -1    0    0  502    0  0.00000000000E+00  0.00000000000E+00  0.18154859163E+03  0.18154859163E+03  0.00000000000E+00 0. -1.
          1   -1    0    0  501    0 -0.00000000000E+00 -0.00000000000E+00 -0.11475873624E+03  0.11475873624E+03  0.00000000000E+00 0. -1.
          2    1    1    2  501    0  0.18067974330E+02  0.12520170908E+02 -0.30206817115E+02  0.37358508752E+02  0.00000000000E+00 0. -1.
          1    1    1    2  502    0 -0.21198333784E+02 -0.27859404087E+02  0.12345851165E+03  0.12832583469E+03  0.00000000000E+00 0. -1.
         22    1    1    2    0    0  0.86350159965E+01 -0.17954817263E+02  0.46306488782E+02  0.50410612647E+02  0.00000000000E+00 0. -1.
         22    1    1    2    0    0 -0.55046565432E+01  0.33294050441E+02 -0.72768327922E+02  0.80212371783E+02  0.00000000000E+00 0. -1.
</event>
<event>
 6    1  0.3240171E-005  0.1256217E+03  0.7818608E-02  0.1246046E+00
          2   -1    0    0  502    0  0.00000000000E+00  0.00000000000E+00  0.37884007463E+03  0.37884007463E+03  0.00000000000E+00 0. -1.
          1   -1    0    0  501    0 -0.00000000000E+00 -0.00000000000E+00 -0.10846195465E+03  0.10846195465E+03  0.00000000000E+00 0. -1.
          2    1    1    2  501    0  0.11805510410E+01 -0.44006188615E+02  0.48725593593E+01  0.44290858784E+02  0.00000000000E+00 0. -1.
          1    1    1    2  502    0 -0.12332369573E+03  0.14485006788E+02 -0.42063594432E+00  0.12417216389E+03  0.00000000000E+00 0. -1.
         22    1    1    2    0    0  0.66161493697E+02  0.73056287781E+02  0.19525107896E+03  0.21871796512E+03  0.00000000000E+00 0. -1.
         22    1    1    2    0    0  0.55981650997E+02 -0.43535105954E+02  0.70675117607E+02  0.10012104148E+03  0.00000000000E+00 0. -1.
</event>
<event>
 6    1  0.3240171E-005  0.1634204E+03  0.7818608E-02  0.1224444E+00
          2   -1    0    0  502    0  0.00000000000E+00  0.00000000000E+00  0.76243303446E+03  0.76243303446E+03  0.00000000000E+00 0. -1.
          1   -1    0    0  501    0 -0.00000000000E+00 -0.00000000000E+00 -0.57774523020E+03  0.57774523020E+03  0.00000000000E+00 0. -1.
          2    1    1    2  501    0 -0.86187333215E+02 -0.14756880536E+03  0.28779262116E+03  0.33470793465E+03  0.00000000000E+00 0. -1.
          1    1    1    2  502    0  0.86999145112E+02  0.12453671271E+03 -0.53513225316E+03  0.55627760375E+03  0.00000000000E+00 0. -1.
         22    1    1    2    0    0 -0.34221229052E+01  0.69585573873E+02  0.32607068550E+03  0.33343058492E+03  0.00000000000E+00 0. -1.
         22    1    1    2    0    0  0.26103110090E+01 -0.46553481221E+02  0.10595675075E+03  0.11576214134E+03  0.00000000000E+00 0. -1.
</event>
<event>
 6    1  0.3240171E-005  0.7660237E+02  0.7818608E-02  0.1341992E+00
          2   -1    0    0  502    0  0.00000000000E+00  0.00000000000E+00  0.36405248887E+02  0.36405248887E+02  0.00000000000E+00 0. -1.
          1   -1    0    0  501    0 -0.00000000000E+00 -0.00000000000E+00 -0.33458182286E+03  0.33458182286E+03  0.00000000000E+00 0.  1.
          2    1    1    2  501    0 -0.50565362288E+02 -0.10162144692E+02 -0.84154480375E+02  0.98702085161E+02  0.00000000000E+00 0. -1.
          1    1    1    2  502    0  0.18472629427E+02 -0.10901014100E+02 -0.94205281932E+02  0.96616278598E+02  0.00000000000E+00 0.  1.
         22    1    1    2    0    0  0.61736051545E+02  0.33765368971E+02 -0.23643986177E+02  0.74232595836E+02  0.00000000000E+00 0. -1.
         22    1    1    2    0    0 -0.29643318684E+02 -0.12702210179E+02 -0.96172825491E+02  0.10143611215E+03  0.00000000000E+00 0.  1.
</event>
<event>
 6    1  0.3240171E-005  0.1941709E+03  0.7818608E-02  0.1193148E+00
          2   -1    0    0  502    0  0.00000000000E+00  0.00000000000E+00  0.71433466531E+02  0.71433466531E+02  0.00000000000E+00 0.  1.
          1   -1    0    0  501    0 -0.00000000000E+00 -0.00000000000E+00 -0.79104901798E+03  0.79104901798E+03  0.00000000000E+00 0.  1.
          2    1    1    2  501    0 -0.97359825548E+02  0.74850156360E+02 -0.12599533315E+03  0.17594404086E+03  0.00000000000E+00 0.  1.
          1    1    1    2  502    0  0.33286694426E+02 -0.14454933923E+02 -0.51023313775E+03  0.51152204644E+03  0.00000000000E+00 0.  1.
         22    1    1    2    0    0  0.54364574666E+02  0.12178916598E+02  0.97342769620E+01  0.56556070727E+02  0.00000000000E+00 0.  1.
         22    1    1    2    0    0  0.97085564567E+01 -0.72574139036E+02 -0.93121357517E+02  0.11846032649E+03  0.00000000000E+00 0.  1.
</event>
<event>
 6    1  0.3240171E-005  0.9383960E+02  0.7818608E-02  0.1342435E+00
          2   -1    0    0  502    0  0.00000000000E+00  0.00000000000E+00  0.10425216482E+03  0.10425216482E+03  0.00000000000E+00 0. -1.
          1   -1    0    0  501    0 -0.00000000000E+00 -0.00000000000E+00 -0.11842589122E+03  0.11842589122E+03  0.00000000000E+00 0. -1.
          2    1    1    2  501    0 -0.21279100646E+02  0.38553307222E+02 -0.12363289255E+02  0.45738479897E+02  0.00000000000E+00 0. -1.
          1    1    1    2  502    0 -0.29324017742E+02 -0.10086945752E+02 -0.22518729797E+02  0.38324113595E+02  0.00000000000E+00 0. -1.
         22    1    1    2    0    0  0.40870544280E+02  0.54968453522E+01  0.68034062519E+02  0.79556585909E+02  0.00000000000E+00 0. -1.
         22    1    1    2    0    0  0.97325741082E+01 -0.33963206822E+02 -0.47325769863E+02  0.59058876636E+02  0.00000000000E+00 0. -1.
</event>
<event>
 6    1  0.3240171E-005  0.3580315E+03  0.7818608E-02  0.1138922E+00
          2   -1    0    0  502    0  0.00000000000E+00  0.00000000000E+00  0.73775523556E+03  0.73775523556E+03  0.00000000000E+00 0.  1.
          1   -1    0    0  501    0 -0.00000000000E+00 -0.00000000000E+00 -0.21034692438E+03  0.21034692438E+03  0.00000000000E+00 0.  1.
          2    1    1    2  501    0 -0.68802173916E+01 -0.11905382026E+03  0.45940008867E+02  0.12779528131E+03  0.00000000000E+00 0.  1.
          1    1    1    2  502    0  0.50056666890E+02 -0.29923952284E+02 -0.14857817106E+03  0.15961386449E+03  0.00000000000E+00 0.  1.
         22    1    1    2    0    0 -0.20673764697E+02  0.40154999124E+02  0.40180332979E+02  0.60450704377E+02  0.00000000000E+00 0.  1.
         22    1    1    2    0    0 -0.22502684801E+02  0.10882277342E+03  0.58986614040E+03  0.60024230976E+03  0.00000000000E+00 0.  1.
</event>
<event>
 6    1  0.3240171E-005  0.4144471E+03  0.7818608E-02  0.1062850E+00
          2   -1    0    0  502    0  0.00000000000E+00  0.00000000000E+00  0.48174435084E+03  0.48174435084E+03  0.00000000000E+00 0.  1.
          1   -1    0    0  501    0 -0.00000000000E+00 -0.00000000000E+00 -0.12171393649E+04  0.12171393649E+04  0.00000000000E+00 0.  1.
          2    1    1    2  501    0 -0.67923772479E+02 -0.28410246030E+03  0.12316336183E+03  0.31701271348E+03  0.00000000000E+00 0.  1.
          1    1    1    2  502    0  0.31782353998E+03  0.26394219958E+03 -0.98933555812E+03  0.10721297188E+04  0.00000000000E+00 0.  1.
         22    1    1    2    0    0 -0.20320099021E+03  0.50678215594E+02  0.14174826503E+03  0.25288632742E+03  0.00000000000E+00 0.  1.
         22    1    1    2    0    0 -0.46698777296E+02 -0.30517954879E+02 -0.10971082779E+02  0.56854956057E+02  0.00000000000E+00 0.  1.
</event>
<event>
 6    1  0.3240171E-005  0.1939355E+03  0.7818608E-02  0.1220011E+00
          2   -1    0    0  502    0  0.00000000000E+00  0.00000000000E+00  0.51240894696E+03  0.51240894696E+03  0.00000000000E+00 0. -1.
          1   -1    0    0  501    0 -0.00000000000E+00 -0.00000000000E+00 -0.15198369588E+04  0.15198369588E+04  0.00000000000E+00 0. -1.
          2    1    1    2  501    0 -0.74180937716E+02 -0.22228594048E+02  0.54366377991E+02  0.94618312020E+02  0.00000000000E+00 0. -1.
          1    1    1    2  502    0 -0.34065809742E+02  0.18851885264E+01 -0.14830184712E+04  0.14834108734E+04  0.00000000000E+00 0. -1.
         22    1    1    2    0    0  0.22308690252E+02 -0.41151144720E+02  0.23924093801E+03  0.24377719498E+03  0.00000000000E+00 0. -1.
         22    1    1    2    0    0  0.85938057206E+02  0.61494550242E+02  0.18198314335E+03  0.21043952540E+03  0.00000000000E+00 0. -1.
</event>
<event>
 6    1  0.3240171E-005  0.1821997E+03  0.7818608E-02  0.1262006E+00
          2   -1    0    0  502    0  0.00000000000E+00  0.00000000000E+00  0.87459121372E+02  0.87459121372E+02  0.00000000000E+00 0. -1.
          1   -1    0    0  501    0 -0.00000000000E+00 -0.00000000000E+00 -0.35600849424E+03  0.35600849424E+03  0.00000000000E+00 0. -1.
          2    1    1    2  501    0  0.53612342871E+02  0.31992924436E+02 -0.24858906313E+01  0.62482078825E+02  0.00000000000E+00 0. -1.
          1    1    1    2  502    0  0.57295804480E+02 -0.97561115487E+01 -0.18662915099E+03  0.19546976984E+03  0.00000000000E+00 0. -1.
         22    1    1    2    0    0 -0.10792200182E+03  0.11069925262E+01 -0.10513282715E+03  0.15066949012E+03  0.00000000000E+00 0. -1.
         22    1    1    2    0    0 -0.29861455277E+01 -0.23343805413E+02  0.25698495904E+02  0.34846276817E+02  0.00000000000E+00 0. -1.
</event>
<event>
 6    1  0.3240171E-005  0.3555319E+03  0.7818608E-02  0.1120400E+00
          2   -1    0    0  502    0  0.00000000000E+00  0.00000000000E+00  0.35916547307E+03  0.35916547307E+03  0.00000000000E+00 0.  1.
          1   -1    0    0  501    0 -0.00000000000E+00 -0.00000000000E+00 -0.75673418874E+03  0.75673418874E+03  0.00000000000E+00 0. -1.
          2    1    1    2  501    0  0.16564900689E+03 -0.30405020146E+03 -0.27359141824E+03  0.44129172055E+03  0.00000000000E+00 0.  1.
          1    1    1    2  502    0 -0.90142796796E+02  0.33573960614E+03 -0.29057358641E+03  0.45307815668E+03  0.00000000000E+00 0. -1.
         22    1    1    2    0    0 -0.69170996610E+02 -0.22418606151E+02  0.18566766903E+03  0.19939835505E+03  0.00000000000E+00 0.  1.
         22    1    1    2    0    0 -0.63352134884E+01 -0.92707985330E+01 -0.19071380061E+02  0.22131429525E+02  0.00000000000E+00 0. -1.
</event>
<event>
 6    1  0.3240171E-005  0.2221775E+03  0.7818608E-02  0.1156250E+00
          2   -1    0    0  502    0  0.00000000000E+00  0.00000000000E+00  0.45194673391E+03  0.45194673391E+03  0.00000000000E+00 0.  1.
          1   -1    0    0  501    0 -0.00000000000E+00 -0.00000000000E+00 -0.65802104084E+03  0.65802104084E+03  0.00000000000E+00 0.  1.
          2    1    1    2  501    0 -0.32523590702E+02  0.18367682422E+03 -0.87177096139E+02  0.20589998980E+03  0.00000000000E+00 0.  1.
          1    1    1    2  502    0 -0.77862031688E+02 -0.18819216358E+03 -0.47155006786E+03  0.51365187911E+03  0.00000000000E+00 0.  1.
         22    1    1    2    0    0 -0.12553217425E+02  0.27853264362E+02  0.24331921503E+02  0.39056753672E+02  0.00000000000E+00 0.  1.
         22    1    1    2    0    0  0.12293883981E+03 -0.23337925002E+02  0.32832093557E+03  0.35135915216E+03  0.00000000000E+00 0. -1.
</event>
<event>
 6    1  0.3240171E-005  0.8949170E+02  0.7818608E-02  0.1307158E+00
          2   -1    0    0  502    0  0.00000000000E+00  0.00000000000E+00  0.75056596334E+02  0.75056596334E+02  0.00000000000E+00 0. -1.
          1   -1    0    0  501    0 -0.00000000000E+00 -0.00000000000E+00 -0.56806216793E+03  0.56806216793E+03  0.00000000000E+00 0. -1.
          2    1    1    2  501    0  0.34973882155E+02 -0.20407881946E+01 -0.33025411677E+03  0.33210708949E+03  0.00000000000E+00 0. -1.
          1    1    1    2  502    0 -0.64554661108E+02 -0.71218313050E+02 -0.12209667714E+03  0.15539289222E+03  0.00000000000E+00 0. -1.
         22    1    1    2    0    0  0.47749502439E+01  0.91913996171E+02  0.13675037234E+02  0.93048318014E+02  0.00000000000E+00 0. -1.
         22    1    1    2    0    0  0.24805828709E+02 -0.18654894926E+02 -0.54329814922E+02  0.62570464535E+02  0.00000000000E+00 0. -1.
</event>
<event>
 6    1  0.3240171E-005  0.6792144E+02  0.7818608E-02  0.1415967E+00
          2   -1    0    0  502    0  0.00000000000E+00  0.00000000000E+00  0.18385370610E+03  0.18385370610E+03  0.00000000000E+00 0.  1.
          1   -1    0    0  501    0 -0.00000000000E+00 -0.00000000000E+00 -0.27107516435E+03  0.27107516435E+03  0.00000000000E+00 0. -1.
          2    1    1    2  501    0  0.12011011648E+02  0.38153579803E+02 -0.45628684778E+02  0.60678966102E+02  0.00000000000E+00 0.  1.
          1    1    1    2  502    0  0.14686554548E+02 -0.65913159976E+02 -0.18722212925E+03  0.19902855379E+03  0.00000000000E+00 0. -1.
         22    1    1    2    0    0 -0.31119899601E+02  0.57044340022E+00  0.16079251781E+03  0.16377731021E+03  0.00000000000E+00 0.  1.
         22    1    1    2    0    0  0.44223334039E+01  0.27189136773E+02 -0.15163162027E+02  0.31444040355E+02  0.00000000000E+00 0.  1.
</event>
<event>
 6    1  0.3240171E-005  0.1282646E+03  0.7818608E-02  0.1238770E+00
          2   -1    0    0  502    0  0.00000000000E+00  0.00000000000E+00  0.86158923305E+03  0.86158923305E+03  0.00000000000E+00 0.  1.
          1   -1    0    0  501    0 -0.00000000000E+00 -0.00000000000E+00 -0.20252315703E+03  0.20252315703E+03  0.00000000000E+00 0.  1.
          2    1    1    2  501    0  0.20170543633E+03  0.53176134704E+01  0.16457033447E+03  0.26037810017E+03  0.00000000000E+00 0.  1.
          1    1    1    2  502    0 -0.11501520321E+03 -0.16038565856E+02 -0.12258217050E+03  0.16885532591E+03  0.00000000000E+00 0.  1.
         22    1    1    2    0    0  0.19029722700E+02 -0.74977531253E+01  0.21340599714E+02  0.29559564342E+02  0.00000000000E+00 0. -1.
         22    1    1    2    0    0 -0.10571995582E+03  0.18218705511E+02  0.59573731234E+03  0.60531939965E+03  0.00000000000E+00 0. -1.
</event>
<event>
 6    1  0.3240171E-005  0.2135288E+03  0.7818608E-02  0.1216952E+00
          2   -1    0    0  502    0  0.00000000000E+00  0.00000000000E+00  0.44024018574E+03  0.44024018574E+03  0.00000000000E+00 0.  1.
          1   -1    0    0  501    0 -0.00000000000E+00 -0.00000000000E+00 -0.20323007634E+04  0.20323007634E+04  0.00000000000E+00 0.  1.
          2    1    1    2  501    0  0.19549367838E+03 -0.27485217605E+02  0.12197761441E+03  0.23205980671E+03  0.00000000000E+00 0.  1.
          1    1    1    2  502    0 -0.19379142863E+03  0.59572890980E+02 -0.19564579927E+04  0.19669346518E+04  0.00000000000E+00 0.  1.
         22    1    1    2    0    0  0.34655329721E+02 -0.35791192674E+02  0.30318867500E+02  0.58320108689E+02  0.00000000000E+00 0. -1.
         22    1    1    2    0    0 -0.36357579470E+02  0.37035192990E+01  0.21210093315E+03  0.21522638194E+03  0.00000000000E+00 0.  1.
</event>
<event>
 6    1  0.3240171E-005  0.2249001E+03  0.7818608E-02  0.1238865E+00
          2   -1    0    0  502    0  0.00000000000E+00  0.00000000000E+00  0.18867941372E+03  0.18867941372E+03  0.00000000000E+00 0. -1.
          1   -1    0    0  501    0 -0.00000000000E+00 -0.00000000000E+00 -0.82424601562E+03  0.82424601562E+03  0.00000000000E+00 0. -1.
          2    1    1    2  501    0  0.49618503708E+02  0.64302699108E+01 -0.16477955340E+03  0.17220814586E+03  0.00000000000E+00 0. -1.
          1    1    1    2  502    0 -0.21132126191E+03  0.34950083828E+02  0.97534845774E+02  0.23535341560E+03  0.00000000000E+00 0. -1.
         22    1    1    2    0    0 -0.28754879600E+01  0.19652930668E+02 -0.15064356812E+02  0.24928717596E+02  0.00000000000E+00 0. -1.
         22    1    1    2    0    0  0.16457824616E+03 -0.61033284407E+02 -0.55325753747E+03  0.58043515028E+03  0.00000000000E+00 0. -1.
</event>
<event>
 6    1  0.3240171E-005  0.7310666E+02  0.7818608E-02  0.1417273E+00
          2   -1    0    0  502    0  0.00000000000E+00  0.00000000000E+00  0.35669761314E+02  0.35669761314E+02  0.00000000000E+00 0.  1.
          1   -1    0    0  501    0 -0.00000000000E+00 -0.00000000000E+00 -0.10102727253E+04  0.10102727253E+04  0.00000000000E+00 0.  1.
          2    1    1    2  501    0  0.50560205574E+02  0.37423217170E+02 -0.22923349912E+03  0.23770744349E+03  0.00000000000E+00 0.  1.
          1    1    1    2  502    0 -0.47729720897E+02 -0.46702613870E+02 -0.64726470997E+03  0.65070028829E+03  0.00000000000E+00 0.  1.
         22    1    1    2    0    0 -0.24418901843E+02  0.14542007329E+01  0.23416246131E+02  0.33863225627E+02  0.00000000000E+00 0.  1.
         22    1    1    2    0    0  0.21588417166E+02  0.78251959670E+01 -0.12152100102E+03  0.12367152921E+03  0.00000000000E+00 0.  1.
</event>
<event>
 6    1  0.3240171E-005  0.8025121E+02  0.7818608E-02  0.1350717E+00
          2   -1    0    0  502    0  0.00000000000E+00  0.00000000000E+00  0.86485438321E+02  0.86485438321E+02  0.00000000000E+00 0. -1.
          1   -1    0    0  501    0 -0.00000000000E+00 -0.00000000000E+00 -0.29121466207E+03  0.29121466207E+03  0.00000000000E+00 0.  1.
          2    1    1    2  501    0 -0.35505933261E+02  0.13246281294E+02 -0.82719580235E+02  0.90987165134E+02  0.00000000000E+00 0. -1.
          1    1    1    2  502    0  0.42828846351E+02 -0.19306484125E+02 -0.14742676274E+03  0.15473105952E+03  0.00000000000E+00 0.  1.
         22    1    1    2    0    0  0.50933152457E+02 -0.17760339516E+01  0.47035425328E+02  0.69351795590E+02  0.00000000000E+00 0.  1.
         22    1    1    2    0    0 -0.58256065547E+02  0.78362367835E+01 -0.21618306100E+02  0.62630080142E+02  0.00000000000E+00 0. -1.
</event>
<event>
 6    1  0.3240171E-005  0.1592706E+03  0.7818608E-02  0.1238663E+00
          2   -1    0    0  502    0  0.00000000000E+00  0.00000000000E+00  0.51979820259E+03  0.51979820259E+03  0.00000000000E+00 0.  1.
          1   -1    0    0  501    0 -0.00000000000E+00 -0.00000000000E+00 -0.24259894911E+03  0.24259894911E+03  0.00000000000E+00 0. -1.
          2    1    1    2  501    0 -0.11599969036E+03 -0.12936923961E+02  0.33831719421E+03  0.35788519956E+03  0.00000000000E+00 0.  1.
          1    1    1    2  502    0  0.12974325624E+03  0.52579506035E+02 -0.17913558334E+03  0.22734879418E+03  0.00000000000E+00 0. -1.
         22    1    1    2    0    0 -0.67379421945E+02 -0.23019372766E+02  0.88932600512E+02  0.11392491149E+03  0.00000000000E+00 0. -1.
         22    1    1    2    0    0  0.53635856062E+02 -0.16623209307E+02  0.29085042102E+02  0.63238246475E+02  0.00000000000E+00 0.  1.
</event>
<event>
 6    1  0.3240171E-005  0.6995807E+02  0.7818608E-02  0.1368430E+00
          2   -1    0    0  502    0  0.00000000000E+00  0.00000000000E+00  0.43826715798E+03  0.43826715798E+03  0.00000000000E+00 0. -1.
          1   -1    0    0  501    0 -0.00000000000E+00 -0.00000000000E+00 -0.18954226585E+03  0.18954226585E+03  0.00000000000E+00 0.  1.
          2    1    1    2  501    0  0.71734512852E+02  0.15224434371E+02  0.70501148641E+02  0.10172529526E+03  0.00000000000E+00 0. -1.
          1    1    1    2  502    0 -0.53447111837E+02 -0.34518968494E+02 -0.15634031522E+03  0.16879113458E+03  0.00000000000E+00 0.  1.
         22    1    1    2    0    0 -0.60839623630E+02 -0.45848541666E+01  0.26741902848E+03  0.27429075356E+03  0.00000000000E+00 0.  1.
         22    1    1    2    0    0  0.42552222616E+02  0.23879388290E+02  0.67145030225E+02  0.83002240443E+02  0.00000000000E+00 0. -1.
</event>
<event>
 6    1  0.3240171E-005  0.4569704E+03  0.7818608E-02  0.1170439E+00
          2   -1    0    0  502    0  0.00000000000E+00  0.00000000000E+00  0.26393250683E+03  0.26393250683E+03  0.00000000000E+00 0.  1.
          1   -1    0    0  501    0 -0.00000000000E+00 -0.00000000000E+00 -0.13745458320E+04  0.13745458320E+04  0.00000000000E+00 0. -1.
          2    1    1    2  501    0  0.11986244265E+03 -0.92640767932E+02 -0.14062382550E+03  0.20669875989E+03  0.00000000000E+00 0.  1.
          1    1    1    2  502    0  0.57080548791E+02 -0.78196257367E+02 -0.11164198914E+04  0.11206097526E+04  0.00000000000E+00 0. -1.
         22    1    1    2    0    0 -0.16975304020E+03  0.16338337282E+03  0.87489078378E+02  0.25132560555E+03  0.00000000000E+00 0.  1.
         22    1    1    2    0    0 -0.71899512479E+01  0.74536524800E+01  0.58941313389E+02  0.59844220760E+02  0.00000000000E+00 0.  1.
</event>
<event>
 6    1  0.3240171E-005  0.1409618E+03  0.7818608E-02  0.1329200E+00
          2   -1    0    0  502    0  0.00000000000E+00  0.00000000000E+00  0.76543849404E+02  0.76543849404E+02  0.00000000000E+00 0. -1.
          1   -1    0    0  501    0 -0.00000000000E+00 -0.00000000000E+00 -0.72046160833E+03  0.72046160833E+03  0.00000000000E+00 0. -1.
          2    1    1    2  501    0  0.43804556588E+02  0.59858979843E+02 -0.27363766786E+03  0.28351280380E+03  0.00000000000E+00 0. -1.
          1    1    1    2  502    0 -0.51707856442E+02 -0.12474629093E+03 -0.34163333484E+03  0.36735361029E+03  0.00000000000E+00 0. -1.
         22    1    1    2    0    0  0.50275412738E+01  0.50588242964E+02 -0.78873462030E+02  0.93837463254E+02  0.00000000000E+00 0. -1.
         22    1    1    2    0    0  0.28757585795E+01  0.14299068123E+02  0.50226705800E+02  0.52301580398E+02  0.00000000000E+00 0. -1.
</event>
<event>
 6    1  0.3240171E-005  0.1126841E+03  0.7818608E-02  0.1270872E+00
          2   -1    0    0  502    0  0.00000000000E+00  0.00000000000E+00  0.15942460890E+03  0.15942460890E+03  0.00000000000E+00 0.  1.
          1   -1    0    0  501    0 -0.00000000000E+00 -0.00000000000E+00 -0.97969183480E+02  0.97969183480E+02  0.00000000000E+00 0.  1.
          2    1    1    2  501    0  0.26355303537E+02 -0.36779523880E+02 -0.37108769008E+02  0.58518340190E+02  0.00000000000E+00 0.  1.
          1    1    1    2  502    0 -0.35288681213E+02 -0.18991412231E+01  0.55196036427E+01  0.35768195139E+02  0.00000000000E+00 0.  1.
         22    1    1    2    0    0 -0.16433946275E+02 -0.43893183131E+02  0.24829562527E+02  0.53039544595E+02  0.00000000000E+00 0.  1.
         22    1    1    2    0    0  0.25367323950E+02  0.82571848234E+02  0.68215028260E+02  0.11006771246E+03  0.00000000000E+00 0.  1.
</event>
<event>
 6    1  0.3240171E-005  0.9215232E+02  0.7818608E-02  0.1320540E+00
          2   -1    0    0  502    0  0.00000000000E+00  0.00000000000E+00  0.61960286387E+02  0.61960286387E+02  0.00000000000E+00 0.  1.
          1   -1    0    0  501    0 -0.00000000000E+00 -0.00000000000E+00 -0.42983673537E+03  0.42983673537E+03  0.00000000000E+00 0.  1.
          2    1    1    2  501    0 -0.43490516113E+02  0.37627945902E+02 -0.15771317433E+03  0.16787117877E+03  0.00000000000E+00 0.  1.
          1    1    1    2  502    0  0.90293614772E+02 -0.68941255419E+02 -0.95665497492E+02  0.14851841966E+03  0.00000000000E+00 0.  1.
         22    1    1    2    0    0 -0.15548634860E+02 -0.20919874829E+02 -0.11145413367E+03  0.11446145693E+03  0.00000000000E+00 0. -1.
         22    1    1    2    0    0 -0.31254463800E+02  0.52233184346E+02 -0.30436434822E+01  0.60945966396E+02  0.00000000000E+00 0.  1.
</event>
<event>
 6    1  0.3240171E-005  0.1503371E+03  0.7818608E-02  0.1231562E+00
          2   -1    0    0  502    0  0.00000000000E+00  0.00000000000E+00  0.46161114701E+03  0.46161114701E+03  0.00000000000E+00 0. -1.
          1   -1    0    0  501    0 -0.00000000000E+00 -0.00000000000E+00 -0.53359413428E+02  0.53359413428E+02  0.00000000000E+00 0. -1.
          2    1    1    2  501    0 -0.52404427989E+02 -0.80613428921E+02  0.11533526627E+03  0.15015649384E+03  0.00000000000E+00 0. -1.
          1    1    1    2  502    0  0.18315671961E+02  0.58536236697E+02  0.28874087648E+02  0.67791354784E+02  0.00000000000E+00 0. -1.
         22    1    1    2    0    0 -0.35444745207E+02  0.35171922556E+02  0.18179691974E+03  0.18852987595E+03  0.00000000000E+00 0. -1.
         22    1    1    2    0    0  0.69533501234E+02 -0.13094730332E+02  0.82245459917E+02  0.10849283586E+03  0.00000000000E+00 0. -1.
</event>
<event>
 6    1  0.3240171E-005  0.6212691E+02  0.7818608E-02  0.1393321E+00
          2   -1    0    0  502    0  0.00000000000E+00  0.00000000000E+00  0.19203385699E+03  0.19203385699E+03  0.00000000000E+00 0. -1.
          1   -1    0    0  501    0 -0.00000000000E+00 -0.00000000000E+00 -0.84183584198E+02  0.84183584198E+02  0.00000000000E+00 0. -1.
          2    1    1    2  501    0  0.24758988074E+02  0.43652001460E+01 -0.24084246004E+02  0.34815418543E+02  0.00000000000E+00 0. -1.
          1    1    1    2  502    0 -0.35435527125E+02  0.77573928848E+01  0.10070384250E+03  0.10703792609E+03  0.00000000000E+00 0. -1.
         22    1    1    2    0    0 -0.45092755930E+02 -0.30088032102E+02  0.49066997277E+02  0.73117826383E+02  0.00000000000E+00 0. -1.
         22    1    1    2    0    0  0.55769294981E+02  0.17965439071E+02 -0.17836320983E+02  0.61246270172E+02  0.00000000000E+00 0. -1.
</event>
<event>
 6    1  0.3240171E-005  0.1613311E+03  0.7818608E-02  0.1256464E+00
          2   -1    0    0  502    0  0.00000000000E+00  0.00000000000E+00  0.12952719340E+03  0.12952719340E+03  0.00000000000E+00 0. -1.
          1   -1    0    0  501    0 -0.00000000000E+00 -0.00000000000E+00 -0.22683887483E+03  0.22683887483E+03  0.00000000000E+00 0. -1.
          2    1    1    2  501    0  0.33274762733E+02  0.26141946853E+02 -0.86451916817E+01  0.43189704322E+02  0.00000000000E+00 0. -1.
          1    1    1    2  502    0 -0.73939440922E+01 -0.12762889906E+03 -0.78026078939E+02  0.14977274545E+03  0.00000000000E+00 0. -1.
         22    1    1    2    0    0 -0.63173788522E+02  0.10768953028E+03 -0.12988260345E+02  0.12552552487E+03  0.00000000000E+00 0.  1.
         22    1    1    2    0    0  0.37292969881E+02 -0.62025780704E+01  0.23478495359E+01  0.37878093599E+02  0.00000000000E+00 0. -1.
</event>
<event>
 6    1  0.3240171E-005  0.1919496E+03  0.7818608E-02  0.1158318E+00
          2   -1    0    0  502    0  0.00000000000E+00  0.00000000000E+00  0.31322036684E+03  0.31322036684E+03  0.00000000000E+00 0. -1.
          1   -1    0    0  501    0 -0.00000000000E+00 -0.00000000000E+00 -0.40100794939E+03  0.40100794939E+03  0.00000000000E+00 0. -1.
          2    1    1    2  501    0  0.17978283354E+03  0.27222660227E+02  0.19183168816E+03  0.26431484454E+03  0.00000000000E+00 0. -1.
          1    1    1    2  502    0 -0.21779442585E+02  0.79266584453E+02 -0.18211912683E+03  0.19981219154E+03  0.00000000000E+00 0. -1.
         22    1    1    2    0    0  0.59576292092E+01 -0.80459156548E+01  0.22291904328E+02  0.24436839056E+02  0.00000000000E+00 0. -1.
         22    1    1    2    0    0 -0.16396102016E+03 -0.98443329025E+02 -0.11979204821E+03  0.22566444110E+03  0.00000000000E+00 0.  1.
</event>
<event>
 6    1  0.3240171E-005  0.1102886E+03  0.7818608E-02  0.1384840E+00
          2   -1    0    0  502    0  0.00000000000E+00  0.00000000000E+00  0.74303105214E+02  0.74303105214E+02  0.00000000000E+00 0. -1.
          1   -1    0    0  501    0 -0.00000000000E+00 -0.00000000000E+00 -0.16101381901E+04  0.16101381901E+04  0.00000000000E+00 0. -1.
          2    1    1    2  501    0 -0.41477521149E+02  0.37562743385E+02 -0.52798829645E+02  0.76935433079E+02  0.00000000000E+00 0. -1.
          1    1    1    2  502    0 -0.12927659831E+01 -0.33287140393E+02 -0.14780147789E+04  0.14783901351E+04  0.00000000000E+00 0. -1.
         22    1    1    2    0    0 -0.77160453820E+01  0.90580985906E+01  0.51095162111E+02  0.52462387456E+02  0.00000000000E+00 0. -1.
         22    1    1    2    0    0  0.50486332514E+02 -0.13333701583E+02 -0.56116638411E+02  0.76653339621E+02  0.00000000000E+00 0. -1.
</event>
<event>
 6    1  0.3240171E-005  0.2973885E+03  0.7818608E-02  0.1134037E+00
          2   -1    0    0  502    0  0.00000000000E+00  0.00000000000E+00  0.65382552482E+02  0.65382552482E+02  0.00000000000E+00 0.  1.
          1   -1    0    0  501    0 -0.00000000000E+00 -0.00000000000E+00 -0.31189752313E+04  0.31189752313E+04  0.00000000000E+00 0. -1.
          2    1    1    2  501    0 -0.21601579841E+03 -0.60271614909E+02 -0.26920371780E+03  0.35037998573E+03  0.00000000000E+00 0.  1.
          1    1    1    2  502    0  0.29408688113E+03  0.25070822556E+02 -0.24266344555E+04  0.24445184435E+04  0.00000000000E+00 0. -1.
         22    1    1    2    0    0 -0.59008329587E+02  0.66268577569E+02 -0.33485709888E+03  0.34641417985E+03  0.00000000000E+00 0. -1.
         22    1    1    2    0    0 -0.19062753132E+02 -0.31067785215E+02 -0.22897406595E+02  0.43045174688E+02  0.00000000000E+00 0.  1.
</event>
<event>
 6    1  0.3240171E-005  0.8623271E+02  0.7818608E-02  0.1350209E+00
          2   -1    0    0  502    0  0.00000000000E+00  0.00000000000E+00  0.23522693965E+03  0.23522693965E+03  0.00000000000E+00 0.  1.
          1   -1    0    0  501    0 -0.00000000000E+00 -0.00000000000E+00 -0.46315963882E+03  0.46315963882E+03  0.00000000000E+00 0. -1.
          2    1    1    2  501    0  0.11688550656E+02  0.17599868936E+02 -0.55236688045E+01  0.21837777361E+02  0.00000000000E+00 0.  1.
          1    1    1    2  502    0 -0.78945640599E+02 -0.37633364397E+02 -0.42186619348E+03  0.43083612834E+03  0.00000000000E+00 0. -1.
         22    1    1    2    0    0  0.28547783305E+02  0.41502126813E+02  0.10260493225E+02  0.51407005192E+02  0.00000000000E+00 0.  1.
         22    1    1    2    0    0  0.38709306638E+02 -0.21468631352E+02  0.18919666989E+03  0.19430566757E+03  0.00000000000E+00 0.  1.
</event>
<event>
 6    1  0.3240171E-005  0.1119835E+03  0.7818608E-02  0.1333740E+00
          2   -1    0    0  502    0  0.00000000000E+00  0.00000000000E+00  0.88622659146E+02  0.88622659146E+02  0.00000000000E+00 0.  1.
          1   -1    0    0  501    0 -0.00000000000E+00 -0.00000000000E+00 -0.33615003010E+03  0.33615003010E+03  0.00000000000E+00 0.  1.
          2    1    1    2  501    0 -0.27631100023E+02 -0.26260072467E+01 -0.31219616789E+02  0.41773652880E+02  0.00000000000E+00 0.  1.
          1    1    1    2  502    0 -0.29605399727E+02  0.27166849984E+02 -0.23963461145E+03  0.24297996715E+03  0.00000000000E+00 0.  1.
         22    1    1    2    0    0  0.84029627520E+02 -0.26472056182E+02 -0.18773385083E+02  0.90078787997E+02  0.00000000000E+00 0.  1.
         22    1    1    2    0    0 -0.26793127770E+02  0.19312134442E+01  0.42100242366E+02  0.49940281220E+02  0.00000000000E+00 0.  1.
</event>
<event>
 6    1  0.3240171E-005  0.3647605E+03  0.7818608E-02  0.1107127E+00
          2   -1    0    0  502    0  0.00000000000E+00  0.00000000000E+00  0.40531694911E+03  0.40531694911E+03  0.00000000000E+00 0. -1.
          1   -1    0    0  501    0 -0.00000000000E+00 -0.00000000000E+00 -0.57142223796E+03  0.57142223796E+03  0.00000000000E+00 0. -1.
          2    1    1    2  501    0  0.49217671431E+02  0.18278406313E+03 -0.18203282321E+03  0.26261824316E+03  0.00000000000E+00 0. -1.
          1    1    1    2  502    0 -0.29145059764E+03 -0.25615440733E+03  0.13181493393E+03  0.40979715479E+03  0.00000000000E+00 0. -1.
         22    1    1    2    0    0  0.15321643239E+03  0.42550401579E+02 -0.13453873721E+03  0.20829422373E+03  0.00000000000E+00 0.  1.
         22    1    1    2    0    0  0.89016493821E+02  0.30819942629E+02  0.18651337636E+02  0.96029565402E+02  0.00000000000E+00 0. -1.
</event>
<event>
 6    1  0.3240171E-005  0.1357479E+03  0.7818608E-02  0.1306353E+00
          2   -1    0    0  502    0  0.00000000000E+00  0.00000000000E+00  0.98537167004E+02  0.98537167004E+02  0.00000000000E+00 0. -1.
          1   -1    0    0  501    0 -0.00000000000E+00 -0.00000000000E+00 -0.38226087510E+03  0.38226087510E+03  0.00000000000E+00 0. -1.
          2    1    1    2  501    0 -0.87722755300E+02 -0.17143989544E+02 -0.92964611368E+02  0.12896362720E+03  0.00000000000E+00 0. -1.
          1    1    1    2  502    0  0.12801846775E+03 -0.16999375415E+02 -0.17052317073E+03  0.21390619113E+03  0.00000000000E+00 0. -1.
         22    1    1    2    0    0 -0.49248997956E+02  0.11230100097E+02 -0.67699788333E+02  0.84467983806E+02  0.00000000000E+00 0. -1.
         22    1    1    2    0    0  0.89532855088E+01  0.22913264862E+02  0.47463862340E+02  0.53460239957E+02  0.00000000000E+00 0. -1.
</event>
<event>
 6    1  0.3240171E-005  0.7832817E+02  0.7818608E-02  0.1350034E+00
          2   -1    0    0  502    0  0.00000000000E+00  0.00000000000E+00  0.63541626313E+02  0.63541626313E+02  0.00000000000E+00 0. -1.
          1   -1    0    0  501    0 -0.00000000000E+00 -0.00000000000E+00 -0.59249790531E+03  0.59249790531E+03  0.00000000000E+00 0. -1.
          2    1    1    2  501    0 -0.48933713689E+02  0.21678640123E+02 -0.35087360888E+03  0.35493205150E+03  0.00000000000E+00 0. -1.
          1    1    1    2  502    0  0.64674365676E+02 -0.62329172983E+02 -0.12574992716E+03  0.15453395601E+03  0.00000000000E+00 0. -1.
         22    1    1    2    0    0 -0.94533923713E+01 -0.18253957696E+02 -0.78984121550E+02  0.81615348164E+02  0.00000000000E+00 0.  1.
         22    1    1    2    0    0 -0.62872596161E+01  0.58904490555E+02  0.26651378594E+02  0.64958175944E+02  0.00000000000E+00 0. -1.
</event>
<event>
 6    1  0.3240171E-005  0.1773061E+03  0.7818608E-02  0.1308871E+00
          2   -1    0    0  502    0  0.00000000000E+00  0.00000000000E+00  0.19646877788E+03  0.19646877788E+03  0.00000000000E+00 0.  1.
          1   -1    0    0  501    0 -0.00000000000E+00 -0.00000000000E+00 -0.17634621139E+04  0.17634621139E+04  0.00000000000E+00 0.  1.
          2    1    1    2  501    0  0.10992482699E+02  0.33376850944E+02 -0.14754456640E+02  0.38112240102E+02  0.00000000000E+00 0.  1.
          1    1    1    2  502    0 -0.10427231876E+03  0.14050367969E+02 -0.16997102588E+04  0.17029636207E+04  0.00000000000E+00 0.  1.
         22    1    1    2    0    0 -0.61160589467E+01 -0.85901993474E+01 -0.18641926013E+02  0.21417728809E+02  0.00000000000E+00 0.  1.
         22    1    1    2    0    0  0.99395895012E+02 -0.38837019566E+02  0.16611330549E+03  0.19743730219E+03  0.00000000000E+00 0.  1.
</event>
<event>
 6    1  0.3240171E-005  0.4771656E+03  0.7818608E-02  0.1094400E+00
          2   -1    0    0  502    0  0.00000000000E+00  0.00000000000E+00  0.12234806685E+04  0.12234806685E+04  0.00000000000E+00 0.  1.
          1   -1    0    0  501    0 -0.00000000000E+00 -0.00000000000E+00 -0.36831926186E+03  0.36831926186E+03  0.00000000000E+00 0.  1.
          2    1    1    2  501    0  0.65403506648E+02 -0.58232745642E+02 -0.17835089148E+02  0.89368684402E+02  0.00000000000E+00 0.  1.
          1    1    1    2  502    0  0.93488888405E+02  0.10702212489E+03 -0.28905949245E+03  0.32210137790E+03  0.00000000000E+00 0.  1.
         22    1    1    2    0    0 -0.14775461128E+03  0.86577943634E+01  0.86360464198E+03  0.87619595994E+03  0.00000000000E+00 0.  1.
         22    1    1    2    0    0 -0.11137783777E+02 -0.57447173608E+02  0.29845134627E+03  0.30413390813E+03  0.00000000000E+00 0.  1.
</event>
<event>
 6    1  0.3240171E-005  0.4365041E+02  0.7818608E-02  0.1508297E+00
          2   -1    0    0  502    0  0.00000000000E+00  0.00000000000E+00  0.42131528552E+03  0.42131528552E+03  0.00000000000E+00 0. -1.
          1   -1    0    0  501    0 -0.00000000000E+00 -0.00000000000E+00 -0.14320631802E+03  0.14320631802E+03  0.00000000000E+00 0. -1.
          2    1    1    2  501    0  0.37808573673E+02 -0.20375872989E+02  0.27201677828E+03  0.27538662296E+03  0.00000000000E+00 0. -1.
          1    1    1    2  502    0 -0.33192815037E+02  0.18590852718E+02 -0.11076834665E+03  0.11711963710E+03  0.00000000000E+00 0. -1.
         22    1    1    2    0    0  0.12724548587E+02 -0.23602805185E+02  0.13410862689E+03  0.13676304455E+03  0.00000000000E+00 0.  1.
         22    1    1    2    0    0 -0.17340307223E+02  0.25387825456E+02 -0.17248091012E+02  0.35252298925E+02  0.00000000000E+00 0.  1.
</event>
<event>
 6    1  0.3240171E-005  0.8350568E+02  0.7818608E-02  0.1328172E+00
          2   -1    0    0  502    0  0.00000000000E+00  0.00000000000E+00  0.93508937278E+02  0.93508937278E+02  0.00000000000E+00 0.  1.
          1   -1    0    0  501    0 -0.00000000000E+00 -0.00000000000E+00 -0.21144382083E+03  0.21144382083E+03  0.00000000000E+00 0. -1.
          2    1    1    2  501    0  0.10255820273E+02  0.51796753599E+02 -0.90160443610E+01  0.53566543559E+02  0.00000000000E+00 0.  1.
          1    1    1    2  502    0 -0.44719028792E+01 -0.34651188905E+02 -0.12423990562E+03  0.12905912194E+03  0.00000000000E+00 0. -1.
         22    1    1    2    0    0 -0.31601803689E+02  0.41209707778E+02 -0.11364038543E+02  0.53160656350E+02  0.00000000000E+00 0.  1.
         22    1    1    2    0    0  0.25817886295E+02 -0.58355272473E+02  0.26685104967E+02  0.69166436262E+02  0.00000000000E+00 0.  1.
</event>
<event>
 6    1  0.3240171E-005  0.2432263E+03  0.7818608E-02  0.1196691E+00
          2   -1    0    0  502    0  0.00000000000E+00  0.00000000000E+00  0.48602879386E+02  0.48602879386E+02  0.00000000000E+00 0.  1.
          1   -1    0    0  501    0 -0.00000000000E+00 -0.00000000000E+00 -0.12749630913E+04  0.12749630913E+04  0.00000000000E+00 0.  1.
          2    1    1    2  501    0 -0.11709958019E+02 -0.43184768927E+02 -0.33773031135E+03  0.34068139161E+03  0.00000000000E+00 0.  1.
          1    1    1    2  502    0 -0.20784651755E+02 -0.15281054423E+02 -0.83279485759E+03  0.83319432740E+03  0.00000000000E+00 0.  1.
         22    1    1    2    0    0 -0.26858574862E+02 -0.24649163445E+02 -0.19079041190E+02  0.41145766671E+02  0.00000000000E+00 0.  1.
         22    1    1    2    0    0  0.59353184636E+02  0.83114986796E+02 -0.36756001764E+02  0.10854448499E+03  0.00000000000E+00 0.  1.
</event>
<event>
 6    1  0.4298362E-005  0.2935576E+03  0.7818608E-02  0.1183032E+00
          2   -1    0    0  502    0  0.00000000000E+00  0.00000000000E+00  0.12166745335E+03  0.12166745335E+03  0.00000000000E+00 0.  1.
          1   -1    0    0  501    0 -0.00000000000E+00 -0.00000000000E+00 -0.22636685178E+04  0.22636685178E+04  0.00000000000E+00 0.  1.
          2    1    1    2  501    0  0.33560914860E+02  0.12088683380E+01 -0.16269619964E+03  0.16612600562E+03  0.00000000000E+00 0.  1.
          1    1    1    2  502    0 -0.99828759767E+01 -0.10286538939E+03 -0.20429983194E+04  0.20456106861E+04  0.00000000000E+00 0.  1.
         22    1    1    2    0    0 -0.92461324653E+01  0.27893651920E+02 -0.37446729062E+02  0.47600465339E+02  0.00000000000E+00 0.  1.
         22    1    1    2    0    0 -0.14331906418E+02  0.73762869130E+02  0.10114018363E+03  0.12599881407E+03  0.00000000000E+00 0.  1.
</event>
<event>
 6    1  0.3240171E-005  0.1509832E+03  0.7818608E-02  0.1335636E+00
          2   -1    0    0  502    0  0.00000000000E+00  0.00000000000E+00  0.22563331110E+03  0.22563331110E+03  0.00000000000E+00 0.  1.
          1   -1    0    0  501    0 -0.00000000000E+00 -0.00000000000E+00 -0.55159246186E+03  0.55159246186E+03  0.00000000000E+00 0.  1.
          2    1    1    2  501    0 -0.77681156575E+02  0.60901154276E+02 -0.27060109231E+03  0.28804212164E+03  0.00000000000E+00 0.  1.
          1    1    1    2  502    0  0.10708286269E+03 -0.82956827093E+02  0.17791814342E+03  0.22361449059E+03  0.00000000000E+00 0.  1.
         22    1    1    2    0    0  0.10513166439E+02 -0.13805154533E+01  0.11971257152E+02  0.15991982032E+02  0.00000000000E+00 0.  1.
         22    1    1    2    0    0 -0.39914872554E+02  0.23436188270E+02 -0.24524745902E+03  0.24957717870E+03  0.00000000000E+00 0.  1.
</event>
<event>
 6    1  0.3240171E-005  0.9651932E+02  0.7818608E-02  0.1324609E+00
          2   -1    0    0  502    0  0.00000000000E+00  0.00000000000E+00  0.92057803502E+02  0.92057803502E+02  0.00000000000E+00 0.  1.
          1   -1    0    0  501    0 -0.00000000000E+00 -0.00000000000E+00 -0.11810610288E+03  0.11810610288E+03  0.00000000000E+00 0.  1.
          2    1    1    2  501    0 -0.19355557772E+02 -0.88181828901E+01  0.65595016948E+01  0.22258145220E+02  0.00000000000E+00 0.  1.
          1    1    1    2  502    0 -0.20267940107E+01 -0.38869734023E+02  0.20880104638E+02  0.44169479131E+02  0.00000000000E+00 0.  1.
         22    1    1    2    0    0  0.53666120576E+02  0.30849933886E+01 -0.68110097534E+02  0.86767246516E+02  0.00000000000E+00 0.  1.
         22    1    1    2    0    0 -0.32283768794E+02  0.44602923524E+02  0.14622191819E+02  0.56969035520E+02  0.00000000000E+00 0.  1.
</event>
<event>
 6    1  0.3240171E-005  0.8849825E+02  0.7818608E-02  0.1328890E+00
          2   -1    0    0  502    0  0.00000000000E+00  0.00000000000E+00  0.52511906312E+03  0.52511906312E+03  0.00000000000E+00 0.  1.
          1   -1    0    0  501    0 -0.00000000000E+00 -0.00000000000E+00 -0.46222618895E+02  0.46222618895E+02  0.00000000000E+00 0.  1.
          2    1    1    2  501    0 -0.17316599890E+02 -0.12425225067E+02  0.15353926049E+02  0.26267734863E+02  0.00000000000E+00 0.  1.
          1    1    1    2  502    0  0.33638665714E+02 -0.84280807150E+01 -0.23894683681E+02  0.42113516640E+02  0.00000000000E+00 0.  1.
         22    1    1    2    0    0  0.51842987628E+02 -0.87379427559E+00  0.22955714980E+03  0.23534006014E+03  0.00000000000E+00 0.  1.
         22    1    1    2    0    0 -0.68165053452E+02  0.21727100058E+02  0.25788005206E+03  0.26762037037E+03  0.00000000000E+00 0.  1.
</event>
<event>
 6    1  0.3240171E-005  0.1117508E+03  0.7818608E-02  0.1269807E+00
          2   -1    0    0  502    0  0.00000000000E+00  0.00000000000E+00  0.66796716763E+02  0.66796716763E+02  0.00000000000E+00 0.  1.
          1   -1    0    0  501    0 -0.00000000000E+00 -0.00000000000E+00 -0.35823103871E+03  0.35823103871E+03  0.00000000000E+00 0. -1.
          2    1    1    2  501    0  0.41153526705E+02 -0.41672481802E+02 -0.62072527544E+01  0.58895997203E+02  0.00000000000E+00 0.  1.
          1    1    1    2  502    0  0.21244796336E+02  0.25393524739E+02 -0.19251395857E+03  0.19534020762E+03  0.00000000000E+00 0. -1.
         22    1    1    2    0    0 -0.26086824497E+02 -0.53764662980E+02 -0.18709309635E+02  0.62619483108E+02  0.00000000000E+00 0.  1.
         22    1    1    2    0    0 -0.36311498544E+02  0.70043620043E+02 -0.74003800990E+02  0.10817206754E+03  0.00000000000E+00 0. -1.
</event>
<event>
 6    1  0.3240171E-005  0.2012942E+03  0.7818608E-02  0.1270518E+00
          2   -1    0    0  502    0  0.00000000000E+00  0.00000000000E+00  0.17500420836E+03  0.17500420836E+03  0.00000000000E+00 0.  1.
          1   -1    0    0  501    0 -0.00000000000E+00 -0.00000000000E+00 -0.34371582048E+03  0.34371582048E+03  0.00000000000E+00 0. -1.
          2    1    1    2  501    0  0.32690455116E+02 -0.11489480214E+02 -0.86747210319E+02  0.93411736465E+02  0.00000000000E+00 0.  1.
          1    1    1    2  502    0 -0.13374766583E+03  0.14921808904E+02 -0.19102642666E+03  0.23367112397E+03  0.00000000000E+00 0. -1.
         22    1    1    2    0    0 -0.12111506033E+02 -0.84855963294E+01  0.70405186188E+02  0.71941532967E+02  0.00000000000E+00 0. -1.
         22    1    1    2    0    0  0.11316871675E+03  0.50532676394E+01  0.38656838677E+02  0.11969563543E+03  0.00000000000E+00 0.  1.
</event>
<event>
 6    1  0.3240171E-005  0.1906449E+03  0.7818608E-02  0.1198253E+00
          2   -1    0    0  502    0  0.00000000000E+00  0.00000000000E+00  0.58393594564E+03  0.58393594564E+03  0.00000000000E+00 0.  1.
          1   -1    0    0  501    0 -0.00000000000E+00 -0.00000000000E+00 -0.83770964301E+02  0.83770964301E+02  0.00000000000E+00 0.  1.
          2    1    1    2  501    0  0.33146818194E+02  0.74548173687E+02  0.12857127102E+03  0.15227184076E+03  0.00000000000E+00 0.  1.
          1    1    1    2  502    0 -0.64418005947E+02  0.43619532626E+02 -0.24168538405E+02  0.81464479163E+02  0.00000000000E+00 0.  1.
         22    1    1    2    0    0  0.70180416024E+02 -0.30880589427E+02  0.23224664931E+03  0.24457597534E+03  0.00000000000E+00 0.  1.
         22    1    1    2    0    0 -0.38909228272E+02 -0.87287116886E+02  0.16351559941E+03  0.18939461468E+03  0.00000000000E+00 0.  1.
</event>
<event>
 6    1  0.3240171E-005  0.1052261E+03  0.7818608E-02  0.1298876E+00
          2   -1    0    0  502    0  0.00000000000E+00  0.00000000000E+00  0.65163876054E+03  0.65163876054E+03  0.00000000000E+00 0. -1.
          1   -1    0    0  501    0 -0.00000000000E+00 -0.00000000000E+00 -0.18798330882E+04  0.18798330882E+04  0.00000000000E+00 0. -1.
          2    1    1    2  501    0 -0.21167300638E+01  0.38181116365E+02  0.13444405943E+03  0.13977654778E+03  0.00000000000E+00 0. -1.
          1    1    1    2  502    0 -0.32255701267E+02 -0.95570328047E+02 -0.18654514772E+04  0.18681764723E+04  0.00000000000E+00 0. -1.
         22    1    1    2    0    0  0.60221965501E+02 -0.66540636232E+01  0.35787156211E+03  0.36296420851E+03  0.00000000000E+00 0. -1.
         22    1    1    2    0    0 -0.25849534170E+02  0.64043275306E+02  0.14494152798E+03  0.16055462018E+03  0.00000000000E+00 0. -1.
</event>
<event>
 6    1  0.3240171E-005  0.1123395E+03  0.7818608E-02  0.1326502E+00
          2   -1    0    0  502    0  0.00000000000E+00  0.00000000000E+00  0.16759325265E+02  0.16759325265E+02  0.00000000000E+00 0.  1.
          1   -1    0    0  501    0 -0.00000000000E+00 -0.00000000000E+00 -0.20145058000E+04  0.20145058000E+04  0.00000000000E+00 0. -1.
          2    1    1    2  501    0  0.26338376750E+02 -0.58552120017E+01 -0.97095182749E+02  0.10077434252E+03  0.00000000000E+00 0.  1.
          1    1    1    2  502    0 -0.84799642358E+02 -0.59441806040E+02 -0.14779344714E+04  0.14815581695E+04  0.00000000000E+00 0. -1.
         22    1    1    2    0    0 -0.25130766865E+02  0.16785833369E+02 -0.23779666079E+02  0.38455066818E+02  0.00000000000E+00 0. -1.
         22    1    1    2    0    0  0.83592032473E+02  0.48511184673E+02 -0.39893715447E+03  0.41047754646E+03  0.00000000000E+00 0.  1.
</event>
<event>
 6    1  0.3240171E-005  0.8764792E+02  0.7818608E-02  0.1310496E+00
          2   -1    0    0  502    0  0.00000000000E+00  0.00000000000E+00  0.17038922870E+03  0.17038922870E+03  0.00000000000E+00 0. -1.
          1   -1    0    0  501    0 -0.00000000000E+00 -0.00000000000E+00 -0.81479191305E+02  0.81479191305E+02  0.00000000000E+00 0. -1.
          2    1    1    2  501    0  0.85111234956E+01 -0.55747658167E+02 -0.19728337394E+02  0.59744856771E+02  0.00000000000E+00 0. -1.
          1    1    1    2  502    0  0.10501723708E+02  0.21632803596E+02  0.33461947625E+02  0.41206387019E+02  0.00000000000E+00 0. -1.
         22    1    1    2    0    0 -0.21922738401E+02  0.77429599944E+02  0.70977570154E+02  0.10730221280E+03  0.00000000000E+00 0. -1.
         22    1    1    2    0    0  0.29098911973E+01 -0.43314745374E+02  0.41988570103E+01  0.43614963416E+02  0.00000000000E+00 0. -1.
</event>
<event>
 6    1  0.3240171E-005  0.6896349E+02  0.7818608E-02  0.1463013E+00
          2   -1    0    0  502    0  0.00000000000E+00  0.00000000000E+00  0.55904387499E+02  0.55904387499E+02  0.00000000000E+00 0. -1.
          1   -1    0    0  501    0 -0.00000000000E+00 -0.00000000000E+00 -0.61027473463E+03  0.61027473463E+03  0.00000000000E+00 0. -1.
          2    1    1    2  501    0 -0.36249946962E+02 -0.31736338393E+02 -0.22853228526E+03  0.23355568765E+03  0.00000000000E+00 0. -1.
          1    1    1    2  502    0  0.56408585361E+02  0.51574205741E+02 -0.28490416838E+03  0.29497832524E+03  0.00000000000E+00 0. -1.
         22    1    1    2    0    0 -0.67248444020E+01 -0.13845615697E+02 -0.87483181632E+02  0.88826976053E+02  0.00000000000E+00 0. -1.
         22    1    1    2    0    0 -0.13433793997E+02 -0.59922516505E+01  0.46549288141E+02  0.48818133183E+02  0.00000000000E+00 0. -1.
</event>
<event>
 6    1  0.3240171E-005  0.6986993E+02  0.7818608E-02  0.1368589E+00
          2   -1    0    0  502    0  0.00000000000E+00  0.00000000000E+00  0.33005042589E+03  0.33005042589E+03  0.00000000000E+00 0. -1.
          1   -1    0    0  501    0 -0.00000000000E+00 -0.00000000000E+00 -0.45414943578E+03  0.45414943578E+03  0.00000000000E+00 0. -1.
          2    1    1    2  501    0  0.22999787955E+02 -0.18159826475E+02  0.66142906688E+02  0.72343995250E+02  0.00000000000E+00 0. -1.
          1    1    1    2  502    0  0.43510586671E+02  0.54668417710E+02 -0.42812580870E+03  0.43378971302E+03  0.00000000000E+00 0. -1.
         22    1    1    2    0    0  0.28520969645E+02  0.66477436334E+01  0.10548774750E+03  0.10947740898E+03  0.00000000000E+00 0. -1.
         22    1    1    2    0    0 -0.95031344271E+02 -0.43156334869E+02  0.13239614462E+03  0.16858874442E+03  0.00000000000E+00 0. -1.
</event>
<event>
 6    1  0.3240171E-005  0.1741478E+03  0.7818608E-02  0.1243880E+00
          2   -1    0    0  502    0  0.00000000000E+00  0.00000000000E+00  0.73035452655E+03  0.73035452655E+03  0.00000000000E+00 0. -1.
          1   -1    0    0  501    0 -0.00000000000E+00 -0.00000000000E+00 -0.52164616846E+02  0.52164616846E+02  0.00000000000E+00 0. -1.
          2    1    1    2  501    0 -0.15678404731E+02 -0.86229732556E+02  0.82584131968E+02  0.12042224879E+03  0.00000000000E+00 0. -1.
          1    1    1    2  502    0 -0.11686416445E+02  0.14522011413E+03  0.24053376834E+03  0.28121512688E+03  0.00000000000E+00 0. -1.
         22    1    1    2    0    0  0.65232759110E+02 -0.51273699415E+02  0.14308949921E+03  0.16540528981E+03  0.00000000000E+00 0. -1.
         22    1    1    2    0    0 -0.37867937933E+02 -0.77166821563E+01  0.21198251019E+03  0.21547647791E+03  0.00000000000E+00 0.  1.
</event>
<event>
 6    1  0.3240171E-005  0.8823998E+02  0.7818608E-02  0.1398636E+00
          2   -1    0    0  502    0  0.00000000000E+00  0.00000000000E+00  0.46812517823E+02  0.46812517823E+02  0.00000000000E+00 0.  1.
          1   -1    0    0  501    0 -0.00000000000E+00 -0.00000000000E+00 -0.68230201619E+03  0.68230201619E+03  0.00000000000E+00 0.  1.
          2    1    1    2  501    0  0.30101971851E+02 -0.21292958395E+02 -0.18228516551E+03  0.18597688123E+03  0.00000000000E+00 0.  1.
          1    1    1    2  502    0  0.19040886079E+02  0.27416558798E+02 -0.39972223610E+03  0.40111356132E+03  0.00000000000E+00 0.  1.
         22    1    1    2    0    0 -0.39882107537E+02  0.10034192526E+02 -0.91153223756E+02  0.10000088861E+03  0.00000000000E+00 0.  1.
         22    1    1    2    0    0 -0.92607503920E+01 -0.16157792929E+02  0.37671126993E+02  0.42023202866E+02  0.00000000000E+00 0.  1.
</event>
<event>
 6    1  0.3240171E-005  0.4147815E+02  0.7818608E-02  0.1547346E+00
          2   -1    0    0  502    0  0.00000000000E+00  0.00000000000E+00  0.62344168026E+02  0.62344168026E+02  0.00000000000E+00 0. -1.
          1   -1    0    0  501    0 -0.00000000000E+00 -0.00000000000E+00 -0.16166248225E+03  0.16166248225E+03  0.00000000000E+00 0. -1.
          2    1    1    2  501    0  0.18974319052E+02  0.12710304028E+02 -0.49476003212E+02  0.54492673873E+02  0.00000000000E+00 0. -1.
          1    1    1    2  502    0 -0.26727546345E+02 -0.13876155027E+02 -0.26947242907E+02  0.40411178061E+02  0.00000000000E+00 0. -1.
         22    1    1    2    0    0  0.14629878836E+02  0.21400696329E+02 -0.71474383528E+02  0.76030327231E+02  0.00000000000E+00 0. -1.
         22    1    1    2    0    0 -0.68766515436E+01 -0.20234845331E+02  0.48579315428E+02  0.53072471107E+02  0.00000000000E+00 0. -1.
</event>
<event>
 6    1  0.3240171E-005  0.1913532E+03  0.7818608E-02  0.1257787E+00
          2   -1    0    0  502    0  0.00000000000E+00  0.00000000000E+00  0.68711892625E+02  0.68711892625E+02  0.00000000000E+00 0.  1.
          1   -1    0    0  501    0 -0.00000000000E+00 -0.00000000000E+00 -0.69296288373E+03  0.69296288373E+03  0.00000000000E+00 0.  1.
          2    1    1    2  501    0  0.69642388765E+02 -0.45269609147E+02 -0.54499527965E+02  0.99345852323E+02  0.00000000000E+00 0.  1.
          1    1    1    2  502    0 -0.21056897207E+02 -0.22780023540E+02 -0.49533530407E+03  0.49630573829E+03  0.00000000000E+00 0.  1.
         22    1    1    2    0    0 -0.64045546478E+02  0.83803200535E+02 -0.20071298454E+02  0.10736696636E+03  0.00000000000E+00 0.  1.
         22    1    1    2    0    0  0.15460054920E+02 -0.15753567847E+02 -0.54344860614E+02  0.58656219391E+02  0.00000000000E+00 0.  1.
</event>
<event>
 6    1  0.3240171E-005  0.1669219E+03  0.7818608E-02  0.1183300E+00
          2   -1    0    0  502    0  0.00000000000E+00  0.00000000000E+00  0.17296069459E+03  0.17296069459E+03  0.00000000000E+00 0.  1.
          1   -1    0    0  501    0 -0.00000000000E+00 -0.00000000000E+00 -0.57827346505E+03  0.57827346505E+03  0.00000000000E+00 0.  1.
          2    1    1    2  501    0 -0.10509626978E+03  0.74214256815E+02 -0.36134074906E+02  0.13363627205E+03  0.00000000000E+00 0.  1.
          1    1    1    2  502    0 -0.33144683322E+02 -0.15925050203E+02 -0.41732224852E+03  0.41893917979E+03  0.00000000000E+00 0.  1.
         22    1    1    2    0    0 -0.22647830339E+02 -0.53841576768E+01  0.38137780237E+01  0.23589367855E+02  0.00000000000E+00 0. -1.
         22    1    1    2    0    0  0.16088878344E+03 -0.52905048936E+02  0.44329774948E+02  0.17506933994E+03  0.00000000000E+00 0.  1.
</event>
<event>
 6    1  0.3240171E-005  0.9253501E+02  0.7818608E-02  0.1323016E+00
          2   -1    0    0  502    0  0.00000000000E+00  0.00000000000E+00  0.31649744174E+03  0.31649744174E+03  0.00000000000E+00 0. -1.
          1   -1    0    0  501    0 -0.00000000000E+00 -0.00000000000E+00 -0.18674504065E+03  0.18674504065E+03  0.00000000000E+00 0.  1.
          2    1    1    2  501    0  0.97093934228E+01 -0.20390761941E+02  0.12434208334E+02  0.25781098310E+02  0.00000000000E+00 0. -1.
          1    1    1    2  502    0  0.20671987046E+02 -0.11965333028E+02 -0.16375333549E+03  0.16548611762E+03  0.00000000000E+00 0.  1.
         22    1    1    2    0    0 -0.35215017972E+01  0.64096048916E+02  0.62885445841E+02  0.89862582648E+02  0.00000000000E+00 0. -1.
         22    1    1    2    0    0 -0.26859878672E+02 -0.31739953946E+02  0.21818608240E+03  0.22211268382E+03  0.00000000000E+00 0. -1.
</event>
<event>
 6    1  0.3240171E-005  0.8013041E+02  0.7818608E-02  0.1414551E+00
          2   -1    0    0  502    0  0.00000000000E+00  0.00000000000E+00  0.23065890320E+02  0.23065890320E+02  0.00000000000E+00 0. -1.
          1   -1    0    0  501    0 -0.00000000000E+00 -0.00000000000E+00 -0.22063876000E+04  0.22063876000E+04  0.00000000000E+00 0.  1.
          2    1    1    2  501    0  0.14155218785E+02 -0.43359820511E+02 -0.26162903426E+03  0.26557521688E+03  0.00000000000E+00 0. -1.
          1    1    1    2  502    0 -0.67523681908E+01  0.26064538414E+02 -0.17608195911E+04  0.17610254362E+04  0.00000000000E+00 0.  1.
         22    1    1    2    0    0 -0.11856667112E+02 -0.15324801137E+02  0.14635999889E+02  0.24282557066E+02  0.00000000000E+00 0. -1.
         22    1    1    2    0    0  0.44538165179E+01  0.32620083235E+02 -0.17550908424E+03  0.17857028018E+03  0.00000000000E+00 0.  1.
</event>
<event>
 6    1  0.3240171E-005  0.3695553E+02  0.7818608E-02  0.1569856E+00
          2   -1    0    0  502    0  0.00000000000E+00  0.00000000000E+00  0.49464863468E+02  0.49464863468E+02  0.00000000000E+00 0.  1.
          1   -1    0    0  501    0 -0.00000000000E+00 -0.00000000000E+00 -0.23169723875E+04  0.23169723875E+04  0.00000000000E+00 0.  1.
          2    1    1    2  501    0 -0.40723301100E+01  0.21412577546E+02 -0.89953948185E+02  0.92556983225E+02  0.00000000000E+00 0.  1.
          1    1    1    2  502    0  0.12166815058E+02 -0.31035987699E+02 -0.21467835544E+04  0.21470423595E+04  0.00000000000E+00 0.  1.
         22    1    1    2    0    0  0.86286635583E+01  0.24978340251E+02 -0.73688838425E+02  0.78284201630E+02  0.00000000000E+00 0. -1.
         22    1    1    2    0    0 -0.16723148507E+02 -0.15354930098E+02  0.42918816997E+02  0.48553706622E+02  0.00000000000E+00 0.  1.
</event>
<event>
 6    1  0.3240171E-005  0.5237761E+02  0.7818608E-02  0.1448465E+00
          2   -1    0    0  502    0  0.00000000000E+00  0.00000000000E+00  0.12161728037E+03  0.12161728037E+03  0.00000000000E+00 0.  1.
          1   -1    0    0  501    0 -0.00000000000E+00 -0.00000000000E+00 -0.13147921131E+03  0.13147921131E+03  0.00000000000E+00 0.  1.
          2    1    1    2  501    0 -0.11055171008E+02 -0.23447195616E+02  0.24902636198E+02  0.35946196988E+02  0.00000000000E+00 0.  1.
          1    1    1    2  502    0 -0.19699093050E+02  0.11584252513E+02 -0.80718402347E+02  0.83891058229E+02  0.00000000000E+00 0.  1.
         22    1    1    2    0    0  0.43304064448E+02  0.22173158423E+02 -0.28951379856E+02  0.56613367218E+02  0.00000000000E+00 0. -1.
         22    1    1    2    0    0 -0.12549800390E+02 -0.10310215320E+02  0.74905215063E+02  0.76645869252E+02  0.00000000000E+00 0.  1.
</event>
<event>
 6    1  0.3240171E-005  0.1036389E+03  0.7818608E-02  0.1274421E+00
          2   -1    0    0  502    0  0.00000000000E+00  0.00000000000E+00  0.15830187912E+03  0.15830187912E+03  0.00000000000E+00 0.  1.
          1   -1    0    0  501    0 -0.00000000000E+00 -0.00000000000E+00 -0.12889093040E+03  0.12889093040E+03  0.00000000000E+00 0.  1.
          2    1    1    2  501    0  0.73591373154E+02  0.24037539780E+02  0.18770135886E+02  0.79660602073E+02  0.00000000000E+00 0.  1.
          1    1    1    2  502    0 -0.58127733170E+02  0.18388667853E+02 -0.27063492995E+02  0.66703891356E+02  0.00000000000E+00 0.  1.
         22    1    1    2    0    0 -0.56085394800E+02 -0.64164739637E+02  0.70987027174E+01  0.85516529998E+02  0.00000000000E+00 0. -1.
         22    1    1    2    0    0  0.40621754816E+02  0.21738532004E+02  0.30605603113E+02  0.55311786085E+02  0.00000000000E+00 0.  1.
</event>
<event>
 6    1  0.3240171E-005  0.8194163E+02  0.7818608E-02  0.1328376E+00
          2   -1    0    0  502    0  0.00000000000E+00  0.00000000000E+00  0.58097762529E+03  0.58097762529E+03  0.00000000000E+00 0. -1.
          1   -1    0    0  501    0 -0.00000000000E+00 -0.00000000000E+00 -0.40544572208E+02  0.40544572208E+02  0.00000000000E+00 0. -1.
          2    1    1    2  501    0 -0.88978595323E+02  0.49741621564E+01  0.77969208716E+02  0.11841085348E+03  0.00000000000E+00 0. -1.
          1    1    1    2  502    0  0.56887850963E+02  0.20613128546E+01  0.24688307016E+03  0.25336086306E+03  0.00000000000E+00 0. -1.
         22    1    1    2    0    0  0.63071312695E+02 -0.24005473361E+02  0.20011778665E+03  0.21119039223E+03  0.00000000000E+00 0. -1.
         22    1    1    2    0    0 -0.30980568336E+02  0.16969998350E+02  0.15462987553E+02  0.38560088725E+02  0.00000000000E+00 0. -1.
</event>
<event>
 6    1  0.3240171E-005  0.4006241E+02  0.7818608E-02  0.1519875E+00
          2   -1    0    0  502    0  0.00000000000E+00  0.00000000000E+00  0.20829923047E+03  0.20829923047E+03  0.00000000000E+00 0.  1.
          1   -1    0    0  501    0 -0.00000000000E+00 -0.00000000000E+00 -0.76206027338E+03  0.76206027338E+03  0.00000000000E+00 0. -1.
          2    1    1    2  501    0  0.15811622662E+02  0.29259763841E+02 -0.57909932003E+01  0.33759099417E+02  0.00000000000E+00 0.  1.
          1    1    1    2  502    0 -0.24930657801E+02 -0.44964193898E+01 -0.72248936451E+03  0.72293335607E+03  0.00000000000E+00 0. -1.
         22    1    1    2    0    0  0.42346707792E+01 -0.33690245088E+02  0.19116511684E+03  0.19415732525E+03  0.00000000000E+00 0.  1.
         22    1    1    2    0    0  0.48843643600E+01  0.89269006372E+01 -0.16645802044E+02  0.19509723111E+02  0.00000000000E+00 0. -1.
</event>
<event>
 6    1  0.3240171E-005  0.3064058E+03  0.7818608E-02  0.1208328E+00
          2   -1    0    0  502    0  0.00000000000E+00  0.00000000000E+00  0.11829160957E+03  0.11829160957E+03  0.00000000000E+00 0. -1.
          1   -1    0    0  501    0 -0.00000000000E+00 -0.00000000000E+00 -0.15284572235E+04  0.15284572235E+04  0.00000000000E+00 0. -1.
          2    1    1    2  501    0 -0.74384472019E+02 -0.27454239233E+03 -0.88391148882E+03  0.92855053440E+03  0.00000000000E+00 0. -1.
          1    1    1    2  502    0  0.93587922378E+02  0.27613319569E+03 -0.51908986939E+03  0.59536756166E+03  0.00000000000E+00 0. -1.
         22    1    1    2    0    0 -0.12007307848E+02  0.11407329193E+02 -0.62954228811E+02  0.65096371069E+02  0.00000000000E+00 0. -1.
         22    1    1    2    0    0 -0.71961425097E+01 -0.12998132548E+02  0.55789973076E+02  0.57734365959E+02  0.00000000000E+00 0. -1.
</event>
<event>
 6    1  0.9825475E-005  0.6482246E+02  0.7818608E-02  0.1386224E+00
          2   -1    0    0  502    0  0.00000000000E+00  0.00000000000E+00  0.17543992060E+03  0.17543992060E+03  0.00000000000E+00 0. -1.
          1   -1    0    0  501    0 -0.00000000000E+00 -0.00000000000E+00 -0.16269561985E+04  0.16269561985E+04  0.00000000000E+00 0. -1.
          2    1    1    2  501    0 -0.19223638870E+02 -0.19654770020E+02 -0.37376211721E+02  0.46398701260E+02  0.00000000000E+00 0. -1.
          1    1    1    2  502    0  0.19076726225E+02 -0.15258991594E+02 -0.15587067965E+04  0.15588982121E+04  0.00000000000E+00 0. -1.
         22    1    1    2    0    0 -0.30794424885E+02 -0.13521633761E+02 -0.75649850011E+01  0.34472600448E+02  0.00000000000E+00 0.  1.
         22    1    1    2    0    0  0.30941337530E+02  0.48435395374E+02  0.15213171538E+03  0.16262660520E+03  0.00000000000E+00 0. -1.
</event>
<event>
 6    1  0.3240171E-005  0.1392035E+03  0.7818608E-02  0.1245587E+00
          2   -1    0    0  502    0  0.00000000000E+00  0.00000000000E+00  0.87920976616E+02  0.87920976616E+02  0.00000000000E+00 0. -1.
          1   -1    0    0  501    0 -0.00000000000E+00 -0.00000000000E+00 -0.97378303233E+03  0.97378303233E+03  0.00000000000E+00 0. -1.
          2    1    1    2  501    0  0.39270304967E+02  0.90657676619E+02 -0.53743698732E+03  0.54644257385E+03  0.00000000000E+00 0. -1.
          1    1    1    2  502    0 -0.10806080128E+03 -0.15988268594E+03 -0.29248631275E+03  0.35041097754E+03  0.00000000000E+00 0. -1.
         22    1    1    2    0    0  0.47175852796E+02  0.55850599254E+02  0.27129923850E+02  0.77980018545E+02  0.00000000000E+00 0. -1.
         22    1    1    2    0    0  0.21614643520E+02  0.13374410070E+02 -0.83068679498E+02  0.86870439004E+02  0.00000000000E+00 0. -1.
</event>
<event>
 6    1  0.3240171E-005  0.2694507E+03  0.7818608E-02  0.1153223E+00
          2   -1    0    0  502    0  0.00000000000E+00  0.00000000000E+00  0.22260541249E+03  0.22260541249E+03  0.00000000000E+00 0.  1.
          1   -1    0    0  501    0 -0.00000000000E+00 -0.00000000000E+00 -0.23537218460E+04  0.23537218460E+04  0.00000000000E+00 0.  1.
          2    1    1    2  501    0 -0.13999640480E+03 -0.11905448551E+03  0.15723267168E+02  0.18444561531E+03  0.00000000000E+00 0.  1.
          1    1    1    2  502    0  0.17076505260E+03  0.10355966559E+03 -0.22274316934E+04  0.22363669771E+04  0.00000000000E+00 0.  1.
         22    1    1    2    0    0  0.36804739567E+02 -0.17781113926E+02  0.67721098137E+02  0.79100594182E+02  0.00000000000E+00 0. -1.
         22    1    1    2    0    0 -0.67573387364E+02  0.33275933845E+02  0.12870894596E+02  0.76414071877E+02  0.00000000000E+00 0. -1.
</event>
<event>
 6    1  0.3240171E-005  0.1599046E+03  0.7818608E-02  0.1227071E+00
          2   -1    0    0  502    0  0.00000000000E+00  0.00000000000E+00  0.33004005703E+03  0.33004005703E+03  0.00000000000E+00 0. -1.
          1   -1    0    0  501    0 -0.00000000000E+00 -0.00000000000E+00 -0.91484137122E+03  0.91484137122E+03  0.00000000000E+00 0.  1.
          2    1    1    2  501    0  0.98280213819E+01  0.30165865854E+02  0.12028814551E+02  0.33930249726E+02  0.00000000000E+00 0. -1.
          1    1    1    2  502    0 -0.43815408309E+02 -0.15565111304E+03 -0.86983095613E+03  0.88473326559E+03  0.00000000000E+00 0.  1.
         22    1    1    2    0    0  0.50535023438E+02  0.49033688318E+02  0.22184991294E+03  0.23275625675E+03  0.00000000000E+00 0. -1.
         22    1    1    2    0    0 -0.16547636512E+02  0.76451558867E+02  0.51150914449E+02  0.93461656182E+02  0.00000000000E+00 0. -1.
</event>
<event>
 6    1  0.3240171E-005  0.1643961E+03  0.7818608E-02  0.1243826E+00
          2   -1    0    0  502    0  0.00000000000E+00  0.00000000000E+00  0.11675844796E+03  0.11675844796E+03  0.00000000000E+00 0. -1.
          1   -1    0    0  501    0 -0.00000000000E+00 -0.00000000000E+00 -0.35733761470E+03  0.35733761470E+03  0.00000000000E+00 0. -1.
          2    1    1    2  501    0  0.18600749730E+02  0.25380479251E+02 -0.59109467724E+02  0.66963316765E+02  0.00000000000E+00 0. -1.
          1    1    1    2  502    0 -0.10594422511E+02 -0.24214904966E+02 -0.25910103241E+03  0.26044567266E+03  0.00000000000E+00 0. -1.
         22    1    1    2    0    0  0.48605318332E+02  0.93606383952E+01 -0.65721637404E+00  0.49502832794E+02  0.00000000000E+00 0. -1.
         22    1    1    2    0    0 -0.56611645551E+02 -0.10526212680E+02  0.78288549765E+02  0.97184240439E+02  0.00000000000E+00 0. -1.
</event>
<event>
 6    1  0.3240171E-005  0.2731214E+03  0.7818608E-02  0.1103087E+00
          2   -1    0    0  502    0  0.00000000000E+00  0.00000000000E+00  0.91134298225E+03  0.91134298225E+03  0.00000000000E+00 0. -1.
          1   -1    0    0  501    0 -0.00000000000E+00 -0.00000000000E+00 -0.53708547939E+03  0.53708547939E+03  0.00000000000E+00 0. -1.
          2    1    1    2  501    0 -0.27564995382E+03  0.21822092168E+03  0.41016849389E+03  0.54022352881E+03  0.00000000000E+00 0. -1.
          1    1    1    2  502    0  0.12962307631E+03 -0.10623956039E+03 -0.42651604222E+03  0.45826293803E+03  0.00000000000E+00 0. -1.
         22    1    1    2    0    0 -0.49885894864E+01  0.16106444327E+02  0.78708367610E+02  0.80494165662E+02  0.00000000000E+00 0. -1.
         22    1    1    2    0    0  0.15101546700E+03 -0.12808780562E+03  0.31189668358E+03  0.36944782913E+03  0.00000000000E+00 0. -1.
</event>
<event>
 6    1  0.3240171E-005  0.2287621E+03  0.7818608E-02  0.1129254E+00
          2   -1    0    0  502    0  0.00000000000E+00  0.00000000000E+00  0.12924051458E+04  0.12924051458E+04  0.00000000000E+00 0.  1.
          1   -1    0    0  501    0 -0.00000000000E+00 -0.00000000000E+00 -0.39178622140E+03  0.39178622140E+03  0.00000000000E+00 0.  1.
          2    1    1    2  501    0 -0.23309191095E+03 -0.17421814776E+01  0.31418572119E+03  0.39121291076E+03  0.00000000000E+00 0.  1.
          1    1    1    2  502    0  0.38267858455E+02 -0.96716133723E+01 -0.33770049643E+03  0.33999940351E+03  0.00000000000E+00 0.  1.
         22    1    1    2    0    0  0.20884449308E+03  0.25934161578E+02  0.87295542427E+03  0.89796423971E+03  0.00000000000E+00 0.  1.
         22    1    1    2    0    0 -0.14020440589E+02 -0.14520366728E+02  0.51178275378E+02  0.55014813232E+02  0.00000000000E+00 0.  1.
</event>
<event>
 6    1  0.3240171E-005  0.7868925E+02  0.7818608E-02  0.1335469E+00
          2   -1    0    0  502    0  0.00000000000E+00  0.00000000000E+00  0.54228665112E+03  0.54228665112E+03  0.00000000000E+00 0.  1.
          1   -1    0    0  501    0 -0.00000000000E+00 -0.00000000000E+00 -0.70011256538E+02  0.70011256538E+02  0.00000000000E+00 0. -1.
          2    1    1    2  501    0 -0.12677894694E+02 -0.26143200919E+02  0.11569181344E+03  0.11928449884E+03  0.00000000000E+00 0.  1.
          1    1    1    2  502    0  0.20654300862E+02  0.66480258700E+01 -0.56786728932E+02  0.60790862594E+02  0.00000000000E+00 0. -1.
         22    1    1    2    0    0 -0.12109279808E+02  0.72062404129E+02  0.25799219530E+03  0.26814100317E+03  0.00000000000E+00 0.  1.
         22    1    1    2    0    0  0.41328736405E+01 -0.52567229080E+02  0.15537811478E+03  0.16408154306E+03  0.00000000000E+00 0. -1.
</event>
<event>
 6    1  0.3240171E-005  0.9847998E+02  0.7818608E-02  0.1317109E+00
          2   -1    0    0  502    0  0.00000000000E+00  0.00000000000E+00  0.53403552840E+02  0.53403552840E+02  0.00000000000E+00 0.  1.
          1   -1    0    0  501    0 -0.00000000000E+00 -0.00000000000E+00 -0.60454750014E+03  0.60454750014E+03  0.00000000000E+00 0.  1.
          2    1    1    2  501    0 -0.87696687204E+01 -0.24479628545E+02 -0.29337951731E+02  0.39202993698E+02  0.00000000000E+00 0.  1.
          1    1    1    2  502    0 -0.24323417100E+01  0.19959341000E+02 -0.49450299805E+03  0.49491161500E+03  0.00000000000E+00 0.  1.
         22    1    1    2    0    0  0.62803007955E+02  0.19371316850E+02 -0.57394000644E+01  0.65972770426E+02  0.00000000000E+00 0.  1.
         22    1    1    2    0    0 -0.51600997524E+02 -0.14851029305E+02 -0.21563597453E+02  0.57863673855E+02  0.00000000000E+00 0.  1.
</event>
<event>
 6    1  0.3240171E-005  0.2095615E+03  0.7818608E-02  0.1246213E+00
          2   -1    0    0  502    0  0.00000000000E+00  0.00000000000E+00  0.51578841087E+02  0.51578841087E+02  0.00000000000E+00 0. -1.
          1   -1    0    0  501    0 -0.00000000000E+00 -0.00000000000E+00 -0.12059363792E+04  0.12059363792E+04  0.00000000000E+00 0. -1.
          2    1    1    2  501    0  0.52105826555E+01 -0.41082801329E+02 -0.42810485843E+03  0.43010314641E+03  0.00000000000E+00 0. -1.
          1    1    1    2  502    0  0.13993074391E+03  0.91708778036E+02 -0.18019171565E+03  0.24588649302E+03  0.00000000000E+00 0. -1.
         22    1    1    2    0    0 -0.14549190276E+03 -0.29468827698E+02 -0.53923038861E+03  0.55929036964E+03  0.00000000000E+00 0. -1.
         22    1    1    2    0    0  0.35057618841E+00 -0.21157149009E+02 -0.68305754391E+01  0.22235211235E+02  0.00000000000E+00 0. -1.
</event>
<event>
 6    1  0.3240171E-005  0.8182225E+02  0.7818608E-02  0.1336150E+00
          2   -1    0    0  502    0  0.00000000000E+00  0.00000000000E+00  0.21222368569E+03  0.21222368569E+03  0.00000000000E+00 0.  1.
          1   -1    0    0  501    0 -0.00000000000E+00 -0.00000000000E+00 -0.99992854640E+02  0.99992854640E+02  0.00000000000E+00 0.  1.
          2    1    1    2  501    0 -0.17989446967E+02  0.51391131937E+02 -0.11543698493E+02  0.55659012019E+02  0.00000000000E+00 0.  1.
          1    1    1    2  502    0  0.32006569526E+02 -0.40155218053E+02 -0.28987641132E+02  0.58967324580E+02  0.00000000000E+00 0.  1.
         22    1    1    2    0    0 -0.31310329904E+02  0.46054341053E+02  0.35789787481E+02  0.66198549656E+02  0.00000000000E+00 0.  1.
         22    1    1    2    0    0  0.17293207346E+02 -0.57290254937E+02  0.11697238319E+03  0.13139165407E+03  0.00000000000E+00 0.  1.
</event>
<event>
 6    1  0.3240171E-005  0.7796041E+02  0.7818608E-02  0.1362173E+00
          2   -1    0    0  502    0  0.00000000000E+00  0.00000000000E+00  0.27889672785E+03  0.27889672785E+03  0.00000000000E+00 0.  1.
          1   -1    0    0  501    0 -0.00000000000E+00 -0.00000000000E+00 -0.88773299727E+03  0.88773299727E+03  0.00000000000E+00 0. -1.
          2    1    1    2  501    0 -0.12586055998E+02 -0.17560023407E+02  0.39791047719E+02  0.45277927362E+02  0.00000000000E+00 0.  1.
          1    1    1    2  502    0  0.73436178052E+01  0.20916994567E+02 -0.86723658568E+03  0.86751988157E+03  0.00000000000E+00 0. -1.
         22    1    1    2    0    0  0.27235742961E+02 -0.43188101373E+02  0.19691125720E+03  0.20342330497E+03  0.00000000000E+00 0.  1.
         22    1    1    2    0    0 -0.21993304768E+02  0.39831130214E+02  0.21698011340E+02  0.50408611217E+02  0.00000000000E+00 0.  1.
</event>
<event>
 6    1  0.3240171E-005  0.2005544E+03  0.7818608E-02  0.1204744E+00
          2   -1    0    0  502    0  0.00000000000E+00  0.00000000000E+00  0.22020890161E+03  0.22020890161E+03  0.00000000000E+00 0. -1.
          1   -1    0    0  501    0 -0.00000000000E+00 -0.00000000000E+00 -0.21117150573E+03  0.21117150573E+03  0.00000000000E+00 0. -1.
          2    1    1    2  501    0  0.26598476477E+02  0.61679235783E+02 -0.23676867617E+02  0.71220791471E+02  0.00000000000E+00 0. -1.
          1    1    1    2  502    0  0.23787304387E+02  0.68930848235E+01 -0.13344368809E+03  0.13572239446E+03  0.00000000000E+00 0. -1.
         22    1    1    2    0    0 -0.61536848739E+02  0.10254630283E+02  0.36471266159E+02  0.72264060570E+02  0.00000000000E+00 0.  1.
         22    1    1    2    0    0  0.11151067874E+02 -0.78826950889E+02  0.12968668543E+03  0.15217316083E+03  0.00000000000E+00 0. -1.
</event>
<event>
 6    1  0.3240171E-005  0.1609475E+03  0.7818608E-02  0.1261341E+00
          2   -1    0    0  502    0  0.00000000000E+00  0.00000000000E+00  0.10148141779E+03  0.10148141779E+03  0.00000000000E+00 0. -1.
          1   -1    0    0  501    0 -0.00000000000E+00 -0.00000000000E+00 -0.49103771948E+03  0.49103771948E+03  0.00000000000E+00 0. -1.
          2    1    1    2  501    0  0.11347161216E+03 -0.97018307692E+00 -0.25204339246E+03  0.27641023806E+03  0.00000000000E+00 0. -1.
          1    1    1    2  502    0 -0.13348060579E+03  0.11384356779E+02 -0.13170943309E+03  0.18786710853E+03  0.00000000000E+00 0. -1.
         22    1    1    2    0    0  0.13886845177E+02  0.31679357989E+02  0.48307049466E+02  0.59413779712E+02  0.00000000000E+00 0. -1.
         22    1    1    2    0    0  0.61221484588E+01 -0.42093531691E+02 -0.54110525609E+02  0.68828010967E+02  0.00000000000E+00 0. -1.
</event>
<event>
 6    1  0.3240171E-005  0.8470120E+02  0.7818608E-02  0.1360709E+00
          2   -1    0    0  502    0  0.00000000000E+00  0.00000000000E+00  0.38152620007E+02  0.38152620007E+02  0.00000000000E+00 0. -1.
          1   -1    0    0  501    0 -0.00000000000E+00 -0.00000000000E+00 -0.70767978698E+03  0.70767978698E+03  0.00000000000E+00 0. -1.
          2    1    1    2  501    0 -0.12140686165E+01  0.69859640878E+02 -0.33956004387E+03  0.34667400650E+03  0.00000000000E+00 0. -1.
          1    1    1    2  502    0 -0.91725164956E+01 -0.40064344888E+02 -0.23778142805E+03  0.24130746842E+03  0.00000000000E+00 0. -1.
         22    1    1    2    0    0  0.33029750926E+02  0.20871217108E+01 -0.11000621780E+03  0.11487684047E+03  0.00000000000E+00 0. -1.
         22    1    1    2    0    0 -0.22643165814E+02 -0.31882417701E+02  0.17820522753E+02  0.42974091588E+02  0.00000000000E+00 0. -1.
</event>
<event>
 6    1  0.3240171E-005  0.1757397E+03  0.7818608E-02  0.1210839E+00
          2   -1    0    0  502    0  0.00000000000E+00  0.00000000000E+00  0.69946562990E+02  0.69946562990E+02  0.00000000000E+00 0.  1.
          1   -1    0    0  501    0 -0.00000000000E+00 -0.00000000000E+00 -0.12740776996E+04  0.12740776996E+04  0.00000000000E+00 0.  1.
          2    1    1    2  501    0  0.79592978623E+02  0.81985242418E+02 -0.21031984944E+03  0.23935551234E+03  0.00000000000E+00 0.  1.
          1    1    1    2  502    0 -0.13439808556E+03 -0.50959401344E+02 -0.94896101969E+03  0.95978472737E+03  0.00000000000E+00 0.  1.
         22    1    1    2    0    0  0.46010558398E+02  0.43083938445E+02 -0.17731444214E+02  0.65479778175E+02  0.00000000000E+00 0.  1.
         22    1    1    2    0    0  0.87945485364E+01 -0.74109779519E+02 -0.27118823282E+02  0.79404244726E+02  0.00000000000E+00 0.  1.
</event>
<event>
 6    1  0.3240171E-005  0.1444974E+03  0.7818608E-02  0.1286069E+00
          2   -1    0    0  502    0  0.00000000000E+00  0.00000000000E+00  0.22813879858E+02  0.22813879858E+02  0.00000000000E+00 0. -1.
          1   -1    0    0  501    0 -0.00000000000E+00 -0.00000000000E+00 -0.15119545132E+04  0.15119545132E+04  0.00000000000E+00 0. -1.
          2    1    1    2  501    0 -0.19575029456E+02 -0.22855574583E+02 -0.53078592142E+02  0.61015539098E+02  0.00000000000E+00 0. -1.
          1    1    1    2  502    0  0.80113510047E+02 -0.57454830032E+02 -0.10475104811E+04  0.10521394585E+04  0.00000000000E+00 0. -1.
         22    1    1    2    0    0 -0.14900196515E+02 -0.25706723642E+02 -0.21053584450E+02  0.36415723455E+02  0.00000000000E+00 0. -1.
         22    1    1    2    0    0 -0.45638284076E+02  0.10601712826E+03 -0.36749797560E+03  0.38519767202E+03  0.00000000000E+00 0. -1.
</event>
<event>
 6    1  0.3240171E-005  0.9135014E+02  0.7818608E-02  0.1302997E+00
          2   -1    0    0  502    0  0.00000000000E+00  0.00000000000E+00  0.16768238036E+03  0.16768238036E+03  0.00000000000E+00 0. -1.
          1   -1    0    0  501    0 -0.00000000000E+00 -0.00000000000E+00 -0.14497218575E+03  0.14497218575E+03  0.00000000000E+00 0.  1.
          2    1    1    2  501    0  0.51452095892E+02 -0.10699003565E+02  0.50773974876E+02  0.73073821398E+02  0.00000000000E+00 0. -1.
          1    1    1    2  502    0  0.27872093591E+01 -0.29519537363E+02 -0.80864518598E+02  0.86129216821E+02  0.00000000000E+00 0.  1.
         22    1    1    2    0    0  0.33570393573E+02  0.16985832326E+02  0.50004309198E+02  0.62577318278E+02  0.00000000000E+00 0. -1.
         22    1    1    2    0    0 -0.87809698824E+02  0.23232708602E+02  0.27964291349E+01  0.90874209612E+02  0.00000000000E+00 0.  1.
</event>
<event>
 6    1  0.3240171E-005  0.1016335E+03  0.7818608E-02  0.1348400E+00
          2   -1    0    0  502    0  0.00000000000E+00  0.00000000000E+00  0.12865874483E+03  0.12865874483E+03  0.00000000000E+00 0.  1.
          1   -1    0    0  501    0 -0.00000000000E+00 -0.00000000000E+00 -0.61646674587E+03  0.61646674587E+03  0.00000000000E+00 0.  1.
          2    1    1    2  501    0  0.32630292988E+02  0.14276715116E+02 -0.33830308323E+02  0.49122809124E+02  0.00000000000E+00 0.  1.
          1    1    1    2  502    0 -0.82491425384E+02 -0.29521612411E+02 -0.53090387318E+03  0.53808482921E+03  0.00000000000E+00 0.  1.
         22    1    1    2    0    0 -0.26147699227E+02  0.96898396765E+01  0.76800435374E+02  0.81706193409E+02  0.00000000000E+00 0.  1.
         22    1    1    2    0    0  0.76008831622E+02  0.55550576183E+01  0.12574509273E+00  0.76211658961E+02  0.00000000000E+00 0.  1.
</event>
<event>
 6    1  0.3240171E-005  0.3524445E+03  0.7818608E-02  0.1061616E+00
          2   -1    0    0  502    0  0.00000000000E+00  0.00000000000E+00  0.85966001910E+02  0.85966001910E+02  0.00000000000E+00 0.  1.
          1   -1    0    0  501    0 -0.00000000000E+00 -0.00000000000E+00 -0.18652279309E+04  0.18652279309E+04  0.00000000000E+00 0.  1.
          2    1    1    2  501    0 -0.20771722613E+02 -0.24904519627E+02 -0.53788457657E+02  0.62808420895E+02  0.00000000000E+00 0.  1.
          1    1    1    2  502    0  0.12296417197E+03  0.30004002159E+03 -0.13846210951E+04  0.14220829016E+04  0.00000000000E+00 0.  1.
         22    1    1    2    0    0 -0.64495363078E+02 -0.41544511087E+02 -0.50937461939E+02  0.92088127839E+02  0.00000000000E+00 0.  1.
         22    1    1    2    0    0 -0.37697086274E+02 -0.23359099088E+03 -0.28991491430E+03  0.37421448244E+03  0.00000000000E+00 0.  1.
</event>
<event>
 6    1  0.3240171E-005  0.1221437E+03  0.7818608E-02  0.1242855E+00
          2   -1    0    0  502    0  0.00000000000E+00  0.00000000000E+00  0.15466870264E+03  0.15466870264E+03  0.00000000000E+00 0. -1.
          1   -1    0    0  501    0 -0.00000000000E+00 -0.00000000000E+00 -0.70409579036E+03  0.70409579036E+03  0.00000000000E+00 0.  1.
          2    1    1    2  501    0 -0.97194621671E+02  0.13210138565E+02  0.24183576159E+02  0.10102547995E+03  0.00000000000E+00 0. -1.
          1    1    1    2  502    0  0.29399608172E+02  0.18584542541E+02 -0.60920247243E+03  0.61019453832E+03  0.00000000000E+00 0.  1.
         22    1    1    2    0    0  0.10211199726E+03 -0.10382764987E+02  0.27999318768E+02  0.10638902032E+03  0.00000000000E+00 0. -1.
         22    1    1    2    0    0 -0.34316983763E+02 -0.21411916119E+02  0.75924897795E+01  0.41155454408E+02  0.00000000000E+00 0. -1.
</event>
<event>
 6    1  0.3240171E-005  0.7691698E+02  0.7818608E-02  0.1390032E+00
          2   -1    0    0  502    0  0.00000000000E+00  0.00000000000E+00  0.20368440414E+03  0.20368440414E+03  0.00000000000E+00 0.  1.
          1   -1    0    0  501    0 -0.00000000000E+00 -0.00000000000E+00 -0.10996179435E+04  0.10996179435E+04  0.00000000000E+00 0.  1.
          2    1    1    2  501    0  0.63074348397E+02  0.14875856365E+02  0.10778791652E+02  0.65695105432E+02  0.00000000000E+00 0.  1.
          1    1    1    2  502    0 -0.60499837152E+02 -0.26340917757E+02 -0.10468964787E+04  0.10489739327E+04  0.00000000000E+00 0.  1.
         22    1    1    2    0    0 -0.25217275834E+02 -0.20119244981E+02  0.14583684829E+03  0.14936224870E+03  0.00000000000E+00 0.  1.
         22    1    1    2    0    0  0.22642764589E+02  0.31584306373E+02 -0.56527006095E+01  0.39271060865E+02  0.00000000000E+00 0. -1.
</event>
<event>
 6    1  0.3240171E-005  0.5466495E+02  0.7818608E-02  0.1460047E+00
          2   -1    0    0  502    0  0.00000000000E+00  0.00000000000E+00  0.38250869242E+02  0.38250869242E+02  0.00000000000E+00 0.  1.
          1   -1    0    0  501    0 -0.00000000000E+00 -0.00000000000E+00 -0.56291085702E+03  0.56291085702E+03  0.00000000000E+00 0.  1.
          2    1    1    2  501    0 -0.22707883947E+02 -0.64976710071E+01 -0.25015807362E+03  0.25127063004E+03  0.00000000000E+00 0.  1.
          1    1    1    2  502    0  0.62885148411E+02  0.32950326838E+02 -0.14961381197E+03  0.16560361911E+03  0.00000000000E+00 0.  1.
         22    1    1    2    0    0 -0.95139040352E+01 -0.23227727840E+02 -0.14520790641E+03  0.14736138502E+03  0.00000000000E+00 0.  1.
         22    1    1    2    0    0 -0.30663360429E+02 -0.32249279908E+01  0.20319804228E+02  0.36926092092E+02  0.00000000000E+00 0.  1.
</event>
<event>
 6    1  0.3240171E-005  0.6115240E+02  0.7818608E-02  0.1489493E+00
          2   -1    0    0  502    0  0.00000000000E+00  0.00000000000E+00  0.10043132150E+03  0.10043132150E+03  0.00000000000E+00 0. -1.
          1   -1    0    0  501    0 -0.00000000000E+00 -0.00000000000E+00 -0.13977063083E+03  0.13977063083E+03  0.00000000000E+00 0. -1.
          2    1    1    2  501    0  0.15252818932E+02  0.17844123270E+02 -0.15411837789E+02  0.28081772819E+02  0.00000000000E+00 0. -1.
          1    1    1    2  502    0  0.13066703761E+02 -0.46793113447E+02 -0.56661286477E+02  0.74638030510E+02  0.00000000000E+00 0. -1.
         22    1    1    2    0    0 -0.11992053837E+02 -0.81231599022E+01  0.76492643519E+02  0.77851908099E+02  0.00000000000E+00 0. -1.
         22    1    1    2    0    0 -0.16327468857E+02  0.37072150079E+02 -0.43758828589E+02  0.59630240903E+02  0.00000000000E+00 0. -1.
</event>
<event>
 6    1  0.3240171E-005  0.2056172E+03  0.7818608E-02  0.1222995E+00
          2   -1    0    0  502    0  0.00000000000E+00  0.00000000000E+00  0.38347910774E+03  0.38347910774E+03  0.00000000000E+00 0. -1.
          1   -1    0    0  501    0 -0.00000000000E+00 -0.00000000000E+00 -0.17052400233E+03  0.17052400233E+03  0.00000000000E+00 0.  1.
          2    1    1    2  501    0  0.58779082026E+02 -0.40519513332E+02  0.25998765642E+02  0.75978597377E+02  0.00000000000E+00 0. -1.
          1    1    1    2  502    0  0.88950415946E+01  0.74404143043E+02 -0.11793239939E+03  0.13972526290E+03  0.00000000000E+00 0.  1.
         22    1    1    2    0    0  0.35811809917E+02  0.41456997085E+01  0.66284942004E+02  0.75454397433E+02  0.00000000000E+00 0. -1.
         22    1    1    2    0    0 -0.10348593354E+03 -0.38030329419E+02  0.23860379715E+03  0.26284485236E+03  0.00000000000E+00 0. -1.
</event>
<event>
 6    1  0.3240171E-005  0.1730825E+03  0.7818608E-02  0.1176942E+00
          2   -1    0    0  502    0  0.00000000000E+00  0.00000000000E+00  0.13707134489E+03  0.13707134489E+03  0.00000000000E+00 0.  1.
          1   -1    0    0  501    0 -0.00000000000E+00 -0.00000000000E+00 -0.83159158188E+03  0.83159158188E+03  0.00000000000E+00 0.  1.
          2    1    1    2  501    0 -0.12066804601E+01 -0.13358984803E+03 -0.16381041441E+03  0.21138012073E+03  0.00000000000E+00 0.  1.
          1    1    1    2  502    0 -0.38233043481E+02 -0.43040408041E+01 -0.56039268983E+03  0.56171189875E+03  0.00000000000E+00 0.  1.
         22    1    1    2    0    0 -0.26012697568E+01 -0.24412229350E+02 -0.30622959433E+01  0.24740679106E+02  0.00000000000E+00 0.  1.
         22    1    1    2    0    0  0.42040993698E+02  0.16230611818E+03  0.32745163179E+02  0.17083022818E+03  0.00000000000E+00 0.  1.
</event>
<event>
 6    1  0.3240171E-005  0.8733198E+02  0.7818608E-02  0.1346226E+00
          2   -1    0    0  502    0  0.00000000000E+00  0.00000000000E+00  0.21939009993E+03  0.21939009993E+03  0.00000000000E+00 0.  1.
          1   -1    0    0  501    0 -0.00000000000E+00 -0.00000000000E+00 -0.15922499449E+03  0.15922499449E+03  0.00000000000E+00 0. -1.
          2    1    1    2  501    0  0.29783031585E+01 -0.41988093127E+02  0.64862013841E+01  0.42590386974E+02  0.00000000000E+00 0.  1.
          1    1    1    2  502    0  0.18909795344E+02 -0.20118879704E+02 -0.11445644872E+03  0.11773966339E+03  0.00000000000E+00 0. -1.
         22    1    1    2    0    0 -0.35575908133E+02  0.31656387315E+02  0.17736538981E+03  0.18364708982E+03  0.00000000000E+00 0.  1.
         22    1    1    2    0    0  0.13687809630E+02  0.30450585516E+02 -0.92300370289E+01  0.34637954246E+02  0.00000000000E+00 0.  1.
</event>
<event>
 6    1  0.3240171E-005  0.1219849E+03  0.7818608E-02  0.1354699E+00
          2   -1    0    0  502    0  0.00000000000E+00  0.00000000000E+00  0.10027617971E+03  0.10027617971E+03  0.00000000000E+00 0. -1.
          1   -1    0    0  501    0 -0.00000000000E+00 -0.00000000000E+00 -0.15360929274E+03  0.15360929274E+03  0.00000000000E+00 0. -1.
          2    1    1    2  501    0 -0.49606167105E+02 -0.44172629435E+02 -0.10417453042E+02  0.67234785148E+02  0.00000000000E+00 0. -1.
          1    1    1    2  502    0  0.53930304864E+02  0.95170663970E+01 -0.12492211483E+02  0.56170345230E+02  0.00000000000E+00 0. -1.
         22    1    1    2    0    0 -0.11122220378E+02  0.92839782819E+01  0.46758374231E+02  0.48951420813E+02  0.00000000000E+00 0.  1.
         22    1    1    2    0    0  0.67980826185E+01  0.25371584756E+02 -0.77181822738E+02  0.81528921258E+02  0.00000000000E+00 0. -1.
</event>
<event>
 6    1  0.3520553E-005  0.2648306E+03  0.7818608E-02  0.1198849E+00
          2   -1    0    0  502    0  0.00000000000E+00  0.00000000000E+00  0.99374816247E+03  0.99374816247E+03  0.00000000000E+00 0.  1.
          1   -1    0    0  501    0 -0.00000000000E+00 -0.00000000000E+00 -0.13938684141E+04  0.13938684141E+04  0.00000000000E+00 0.  1.
          2    1    1    2  501    0 -0.69206785126E+02 -0.70654119967E+02  0.17869895559E+03  0.20424225935E+03  0.00000000000E+00 0.  1.
          1    1    1    2  502    0  0.14142845295E+03 -0.35880737415E+02 -0.13672644009E+04  0.13750277730E+04  0.00000000000E+00 0.  1.
         22    1    1    2    0    0 -0.64815654148E+02  0.13378143931E+03  0.62154738795E+03  0.63907722382E+03  0.00000000000E+00 0. -1.
         22    1    1    2    0    0 -0.74060136775E+01 -0.27246581932E+02  0.16689780572E+03  0.16926932037E+03  0.00000000000E+00 0.  1.
</event>
<event>
 6    1  0.3240171E-005  0.9369265E+02  0.7818608E-02  0.1376004E+00
          2   -1    0    0  502    0  0.00000000000E+00  0.00000000000E+00  0.58457444814E+02  0.58457444814E+02  0.00000000000E+00 0. -1.
          1   -1    0    0  501    0 -0.00000000000E+00 -0.00000000000E+00 -0.46014112467E+03  0.46014112467E+03  0.00000000000E+00 0. -1.
          2    1    1    2  501    0 -0.21450011947E+02  0.32168301492E+02 -0.55149447094E+02  0.67352536315E+02  0.00000000000E+00 0. -1.
          1    1    1    2  502    0  0.74876274308E+02 -0.45586798282E+02 -0.29733453213E+03  0.30998780077E+03  0.00000000000E+00 0. -1.
         22    1    1    2    0    0 -0.55179926396E+02  0.35764497220E+02 -0.79752348377E+02  0.10336518084E+03  0.00000000000E+00 0.  1.
         22    1    1    2    0    0  0.17536640341E+01 -0.22346000430E+02  0.30552647738E+02  0.37893051560E+02  0.00000000000E+00 0. -1.
</event>
<event>
 6    1  0.3240171E-005  0.7234835E+02  0.7818608E-02  0.1437643E+00
          2   -1    0    0  502    0  0.00000000000E+00  0.00000000000E+00  0.17898273815E+03  0.17898273815E+03  0.00000000000E+00 0. -1.
          1   -1    0    0  501    0 -0.00000000000E+00 -0.00000000000E+00 -0.59550279661E+02  0.59550279661E+02  0.00000000000E+00 0. -1.
          2    1    1    2  501    0  0.21248871592E+02 -0.14110255796E+02  0.18903354042E+02  0.31748238638E+02  0.00000000000E+00 0. -1.
          1    1    1    2  502    0 -0.30033555164E+02  0.41766914432E+02  0.19746926767E+02  0.55103817415E+02  0.00000000000E+00 0. -1.
         22    1    1    2    0    0  0.17268509550E+02 -0.66707946280E+01  0.11177749643E+03  0.11330008663E+03  0.00000000000E+00 0. -1.
         22    1    1    2    0    0 -0.84838259791E+01 -0.20985864008E+02 -0.30995318746E+02  0.38380875128E+02  0.00000000000E+00 0. -1.
</event>
<event>
 6    1  0.3240171E-005  0.1951861E+03  0.7818608E-02  0.1205021E+00
          2   -1    0    0  502    0  0.00000000000E+00  0.00000000000E+00  0.19922880688E+03  0.19922880688E+03  0.00000000000E+00 0.  1.
          1   -1    0    0  501    0 -0.00000000000E+00 -0.00000000000E+00 -0.20240286575E+03  0.20240286575E+03  0.00000000000E+00 0.  1.
          2    1    1    2  501    0 -0.14392422927E+02 -0.62743246523E+02 -0.63596805761E+02  0.90489836584E+02  0.00000000000E+00 0.  1.
          1    1    1    2  502    0  0.81004565767E+02 -0.67590448372E+02 -0.13814691187E+02  0.10640044210E+03  0.00000000000E+00 0.  1.
         22    1    1    2    0    0 -0.87616323983E+02  0.72314292720E+02  0.75032088311E+01  0.11385198858E+03  0.00000000000E+00 0.  1.
         22    1    1    2    0    0  0.21004181143E+02  0.58019402175E+02  0.66734229249E+02  0.90889405366E+02  0.00000000000E+00 0. -1.
</event>
<event>
 6    1  0.3240171E-005  0.1121543E+03  0.7818608E-02  0.1260838E+00
          2   -1    0    0  502    0  0.00000000000E+00  0.00000000000E+00  0.68760655119E+03  0.68760655119E+03  0.00000000000E+00 0. -1.
          1   -1    0    0  501    0 -0.00000000000E+00 -0.00000000000E+00 -0.97758649650E+03  0.97758649650E+03  0.00000000000E+00 0. -1.
          2    1    1    2  501    0  0.20886220144E+02 -0.75589681499E+02  0.47969373209E+03  0.48606183840E+03  0.00000000000E+00 0. -1.
          1    1    1    2  502    0 -0.29473454036E+01  0.25098660757E+02 -0.95112478818E+03  0.95146045231E+03  0.00000000000E+00 0. -1.
         22    1    1    2    0    0 -0.44263098332E+02  0.72474155299E+02  0.66936039006E+02  0.10813028428E+03  0.00000000000E+00 0. -1.
         22    1    1    2    0    0  0.26324223591E+02 -0.21983134557E+02  0.11451507177E+03  0.11954047271E+03  0.00000000000E+00 0.  1.
</event>
<event>
 6    1  0.3240171E-005  0.4196109E+03  0.7818608E-02  0.1137978E+00
          2   -1    0    0  502    0  0.00000000000E+00  0.00000000000E+00  0.26271556417E+03  0.26271556417E+03  0.00000000000E+00 0. -1.
          1   -1    0    0  501    0 -0.00000000000E+00 -0.00000000000E+00 -0.32221672249E+03  0.32221672249E+03  0.00000000000E+00 0. -1.
          2    1    1    2  501    0  0.10986245353E+03  0.14265821090E+02 -0.16174952434E+03  0.19605147531E+03  0.00000000000E+00 0. -1.
          1    1    1    2  502    0  0.72009731377E+01 -0.33606711388E+02 -0.10927914063E+03  0.11455651724E+03  0.00000000000E+00 0. -1.
         22    1    1    2    0    0  0.24833712762E+02 -0.14393605513E+02  0.38574909373E+02  0.48082354376E+02  0.00000000000E+00 0.  1.
         22    1    1    2    0    0 -0.14189713943E+03  0.33734495811E+02  0.17295259728E+03  0.22624193973E+03  0.00000000000E+00 0. -1.
</event>
<event>
 6    1  0.3240171E-005  0.8952496E+02  0.7818608E-02  0.1384646E+00
          2   -1    0    0  502    0  0.00000000000E+00  0.00000000000E+00  0.16923063666E+03  0.16923063666E+03  0.00000000000E+00 0.  1.
          1   -1    0    0  501    0 -0.00000000000E+00 -0.00000000000E+00 -0.19152375305E+03  0.19152375305E+03  0.00000000000E+00 0.  1.
          2    1    1    2  501    0 -0.26268781129E+02  0.11023691716E+02  0.41114203389E+01  0.28783231547E+02  0.00000000000E+00 0.  1.
          1    1    1    2  502    0 -0.14823958510E+02 -0.33460127150E+02 -0.14846591275E+03  0.15290996404E+03  0.00000000000E+00 0.  1.
         22    1    1    2    0    0  0.63098456040E+02  0.26150999362E+02  0.15304406532E+02  0.69996534069E+02  0.00000000000E+00 0.  1.
         22    1    1    2    0    0 -0.22005716401E+02 -0.37145639282E+01  0.10675696949E+03  0.10906466006E+03  0.00000000000E+00 0.  1.
</event>
<event>
 6    1  0.3240171E-005  0.2047775E+03  0.7818608E-02  0.1186648E+00
          2   -1    0    0  502    0  0.00000000000E+00  0.00000000000E+00  0.36438385453E+03  0.36438385453E+03  0.00000000000E+00 0. -1.
          1   -1    0    0  501    0 -0.00000000000E+00 -0.00000000000E+00 -0.31009196501E+03  0.31009196501E+03  0.00000000000E+00 0.  1.
          2    1    1    2  501    0 -0.16055598439E+02 -0.66963390259E+02  0.56572491993E+02  0.89119721311E+02  0.00000000000E+00 0. -1.
          1    1    1    2  502    0  0.11179364553E+03  0.18961770812E+03 -0.20549849207E+03  0.30113506049E+03  0.00000000000E+00 0.  1.
         22    1    1    2    0    0 -0.50102117376E+02 -0.57108558748E+02  0.11894833086E+02  0.76896662489E+02  0.00000000000E+00 0.  1.
         22    1    1    2    0    0 -0.45635929721E+02 -0.65545759111E+02  0.19132305652E+03  0.20732437525E+03  0.00000000000E+00 0. -1.
</event>
<event>
 6    1  0.3240171E-005  0.9183249E+02  0.7818608E-02  0.1298828E+00
          2   -1    0    0  502    0  0.00000000000E+00  0.00000000000E+00  0.80356323435E+03  0.80356323435E+03  0.00000000000E+00 0. -1.
          1   -1    0    0  501    0 -0.00000000000E+00 -0.00000000000E+00 -0.71081895739E+02  0.71081895739E+02  0.00000000000E+00 0. -1.
          2    1    1    2  501    0  0.35331304697E+02  0.34410305145E+02 -0.42015766560E+02  0.64789619781E+02  0.00000000000E+00 0. -1.
          1    1    1    2  502    0  0.49559962241E+02 -0.56863910016E+02  0.36820104379E+03  0.37584797827E+03  0.00000000000E+00 0. -1.
         22    1    1    2    0    0 -0.94514776890E+02  0.16685080505E+02  0.41084058029E+03  0.42190214194E+03  0.00000000000E+00 0. -1.
         22    1    1    2    0    0  0.96235099524E+01  0.57685243668E+01 -0.45445189144E+01  0.12105390094E+02  0.00000000000E+00 0.  1.
</event>
<event>
 6    1  0.3240171E-005  0.1559727E+03  0.7818608E-02  0.1241937E+00
          2   -1    0    0  502    0  0.00000000000E+00  0.00000000000E+00  0.78835165337E+02  0.78835165337E+02  0.00000000000E+00 0. -1.
          1   -1    0    0  501    0 -0.00000000000E+00 -0.00000000000E+00 -0.29866432545E+03  0.29866432545E+03  0.00000000000E+00 0. -1.
          2    1    1    2  501    0 -0.15394022433E+02 -0.53286599868E+02 -0.10782927620E+03  0.12125836242E+03  0.00000000000E+00 0. -1.
          1    1    1    2  502    0 -0.38730625678E+02  0.72616659223E+02 -0.79754899488E+02  0.11460403376E+03  0.00000000000E+00 0. -1.
         22    1    1    2    0    0  0.71263472928E+02  0.33925501833E+02 -0.33343464600E+02  0.85680854804E+02  0.00000000000E+00 0. -1.
         22    1    1    2    0    0 -0.17138824818E+02 -0.53255561188E+02  0.10984801732E+01  0.55956239797E+02  0.00000000000E+00 0.  1.
</event>
<event>
 6    1  0.3240171E-005  0.3282593E+03  0.7818608E-02  0.1096976E+00
          2   -1    0    0  502    0  0.00000000000E+00  0.00000000000E+00  0.41126952228E+03  0.41126952228E+03  0.00000000000E+00 0.  1.
          1   -1    0    0  501    0 -0.00000000000E+00 -0.00000000000E+00 -0.10865217751E+04  0.10865217751E+04  0.00000000000E+00 0. -1.
          2    1    1    2  501    0  0.40280787677E+03 -0.14549140756E+03 -0.12136677928E+03  0.44514248323E+03  0.00000000000E+00 0.  1.
          1    1    1    2  502    0 -0.26345625723E+03  0.77144262740E+02 -0.73489311349E+03  0.78449239958E+03  0.00000000000E+00 0. -1.
         22    1    1    2    0    0 -0.94641018653E+00 -0.26929408612E+02  0.10940805923E+02  0.29082468511E+02  0.00000000000E+00 0. -1.
         22    1    1    2    0    0 -0.13840520935E+03  0.95276553432E+02  0.17006683407E+03  0.23907394601E+03  0.00000000000E+00 0.  1.
</event>
<event>
 6    1  0.3240171E-005  0.3735458E+03  0.7818608E-02  0.1128010E+00
          2   -1    0    0  502    0  0.00000000000E+00  0.00000000000E+00  0.18566808373E+03  0.18566808373E+03  0.00000000000E+00 0.  1.
          1   -1    0    0  501    0 -0.00000000000E+00 -0.00000000000E+00 -0.90111543702E+03  0.90111543702E+03  0.00000000000E+00 0.  1.
          2    1    1    2  501    0 -0.96040394146E+02 -0.27300973753E+03 -0.36812155537E+03  0.46826440568E+03  0.00000000000E+00 0.  1.
          1    1    1    2  502    0  0.12137539283E+03  0.32552222126E+03 -0.32539195658E+03  0.47600065959E+03  0.00000000000E+00 0.  1.
         22    1    1    2    0    0  0.44757464276E+02 -0.26281878614E+02  0.21282220332E+02  0.56097242839E+02  0.00000000000E+00 0. -1.
         22    1    1    2    0    0 -0.70092462963E+02 -0.26230605122E+02 -0.43216061673E+02  0.86421212649E+02  0.00000000000E+00 0.  1.
</event>
<event>
 6    1  0.3240171E-005  0.7449059E+02  0.7818608E-02  0.1358685E+00
          2   -1    0    0  502    0  0.00000000000E+00  0.00000000000E+00  0.22896293078E+03  0.22896293078E+03  0.00000000000E+00 0.  1.
          1   -1    0    0  501    0 -0.00000000000E+00 -0.00000000000E+00 -0.33125859684E+03  0.33125859684E+03  0.00000000000E+00 0. -1.
          2    1    1    2  501    0  0.56588283527E+01  0.29075161345E+02 -0.17018514666E+01  0.29669574381E+02  0.00000000000E+00 0.  1.
          1    1    1    2  502    0 -0.13794785712E+02 -0.27082983634E+02 -0.29540826024E+03  0.29696771597E+03  0.00000000000E+00 0. -1.
         22    1    1    2    0    0  0.46574893581E+02  0.37748390381E+02  0.48307889178E+02  0.76992297311E+02  0.00000000000E+00 0.  1.
         22    1    1    2    0    0 -0.38438936221E+02 -0.39740568091E+02  0.14650655647E+03  0.15659193996E+03  0.00000000000E+00 0.  1.
</event>
<event>
 6    1  0.3240171E-005  0.1816514E+03  0.7818608E-02  0.1259984E+00
          2   -1    0    0  502    0  0.00000000000E+00  0.00000000000E+00  0.14741195461E+03  0.14741195461E+03  0.00000000000E+00 0. -1.
          1   -1    0    0  501    0 -0.00000000000E+00 -0.00000000000E+00 -0.83832856764E+03  0.83832856764E+03  0.00000000000E+00 0. -1.
          2    1    1    2  501    0 -0.42515758096E+02 -0.50545497985E+02 -0.49494158534E+00  0.66050601967E+02  0.00000000000E+00 0. -1.
          1    1    1    2  502    0 -0.17127425868E+02 -0.28623118701E+02 -0.74971540666E+03  0.75045707580E+03  0.00000000000E+00 0. -1.
         22    1    1    2    0    0 -0.18306459877E+01 -0.24640919570E+02  0.40054303590E+02  0.47062441692E+02  0.00000000000E+00 0. -1.
         22    1    1    2    0    0  0.61473829952E+02  0.10380953626E+03  0.19239431630E+02  0.12217040278E+03  0.00000000000E+00 0. -1.
</event>
<event>
 6    1  0.3240171E-005  0.8079154E+02  0.7818608E-02  0.1368116E+00
          2   -1    0    0  502    0  0.00000000000E+00  0.00000000000E+00  0.12244122453E+03  0.12244122453E+03  0.00000000000E+00 0.  1.
          1   -1    0    0  501    0 -0.00000000000E+00 -0.00000000000E+00 -0.31240716606E+03  0.31240716606E+03  0.00000000000E+00 0.  1.
          2    1    1    2  501    0 -0.35636407229E+02 -0.17302036075E+02 -0.10247376797E+02  0.40918488532E+02  0.00000000000E+00 0.  1.
          1    1    1    2  502    0  0.41686484377E+02  0.79397297571E+01 -0.24556900191E+03  0.24920862141E+03  0.00000000000E+00 0.  1.
         22    1    1    2    0    0 -0.13354129037E+02  0.48506165692E+02 -0.16748316538E+02  0.53025342802E+02  0.00000000000E+00 0. -1.
         22    1    1    2    0    0  0.73040518892E+01 -0.39143859373E+02  0.82598753712E+02  0.91695937835E+02  0.00000000000E+00 0.  1.
</event>
<event>
 6    1  0.3240171E-005  0.8656045E+02  0.7818608E-02  0.1313643E+00
          2   -1    0    0  502    0  0.00000000000E+00  0.00000000000E+00  0.34331420247E+03  0.34331420247E+03  0.00000000000E+00 0. -1.
          1   -1    0    0  501    0 -0.00000000000E+00 -0.00000000000E+00 -0.31138625187E+03  0.31138625187E+03  0.00000000000E+00 0. -1.
          2    1    1    2  501    0  0.39765494951E+02  0.54303831170E+02  0.39376528878E+02  0.77978918273E+02  0.00000000000E+00 0. -1.
          1    1    1    2  502    0 -0.18056125957E+02 -0.29984160153E+02 -0.27519243582E+03  0.27740935506E+03  0.00000000000E+00 0. -1.
         22    1    1    2    0    0 -0.37327160236E+02 -0.67002865643E+02  0.22179400059E+03  0.23468122975E+03  0.00000000000E+00 0. -1.
         22    1    1    2    0    0  0.15617791242E+02  0.42683194625E+02  0.45949856945E+02  0.64630951254E+02  0.00000000000E+00 0. -1.
</event>
<event>
 6    1  0.3240171E-005  0.1115157E+03  0.7818608E-02  0.1383766E+00
          2   -1    0    0  502    0  0.00000000000E+00  0.00000000000E+00  0.44483511250E+02  0.44483511250E+02  0.00000000000E+00 0.  1.
          1   -1    0    0  501    0 -0.00000000000E+00 -0.00000000000E+00 -0.11260219130E+04  0.11260219130E+04  0.00000000000E+00 0. -1.
          2    1    1    2  501    0  0.10386315494E+02 -0.46688221250E+02 -0.43721544459E+02  0.64801535498E+02  0.00000000000E+00 0.  1.
          1    1    1    2  502    0 -0.37835816640E+02  0.84925399978E+01 -0.93883881972E+03  0.93963929339E+03  0.00000000000E+00 0. -1.
         22    1    1    2    0    0  0.20065153801E+01 -0.11539371147E+02  0.26357364951E+02  0.28842570579E+02  0.00000000000E+00 0.  1.
         22    1    1    2    0    0  0.25442985765E+02  0.49735052399E+02 -0.12533540251E+03  0.13722202478E+03  0.00000000000E+00 0.  1.
</event>
<event>
 6    1  0.3240171E-005  0.3013897E+03  0.7818608E-02  0.1084714E+00
          2   -1    0    0  502    0  0.00000000000E+00  0.00000000000E+00  0.76641966840E+03  0.76641966840E+03  0.00000000000E+00 0.  1.
          1   -1    0    0  501    0 -0.00000000000E+00 -0.00000000000E+00 -0.14031421375E+04  0.14031421375E+04  0.00000000000E+00 0. -1.
          2    1    1    2  501    0 -0.32345708684E+03  0.81986661855E+02  0.89109081103E+02  0.34537910777E+03  0.00000000000E+00 0.  1.
          1    1    1    2  502    0  0.65673767299E+02  0.16365071480E+02 -0.12327587508E+04  0.12346153235E+04  0.00000000000E+00 0. -1.
         22    1    1    2    0    0 -0.11478787413E+02  0.17203775703E+01  0.88680485174E+01  0.14607003250E+02  0.00000000000E+00 0. -1.
         22    1    1    2    0    0  0.26926210695E+03 -0.10007211091E+03  0.49805915213E+03  0.57496037136E+03  0.00000000000E+00 0.  1.
</event>
<event>
 6    1  0.3240171E-005  0.9751501E+02  0.7818608E-02  0.1358226E+00
          2   -1    0    0  502    0  0.00000000000E+00  0.00000000000E+00  0.34641830731E+02  0.34641830731E+02  0.00000000000E+00 0.  1.
          1   -1    0    0  501    0 -0.00000000000E+00 -0.00000000000E+00 -0.39929248805E+03  0.39929248805E+03  0.00000000000E+00 0.  1.
          2    1    1    2  501    0  0.22870772034E+01  0.28865667466E+02 -0.17372357847E+02  0.33767681258E+02  0.00000000000E+00 0.  1.
          1    1    1    2  502    0 -0.31935722055E+02  0.12860997190E+02 -0.19253152734E+03  0.19558549182E+03  0.00000000000E+00 0.  1.
         22    1    1    2    0    0 -0.26400520054E+02 -0.41141872443E+01  0.84111865112E+01  0.28011819904E+02  0.00000000000E+00 0.  1.
         22    1    1    2    0    0  0.56049164906E+02 -0.37612477411E+02 -0.16315795865E+03  0.17656932580E+03  0.00000000000E+00 0.  1.
</event>
<event>
 6    1  0.3240171E-005  0.1136595E+03  0.7818608E-02  0.1337808E+00
          2   -1    0    0  502    0  0.00000000000E+00  0.00000000000E+00  0.28078319553E+03  0.28078319553E+03  0.00000000000E+00 0.  1.
          1   -1    0    0  501    0 -0.00000000000E+00 -0.00000000000E+00 -0.72148201494E+02  0.72148201494E+02  0.00000000000E+00 0. -1.
          2    1    1    2  501    0 -0.32866637121E+02  0.20843501626E+02  0.50684087606E+02  0.63902614439E+02  0.00000000000E+00 0.  1.
          1    1    1    2  502    0  0.85605685996E+02  0.94140054844E+01  0.73456010095E+01  0.86434453942E+02  0.00000000000E+00 0. -1.
         22    1    1    2    0    0 -0.73823444205E+02 -0.41580763251E+02  0.48302516929E+02  0.97529451595E+02  0.00000000000E+00 0.  1.
         22    1    1    2    0    0  0.21084395330E+02  0.11323256140E+02  0.10230278849E+03  0.10506487704E+03  0.00000000000E+00 0.  1.
</event>
<event>
 6    1  0.3240171E-005  0.1505214E+03  0.7818608E-02  0.1239124E+00
          2   -1    0    0  502    0  0.00000000000E+00  0.00000000000E+00  0.40687416365E+02  0.40687416365E+02  0.00000000000E+00 0.  1.
          1   -1    0    0  501    0 -0.00000000000E+00 -0.00000000000E+00 -0.14182798808E+04  0.14182798808E+04  0.00000000000E+00 0. -1.
          2    1    1    2  501    0  0.36890090974E+02 -0.19951940513E+02 -0.20002428573E+03  0.20437385749E+03  0.00000000000E+00 0.  1.
          1    1    1    2  502    0 -0.81862172760E+01  0.83586480261E+02 -0.10817209379E+04  0.10849764519E+04  0.00000000000E+00 0. -1.
         22    1    1    2    0    0  0.36470955533E+02 -0.53858638849E+02 -0.17740465333E+02  0.67421121960E+02  0.00000000000E+00 0.  1.
         22    1    1    2    0    0 -0.65174829230E+02 -0.97759008991E+01 -0.78106775516E+02  0.10219586579E+03  0.00000000000E+00 0.  1.
</event>
<event>
 6    1  0.3240171E-005  0.1173261E+03  0.7818608E-02  0.1297980E+00
          2   -1    0    0  502    0  0.00000000000E+00  0.00000000000E+00  0.17376353180E+03  0.17376353180E+03  0.00000000000E+00 0. -1.
          1   -1    0    0  501    0 -0.00000000000E+00 -0.00000000000E+00 -0.19945876790E+03  0.19945876790E+03  0.00000000000E+00 0. -1.
          2    1    1    2  501    0  0.68113960716E+02 -0.63584994691E+02 -0.13049662268E+03  0.16034940513E+03  0.00000000000E+00 0. -1.
          1    1    1    2  502    0 -0.21501054681E+02  0.39689916080E+02  0.39277937615E+02  0.59835952187E+02  0.00000000000E+00 0. -1.
         22    1    1    2    0    0 -0.44074623964E+02 -0.56801174822E+01  0.98866712768E+02  0.10839494041E+03  0.00000000000E+00 0. -1.
         22    1    1    2    0    0 -0.25382820718E+01  0.29575196093E+02 -0.33343263799E+02  0.44642001978E+02  0.00000000000E+00 0. -1.
</event>
<event>
 6    1  0.3240171E-005  0.8507876E+02  0.7818608E-02  0.1352512E+00
          2   -1    0    0  502    0  0.00000000000E+00  0.00000000000E+00  0.68239538648E+03  0.68239538648E+03  0.00000000000E+00 0. -1.
          1   -1    0    0  501    0 -0.00000000000E+00 -0.00000000000E+00 -0.37249407303E+03  0.37249407303E+03  0.00000000000E+00 0. -1.
          2    1    1    2  501    0  0.37920575327E+02  0.22975256370E+02  0.15028771770E+03  0.15669151391E+03  0.00000000000E+00 0. -1.
          1    1    1    2  502    0 -0.53138595151E+02 -0.58584304346E+02 -0.35728522846E+03  0.36593519301E+03  0.00000000000E+00 0. -1.
         22    1    1    2    0    0 -0.30464658149E+02 -0.32185812378E+02  0.15265496529E+03  0.15895773131E+03  0.00000000000E+00 0.  1.
         22    1    1    2    0    0  0.45682677972E+02  0.67794860354E+02  0.36424385892E+03  0.37330502128E+03  0.00000000000E+00 0. -1.
</event>
<event>
 6    1  0.3240171E-005  0.1945085E+03  0.7818608E-02  0.1199733E+00
          2   -1    0    0  502    0  0.00000000000E+00  0.00000000000E+00  0.45825713906E+02  0.45825713906E+02  0.00000000000E+00 0. -1.
          1   -1    0    0  501    0 -0.00000000000E+00 -0.00000000000E+00 -0.12957268394E+04  0.12957268394E+04  0.00000000000E+00 0. -1.
          2    1    1    2  501    0 -0.10900529343E+03 -0.70977918944E+02 -0.88947149518E+03  0.89893245559E+03  0.00000000000E+00 0. -1.
          1    1    1    2  502    0  0.71638335405E+02  0.81318882009E+02 -0.87396090994E+02  0.13922244213E+03  0.00000000000E+00 0. -1.
         22    1    1    2    0    0  0.49691821038E+02  0.49170971522E+02 -0.12224440157E+03  0.14082171435E+03  0.00000000000E+00 0. -1.
         22    1    1    2    0    0 -0.12324863017E+02 -0.59511934587E+02 -0.15078913780E+03  0.16257594129E+03  0.00000000000E+00 0. -1.
</event>
<event>
 6    1  0.3240171E-005  0.9929691E+02  0.7818608E-02  0.1348280E+00
          2   -1    0    0  502    0  0.00000000000E+00  0.00000000000E+00  0.18180709402E+03  0.18180709402E+03  0.00000000000E+00 0. -1.
          1   -1    0    0  501    0 -0.00000000000E+00 -0.00000000000E+00 -0.14229267578E+04  0.14229267578E+04  0.00000000000E+00 0. -1.
          2    1    1    2  501    0 -0.64505133902E+02 -0.17121330139E+02 -0.43581711287E+02  0.79708329579E+02  0.00000000000E+00 0. -1.
          1    1    1    2  502    0  0.19739097416E+02  0.98090991719E+01 -0.13357851485E+04  0.13359669956E+04  0.00000000000E+00 0. -1.
         22    1    1    2    0    0  0.21820180106E+02 -0.20337254360E+02  0.14868111060E+03  0.15164365078E+03  0.00000000000E+00 0. -1.
         22    1    1    2    0    0  0.22945856381E+02  0.27649485327E+02 -0.10433914645E+02  0.37414875901E+02  0.00000000000E+00 0. -1.
</event>
<event>
 6    1  0.3240171E-005  0.9272939E+02  0.7818608E-02  0.1335750E+00
          2   -1    0    0  502    0  0.00000000000E+00  0.00000000000E+00  0.39610766426E+03  0.39610766426E+03  0.00000000000E+00 0. -1.
          1   -1    0    0  501    0 -0.00000000000E+00 -0.00000000000E+00 -0.12273459389E+03  0.12273459389E+03  0.00000000000E+00 0. -1.
          2    1    1    2  501    0  0.16811228006E+02 -0.22969062435E+02  0.36222841710E+02  0.46068313164E+02  0.00000000000E+00 0. -1.
          1    1    1    2  502    0  0.11510927389E+02  0.56505129144E+02 -0.96754582269E+02  0.11263560831E+03  0.00000000000E+00 0. -1.
         22    1    1    2    0    0 -0.63823593894E+02 -0.62280103524E+02  0.21488471338E+03  0.23265361050E+03  0.00000000000E+00 0. -1.
         22    1    1    2    0    0  0.35501438500E+02  0.28744036815E+02  0.11902009755E+03  0.12748472618E+03  0.00000000000E+00 0. -1.
</event>
<event>
 6    1  0.3240171E-005  0.4914856E+02  0.7818608E-02  0.1455369E+00
          2   -1    0    0  502    0  0.00000000000E+00  0.00000000000E+00  0.31492962102E+02  0.31492962102E+02  0.00000000000E+00 0.  1.
          1   -1    0    0  501    0 -0.00000000000E+00 -0.00000000000E+00 -0.98745690483E+03  0.98745690483E+03  0.00000000000E+00 0. -1.
          2    1    1    2  501    0 -0.38695243363E+02  0.18007708405E+02 -0.20797611161E+03  0.21231029749E+03  0.00000000000E+00 0.  1.
          1    1    1    2  502    0  0.14846338153E+02 -0.15860237891E+02 -0.64314112190E+03  0.64350793591E+03  0.00000000000E+00 0. -1.
         22    1    1    2    0    0  0.44640739772E+02  0.18488896160E+01  0.10468352726E+02  0.45889001394E+02  0.00000000000E+00 0.  1.
         22    1    1    2    0    0 -0.20791834561E+02 -0.39963601296E+01 -0.11531506195E+03  0.11724263214E+03  0.00000000000E+00 0.  1.
</event>
<event>
 6    1  0.3240171E-005  0.1521821E+03  0.7818608E-02  0.1276643E+00
          2   -1    0    0  502    0  0.00000000000E+00  0.00000000000E+00  0.13024459874E+04  0.13024459874E+04  0.00000000000E+00 0. -1.
          1   -1    0    0  501    0 -0.00000000000E+00 -0.00000000000E+00 -0.57220062002E+02  0.57220062002E+02  0.00000000000E+00 0. -1.
          2    1    1    2  501    0 -0.36690241597E+02 -0.29733656574E+02  0.65654014328E+01  0.47679855890E+02  0.00000000000E+00 0. -1.
          1    1    1    2  502    0  0.55367462808E+02  0.10470933236E+03  0.11138208313E+04  0.11201010867E+04  0.00000000000E+00 0. -1.
         22    1    1    2    0    0 -0.92474881235E+01 -0.10389849582E+03  0.60174791524E+02  0.12042183774E+03  0.00000000000E+00 0. -1.
         22    1    1    2    0    0 -0.94297330871E+01  0.28922820033E+02  0.64664901157E+02  0.71463269071E+02  0.00000000000E+00 0. -1.
</event>
<event>
 6    1  0.3240171E-005  0.8541387E+02  0.7818608E-02  0.1403244E+00
          2   -1    0    0  502    0  0.00000000000E+00  0.00000000000E+00  0.90488168652E+02  0.90488168652E+02  0.00000000000E+00 0. -1.
          1   -1    0    0  501    0 -0.00000000000E+00 -0.00000000000E+00 -0.28674420134E+03  0.28674420134E+03  0.00000000000E+00 0. -1.
          2    1    1    2  501    0 -0.45490975533E+02 -0.32273198985E+02 -0.15480011893E+03  0.16454198567E+03  0.00000000000E+00 0. -1.
          1    1    1    2  502    0  0.33222975748E+02  0.30462756975E+02 -0.68698137333E+02  0.82165563061E+02  0.00000000000E+00 0. -1.
         22    1    1    2    0    0  0.26396312188E+02 -0.11029276699E+02 -0.46365903017E+02  0.54481255531E+02  0.00000000000E+00 0. -1.
         22    1    1    2    0    0 -0.14128312402E+02  0.12839718709E+02  0.73608126595E+02  0.76043565728E+02  0.00000000000E+00 0. -1.
</event>
<event>
 6    1  0.3240171E-005  0.7901280E+02  0.7818608E-02  0.1333618E+00
          2   -1    0    0  502    0  0.00000000000E+00  0.00000000000E+00  0.15195767352E+03  0.15195767352E+03  0.00000000000E+00 0.  1.
          1   -1    0    0  501    0 -0.00000000000E+00 -0.00000000000E+00 -0.13877691656E+04  0.13877691656E+04  0.00000000000E+00 0. -1.
          2    1    1    2  501    0 -0.72838270877E+01 -0.36903415847E+02  0.32829368160E+02  0.49926782913E+02  0.00000000000E+00 0.  1.
          1    1    1    2  502    0  0.21185220130E+02  0.27763387339E+02 -0.13404759036E+04  0.13409307466E+04  0.00000000000E+00 0. -1.
         22    1    1    2    0    0 -0.20676344954E+01 -0.49086275485E+02  0.74672156741E+02  0.89384945856E+02  0.00000000000E+00 0.  1.
         22    1    1    2    0    0 -0.11833758547E+02  0.58226303993E+02 -0.28371134491E+01  0.59484363750E+02  0.00000000000E+00 0.  1.
</event>
<event>
 6    1  0.3240171E-005  0.1319601E+03  0.7818608E-02  0.1225788E+00
          2   -1    0    0  502    0  0.00000000000E+00  0.00000000000E+00  0.12758590824E+04  0.12758590824E+04  0.00000000000E+00 0. -1.
          1   -1    0    0  501    0 -0.00000000000E+00 -0.00000000000E+00 -0.68643034918E+03  0.68643034918E+03  0.00000000000E+00 0.  1.
          2    1    1    2  501    0  0.88083139396E+02  0.66669345745E+02  0.59188590723E+03  0.60210660873E+03  0.00000000000E+00 0. -1.
          1    1    1    2  502    0 -0.21923282010E+02 -0.95457419601E+01 -0.67279147802E+03  0.67321625380E+03  0.00000000000E+00 0.  1.
         22    1    1    2    0    0 -0.80450169452E+02 -0.86161116458E+02  0.52358176935E+03  0.53668783939E+03  0.00000000000E+00 0. -1.
         22    1    1    2    0    0  0.14290312066E+02  0.29037512673E+02  0.14675253467E+03  0.15027872967E+03  0.00000000000E+00 0. -1.
</event>
<event>
 6    1  0.3240171E-005  0.1258592E+03  0.7818608E-02  0.1265004E+00
          2   -1    0    0  502    0  0.00000000000E+00  0.00000000000E+00  0.39012462112E+03  0.39012462112E+03  0.00000000000E+00 0. -1.
          1   -1    0    0  501    0 -0.00000000000E+00 -0.00000000000E+00 -0.18375545563E+03  0.18375545563E+03  0.00000000000E+00 0. -1.
          2    1    1    2  501    0  0.14323764267E+01  0.86677870891E+02  0.71327410910E+02  0.11226176799E+03  0.00000000000E+00 0. -1.
          1    1    1    2  502    0  0.29628168046E+02 -0.91602400586E+02 -0.13329498719E+03  0.16442743610E+03  0.00000000000E+00 0. -1.
         22    1    1    2    0    0 -0.66505362950E+02  0.10538203023E+02  0.24570364961E+03  0.25476322430E+03  0.00000000000E+00 0. -1.
         22    1    1    2    0    0  0.35444818478E+02 -0.56136733286E+01  0.22633092158E+02  0.42427648365E+02  0.00000000000E+00 0. -1.
</event>
<event>
 6    1  0.3240171E-005  0.3882401E+03  0.7818608E-02  0.1163156E+00
          2   -1    0    0  502    0  0.00000000000E+00  0.00000000000E+00  0.94985029988E+02  0.94985029988E+02  0.00000000000E+00 0. -1.
          1   -1    0    0  501    0 -0.00000000000E+00 -0.00000000000E+00 -0.82294575217E+03  0.82294575217E+03  0.00000000000E+00 0. -1.
          2    1    1    2  501    0 -0.38246913965E+02 -0.10569352803E+03 -0.52692661376E+03  0.53878159266E+03  0.00000000000E+00 0. -1.
          1    1    1    2  502    0 -0.20460917414E+02  0.50215422988E+01 -0.20531346724E+03  0.20639158136E+03  0.00000000000E+00 0. -1.
         22    1    1    2    0    0 -0.32752746203E+00 -0.19964600689E+02  0.29973159355E+02  0.36015036258E+02  0.00000000000E+00 0.  1.
         22    1    1    2    0    0  0.59035358841E+02  0.12063658642E+03 -0.25693800534E+02  0.13674257188E+03  0.00000000000E+00 0. -1.
</event>
<event>
 6    1  0.3240171E-005  0.1407062E+03  0.7818608E-02  0.1279595E+00
          2   -1    0    0  502    0  0.00000000000E+00  0.00000000000E+00  0.28674053322E+03  0.28674053322E+03  0.00000000000E+00 0. -1.
          1   -1    0    0  501    0 -0.00000000000E+00 -0.00000000000E+00 -0.19346046992E+03  0.19346046992E+03  0.00000000000E+00 0.  1.
          2    1    1    2  501    0  0.28307819599E+02 -0.15962997235E+02  0.15051704269E+03  0.15398548656E+03  0.00000000000E+00 0. -1.
          1    1    1    2  502    0  0.41387089545E+01  0.21876798815E+02 -0.16033838032E+03  0.16187686506E+03  0.00000000000E+00 0.  1.
         22    1    1    2    0    0 -0.20204544913E+02 -0.32458109976E+02  0.12311342473E+03  0.12891341236E+03  0.00000000000E+00 0. -1.
         22    1    1    2    0    0 -0.12241983641E+02  0.26544308396E+02 -0.20012023806E+02  0.35425239146E+02  0.00000000000E+00 0.  1.
</event>
<event>
 6    1  0.3240171E-005  0.8661789E+02  0.7818608E-02  0.1318326E+00
          2   -1    0    0  502    0  0.00000000000E+00  0.00000000000E+00  0.14274875862E+03  0.14274875862E+03  0.00000000000E+00 0. -1.
          1   -1    0    0  501    0 -0.00000000000E+00 -0.00000000000E+00 -0.85038428191E+03  0.85038428191E+03  0.00000000000E+00 0. -1.
          2    1    1    2  501    0 -0.27494925687E+02  0.26951200745E+02  0.46342280070E+02  0.60249025571E+02  0.00000000000E+00 0. -1.
          1    1    1    2  502    0  0.63384705306E+01 -0.39147110797E+02 -0.79932041299E+03  0.80030356435E+03  0.00000000000E+00 0. -1.
         22    1    1    2    0    0 -0.39131932578E+02  0.40230295496E+02  0.90987065244E+01  0.56855705812E+02  0.00000000000E+00 0. -1.
         22    1    1    2    0    0  0.60288387734E+02 -0.28034385444E+02  0.36243903105E+02  0.75724744801E+02  0.00000000000E+00 0. -1.
</event>
<event>
 6    1  0.3240171E-005  0.1446994E+03  0.7818608E-02  0.1250736E+00
          2   -1    0    0  502    0  0.00000000000E+00  0.00000000000E+00  0.10528635026E+03  0.10528635026E+03  0.00000000000E+00 0.  1.
          1   -1    0    0  501    0 -0.00000000000E+00 -0.00000000000E+00 -0.46024079002E+03  0.46024079002E+03  0.00000000000E+00 0. -1.
          2    1    1    2  501    0 -0.55194683484E+02  0.31394193114E+01 -0.47133141458E+02  0.72648758160E+02  0.00000000000E+00 0.  1.
          1    1    1    2  502    0  0.14364021607E+03  0.31624460162E+02 -0.30030689156E+03  0.33439026193E+03  0.00000000000E+00 0. -1.
         22    1    1    2    0    0 -0.76985932301E+01 -0.58202731031E+02  0.30562226081E+02  0.66188185503E+02  0.00000000000E+00 0.  1.
         22    1    1    2    0    0 -0.80746939357E+02  0.23438851558E+02 -0.38076632824E+02  0.92299934697E+02  0.00000000000E+00 0. -1.
</event>
<event>
 6    1  0.3240171E-005  0.1030695E+03  0.7818608E-02  0.1359707E+00
          2   -1    0    0  502    0  0.00000000000E+00  0.00000000000E+00  0.13008545119E+03  0.13008545119E+03  0.00000000000E+00 0. -1.
          1   -1    0    0  501    0 -0.00000000000E+00 -0.00000000000E+00 -0.34682564219E+03  0.34682564219E+03  0.00000000000E+00 0. -1.
          2    1    1    2  501    0  0.73735104442E+02  0.13412657175E+02 -0.25800666534E+03  0.26867118260E+03  0.00000000000E+00 0. -1.
          1    1    1    2  502    0 -0.69925991674E+02 -0.20613620735E+02  0.33624122733E+02  0.80281674752E+02  0.00000000000E+00 0. -1.
         22    1    1    2    0    0  0.64560815552E+01  0.26739502252E+02 -0.55025055550E+02  0.61517791801E+02  0.00000000000E+00 0.  1.
         22    1    1    2    0    0 -0.10265194323E+02 -0.19538538692E+02  0.62667407162E+02  0.66440444227E+02  0.00000000000E+00 0. -1.
</event>
<event>
 6    1  0.3240171E-005  0.7374314E+02  0.7818608E-02  0.1350328E+00
          2   -1    0    0  502    0  0.00000000000E+00  0.00000000000E+00  0.33360888506E+02  0.33360888506E+02  0.00000000000E+00 0.  1.
          1   -1    0    0  501    0 -0.00000000000E+00 -0.00000000000E+00 -0.57063295289E+03  0.57063295289E+03  0.00000000000E+00 0.  1.
          2    1    1    2  501    0  0.11052912392E+02  0.19708301077E+02 -0.98069438074E+02  0.10063895214E+03  0.00000000000E+00 0.  1.
          1    1    1    2  502    0  0.18003841017E+02 -0.52515708808E+02 -0.11712150947E+02  0.56738103976E+02  0.00000000000E+00 0.  1.
         22    1    1    2    0    0  0.69466896095E+01 -0.26735064925E+02 -0.22315526251E+02  0.35510602712E+02  0.00000000000E+00 0.  1.
         22    1    1    2    0    0 -0.36003443018E+02  0.59542472656E+02 -0.40517494911E+03  0.41110618257E+03  0.00000000000E+00 0.  1.
</event>
<event>
 6    1  0.3240171E-005  0.1114987E+03  0.7818608E-02  0.1274877E+00
          2   -1    0    0  502    0  0.00000000000E+00  0.00000000000E+00  0.10382026358E+04  0.10382026358E+04  0.00000000000E+00 0.  1.
          1   -1    0    0  501    0 -0.00000000000E+00 -0.00000000000E+00 -0.14325869344E+02  0.14325869344E+02  0.00000000000E+00 0.  1.
          2    1    1    2  501    0 -0.54531109286E+00 -0.49621646383E+02  0.17034666204E+03  0.17742770477E+03  0.00000000000E+00 0.  1.
          1    1    1    2  502    0 -0.12936203949E+02 -0.25557057177E+02  0.34162366818E+03  0.34282246018E+03  0.00000000000E+00 0.  1.
         22    1    1    2    0    0  0.58172491305E+02  0.10644303205E+01  0.23886639659E+03  0.24585021289E+03  0.00000000000E+00 0.  1.
         22    1    1    2    0    0 -0.44690976264E+02  0.74114273240E+02  0.27304003962E+03  0.28642812727E+03  0.00000000000E+00 0.  1.
</event>
<event>
 6    1  0.3240171E-005  0.1153465E+03  0.7818608E-02  0.1277164E+00
          2   -1    0    0  502    0  0.00000000000E+00  0.00000000000E+00  0.74190772694E+03  0.74190772694E+03  0.00000000000E+00 0.  1.
          1   -1    0    0  501    0 -0.00000000000E+00 -0.00000000000E+00 -0.67435975101E+03  0.67435975101E+03  0.00000000000E+00 0.  1.
          2    1    1    2  501    0  0.12465778602E+02 -0.99947513380E+02  0.23751408957E+03  0.25798806912E+03  0.00000000000E+00 0.  1.
          1    1    1    2  502    0 -0.53449319485E+01  0.74607273649E+02 -0.65334470106E+03  0.65761243296E+03  0.00000000000E+00 0.  1.
         22    1    1    2    0    0 -0.51227268558E+02 -0.27944953989E+02  0.16971428194E+03  0.17946612770E+03  0.00000000000E+00 0. -1.
         22    1    1    2    0    0  0.44106421904E+02  0.53285193720E+02  0.31366430549E+03  0.32120084817E+03  0.00000000000E+00 0.  1.
</event>
<event>
 6    1  0.3240171E-005  0.1046543E+03  0.7818608E-02  0.1339220E+00
          2   -1    0    0  502    0  0.00000000000E+00  0.00000000000E+00  0.11462879870E+03  0.11462879870E+03  0.00000000000E+00 0. -1.
          1   -1    0    0  501    0 -0.00000000000E+00 -0.00000000000E+00 -0.32237393338E+03  0.32237393338E+03  0.00000000000E+00 0. -1.
          2    1    1    2  501    0 -0.27255703672E+02  0.70631541243E+02 -0.12484324882E+03  0.14600522175E+03  0.00000000000E+00 0. -1.
          1    1    1    2  502    0  0.68427780934E+02 -0.86058800319E+02 -0.11495147406E+03  0.15906702897E+03  0.00000000000E+00 0. -1.
         22    1    1    2    0    0 -0.18630971413E+02 -0.42400800236E+01 -0.45209783333E+02  0.49081726573E+02  0.00000000000E+00 0.  1.
         22    1    1    2    0    0 -0.22541105849E+02  0.19667339099E+02  0.77259371533E+02  0.82848754787E+02  0.00000000000E+00 0. -1.
</event>
<event>
 6    1  0.3240171E-005  0.2077117E+03  0.7818608E-02  0.1249021E+00
          2   -1    0    0  502    0  0.00000000000E+00  0.00000000000E+00  0.32260874861E+02  0.32260874861E+02  0.00000000000E+00 0. -1.
          1   -1    0    0  501    0 -0.00000000000E+00 -0.00000000000E+00 -0.13914695026E+04  0.13914695026E+04  0.00000000000E+00 0. -1.
          2    1    1    2  501    0 -0.24158677722E+02 -0.50413868267E+02 -0.81851498810E+02  0.99120470541E+02  0.00000000000E+00 0. -1.
          1    1    1    2  502    0 -0.10439631063E+03  0.87172934536E+02 -0.83205314969E+03  0.84309557827E+03  0.00000000000E+00 0. -1.
         22    1    1    2    0    0 -0.17011546965E+02 -0.11511857236E+02 -0.12166239097E+02  0.23873268753E+02  0.00000000000E+00 0. -1.
         22    1    1    2    0    0  0.14556653532E+03 -0.25247209033E+02 -0.43313774011E+03  0.45764105986E+03  0.00000000000E+00 0. -1.
</event>
<event>
 6    1  0.3240171E-005  0.1398254E+03  0.7818608E-02  0.1278974E+00
          2   -1    0    0  502    0  0.00000000000E+00  0.00000000000E+00  0.22076975758E+03  0.22076975758E+03  0.00000000000E+00 0. -1.
          1   -1    0    0  501    0 -0.00000000000E+00 -0.00000000000E+00 -0.10761650378E+03  0.10761650378E+03  0.00000000000E+00 0. -1.
          2    1    1    2  501    0 -0.35359704158E+02  0.33113147587E+02 -0.15164576090E+02  0.50761733514E+02  0.00000000000E+00 0. -1.
          1    1    1    2  502    0  0.91850547212E+02 -0.53955931558E+02  0.79306478920E+02  0.13280543352E+03  0.00000000000E+00 0. -1.
         22    1    1    2    0    0  0.37149765799E+02 -0.52046604308E+01  0.40590364325E+01  0.37731543381E+02  0.00000000000E+00 0. -1.
         22    1    1    2    0    0 -0.93640608853E+02  0.26047444401E+02  0.44952314536E+02  0.10708755095E+03  0.00000000000E+00 0.  1.
</event>
<event>
 6    1  0.3240171E-005  0.1064865E+03  0.7818608E-02  0.1340203E+00
          2   -1    0    0  502    0  0.00000000000E+00  0.00000000000E+00  0.15298210808E+03  0.15298210808E+03  0.00000000000E+00 0.  1.
          1   -1    0    0  501    0 -0.00000000000E+00 -0.00000000000E+00 -0.83217455766E+03  0.83217455766E+03  0.00000000000E+00 0.  1.
          2    1    1    2  501    0  0.32471516180E+02 -0.21879372269E+02 -0.45301102623E+02  0.59877342900E+02  0.00000000000E+00 0.  1.
          1    1    1    2  502    0 -0.65192328597E+02  0.80378585472E+02 -0.74089557163E+03  0.74808890164E+03  0.00000000000E+00 0.  1.
         22    1    1    2    0    0  0.10104326540E+02 -0.42132568968E+02 -0.19593121922E+02  0.47551458540E+02  0.00000000000E+00 0. -1.
         22    1    1    2    0    0  0.22616485877E+02 -0.16366644235E+02  0.12659734659E+03  0.12963896266E+03  0.00000000000E+00 0.  1.
</event>
<event>
 6    1  0.3240171E-005  0.1161867E+03  0.7818608E-02  0.1293951E+00
          2   -1    0    0  502    0  0.00000000000E+00  0.00000000000E+00  0.45448741957E+02  0.45448741957E+02  0.00000000000E+00 0.  1.
          1   -1    0    0  501    0 -0.00000000000E+00 -0.00000000000E+00 -0.17611288804E+04  0.17611288804E+04  0.00000000000E+00 0.  1.
          2    1    1    2  501    0  0.88546036535E+02  0.78594057485E+01 -0.11260530450E+03  0.14346471848E+03  0.00000000000E+00 0.  1.
          1    1    1    2  502    0 -0.92171937456E+02 -0.32168072169E+02 -0.14879664978E+04  0.14911655675E+04  0.00000000000E+00 0.  1.
         22    1    1    2    0    0  0.44955683898E+02  0.51206128378E+02 -0.98780761466E+02  0.12000299969E+03  0.00000000000E+00 0.  1.
         22    1    1    2    0    0 -0.41329782978E+02 -0.26897461957E+02 -0.16327574587E+02  0.51944336675E+02  0.00000000000E+00 0.  1.
</event>
<event>
 6    1  0.3240171E-005  0.8350357E+02  0.7818608E-02  0.1362674E+00
          2   -1    0    0  502    0  0.00000000000E+00  0.00000000000E+00  0.10759524951E+03  0.10759524951E+03  0.00000000000E+00 0. -1.
          1   -1    0    0  501    0 -0.00000000000E+00 -0.00000000000E+00 -0.53157417787E+03  0.53157417787E+03  0.00000000000E+00 0. -1.
          2    1    1    2  501    0  0.49814753609E+02 -0.35921055697E+02 -0.19554319189E+02  0.64453109455E+02  0.00000000000E+00 0. -1.
          1    1    1    2  502    0 -0.50004951355E+02  0.58616245999E+02 -0.43520716861E+03  0.44197470410E+03  0.00000000000E+00 0. -1.
         22    1    1    2    0    0  0.38937597131E+02 -0.15076066553E+02 -0.36017404855E+02  0.55142340406E+02  0.00000000000E+00 0.  1.
         22    1    1    2    0    0 -0.38747399384E+02 -0.76191237487E+01  0.66799964289E+02  0.77599273416E+02  0.00000000000E+00 0. -1.
</event>
<event>
 6    1  0.3240171E-005  0.9798982E+02  0.7818608E-02  0.1295210E+00
          2   -1    0    0  502    0  0.00000000000E+00  0.00000000000E+00  0.45269705075E+02  0.45269705075E+02  0.00000000000E+00 0.  1.
          1   -1    0    0  501    0 -0.00000000000E+00 -0.00000000000E+00 -0.47618179584E+03  0.47618179584E+03  0.00000000000E+00 0. -1.
          2    1    1    2  501    0 -0.22329239480E+02 -0.12965056051E+02 -0.12211654501E+03  0.12481641791E+03  0.00000000000E+00 0.  1.
          1    1    1    2  502    0 -0.31661998114E+02 -0.47959957455E+02 -0.20737460875E+03  0.21519030646E+03  0.00000000000E+00 0. -1.
         22    1    1    2    0    0  0.85874327740E+02  0.27451614958E+02 -0.27494495839E+02  0.94254647790E+02  0.00000000000E+00 0.  1.
         22    1    1    2    0    0 -0.31883090147E+02  0.33473398548E+02 -0.73926441167E+02  0.87190128749E+02  0.00000000000E+00 0.  1.
</event>
<event>
 6    1  0.3240171E-005  0.8915333E+02  0.7818608E-02  0.1380895E+00
          2   -1    0    0  502    0  0.00000000000E+00  0.00000000000E+00  0.91372488262E+02  0.91372488262E+02  0.00000000000E+00 0. -1.
          1   -1    0    0  501    0 -0.00000000000E+00 -0.00000000000E+00 -0.59735431566E+03  0.59735431566E+03  0.00000000000E+00 0. -1.
          2    1    1    2  501    0  0.14812013744E+02 -0.81170449888E+02 -0.25662995680E+03  0.26956812203E+03  0.00000000000E+00 0. -1.
          1    1    1    2  502    0  0.43266424422E+01  0.85278944453E+02 -0.27665261960E+03  0.28953046495E+03  0.00000000000E+00 0. -1.
         22    1    1    2    0    0  0.43372042271E+01 -0.91773668048E+01 -0.48791265428E+02  0.49835960752E+02  0.00000000000E+00 0. -1.
         22    1    1    2    0    0 -0.23475860413E+02  0.50688722400E+01  0.76092014432E+02  0.79792256192E+02  0.00000000000E+00 0. -1.
</event>
<event>
 6    1  0.3240171E-005  0.1068474E+03  0.7818608E-02  0.1278034E+00
          2   -1    0    0  502    0  0.00000000000E+00  0.00000000000E+00  0.29207827363E+02  0.29207827363E+02  0.00000000000E+00 0.  1.
          1   -1    0    0  501    0 -0.00000000000E+00 -0.00000000000E+00 -0.67274204809E+03  0.67274204809E+03  0.00000000000E+00 0.  1.
          2    1    1    2  501    0  0.23184337647E+02  0.26733614937E+02 -0.28340021520E+03  0.28560091327E+03  0.00000000000E+00 0.  1.
          1    1    1    2  502    0  0.86672460110E-01  0.33971472482E+02 -0.20999269365E+03  0.21272282398E+03  0.00000000000E+00 0.  1.
         22    1    1    2    0    0 -0.64148860588E+02 -0.63617390374E+02 -0.72520696103E+02  0.11585119782E+03  0.00000000000E+00 0.  1.
         22    1    1    2    0    0  0.40877850481E+02  0.29123029550E+01 -0.77620615773E+02  0.87774940395E+02  0.00000000000E+00 0. -1.
</event>
<event>
 6    1  0.3240171E-005  0.1302529E+03  0.7818608E-02  0.1305598E+00
          2   -1    0    0  502    0  0.00000000000E+00  0.00000000000E+00  0.36211177284E+03  0.36211177284E+03  0.00000000000E+00 0.  1.
          1   -1    0    0  501    0 -0.00000000000E+00 -0.00000000000E+00 -0.84372722474E+03  0.84372722474E+03  0.00000000000E+00 0.  1.
          2    1    1    2  501    0 -0.42342642253E+02 -0.13497718473E+02  0.55048541901E+02  0.70749061637E+02  0.00000000000E+00 0.  1.
          1    1    1    2  502    0  0.38255134217E+01 -0.60015869023E+02 -0.81538189473E+03  0.81759658349E+03  0.00000000000E+00 0.  1.
         22    1    1    2    0    0  0.22389920042E+02  0.96687787939E+02  0.11742515381E+03  0.15374818244E+03  0.00000000000E+00 0.  1.
         22    1    1    2    0    0  0.16127208789E+02 -0.23174200443E+02  0.16129274712E+03  0.16374517001E+03  0.00000000000E+00 0. -1.
</event>
<event>
 6    1  0.3240171E-005  0.9515753E+02  0.7818608E-02  0.1311328E+00
          2   -1    0    0  502    0  0.00000000000E+00  0.00000000000E+00  0.36371048433E+03  0.36371048433E+03  0.00000000000E+00 0.  1.
          1   -1    0    0  501    0 -0.00000000000E+00 -0.00000000000E+00 -0.10394348765E+04  0.10394348765E+04  0.00000000000E+00 0. -1.
          2    1    1    2  501    0  0.20273360541E+02 -0.28932936124E+02  0.75499978394E+02  0.83356887406E+02  0.00000000000E+00 0.  1.
          1    1    1    2  502    0 -0.15679194739E+02  0.15081094816E+02 -0.10210632793E+04  0.10212950098E+04  0.00000000000E+00 0. -1.
         22    1    1    2    0    0  0.48653964328E+02  0.43441507664E+02  0.11683843764E+03  0.13381178328E+03  0.00000000000E+00 0.  1.
         22    1    1    2    0    0 -0.53248130130E+02 -0.29589666356E+02  0.15300047108E+03  0.16468168043E+03  0.00000000000E+00 0.  1.
</event>
<event>
 6    1  0.3240171E-005  0.5517626E+02  0.7818608E-02  0.1477642E+00
          2   -1    0    0  502    0  0.00000000000E+00  0.00000000000E+00  0.47671063312E+02  0.47671063312E+02  0.00000000000E+00 0.  1.
          1   -1    0    0  501    0 -0.00000000000E+00 -0.00000000000E+00 -0.30897829020E+03  0.30897829020E+03  0.00000000000E+00 0.  1.
          2    1    1    2  501    0 -0.39048923182E+02 -0.16920137081E+02 -0.14264120401E+03  0.14885436682E+03  0.00000000000E+00 0.  1.
          1    1    1    2  502    0  0.16786303380E+02  0.24290091341E+02 -0.67070444012E+02  0.73281873465E+02  0.00000000000E+00 0.  1.
         22    1    1    2    0    0  0.17850464267E+02  0.14964763611E+02  0.36623647374E+02  0.43403626248E+02  0.00000000000E+00 0.  1.
         22    1    1    2    0    0  0.44121555351E+01 -0.22334717871E+02 -0.88219226242E+02  0.91109486979E+02  0.00000000000E+00 0.  1.
</event>
<event>
 6    1  0.3240171E-005  0.1336439E+03  0.7818608E-02  0.1226558E+00
          2   -1    0    0  502    0  0.00000000000E+00  0.00000000000E+00  0.16715060377E+04  0.16715060377E+04  0.00000000000E+00 0. -1.
          1   -1    0    0  501    0 -0.00000000000E+00 -0.00000000000E+00 -0.12300423324E+03  0.12300423324E+03  0.00000000000E+00 0. -1.
          2    1    1    2  501    0  0.12101211814E+03 -0.26447239496E+02  0.89499542527E+03  0.90352653557E+03  0.00000000000E+00 0. -1.
          1    1    1    2  502    0 -0.59566848801E+02 -0.17563791552E+01 -0.10454251146E+03  0.12033466269E+03  0.00000000000E+00 0. -1.
         22    1    1    2    0    0  0.23092605276E+02 -0.27893552892E+02  0.15919859412E+03  0.16326515575E+03  0.00000000000E+00 0. -1.
         22    1    1    2    0    0 -0.84537874614E+02  0.56097171543E+02  0.59885029648E+03  0.60738391689E+03  0.00000000000E+00 0. -1.
</event>
<event>
 6    1  0.3240171E-005  0.1214187E+03  0.7818608E-02  0.1315323E+00
          2   -1    0    0  502    0  0.00000000000E+00  0.00000000000E+00  0.68470204408E+02  0.68470204408E+02  0.00000000000E+00 0.  1.
          1   -1    0    0  501    0 -0.00000000000E+00 -0.00000000000E+00 -0.17620903442E+04  0.17620903442E+04  0.00000000000E+00 0. -1.
          2    1    1    2  501    0  0.15087654284E+02 -0.21370303634E+02 -0.12439336899E+02  0.28966606492E+02  0.00000000000E+00 0.  1.
          1    1    1    2  502    0 -0.10263048274E+03  0.42320485946E+02 -0.16370706648E+04  0.16408303998E+04  0.00000000000E+00 0. -1.
         22    1    1    2    0    0  0.11270230800E+03 -0.60917621847E+01 -0.59659573280E+02  0.12766434302E+03  0.00000000000E+00 0.  1.
         22    1    1    2    0    0 -0.25159479546E+02 -0.14858420127E+02  0.15549435149E+02  0.33099199283E+02  0.00000000000E+00 0.  1.
</event>
<event>
 6    1  0.3240171E-005  0.2765340E+03  0.7818608E-02  0.1182738E+00
          2   -1    0    0  502    0  0.00000000000E+00  0.00000000000E+00  0.24784002180E+03  0.24784002180E+03  0.00000000000E+00 0.  1.
          1   -1    0    0  501    0 -0.00000000000E+00 -0.00000000000E+00 -0.96120276895E+03  0.96120276895E+03  0.00000000000E+00 0. -1.
          2    1    1    2  501    0 -0.66504106263E+02  0.21870749398E+00 -0.77622719104E+02  0.10221609709E+03  0.00000000000E+00 0.  1.
          1    1    1    2  502    0 -0.65645608569E+01  0.30677607882E+02 -0.84790665250E+03  0.84848682986E+03  0.00000000000E+00 0. -1.
         22    1    1    2    0    0 -0.25516435782E+02  0.23011032004E+02  0.60656862711E+02  0.69712632161E+02  0.00000000000E+00 0. -1.
         22    1    1    2    0    0  0.98585102902E+02 -0.53907347380E+02  0.15150976175E+03  0.18862723165E+03  0.00000000000E+00 0.  1.
</event>
<event>
 6    1  0.3240171E-005  0.9480427E+02  0.7818608E-02  0.1296664E+00
          2   -1    0    0  502    0  0.00000000000E+00  0.00000000000E+00  0.10168799767E+04  0.10168799767E+04  0.00000000000E+00 0. -1.
          1   -1    0    0  501    0 -0.00000000000E+00 -0.00000000000E+00 -0.22245042336E+03  0.22245042336E+03  0.00000000000E+00 0.  1.
          2    1    1    2  501    0  0.85535073015E+01  0.67386935238E+02  0.41594408683E+03  0.42145420261E+03  0.00000000000E+00 0. -1.
          1    1    1    2  502    0 -0.33540391800E+01 -0.61416692305E+02 -0.20864448713E+03  0.21752191081E+03  0.00000000000E+00 0.  1.
         22    1    1    2    0    0  0.37842597599E+02  0.44869513378E+02  0.27750565289E+03  0.28364541739E+03  0.00000000000E+00 0.  1.
         22    1    1    2    0    0 -0.43042065721E+02 -0.50839756312E+02  0.30962430075E+03  0.31670886924E+03  0.00000000000E+00 0. -1.
</event>
<event>
 6    1  0.3240171E-005  0.1045626E+03  0.7818608E-02  0.1291443E+00
          2   -1    0    0  502    0  0.00000000000E+00  0.00000000000E+00  0.78643226064E+02  0.78643226064E+02  0.00000000000E+00 0.  1.
          1   -1    0    0  501    0 -0.00000000000E+00 -0.00000000000E+00 -0.51458919794E+03  0.51458919794E+03  0.00000000000E+00 0. -1.
          2    1    1    2  501    0  0.53078204865E+02  0.48326396093E+02 -0.13981616673E+03  0.15716646230E+03  0.00000000000E+00 0.  1.
          1    1    1    2  502    0 -0.45326094584E+02 -0.36966045815E+02 -0.30597426418E+03  0.31151435558E+03  0.00000000000E+00 0. -1.
         22    1    1    2    0    0 -0.25992028046E+02 -0.59853877711E+02  0.26056633466E+02  0.70263933469E+02  0.00000000000E+00 0.  1.
         22    1    1    2    0    0  0.18239917764E+02  0.48493527434E+02 -0.16212174433E+02  0.54287672660E+02  0.00000000000E+00 0.  1.
</event>
<event>
 6    1  0.3240171E-005  0.1294182E+03  0.7818608E-02  0.1309534E+00
          2   -1    0    0  502    0  0.00000000000E+00  0.00000000000E+00  0.46045539176E+03  0.46045539176E+03  0.00000000000E+00 0. -1.
          1   -1    0    0  501    0 -0.00000000000E+00 -0.00000000000E+00 -0.15609279267E+03  0.15609279267E+03  0.00000000000E+00 0. -1.
          2    1    1    2  501    0 -0.83748542681E+02  0.85566603094E+01 -0.56819428461E+02  0.10156516276E+03  0.00000000000E+00 0. -1.
          1    1    1    2  502    0  0.71738375573E+02 -0.51969698537E+01  0.38151427316E+03  0.38823516540E+03  0.00000000000E+00 0. -1.
         22    1    1    2    0    0 -0.24138815927E+02  0.11623680699E+02  0.43961496319E+02  0.51482089565E+02  0.00000000000E+00 0.  1.
         22    1    1    2    0    0  0.36148983035E+02 -0.14983371155E+02 -0.64293741934E+02  0.75265766704E+02  0.00000000000E+00 0. -1.
</event>
<event>
 6    1  0.3240171E-005  0.1826351E+03  0.7818608E-02  0.1169303E+00
          2   -1    0    0  502    0  0.00000000000E+00  0.00000000000E+00  0.18883034861E+03  0.18883034861E+03  0.00000000000E+00 0. -1.
          1   -1    0    0  501    0 -0.00000000000E+00 -0.00000000000E+00 -0.20498638744E+04  0.20498638744E+04  0.00000000000E+00 0. -1.
          2    1    1    2  501    0 -0.80935474923E+01 -0.20332390655E+03 -0.16883619011E+03  0.26440835005E+03  0.00000000000E+00 0. -1.
          1    1    1    2  502    0  0.23555517175E+02  0.71833507166E+02 -0.17717072490E+04  0.17733193427E+04  0.00000000000E+00 0. -1.
         22    1    1    2    0    0 -0.16291826513E+02 -0.22692075078E+02  0.10204015502E+01  0.27953445258E+02  0.00000000000E+00 0.  1.
         22    1    1    2    0    0  0.82985683001E+00  0.15418247446E+03  0.78489511808E+02  0.17301308493E+03  0.00000000000E+00 0. -1.
</event>
<event>
 6    1  0.3240171E-005  0.4908999E+02  0.7818608E-02  0.1488708E+00
          2   -1    0    0  502    0  0.00000000000E+00  0.00000000000E+00  0.33760034577E+02  0.33760034577E+02  0.00000000000E+00 0. -1.
          1   -1    0    0  501    0 -0.00000000000E+00 -0.00000000000E+00 -0.13842498136E+04  0.13842498136E+04  0.00000000000E+00 0. -1.
          2    1    1    2  501    0  0.78271251193E+01  0.23555956237E+02 -0.53782135570E+02  0.59233985754E+02  0.00000000000E+00 0. -1.
          1    1    1    2  502    0 -0.20049878285E+02 -0.49194177512E+01 -0.12044343756E+04  0.12046112915E+04  0.00000000000E+00 0. -1.
         22    1    1    2    0    0  0.36367839131E+02 -0.53556950125E+01 -0.11354860374E+03  0.11935069586E+03  0.00000000000E+00 0. -1.
         22    1    1    2    0    0 -0.24145085964E+02 -0.13280843473E+02  0.21275335936E+02  0.34813875090E+02  0.00000000000E+00 0. -1.
</event>
<event>
 6    1  0.3240171E-005  0.9390727E+02  0.7818608E-02  0.1309255E+00
          2   -1    0    0  502    0  0.00000000000E+00  0.00000000000E+00  0.11190053145E+03  0.11190053145E+03  0.00000000000E+00 0.  1.
          1   -1    0    0  501    0 -0.00000000000E+00 -0.00000000000E+00 -0.46331202529E+03  0.46331202529E+03  0.00000000000E+00 0.  1.
          2    1    1    2  501    0  0.51907869187E+01  0.32886889059E+02 -0.43218987640E+01  0.33573360715E+02  0.00000000000E+00 0.  1.
          1    1    1    2  502    0 -0.22108532875E+02 -0.14793101574E+02 -0.39883691188E+03  0.39972303581E+03  0.00000000000E+00 0.  1.
         22    1    1    2    0    0  0.69333711284E+02  0.13660870212E+02  0.31543799430E+02  0.77387299848E+02  0.00000000000E+00 0.  1.
         22    1    1    2    0    0 -0.52415965327E+02 -0.31754657696E+02  0.20203517363E+02  0.64528860368E+02  0.00000000000E+00 0.  1.
</event>
<event>
 6    1  0.3240171E-005  0.1472609E+03  0.7818608E-02  0.1285715E+00
          2   -1    0    0  502    0  0.00000000000E+00  0.00000000000E+00  0.19996601337E+03  0.19996601337E+03  0.00000000000E+00 0. -1.
          1   -1    0    0  501    0 -0.00000000000E+00 -0.00000000000E+00 -0.13227702406E+03  0.13227702406E+03  0.00000000000E+00 0. -1.
          2    1    1    2  501    0  0.45110190513E+02  0.92071364988E+02  0.49728901677E+01  0.10264889271E+03  0.00000000000E+00 0. -1.
          1    1    1    2  502    0 -0.32913613909E+02 -0.68011805368E+02 -0.21627912995E+02  0.78591846081E+02  0.00000000000E+00 0. -1.
         22    1    1    2    0    0 -0.22628234763E+02  0.16928329124E+02  0.10150008606E+03  0.10536067960E+03  0.00000000000E+00 0. -1.
         22    1    1    2    0    0  0.10431658159E+02 -0.40987888743E+02 -0.17156073925E+02  0.45641619035E+02  0.00000000000E+00 0. -1.
</event>
<event>
 6    1  0.3240171E-005  0.1009559E+03  0.7818608E-02  0.1279751E+00
          2   -1    0    0  502    0  0.00000000000E+00  0.00000000000E+00  0.43937203858E+03  0.43937203858E+03  0.00000000000E+00 0. -1.
          1   -1    0    0  501    0 -0.00000000000E+00 -0.00000000000E+00 -0.66309961926E+02  0.66309961926E+02  0.00000000000E+00 0. -1.
          2    1    1    2  501    0  0.82529032762E+02  0.27024661835E+02 -0.38397026922E+01  0.86925927735E+02  0.00000000000E+00 0. -1.
          1    1    1    2  502    0 -0.30214963858E+02  0.19512673966E+02  0.10805085835E+03  0.11388009693E+03  0.00000000000E+00 0. -1.
         22    1    1    2    0    0  0.27376767719E+02  0.72664455210E+01  0.12266433380E+02  0.30866713935E+02  0.00000000000E+00 0. -1.
         22    1    1    2    0    0 -0.79690836623E+02 -0.53803781322E+02  0.25658448762E+03  0.27400926191E+03  0.00000000000E+00 0. -1.
</event>
<event>
 6    1  0.3240171E-005  0.2683934E+03  0.7818608E-02  0.1162557E+00
          2   -1    0    0  502    0  0.00000000000E+00  0.00000000000E+00  0.19275946429E+03  0.19275946429E+03  0.00000000000E+00 0. -1.
          1   -1    0    0  501    0 -0.00000000000E+00 -0.00000000000E+00 -0.62983550056E+03  0.62983550056E+03  0.00000000000E+00 0. -1.
          2    1    1    2  501    0 -0.45801399692E+02 -0.15566844239E+02 -0.11348177505E+03  0.12336210164E+03  0.00000000000E+00 0. -1.
          1    1    1    2  502    0 -0.15662076748E+02  0.22589956692E+02 -0.48593752164E+03  0.48671437387E+03  0.00000000000E+00 0. -1.
         22    1    1    2    0    0  0.45625745942E+02 -0.46840862799E+02  0.27335392674E+02  0.70873117704E+02  0.00000000000E+00 0. -1.
         22    1    1    2    0    0  0.15837730499E+02  0.39817750345E+02  0.13500786775E+03  0.14164537163E+03  0.00000000000E+00 0. -1.
</event>
<event>
 6    1  0.3240171E-005  0.2534979E+03  0.7818608E-02  0.1242754E+00
          2   -1    0    0  502    0  0.00000000000E+00  0.00000000000E+00  0.18853431514E+03  0.18853431514E+03  0.00000000000E+00 0. -1.
          1   -1    0    0  501    0 -0.00000000000E+00 -0.00000000000E+00 -0.37522934269E+03  0.37522934269E+03  0.00000000000E+00 0. -1.
          2    1    1    2  501    0  0.70283251948E+02  0.11154097433E+03 -0.18392977824E+03  0.22629911131E+03  0.00000000000E+00 0. -1.
          1    1    1    2  502    0 -0.14512976853E+03 -0.51123132911E+02 -0.68567489815E+02  0.16845689387E+03  0.00000000000E+00 0. -1.
         22    1    1    2    0    0  0.80223266266E+02 -0.48782177498E+02 -0.78780976679E+01  0.94220686236E+02  0.00000000000E+00 0. -1.
         22    1    1    2    0    0 -0.53767496848E+01 -0.11635663916E+02  0.73680338172E+02  0.74786966412E+02  0.00000000000E+00 0. -1.
</event>
<event>
 6    1  0.3240171E-005  0.2056768E+03  0.7818608E-02  0.1248188E+00
          2   -1    0    0  502    0  0.00000000000E+00  0.00000000000E+00  0.23981004310E+03  0.23981004310E+03  0.00000000000E+00 0. -1.
          1   -1    0    0  501    0 -0.00000000000E+00 -0.00000000000E+00 -0.90803228435E+02  0.90803228435E+02  0.00000000000E+00 0. -1.
          2    1    1    2  501    0 -0.80987890260E+02 -0.46625469558E+02  0.52159048384E+02  0.10702120869E+03  0.00000000000E+00 0. -1.
          1    1    1    2  502    0 -0.36527521075E+01  0.40633736165E+02  0.45171776407E+02  0.60868156671E+02  0.00000000000E+00 0. -1.
         22    1    1    2    0    0 -0.21511826283E+02  0.36603064481E-01  0.52140161740E+02  0.56403514749E+02  0.00000000000E+00 0. -1.
         22    1    1    2    0    0  0.10615246865E+03  0.59551303288E+01 -0.46417186723E+00  0.10632039143E+03  0.00000000000E+00 0. -1.
</event>
<event>
 6    1  0.3240171E-005  0.1679639E+03  0.7818608E-02  0.1264225E+00
          2   -1    0    0  502    0  0.00000000000E+00  0.00000000000E+00  0.89392012584E+03  0.89392012584E+03  0.00000000000E+00 0. -1.
          1   -1    0    0  501    0 -0.00000000000E+00 -0.00000000000E+00 -0.48641184551E+02  0.48641184551E+02  0.00000000000E+00 0. -1.
          2    1    1    2  501    0  0.57524195612E+02 -0.52241147995E+01  0.18733012107E+03  0.19603290213E+03  0.00000000000E+00 0. -1.
          1    1    1    2  502    0 -0.15776290445E+03 -0.12090709764E+02  0.16553841526E+03  0.22899407462E+03  0.00000000000E+00 0. -1.
         22    1    1    2    0    0 -0.21020005267E+02 -0.19634537164E+02  0.14240180135E+03  0.14527776396E+03  0.00000000000E+00 0.  1.
         22    1    1    2    0    0  0.12125871411E+03  0.36949361728E+02  0.35000860361E+03  0.37225656970E+03  0.00000000000E+00 0. -1.
</event>
<event>
 6    1  0.3240171E-005  0.2406734E+03  0.7818608E-02  0.1227906E+00
          2   -1    0    0  502    0  0.00000000000E+00  0.00000000000E+00  0.42730843451E+03  0.42730843451E+03  0.00000000000E+00 0.  1.
          1   -1    0    0  501    0 -0.00000000000E+00 -0.00000000000E+00 -0.71883175019E+02  0.71883175019E+02  0.00000000000E+00 0. -1.
          2    1    1    2  501    0  0.76145483142E+02  0.32896609060E+02  0.38507183954E+02  0.91450121415E+02  0.00000000000E+00 0.  1.
          1    1    1    2  502    0  0.27996329069E+02  0.40811526001E+02  0.62634938281E+01  0.49885934399E+02  0.00000000000E+00 0. -1.
         22    1    1    2    0    0  0.14101757839E+02  0.14598621925E+02  0.90943922078E+02  0.93181416061E+02  0.00000000000E+00 0.  1.
         22    1    1    2    0    0 -0.11824357005E+03 -0.88306756986E+02  0.21971065963E+03  0.26467413765E+03  0.00000000000E+00 0.  1.
</event>
<event>
 6    1  0.3240171E-005  0.1506856E+03  0.7818608E-02  0.1237981E+00
          2   -1    0    0  502    0  0.00000000000E+00  0.00000000000E+00  0.89951002666E+03  0.89951002666E+03  0.00000000000E+00 0.  1.
          1   -1    0    0  501    0 -0.00000000000E+00 -0.00000000000E+00 -0.57865506469E+02  0.57865506469E+02  0.00000000000E+00 0.  1.
          2    1    1    2  501    0 -0.34486020671E+02 -0.67597868336E+02  0.32028804072E+03  0.32915526193E+03  0.00000000000E+00 0.  1.
          1    1    1    2  502    0  0.30733330689E+02  0.14571710252E+03  0.92050464169E+02  0.17507512540E+03  0.00000000000E+00 0.  1.
         22    1    1    2    0    0  0.61454943888E+02 -0.27271926635E+02  0.17531382795E+03  0.18776423084E+03  0.00000000000E+00 0.  1.
         22    1    1    2    0    0 -0.57702253906E+02 -0.50847307549E+02  0.25399218734E+03  0.26538091496E+03  0.00000000000E+00 0. -1.
</event>
<event>
 6    1  0.3240171E-005  0.7491292E+02  0.7818608E-02  0.1352790E+00
          2   -1    0    0  502    0  0.00000000000E+00  0.00000000000E+00  0.27663217638E+02  0.27663217638E+02  0.00000000000E+00 0.  1.
          1   -1    0    0  501    0 -0.00000000000E+00 -0.00000000000E+00 -0.11720448123E+04  0.11720448123E+04  0.00000000000E+00 0.  1.
          2    1    1    2  501    0 -0.12158070123E+02 -0.26554588113E+02 -0.42094540140E+02  0.51233925563E+02  0.00000000000E+00 0.  1.
          1    1    1    2  502    0  0.13131939106E+02  0.20944784501E+02 -0.95961753608E+03  0.95993590795E+03  0.00000000000E+00 0.  1.
         22    1    1    2    0    0  0.82278133994E+01  0.48596625677E+02 -0.13525624655E+03  0.14395687261E+03  0.00000000000E+00 0. -1.
         22    1    1    2    0    0 -0.92016823829E+01 -0.42986822064E+02 -0.74132718496E+01  0.44581323773E+02  0.00000000000E+00 0.  1.
</event>
<event>
 6    1  0.3240171E-005  0.1414110E+03  0.7818608E-02  0.1279754E+00
          2   -1    0    0  502    0  0.00000000000E+00  0.00000000000E+00  0.17942659797E+03  0.17942659797E+03  0.00000000000E+00 0. -1.
          1   -1    0    0  501    0 -0.00000000000E+00 -0.00000000000E+00 -0.37178420518E+03  0.37178420518E+03  0.00000000000E+00 0. -1.
          2    1    1    2  501    0  0.42814360902E+02  0.90013924042E+01 -0.20545544911E-01  0.43750371276E+02  0.00000000000E+00 0. -1.
          1    1    1    2  502    0 -0.12206365899E+03 -0.59548066360E+02 -0.29303724722E+03  0.32298039772E+03  0.00000000000E+00 0. -1.
         22    1    1    2    0    0  0.51626115794E+02  0.73208997461E+02  0.13951405743E+02  0.90661209254E+02  0.00000000000E+00 0. -1.
         22    1    1    2    0    0  0.27623182297E+02 -0.22662323505E+02  0.86748779810E+02  0.93818824899E+02  0.00000000000E+00 0. -1.
</event>
<event>
 6    1  0.3240171E-005  0.7869838E+02  0.7818608E-02  0.1336398E+00
          2   -1    0    0  502    0  0.00000000000E+00  0.00000000000E+00  0.52168444514E+02  0.52168444514E+02  0.00000000000E+00 0. -1.
          1   -1    0    0  501    0 -0.00000000000E+00 -0.00000000000E+00 -0.16000266612E+03  0.16000266612E+03  0.00000000000E+00 0. -1.
          2    1    1    2  501    0  0.31419024966E+02  0.39717665665E+01 -0.12438090130E+02  0.34024052456E+02  0.00000000000E+00 0. -1.
          1    1    1    2  502    0 -0.27140538293E+02 -0.28178186731E+01 -0.19689333759E+02  0.33648458877E+02  0.00000000000E+00 0. -1.
         22    1    1    2    0    0 -0.56788767391E+02  0.27265710733E+02 -0.44500658465E+02  0.77127762106E+02  0.00000000000E+00 0. -1.
         22    1    1    2    0    0  0.52510280718E+02 -0.28419658626E+02 -0.31206139254E+02  0.67370837197E+02  0.00000000000E+00 0. -1.
</event>
<event>
 6    1  0.3240171E-005  0.1131247E+03  0.7818608E-02  0.1283953E+00
          2   -1    0    0  502    0  0.00000000000E+00  0.00000000000E+00  0.53100492455E+03  0.53100492455E+03  0.00000000000E+00 0.  1.
          1   -1    0    0  501    0 -0.00000000000E+00 -0.00000000000E+00 -0.42854804758E+03  0.42854804758E+03  0.00000000000E+00 0. -1.
          2    1    1    2  501    0 -0.22619349310E+02  0.67698069516E+01 -0.21559831059E+01  0.23708933179E+02  0.00000000000E+00 0.  1.
          1    1    1    2  502    0  0.24258463912E+02 -0.13941264137E+02 -0.40737867622E+03  0.40833836185E+03  0.00000000000E+00 0. -1.
         22    1    1    2    0    0 -0.58851882351E+02  0.26491411893E+02  0.21687889069E+03  0.22627813016E+03  0.00000000000E+00 0.  1.
         22    1    1    2    0    0  0.57212767749E+02 -0.19319954708E+02  0.29511264560E+03  0.30122754695E+03  0.00000000000E+00 0.  1.
</event>
<event>
 6    1  0.4904200E-005  0.3590116E+03  0.7818608E-02  0.1151233E+00
          2   -1    0    0  502    0  0.00000000000E+00  0.00000000000E+00  0.12076557857E+04  0.12076557857E+04  0.00000000000E+00 0.  1.
          1   -1    0    0  501    0 -0.00000000000E+00 -0.00000000000E+00 -0.12379468510E+04  0.12379468510E+04  0.00000000000E+00 0.  1.
          2    1    1    2  501    0 -0.62426113426E+02 -0.10030878478E+03  0.15120926615E+03  0.19189349679E+03  0.00000000000E+00 0.  1.
          1    1    1    2  502    0  0.22878928024E+03  0.16743681940E+03 -0.11894027014E+04  0.12227258112E+04  0.00000000000E+00 0.  1.
         22    1    1    2    0    0 -0.13797956988E+03 -0.84686581601E+02  0.95359294961E+03  0.96723817768E+03  0.00000000000E+00 0.  1.
         22    1    1    2    0    0 -0.28383596935E+02  0.17558546979E+02  0.54309420309E+02  0.63745151042E+02  0.00000000000E+00 0.  1.
</event>
<event>
 6    1  0.3240171E-005  0.5347923E+02  0.7818608E-02  0.1435504E+00
          2   -1    0    0  502    0  0.00000000000E+00  0.00000000000E+00  0.10739236208E+03  0.10739236208E+03  0.00000000000E+00 0. -1.
          1   -1    0    0  501    0 -0.00000000000E+00 -0.00000000000E+00 -0.14796837662E+03  0.14796837662E+03  0.00000000000E+00 0. -1.
          2    1    1    2  501    0  0.69119334118E+01  0.37389898398E+02 -0.15248052549E+02  0.40966845525E+02  0.00000000000E+00 0. -1.
          1    1    1    2  502    0 -0.35014052536E+02  0.37914511407E+01  0.47107642420E+02  0.58817420473E+02  0.00000000000E+00 0. -1.
         22    1    1    2    0    0 -0.11466406306E+02 -0.13747054497E+02  0.34184805100E+02  0.38588351619E+02  0.00000000000E+00 0. -1.
         22    1    1    2    0    0  0.39568525431E+02 -0.27434295042E+02 -0.10662040951E+03  0.11698812108E+03  0.00000000000E+00 0. -1.
</event>
<event>
 6    1  0.3240171E-005  0.1125580E+03  0.7818608E-02  0.1324232E+00
          2   -1    0    0  502    0  0.00000000000E+00  0.00000000000E+00  0.38333457778E+03  0.38333457778E+03  0.00000000000E+00 0. -1.
          1   -1    0    0  501    0 -0.00000000000E+00 -0.00000000000E+00 -0.60244225754E+02  0.60244225754E+02  0.00000000000E+00 0. -1.
          2    1    1    2  501    0  0.26853468951E+02  0.86462519134E+01 -0.13751630373E+01  0.28244601966E+02  0.00000000000E+00 0. -1.
          1    1    1    2  502    0  0.44080524646E+02 -0.67056875045E+01  0.24303403256E+03  0.24709026667E+03  0.00000000000E+00 0. -1.
         22    1    1    2    0    0 -0.82616660604E+02  0.27074144544E+02  0.66607192860E+01  0.87194535916E+02  0.00000000000E+00 0. -1.
         22    1    1    2    0    0  0.11682667007E+02 -0.29014708953E+02  0.74770763217E+02  0.81049398987E+02  0.00000000000E+00 0.  1.
</event>
<event>
 6    1  0.3240171E-005  0.9108181E+02  0.7818608E-02  0.1301813E+00
          2   -1    0    0  502    0  0.00000000000E+00  0.00000000000E+00  0.27575673265E+03  0.27575673265E+03  0.00000000000E+00 0. -1.
          1   -1    0    0  501    0 -0.00000000000E+00 -0.00000000000E+00 -0.20822474317E+03  0.20822474317E+03  0.00000000000E+00 0.  1.
          2    1    1    2  501    0 -0.38713522505E+02 -0.31058079110E+02  0.11324319807E+03  0.12364207622E+03  0.00000000000E+00 0. -1.
          1    1    1    2  502    0 -0.37441741073E+00  0.20002010525E+02 -0.17574030667E+03  0.17687531202E+03  0.00000000000E+00 0.  1.
         22    1    1    2    0    0  0.64777840808E+02  0.48014591798E+02  0.61212935862E+02  0.10123533574E+03  0.00000000000E+00 0.  1.
         22    1    1    2    0    0 -0.25689900892E+02 -0.36958523212E+02  0.68816162230E+02  0.82228751845E+02  0.00000000000E+00 0.  1.
</event>
<event>
 6    1  0.3240171E-005  0.1231745E+03  0.7818608E-02  0.1360886E+00
          2   -1    0    0  502    0  0.00000000000E+00  0.00000000000E+00  0.12742339629E+03  0.12742339629E+03  0.00000000000E+00 0. -1.
          1   -1    0    0  501    0 -0.00000000000E+00 -0.00000000000E+00 -0.11984294327E+04  0.11984294327E+04  0.00000000000E+00 0. -1.
          2    1    1    2  501    0  0.37639987972E+02 -0.12603627191E+02  0.46895638376E+02  0.61439572032E+02  0.00000000000E+00 0. -1.
          1    1    1    2  502    0 -0.33309220927E+02 -0.11072794428E+02 -0.11354625461E+04  0.11360049756E+04  0.00000000000E+00 0. -1.
         22    1    1    2    0    0  0.11101196165E+02 -0.61231927010E+01  0.67257696843E+02  0.68442149511E+02  0.00000000000E+00 0. -1.
         22    1    1    2    0    0 -0.15431963210E+02  0.29799614321E+02 -0.49696825530E+02  0.59966131857E+02  0.00000000000E+00 0.  1.
</event>
<event>
 6    1  0.3240171E-005  0.1328664E+03  0.7818608E-02  0.1225097E+00
          2   -1    0    0  502    0  0.00000000000E+00  0.00000000000E+00  0.16003881686E+03  0.16003881686E+03  0.00000000000E+00 0. -1.
          1   -1    0    0  501    0 -0.00000000000E+00 -0.00000000000E+00 -0.18418263694E+04  0.18418263694E+04  0.00000000000E+00 0. -1.
          2    1    1    2  501    0  0.52438566228E+02  0.40422979508E+02 -0.74226925589E+02  0.99465858377E+02  0.00000000000E+00 0. -1.
          1    1    1    2  502    0 -0.11509805491E+02  0.77312940211E+02 -0.17000010484E+04  0.17017970886E+04  0.00000000000E+00 0. -1.
         22    1    1    2    0    0 -0.46173297991E+02 -0.13933175278E+03  0.99448319093E+02  0.17729996884E+03  0.00000000000E+00 0. -1.
         22    1    1    2    0    0  0.52445372539E+01  0.21595833060E+02 -0.70078976528E+01  0.23302270406E+02  0.00000000000E+00 0.  1.
</event>
<event>
 6    1  0.3240171E-005  0.1742236E+03  0.7818608E-02  0.1231167E+00
          2   -1    0    0  502    0  0.00000000000E+00  0.00000000000E+00  0.46611951008E+03  0.46611951008E+03  0.00000000000E+00 0. -1.
          1   -1    0    0  501    0 -0.00000000000E+00 -0.00000000000E+00 -0.17578773224E+03  0.17578773224E+03  0.00000000000E+00 0. -1.
          2    1    1    2  501    0 -0.43970889848E+01 -0.10961202143E+03  0.83484853046E+02  0.13785445340E+03  0.00000000000E+00 0. -1.
          1    1    1    2  502    0  0.10418668219E+03  0.10500188364E+03 -0.84974214219E+02  0.17058979276E+03  0.00000000000E+00 0. -1.
         22    1    1    2    0    0 -0.35291891102E+02  0.35444579646E+02  0.24002663907E+03  0.24518283640E+03  0.00000000000E+00 0. -1.
         22    1    1    2    0    0 -0.64497702104E+02 -0.30834441850E+02  0.51794499954E+02  0.88280159755E+02  0.00000000000E+00 0. -1.
</event>
<event>
 6    1  0.3240171E-005  0.1297811E+03  0.7818608E-02  0.1335744E+00
          2   -1    0    0  502    0  0.00000000000E+00  0.00000000000E+00  0.39517042564E+02  0.39517042564E+02  0.00000000000E+00 0.  1.
          1   -1    0    0  501    0 -0.00000000000E+00 -0.00000000000E+00 -0.20290109179E+04  0.20290109179E+04  0.00000000000E+00 0. -1.
          2    1    1    2  501    0  0.30630907200E+02  0.17933352508E+02 -0.44459139657E+02  0.56890005336E+02  0.00000000000E+00 0.  1.
          1    1    1    2  502    0 -0.64036442970E+02 -0.10230156129E+03 -0.17841187777E+04  0.17881963227E+04  0.00000000000E+00 0. -1.
         22    1    1    2    0    0  0.17015974487E+02  0.81356991034E+02 -0.17990510352E+03  0.19817757101E+03  0.00000000000E+00 0.  1.
         22    1    1    2    0    0  0.16389561283E+02  0.30112177501E+01  0.18989145555E+02  0.25264061437E+02  0.00000000000E+00 0. -1.
</event>
<event>
 6    1  0.3240171E-005  0.3275576E+02  0.7818608E-02  0.1583505E+00
          2   -1    0    0  502    0  0.00000000000E+00  0.00000000000E+00  0.16527401955E+03  0.16527401955E+03  0.00000000000E+00 0.  1.
          1   -1    0    0  501    0 -0.00000000000E+00 -0.00000000000E+00 -0.45953884538E+03  0.45953884538E+03  0.00000000000E+00 0. -1.
          2    1    1    2  501    0  0.34160773932E+02 -0.11540966281E+02 -0.39554132973E+02  0.53522722405E+02  0.00000000000E+00 0.  1.
          1    1    1    2  502    0 -0.13197914440E+02  0.16233554683E+02 -0.38770416419E+03  0.38826824770E+03  0.00000000000E+00 0. -1.
         22    1    1    2    0    0  0.56575645861E+01 -0.10534308968E+02 -0.22327591401E+02  0.25327870819E+02  0.00000000000E+00 0.  1.
         22    1    1    2    0    0 -0.26620424078E+02  0.58417205655E+01  0.15532106273E+03  0.15769402400E+03  0.00000000000E+00 0.  1.
</event>
<event>
 6    1  0.3240171E-005  0.2078465E+03  0.7818608E-02  0.1230915E+00
          2   -1    0    0  502    0  0.00000000000E+00  0.00000000000E+00  0.31099638333E+03  0.31099638333E+03  0.00000000000E+00 0.  1.
          1   -1    0    0  501    0 -0.00000000000E+00 -0.00000000000E+00 -0.50947925685E+03  0.50947925685E+03  0.00000000000E+00 0.  1.
          2    1    1    2  501    0 -0.16302779591E+02  0.14963438294E+02 -0.14411311107E+01  0.22175706682E+02  0.00000000000E+00 0.  1.
          1    1    1    2  502    0  0.13571357072E+03 -0.14281625825E+03 -0.43563728033E+03  0.47811556857E+03  0.00000000000E+00 0.  1.
         22    1    1    2    0    0 -0.14419756758E+03  0.11164922974E+03  0.19063785135E+03  0.26382054386E+03  0.00000000000E+00 0.  1.
         22    1    1    2    0    0  0.24786776448E+02  0.16203590221E+02  0.47957686575E+02  0.56363821059E+02  0.00000000000E+00 0.  1.
</event>
<event>
 6    1  0.3240171E-005  0.2325574E+03  0.7818608E-02  0.1171042E+00
          2   -1    0    0  502    0  0.00000000000E+00  0.00000000000E+00  0.10495255596E+03  0.10495255596E+03  0.00000000000E+00 0.  1.
          1   -1    0    0  501    0 -0.00000000000E+00 -0.00000000000E+00 -0.78978624028E+03  0.78978624028E+03  0.00000000000E+00 0.  1.
          2    1    1    2  501    0  0.48105746552E+01 -0.20451517396E+03 -0.45467414888E+03  0.49857615232E+03  0.00000000000E+00 0.  1.
          1    1    1    2  502    0 -0.30992018270E+02  0.17421878869E+03 -0.69545159311E+02  0.19012948407E+03  0.00000000000E+00 0.  1.
         22    1    1    2    0    0  0.78048797043E+01  0.77104223474E+02 -0.83032380953E+02  0.11357972403E+03  0.00000000000E+00 0. -1.
         22    1    1    2    0    0  0.18376563910E+02 -0.46807838200E+02 -0.77581995175E+02  0.92453435812E+02  0.00000000000E+00 0. -1.
</event>
<event>
 6    1  0.3240171E-005  0.2084150E+03  0.7818608E-02  0.1223833E+00
          2   -1    0    0  502    0  0.00000000000E+00  0.00000000000E+00  0.23756936264E+03  0.23756936264E+03  0.00000000000E+00 0. -1.
          1   -1    0    0  501    0 -0.00000000000E+00 -0.00000000000E+00 -0.65394878995E+03  0.65394878995E+03  0.00000000000E+00 0.  1.
          2    1    1    2  501    0  0.56891111908E+02  0.24071640821E+02 -0.30835498246E+02  0.69042526446E+02  0.00000000000E+00 0. -1.
          1    1    1    2  502    0  0.33061850412E+02 -0.47479007738E+02 -0.57554996475E+03  0.57845060641E+03  0.00000000000E+00 0.  1.
         22    1    1    2    0    0  0.12035045547E+02 -0.31818285274E+02  0.65892336183E+02  0.74155549804E+02  0.00000000000E+00 0. -1.
         22    1    1    2    0    0 -0.10198800787E+03  0.55225652190E+02  0.12411369951E+03  0.16986946993E+03  0.00000000000E+00 0. -1.
</event>
<event>
 6    1  0.3240171E-005  0.8319313E+02  0.7818608E-02  0.1382240E+00
          2   -1    0    0  502    0  0.00000000000E+00  0.00000000000E+00  0.20826141242E+03  0.20826141242E+03  0.00000000000E+00 0.  1.
          1   -1    0    0  501    0 -0.00000000000E+00 -0.00000000000E+00 -0.71439451835E+02  0.71439451835E+02  0.00000000000E+00 0.  1.
          2    1    1    2  501    0  0.44258180879E+02 -0.10994013346E+02  0.29970621713E+02  0.54570074858E+02  0.00000000000E+00 0.  1.
          1    1    1    2  502    0 -0.46405490924E+02  0.22375615349E+02 -0.75865901004E+01  0.52073929173E+02  0.00000000000E+00 0.  1.
         22    1    1    2    0    0 -0.78140967057E+01 -0.27841818153E+02  0.13893223188E+03  0.14190980234E+03  0.00000000000E+00 0. -1.
         22    1    1    2    0    0  0.99614067507E+01  0.16460216150E+02 -0.24494302904E+02  0.31147057885E+02  0.00000000000E+00 0.  1.
</event>
<event>
 6    1  0.3240171E-005  0.1488428E+03  0.7818608E-02  0.1260825E+00
          2   -1    0    0  502    0  0.00000000000E+00  0.00000000000E+00  0.31266181533E+03  0.31266181533E+03  0.00000000000E+00 0.  1.
          1   -1    0    0  501    0 -0.00000000000E+00 -0.00000000000E+00 -0.18268353987E+03  0.18268353987E+03  0.00000000000E+00 0.  1.
          2    1    1    2  501    0 -0.32971018329E+02 -0.12324277596E+03 -0.40230642925E+02  0.13376985650E+03  0.00000000000E+00 0.  1.
          1    1    1    2  502    0  0.65817098432E+02  0.12633980093E+03 -0.44383933281E+01  0.14252485776E+03  0.00000000000E+00 0.  1.
         22    1    1    2    0    0 -0.37019005351E+02  0.24111198079E+02  0.18457514668E+03  0.18978867564E+03  0.00000000000E+00 0.  1.
         22    1    1    2    0    0  0.41729252472E+01 -0.27208223045E+02 -0.99278349537E+01  0.29261965300E+02  0.00000000000E+00 0. -1.
</event>
<event>
 6    1  0.3240171E-005  0.5581117E+02  0.7818608E-02  0.1433952E+00
          2   -1    0    0  502    0  0.00000000000E+00  0.00000000000E+00  0.87057804881E+02  0.87057804881E+02  0.00000000000E+00 0. -1.
          1   -1    0    0  501    0 -0.00000000000E+00 -0.00000000000E+00 -0.15424663900E+03  0.15424663900E+03  0.00000000000E+00 0. -1.
          2    1    1    2  501    0  0.21503079956E+02  0.14838450335E+02 -0.67268731554E+02  0.72164009734E+02  0.00000000000E+00 0. -1.
          1    1    1    2  502    0 -0.31794825998E+02  0.12213054368E+01  0.30024067629E+02  0.43747539179E+02  0.00000000000E+00 0. -1.
         22    1    1    2    0    0  0.24391283968E+02 -0.36538773381E+02  0.34795907657E+02  0.56042589907E+02  0.00000000000E+00 0.  1.
         22    1    1    2    0    0 -0.14099537925E+02  0.20479017609E+02 -0.64740077848E+02  0.69350305058E+02  0.00000000000E+00 0. -1.
</event>
<event>
 6    1  0.3240171E-005  0.1752367E+03  0.7818608E-02  0.1257264E+00
          2   -1    0    0  502    0  0.00000000000E+00  0.00000000000E+00  0.94630548686E+03  0.94630548686E+03  0.00000000000E+00 0. -1.
          1   -1    0    0  501    0 -0.00000000000E+00 -0.00000000000E+00 -0.16628200344E+03  0.16628200344E+03  0.00000000000E+00 0. -1.
          2    1    1    2  501    0 -0.88398404498E+02  0.53147825759E+02 -0.39331299645E+02  0.11038985656E+03  0.00000000000E+00 0. -1.
          1    1    1    2  502    0  0.93641370745E+02 -0.13155853125E+03  0.83689726681E+03  0.85233408278E+03  0.00000000000E+00 0. -1.
         22    1    1    2    0    0  0.19216763594E+02  0.62761351105E+02 -0.66184843294E+02  0.93213221580E+02  0.00000000000E+00 0. -1.
         22    1    1    2    0    0 -0.24459729840E+02  0.15649354382E+02  0.48642359549E+02  0.56650329381E+02  0.00000000000E+00 0. -1.
</event>
<event>
 6    1  0.3240171E-005  0.1087810E+03  0.7818608E-02  0.1294243E+00
          2   -1    0    0  502    0  0.00000000000E+00  0.00000000000E+00  0.27433008441E+03  0.27433008441E+03  0.00000000000E+00 0. -1.
          1   -1    0    0  501    0 -0.00000000000E+00 -0.00000000000E+00 -0.78075763717E+02  0.78075763717E+02  0.00000000000E+00 0. -1.
          2    1    1    2  501    0 -0.58188903871E+02 -0.19813742238E+02  0.16119776319E+02  0.63548250202E+02  0.00000000000E+00 0. -1.
          1    1    1    2  502    0  0.31295974265E+01  0.48100743324E+02  0.13936447663E+03  0.14746502376E+03  0.00000000000E+00 0. -1.
         22    1    1    2    0    0  0.16385762582E+02 -0.65731693303E+02 -0.86790986724E+01  0.68296965332E+02  0.00000000000E+00 0. -1.
         22    1    1    2    0    0  0.38673543863E+02  0.37444692217E+02  0.49449166416E+02  0.73095608824E+02  0.00000000000E+00 0.  1.
</event>
<event>
 6    1  0.3240171E-005  0.4019682E+03  0.7818608E-02  0.1098737E+00
          2   -1    0    0  502    0  0.00000000000E+00  0.00000000000E+00  0.35672391761E+03  0.35672391761E+03  0.00000000000E+00 0. -1.
          1   -1    0    0  501    0 -0.00000000000E+00 -0.00000000000E+00 -0.11064737357E+04  0.11064737357E+04  0.00000000000E+00 0. -1.
          2    1    1    2  501    0  0.11463992817E+02 -0.18218754048E+03 -0.74240482592E+02  0.19706692339E+03  0.00000000000E+00 0. -1.
          1    1    1    2  502    0 -0.11919683372E+03  0.13748298335E+03 -0.93564088489E+03  0.95317014292E+03  0.00000000000E+00 0. -1.
         22    1    1    2    0    0  0.21947578630E+02  0.61448895934E+02  0.19001969029E+03  0.20091079045E+03  0.00000000000E+00 0. -1.
         22    1    1    2    0    0  0.85785262276E+02 -0.16744338808E+02  0.70111859143E+02  0.11204979651E+03  0.00000000000E+00 0.  1.
</event>
<event>
 6    1  0.3240171E-005  0.1608720E+03  0.7818608E-02  0.1274662E+00
          2   -1    0    0  502    0  0.00000000000E+00  0.00000000000E+00  0.32077067046E+03  0.32077067046E+03  0.00000000000E+00 0. -1.
          1   -1    0    0  501    0 -0.00000000000E+00 -0.00000000000E+00 -0.29712340902E+03  0.29712340902E+03  0.00000000000E+00 0.  1.
          2    1    1    2  501    0 -0.79850588415E+02  0.53114126054E+02  0.13613458293E+03  0.16652282584E+03  0.00000000000E+00 0. -1.
          1    1    1    2  502    0  0.52720704293E+02 -0.86328417351E+01 -0.25271833793E+03  0.25830322673E+03  0.00000000000E+00 0.  1.
         22    1    1    2    0    0  0.12211271884E+02 -0.66683833552E+02  0.14998616837E+03  0.16459556349E+03  0.00000000000E+00 0. -1.
         22    1    1    2    0    0  0.14918612238E+02  0.22202549232E+02 -0.97551519383E+01  0.28472463414E+02  0.00000000000E+00 0. -1.
</event>
<event>
 6    1  0.3240171E-005  0.2009394E+03  0.7818608E-02  0.1241499E+00
          2   -1    0    0  502    0  0.00000000000E+00  0.00000000000E+00  0.66935786762E+03  0.66935786762E+03  0.00000000000E+00 0. -1.
          1   -1    0    0  501    0 -0.00000000000E+00 -0.00000000000E+00 -0.19574340277E+03  0.19574340277E+03  0.00000000000E+00 0.  1.
          2    1    1    2  501    0 -0.39754390857E+02  0.13056384768E+02  0.13220784629E+03  0.13867153780E+03  0.00000000000E+00 0. -1.
          1    1    1    2  502    0  0.17903335801E+03 -0.83153967381E+02 -0.11562725288E+03  0.22877322216E+03  0.00000000000E+00 0.  1.
         22    1    1    2    0    0 -0.15074042136E+03  0.46317380414E+02  0.30507848776E+03  0.34342518552E+03  0.00000000000E+00 0. -1.
         22    1    1    2    0    0  0.11461454212E+02  0.23780202199E+02  0.15195538369E+03  0.15423132490E+03  0.00000000000E+00 0. -1.
</event>
<event>
 6    1  0.3240171E-005  0.4529285E+02  0.7818608E-02  0.1510394E+00
          2   -1    0    0  502    0  0.00000000000E+00  0.00000000000E+00  0.45589703220E+02  0.45589703220E+02  0.00000000000E+00 0. -1.
          1   -1    0    0  501    0 -0.00000000000E+00 -0.00000000000E+00 -0.10627217761E+04  0.10627217761E+04  0.00000000000E+00 0.  1.
          2    1    1    2  501    0  0.95598241325E+01  0.21915525334E+02 -0.68410637059E+02  0.72468584579E+02  0.00000000000E+00 0. -1.
          1    1    1    2  502    0 -0.27697128741E+02 -0.25753845908E+02 -0.90156523989E+03  0.90235817351E+03  0.00000000000E+00 0.  1.
         22    1    1    2    0    0  0.36477958922E+02  0.23308045058E+02 -0.80100343441E+02  0.91049280453E+02  0.00000000000E+00 0. -1.
         22    1    1    2    0    0 -0.18340654313E+02 -0.19469724484E+02  0.32944147556E+02  0.42435440734E+02  0.00000000000E+00 0. -1.
</event>
<event>
 6    1  0.3240171E-005  0.5571069E+02  0.7818608E-02  0.1421738E+00
          2   -1    0    0  502    0  0.00000000000E+00  0.00000000000E+00  0.36719857087E+02  0.36719857087E+02  0.00000000000E+00 0.  1.
          1   -1    0    0  501    0 -0.00000000000E+00 -0.00000000000E+00 -0.33687231797E+03  0.33687231797E+03  0.00000000000E+00 0.  1.
          2    1    1    2  501    0  0.30165805344E+02  0.15609413856E+02 -0.36356546487E+01  0.34159151010E+02  0.00000000000E+00 0.  1.
          1    1    1    2  502    0 -0.21575350068E+02  0.20471954499E+02 -0.10492096055E+03  0.10905505313E+03  0.00000000000E+00 0.  1.
         22    1    1    2    0    0  0.21041279491E+02 -0.11363212436E+01  0.10225063553E+02  0.23421754701E+02  0.00000000000E+00 0.  1.
         22    1    1    2    0    0 -0.29631734767E+02 -0.34945047112E+02 -0.20182090924E+03  0.20695621621E+03  0.00000000000E+00 0.  1.
</event>
<event>
 6    1  0.3240171E-005  0.1428430E+03  0.7818608E-02  0.1251767E+00
          2   -1    0    0  502    0  0.00000000000E+00  0.00000000000E+00  0.15192507862E+03  0.15192507862E+03  0.00000000000E+00 0. -1.
          1   -1    0    0  501    0 -0.00000000000E+00 -0.00000000000E+00 -0.27853156461E+03  0.27853156461E+03  0.00000000000E+00 0. -1.
          2    1    1    2  501    0  0.31837433969E+02 -0.17700520095E+02 -0.49082868516E+02  0.61123306481E+02  0.00000000000E+00 0. -1.
          1    1    1    2  502    0 -0.10914505617E+03  0.76790203402E+02 -0.14681476113E+03  0.19840350983E+03  0.00000000000E+00 0. -1.
         22    1    1    2    0    0  0.81353866591E+02  0.55968127781E+00  0.26474973445E+01  0.81398858067E+02  0.00000000000E+00 0. -1.
         22    1    1    2    0    0 -0.40462443915E+01 -0.59649364585E+02  0.66643646322E+02  0.89530968855E+02  0.00000000000E+00 0. -1.
</event>
<event>
 6    1  0.3240171E-005  0.8266728E+02  0.7818608E-02  0.1325349E+00
          2   -1    0    0  502    0  0.00000000000E+00  0.00000000000E+00  0.47884705036E+02  0.47884705036E+02  0.00000000000E+00 0. -1.
          1   -1    0    0  501    0 -0.00000000000E+00 -0.00000000000E+00 -0.44487458807E+03  0.44487458807E+03  0.00000000000E+00 0. -1.
          2    1    1    2  501    0 -0.30486735526E+02  0.33406851215E+01 -0.22049239100E+03  0.22261512912E+03  0.00000000000E+00 0. -1.
          1    1    1    2  502    0 -0.32902179479E+02 -0.42841177726E+02 -0.30270911439E+02  0.61921304918E+02  0.00000000000E+00 0. -1.
         22    1    1    2    0    0  0.81625451374E+02  0.16662261192E+02 -0.30266288743E+02  0.88636298966E+02  0.00000000000E+00 0. -1.
         22    1    1    2    0    0 -0.18236536369E+02  0.22838231413E+02 -0.11596029185E+03  0.11958656011E+03  0.00000000000E+00 0. -1.
</event>
<event>
 6    1  0.3240171E-005  0.1849293E+03  0.7818608E-02  0.1210664E+00
          2   -1    0    0  502    0  0.00000000000E+00  0.00000000000E+00  0.55067324961E+03  0.55067324961E+03  0.00000000000E+00 0.  1.
          1   -1    0    0  501    0 -0.00000000000E+00 -0.00000000000E+00 -0.93606495673E+02  0.93606495673E+02  0.00000000000E+00 0.  1.
          2    1    1    2  501    0  0.20075887189E+01 -0.32780125576E+02  0.99960961045E+01  0.34329127320E+02  0.00000000000E+00 0.  1.
          1    1    1    2  502    0 -0.11919463696E+03  0.13087816091E+03  0.81565040129E+02  0.19490846635E+03  0.00000000000E+00 0.  1.
         22    1    1    2    0    0  0.60838745651E+02  0.20771228609E+02  0.13807046209E+03  0.15230314971E+03  0.00000000000E+00 0.  1.
         22    1    1    2    0    0  0.56348302588E+02 -0.11886926394E+03  0.22743515562E+03  0.26273900191E+03  0.00000000000E+00 0.  1.
</event>
<event>
 6    1  0.3240171E-005  0.8277707E+02  0.7818608E-02  0.1330571E+00
          2   -1    0    0  502    0  0.00000000000E+00  0.00000000000E+00  0.51534553996E+03  0.51534553996E+03  0.00000000000E+00 0.  1.
          1   -1    0    0  501    0 -0.00000000000E+00 -0.00000000000E+00 -0.23281397882E+02  0.23281397882E+02  0.00000000000E+00 0.  1.
          2    1    1    2  501    0 -0.31022011040E+01  0.31702820101E+02  0.10284844312E+03  0.10766844805E+03  0.00000000000E+00 0.  1.
          1    1    1    2  502    0  0.37744518710E+02 -0.40325721143E+02  0.11871216051E+03  0.13093276722E+03  0.00000000000E+00 0.  1.
         22    1    1    2    0    0 -0.76035410220E+02 -0.20993442415E+02  0.16558800092E+03  0.18341617781E+03  0.00000000000E+00 0.  1.
         22    1    1    2    0    0  0.41393092615E+02  0.29616343457E+02  0.10491553753E+03  0.11660954477E+03  0.00000000000E+00 0.  1.
</event>
<event>
 6    1  0.3240171E-005  0.4868812E+03  0.7818608E-02  0.1142313E+00
          2   -1    0    0  502    0  0.00000000000E+00  0.00000000000E+00  0.44614390871E+03  0.44614390871E+03  0.00000000000E+00 0. -1.
          1   -1    0    0  501    0 -0.00000000000E+00 -0.00000000000E+00 -0.51826881453E+03  0.51826881453E+03  0.00000000000E+00 0. -1.
          2    1    1    2  501    0 -0.13638295930E+02  0.20008105278E+03 -0.25730728278E+03  0.32622916573E+03  0.00000000000E+00 0. -1.
          1    1    1    2  502    0 -0.15295452779E+03 -0.33005886810E+03  0.12241979245E+03  0.38382359173E+03  0.00000000000E+00 0. -1.
         22    1    1    2    0    0  0.15736888756E+03  0.14371954210E+03  0.26834439307E+02  0.21480307420E+03  0.00000000000E+00 0. -1.
         22    1    1    2    0    0  0.92239361532E+01 -0.13741726780E+02  0.35928145204E+02  0.39556891572E+02  0.00000000000E+00 0.  1.
</event>
<event>
 6    1  0.3240171E-005  0.6147312E+02  0.7818608E-02  0.1420076E+00
          2   -1    0    0  502    0  0.00000000000E+00  0.00000000000E+00  0.21231658129E+03  0.21231658129E+03  0.00000000000E+00 0.  1.
          1   -1    0    0  501    0 -0.00000000000E+00 -0.00000000000E+00 -0.11779639438E+03  0.11779639438E+03  0.00000000000E+00 0.  1.
          2    1    1    2  501    0  0.21442626434E+02  0.70221257725E+00  0.73772213458E+01  0.22687060755E+02  0.00000000000E+00 0.  1.
          1    1    1    2  502    0  0.11928277300E+02 -0.38893780561E+02 -0.80309231718E+02  0.90025455649E+02  0.00000000000E+00 0.  1.
         22    1    1    2    0    0 -0.24942195581E+02 -0.30083254184E+00 -0.16085315677E+02  0.29680650280E+02  0.00000000000E+00 0.  1.
         22    1    1    2    0    0 -0.84287081534E+01  0.38492400526E+02  0.18353751296E+03  0.18771980898E+03  0.00000000000E+00 0.  1.
</event>
<event>
 6    1  0.3240171E-005  0.1119072E+03  0.7818608E-02  0.1312954E+00
          2   -1    0    0  502    0  0.00000000000E+00  0.00000000000E+00  0.22062393997E+02  0.22062393997E+02  0.00000000000E+00 0. -1.
          1   -1    0    0  501    0 -0.00000000000E+00 -0.00000000000E+00 -0.14293798370E+04  0.14293798370E+04  0.00000000000E+00 0.  1.
          2    1    1    2  501    0 -0.34375845198E+02  0.51572772508E+02 -0.17905725377E+03  0.18948073708E+03  0.00000000000E+00 0. -1.
          1    1    1    2  502    0  0.59594217956E+02 -0.76097362284E+02 -0.96676068585E+03  0.97158041513E+03  0.00000000000E+00 0.  1.
         22    1    1    2    0    0  0.11942036274E+02 -0.37074180139E+02 -0.16773881894E+03  0.17220167955E+03  0.00000000000E+00 0. -1.
         22    1    1    2    0    0 -0.37160409032E+02  0.61598769915E+02 -0.93760684443E+02  0.11817939923E+03  0.00000000000E+00 0. -1.
</event>
<event>
 6    1  0.3240171E-005  0.1614985E+03  0.7818608E-02  0.1285696E+00
          2   -1    0    0  502    0  0.00000000000E+00  0.00000000000E+00  0.11830806916E+03  0.11830806916E+03  0.00000000000E+00 0. -1.
          1   -1    0    0  501    0 -0.00000000000E+00 -0.00000000000E+00 -0.63259318232E+03  0.63259318232E+03  0.00000000000E+00 0. -1.
          2    1    1    2  501    0 -0.21520072852E+02  0.34799099328E+02 -0.78971673615E+01  0.41670806351E+02  0.00000000000E+00 0. -1.
          1    1    1    2  502    0  0.50958773034E+02  0.73466953610E+02 -0.53424105925E+03  0.54167120951E+03  0.00000000000E+00 0. -1.
         22    1    1    2    0    0 -0.13254686534E+02 -0.12231713605E+03 -0.10649564882E+02  0.12349324564E+03  0.00000000000E+00 0. -1.
         22    1    1    2    0    0 -0.16184013649E+02  0.14051083114E+02  0.38502678326E+02  0.44065989978E+02  0.00000000000E+00 0. -1.
</event>
<event>
 6    1  0.3240171E-005  0.1834211E+03  0.7818608E-02  0.1177883E+00
          2   -1    0    0  502    0  0.00000000000E+00  0.00000000000E+00  0.80579298825E+03  0.80579298825E+03  0.00000000000E+00 0.  1.
          1   -1    0    0  501    0 -0.00000000000E+00 -0.00000000000E+00 -0.10521826339E+03  0.10521826339E+03  0.00000000000E+00 0.  1.
          2    1    1    2  501    0  0.56518742480E+02  0.84316464469E+02 -0.27757754282E+00  0.10150719916E+03  0.00000000000E+00 0.  1.
          1    1    1    2  502    0  0.11296833321E+03 -0.13892166730E+03  0.23905998381E+03  0.29868168643E+03  0.00000000000E+00 0.  1.
         22    1    1    2    0    0 -0.34251624740E+02  0.55804102482E+02  0.67758223508E+02  0.94225519389E+02  0.00000000000E+00 0. -1.
         22    1    1    2    0    0 -0.13523545095E+03 -0.11988996557E+01  0.39403409509E+03  0.41659684666E+03  0.00000000000E+00 0.  1.
</event>
<event>
 6    1  0.3240171E-005  0.1834224E+03  0.7818608E-02  0.1234720E+00
          2   -1    0    0  502    0  0.00000000000E+00  0.00000000000E+00  0.37933252679E+03  0.37933252679E+03  0.00000000000E+00 0.  1.
          1   -1    0    0  501    0 -0.00000000000E+00 -0.00000000000E+00 -0.10678291771E+03  0.10678291771E+03  0.00000000000E+00 0.  1.
          2    1    1    2  501    0  0.75091872192E+02  0.13306983161E+02  0.61771357213E+02  0.98140540258E+02  0.00000000000E+00 0.  1.
          1    1    1    2  502    0 -0.14001641263E+03 -0.85190750570E+02  0.10429518161E+03  0.19426668447E+03  0.00000000000E+00 0.  1.
         22    1    1    2    0    0  0.35455223754E+02 -0.18184182941E+02  0.88766871523E+02  0.97300025080E+02  0.00000000000E+00 0.  1.
         22    1    1    2    0    0  0.29469316683E+02  0.90067950350E+02  0.17716198723E+02  0.96408194689E+02  0.00000000000E+00 0.  1.
</event>
<event>
 6    1  0.3240171E-005  0.1908716E+03  0.7818608E-02  0.1211390E+00
          2   -1    0    0  502    0  0.00000000000E+00  0.00000000000E+00  0.51482197292E+03  0.51482197292E+03  0.00000000000E+00 0.  1.
          1   -1    0    0  501    0 -0.00000000000E+00 -0.00000000000E+00 -0.49299138816E+02  0.49299138816E+02  0.00000000000E+00 0.  1.
          2    1    1    2  501    0  0.23036266891E+02  0.19543059165E+01 -0.17361718568E+02  0.28912249576E+02  0.00000000000E+00 0.  1.
          1    1    1    2  502    0  0.32400813823E+02  0.57513339716E+01 -0.14526875392E+01  0.32939351541E+02  0.00000000000E+00 0.  1.
         22    1    1    2    0    0 -0.11967800596E+02 -0.58247483016E+02  0.15011294075E+03  0.16146173698E+03  0.00000000000E+00 0.  1.
         22    1    1    2    0    0 -0.43469280118E+02  0.50541843128E+02  0.33422429947E+03  0.34080777364E+03  0.00000000000E+00 0. -1.
</event>
<event>
 6    1  0.3240171E-005  0.1474279E+03  0.7818608E-02  0.1237189E+00
          2   -1    0    0  502    0  0.00000000000E+00  0.00000000000E+00  0.70142541428E+03  0.70142541428E+03  0.00000000000E+00 0. -1.
          1   -1    0    0  501    0 -0.00000000000E+00 -0.00000000000E+00 -0.81258113694E+02  0.81258113694E+02  0.00000000000E+00 0.  1.
          2    1    1    2  501    0  0.17875556751E+02 -0.79087346768E+02  0.83570394721E+02  0.11644034877E+03  0.00000000000E+00 0. -1.
          1    1    1    2  502    0 -0.10928300699E+03  0.55519925902E+02  0.17228863818E+02  0.12378235552E+03  0.00000000000E+00 0.  1.
         22    1    1    2    0    0  0.62207259793E+02 -0.43294410665E+02  0.17940758906E+03  0.19475942128E+03  0.00000000000E+00 0. -1.
         22    1    1    2    0    0  0.29200190447E+02  0.66861831532E+02  0.33996045299E+03  0.34770140241E+03  0.00000000000E+00 0.  1.
</event>
<event>
 6    1  0.3240171E-005  0.8917325E+02  0.7818608E-02  0.1366906E+00
          2   -1    0    0  502    0  0.00000000000E+00  0.00000000000E+00  0.66052671210E+02  0.66052671210E+02  0.00000000000E+00 0.  1.
          1   -1    0    0  501    0 -0.00000000000E+00 -0.00000000000E+00 -0.63119099240E+03  0.63119099240E+03  0.00000000000E+00 0.  1.
          2    1    1    2  501    0 -0.29998868416E+01 -0.61485447369E+02 -0.56649490453E+02  0.83657781035E+02  0.00000000000E+00 0.  1.
          1    1    1    2  502    0  0.41177328908E+02  0.35822005801E+02 -0.47610902355E+03  0.47922707647E+03  0.00000000000E+00 0.  1.
         22    1    1    2    0    0 -0.16453203501E+02  0.46634653893E+01 -0.77882510352E+02  0.79737953533E+02  0.00000000000E+00 0.  1.
         22    1    1    2    0    0 -0.21724238565E+02  0.20999976178E+02  0.45502703163E+02  0.54620852574E+02  0.00000000000E+00 0.  1.
</event>
<event>
 6    1  0.3240171E-005  0.1175465E+03  0.7818608E-02  0.1273993E+00
          2   -1    0    0  502    0  0.00000000000E+00  0.00000000000E+00  0.96306982092E+02  0.96306982092E+02  0.00000000000E+00 0.  1.
          1   -1    0    0  501    0 -0.00000000000E+00 -0.00000000000E+00 -0.37423305248E+03  0.37423305248E+03  0.00000000000E+00 0.  1.
          2    1    1    2  501    0 -0.17982735365E+02  0.44390729872E+02 -0.69054686344E+02  0.84038475568E+02  0.00000000000E+00 0.  1.
          1    1    1    2  502    0  0.19977202106E+02 -0.15261793923E+02 -0.25373866826E+03  0.25498102425E+03  0.00000000000E+00 0.  1.
         22    1    1    2    0    0  0.55025812531E+02 -0.35036692891E+02  0.32478774592E+02  0.72871672771E+02  0.00000000000E+00 0.  1.
         22    1    1    2    0    0 -0.57020279272E+02  0.59077569423E+01  0.12388509629E+02  0.58648861976E+02  0.00000000000E+00 0. -1.
</event>
<event>
 6    1  0.3240171E-005  0.8866566E+02  0.7818608E-02  0.1329467E+00
          2   -1    0    0  502    0  0.00000000000E+00  0.00000000000E+00  0.26322604596E+03  0.26322604596E+03  0.00000000000E+00 0.  1.
          1   -1    0    0  501    0 -0.00000000000E+00 -0.00000000000E+00 -0.16504138426E+03  0.16504138426E+03  0.00000000000E+00 0.  1.
          2    1    1    2  501    0  0.39450930052E+02  0.75049222374E+01  0.70937982828E+02  0.81516238551E+02  0.00000000000E+00 0.  1.
          1    1    1    2  502    0 -0.44065282545E+02 -0.91458252854E+00 -0.13382303532E+03  0.14089425243E+03  0.00000000000E+00 0.  1.
         22    1    1    2    0    0  0.13077976756E+02 -0.52774822288E+02  0.14716508234E+03  0.15688778411E+03  0.00000000000E+00 0.  1.
         22    1    1    2    0    0 -0.84636242621E+01  0.46184482579E+02  0.13904631853E+02  0.48969155126E+02  0.00000000000E+00 0.  1.
</event>
<event>
 6    1  0.3602303E-005  0.1209566E+03  0.7818608E-02  0.1243750E+00
          2   -1    0    0  502    0  0.00000000000E+00  0.00000000000E+00  0.40060005678E+03  0.40060005678E+03  0.00000000000E+00 0.  1.
          1   -1    0    0  501    0 -0.00000000000E+00 -0.00000000000E+00 -0.11660480640E+04  0.11660480640E+04  0.00000000000E+00 0. -1.
          2    1    1    2  501    0 -0.82040028940E+02  0.64323679524E+02  0.25188091221E+02  0.10724990459E+03  0.00000000000E+00 0.  1.
          1    1    1    2  502    0  0.48549187029E+02  0.14638123375E+02 -0.11073467807E+04  0.11085071903E+04  0.00000000000E+00 0. -1.
         22    1    1    2    0    0 -0.15862998290E+02  0.23600560663E+02  0.25377985524E+02  0.38113820690E+02  0.00000000000E+00 0.  1.
         22    1    1    2    0    0  0.49353840201E+02 -0.10256236356E+03  0.29133269668E+03  0.31277720524E+03  0.00000000000E+00 0.  1.
</event>
<event>
 6    1  0.3240171E-005  0.1838615E+03  0.7818608E-02  0.1167839E+00
          2   -1    0    0  502    0  0.00000000000E+00  0.00000000000E+00  0.81946831240E+03  0.81946831240E+03  0.00000000000E+00 0.  1.
          1   -1    0    0  501    0 -0.00000000000E+00 -0.00000000000E+00 -0.19598013223E+03  0.19598013223E+03  0.00000000000E+00 0. -1.
          2    1    1    2  501    0 -0.15135410768E+03 -0.84163098439E+02  0.25592294184E+01  0.17319943044E+03  0.00000000000E+00 0.  1.
          1    1    1    2  502    0  0.50951756061E+02 -0.43099546068E+02 -0.84877390536E+02  0.10797140242E+03  0.00000000000E+00 0. -1.
         22    1    1    2    0    0  0.94579694663E+02  0.14049316273E+03  0.69715353684E+03  0.71743062476E+03  0.00000000000E+00 0.  1.
         22    1    1    2    0    0  0.58226569534E+01 -0.13230518222E+02  0.86528044462E+01  0.16846987007E+02  0.00000000000E+00 0. -1.
</event>
<event>
 6    1  0.3240171E-005  0.8023059E+02  0.7818608E-02  0.1337996E+00
          2   -1    0    0  502    0  0.00000000000E+00  0.00000000000E+00  0.36060578286E+02  0.36060578286E+02  0.00000000000E+00 0. -1.
          1   -1    0    0  501    0 -0.00000000000E+00 -0.00000000000E+00 -0.87739553348E+03  0.87739553348E+03  0.00000000000E+00 0. -1.
          2    1    1    2  501    0 -0.51363503119E+02  0.22390636059E+02 -0.33094178461E+02  0.65075146437E+02  0.00000000000E+00 0. -1.
          1    1    1    2  502    0  0.30490264810E+01 -0.25452836840E+02 -0.59458010830E+03  0.59513246312E+03  0.00000000000E+00 0. -1.
         22    1    1    2    0    0  0.57845108116E+02 -0.10356491821E+02 -0.22546295241E+03  0.23299539988E+03  0.00000000000E+00 0. -1.
         22    1    1    2    0    0 -0.95306314777E+01  0.13418692602E+02  0.11802283971E+02  0.20253102341E+02  0.00000000000E+00 0.  1.
</event>
<event>
 6    1  0.3240171E-005  0.5655202E+02  0.7818608E-02  0.1469578E+00
          2   -1    0    0  502    0  0.00000000000E+00  0.00000000000E+00  0.90876649098E+02  0.90876649098E+02  0.00000000000E+00 0. -1.
          1   -1    0    0  501    0 -0.00000000000E+00 -0.00000000000E+00 -0.14900315949E+03  0.14900315949E+03  0.00000000000E+00 0. -1.
          2    1    1    2  501    0 -0.19328618519E+02  0.22483525877E+02 -0.26999911669E+02  0.40101117938E+02  0.00000000000E+00 0. -1.
          1    1    1    2  502    0  0.63160700509E+01 -0.31945741137E+02 -0.62339874888E+02  0.70332660398E+02  0.00000000000E+00 0. -1.
         22    1    1    2    0    0  0.19560460522E+01  0.24190505774E+02  0.76659795620E+02  0.80409768998E+02  0.00000000000E+00 0. -1.
         22    1    1    2    0    0  0.11056502416E+02 -0.14728290513E+02 -0.45446519457E+02  0.49036261255E+02  0.00000000000E+00 0.  1.
</event>
<event>
 6    1  0.3240171E-005  0.9988733E+02  0.7818608E-02  0.1341631E+00
          2   -1    0    0  502    0  0.00000000000E+00  0.00000000000E+00  0.23025701299E+03  0.23025701299E+03  0.00000000000E+00 0. -1.
          1   -1    0    0  501    0 -0.00000000000E+00 -0.00000000000E+00 -0.21244663218E+03  0.21244663218E+03  0.00000000000E+00 0. -1.
          2    1    1    2  501    0  0.64373347281E+02  0.20182086001E+02 -0.14401616070E+03  0.15903426982E+03  0.00000000000E+00 0. -1.
          1    1    1    2  502    0 -0.51960845734E+02 -0.66970883037E+02  0.14315987932E+02  0.85964970626E+02  0.00000000000E+00 0. -1.
         22    1    1    2    0    0  0.60741458221E+01  0.32434936962E+02  0.16513877492E+03  0.16840348976E+03  0.00000000000E+00 0. -1.
         22    1    1    2    0    0 -0.18486647369E+02  0.14353860074E+02 -0.17628221341E+02  0.29300914962E+02  0.00000000000E+00 0. -1.
</event>
<event>
 6    1  0.3240171E-005  0.1631181E+03  0.7818608E-02  0.1255939E+00
          2   -1    0    0  502    0  0.00000000000E+00  0.00000000000E+00  0.34661405349E+03  0.34661405349E+03  0.00000000000E+00 0.  1.
          1   -1    0    0  501    0 -0.00000000000E+00 -0.00000000000E+00 -0.16466730163E+03  0.16466730163E+03  0.00000000000E+00 0. -1.
          2    1    1    2  501    0 -0.19079339718E+02  0.14784127106E+03 -0.15362414384E+02  0.14985681969E+03  0.00000000000E+00 0.  1.
          1    1    1    2  502    0  0.11674291041E+02 -0.12496556537E+03 -0.93160707983E+00  0.12551314469E+03  0.00000000000E+00 0. -1.
         22    1    1    2    0    0  0.32311549269E+02 -0.17939698344E+02  0.20605668089E+03  0.20934475090E+03  0.00000000000E+00 0.  1.
         22    1    1    2    0    0 -0.24906500592E+02 -0.49360073513E+01 -0.78159075635E+01  0.26566639820E+02  0.00000000000E+00 0. -1.
</event>
<event>
 6    1  0.3240171E-005  0.2514182E+03  0.7818608E-02  0.1209558E+00
          2   -1    0    0  502    0  0.00000000000E+00  0.00000000000E+00  0.70983653117E+03  0.70983653117E+03  0.00000000000E+00 0.  1.
          1   -1    0    0  501    0 -0.00000000000E+00 -0.00000000000E+00 -0.10744042180E+03  0.10744042180E+03  0.00000000000E+00 0. -1.
          2    1    1    2  501    0 -0.10145861764E+03  0.18844347216E+02  0.13580804131E+03  0.17056607107E+03  0.00000000000E+00 0.  1.
          1    1    1    2  502    0  0.28124537580E+02  0.67536836576E+02 -0.59329034229E+02  0.94192081469E+02  0.00000000000E+00 0. -1.
         22    1    1    2    0    0  0.90194651572E+02 -0.10642776759E+03  0.39251451321E+03  0.41656882741E+03  0.00000000000E+00 0.  1.
         22    1    1    2    0    0 -0.16860571514E+02  0.20046583793E+02  0.13340258907E+03  0.13594997302E+03  0.00000000000E+00 0.  1.
</event>
<event>
 6    1  0.3240171E-005  0.1523879E+03  0.7818608E-02  0.1265504E+00
          2   -1    0    0  502    0  0.00000000000E+00  0.00000000000E+00  0.40814944701E+03  0.40814944701E+03  0.00000000000E+00 0.  1.
          1   -1    0    0  501    0 -0.00000000000E+00 -0.00000000000E+00 -0.21529755859E+03  0.21529755859E+03  0.00000000000E+00 0.  1.
          2    1    1    2  501    0  0.47058234903E+02  0.17717417391E+02  0.11586698201E+03  0.12630733103E+03  0.00000000000E+00 0.  1.
          1    1    1    2  502    0 -0.13054800777E+03  0.51752172555E+02 -0.15554092056E+03  0.20955678864E+03  0.00000000000E+00 0.  1.
         22    1    1    2    0    0 -0.25849138820E+02 -0.27260507397E+02  0.14921123196E+02  0.40422186466E+02  0.00000000000E+00 0.  1.
         22    1    1    2    0    0  0.10933891168E+03 -0.42209082549E+02  0.21760470376E+03  0.24716069946E+03  0.00000000000E+00 0.  1.
</event>
<event>
 6    1  0.3240171E-005  0.1833871E+03  0.7818608E-02  0.1260656E+00
          2   -1    0    0  502    0  0.00000000000E+00  0.00000000000E+00  0.19552361664E+03  0.19552361664E+03  0.00000000000E+00 0.  1.
          1   -1    0    0  501    0 -0.00000000000E+00 -0.00000000000E+00 -0.69146572167E+03  0.69146572167E+03  0.00000000000E+00 0.  1.
          2    1    1    2  501    0 -0.14820145500E+03 -0.64173957595E+02 -0.11366128629E+03  0.19748634408E+03  0.00000000000E+00 0.  1.
          1    1    1    2  502    0  0.14733998720E+03  0.57365850601E+02 -0.49580482999E+03  0.52040593971E+03  0.00000000000E+00 0.  1.
         22    1    1    2    0    0 -0.14676066008E+02  0.24703278360E+02 -0.19014996749E+02  0.34455899010E+02  0.00000000000E+00 0. -1.
         22    1    1    2    0    0  0.15537533810E+02 -0.17895171366E+02  0.13253900800E+03  0.13464115551E+03  0.00000000000E+00 0.  1.
</event>
<event>
 6    1  0.3240171E-005  0.1120648E+03  0.7818608E-02  0.1371249E+00
          2   -1    0    0  502    0  0.00000000000E+00  0.00000000000E+00  0.44562157301E+02  0.44562157301E+02  0.00000000000E+00 0.  1.
          1   -1    0    0  501    0 -0.00000000000E+00 -0.00000000000E+00 -0.61407587145E+03  0.61407587145E+03  0.00000000000E+00 0.  1.
          2    1    1    2  501    0 -0.67224206775E+02 -0.38034266252E+02 -0.16081007048E+03  0.17839724816E+03  0.00000000000E+00 0.  1.
          1    1    1    2  502    0  0.87153918995E+02  0.55800836456E+02 -0.29124351074E+03  0.30908303333E+03  0.00000000000E+00 0.  1.
         22    1    1    2    0    0  0.81503789489E+01 -0.11586643474E+02  0.23421353015E+02  0.27372226089E+02  0.00000000000E+00 0.  1.
         22    1    1    2    0    0 -0.28080091168E+02 -0.61799267303E+01 -0.14088148595E+03  0.14378552117E+03  0.00000000000E+00 0.  1.
</event>
<event>
 6    1  0.3240171E-005  0.4039868E+03  0.7818608E-02  0.1157433E+00
          2   -1    0    0  502    0  0.00000000000E+00  0.00000000000E+00  0.39984488182E+03  0.39984488182E+03  0.00000000000E+00 0.  1.
          1   -1    0    0  501    0 -0.00000000000E+00 -0.00000000000E+00 -0.28989612762E+03  0.28989612762E+03  0.00000000000E+00 0.  1.
          2    1    1    2  501    0 -0.65402383331E+02 -0.11361025878E+03  0.17298818267E+02  0.13222712187E+03  0.00000000000E+00 0.  1.
          1    1    1    2  502    0 -0.97326413390E+01 -0.12306394727E+03 -0.14612274780E+03  0.19128856957E+03  0.00000000000E+00 0.  1.
         22    1    1    2    0    0 -0.20150146117E+02 -0.19729381682E+01  0.23360482660E+02  0.30913314666E+02  0.00000000000E+00 0. -1.
         22    1    1    2    0    0  0.95285170787E+02  0.23864714421E+03  0.21541220107E+03  0.33531200334E+03  0.00000000000E+00 0.  1.
</event>
<event>
 6    1  0.3240171E-005  0.3827333E+02  0.7818608E-02  0.1528952E+00
          2   -1    0    0  502    0  0.00000000000E+00  0.00000000000E+00  0.19535202029E+03  0.19535202029E+03  0.00000000000E+00 0.  1.
          1   -1    0    0  501    0 -0.00000000000E+00 -0.00000000000E+00 -0.11953557294E+03  0.11953557294E+03  0.00000000000E+00 0.  1.
          2    1    1    2  501    0 -0.62421133807E+01 -0.22880550610E+02 -0.54258671484E+01  0.24329480265E+02  0.00000000000E+00 0.  1.
          1    1    1    2  502    0  0.92099224975E+01  0.22008519276E+02 -0.82886386700E+02  0.86251670669E+02  0.00000000000E+00 0.  1.
         22    1    1    2    0    0  0.10426545539E+02 -0.30139189072E+02 -0.46068524532E+01  0.32222766165E+02  0.00000000000E+00 0.  1.
         22    1    1    2    0    0 -0.13394354656E+02  0.31011220406E+02  0.16873555365E+03  0.17208367614E+03  0.00000000000E+00 0.  1.
</event>
<event>
 6    1  0.3240171E-005  0.1632233E+03  0.7818608E-02  0.1261171E+00
          2   -1    0    0  502    0  0.00000000000E+00  0.00000000000E+00  0.20474301834E+03  0.20474301834E+03  0.00000000000E+00 0. -1.
          1   -1    0    0  501    0 -0.00000000000E+00 -0.00000000000E+00 -0.73473961477E+03  0.73473961477E+03  0.00000000000E+00 0. -1.
          2    1    1    2  501    0 -0.88171139512E+02 -0.12514463576E+02  0.52725865359E+02  0.10349289115E+03  0.00000000000E+00 0. -1.
          1    1    1    2  502    0  0.15024189013E+03 -0.16597447873E+02 -0.65515119202E+03  0.67236239130E+03  0.00000000000E+00 0. -1.
         22    1    1    2    0    0  0.92701552483E+01  0.31956489405E+02  0.84864840520E+02  0.91154781279E+02  0.00000000000E+00 0. -1.
         22    1    1    2    0    0 -0.71340905871E+02 -0.28445779560E+01 -0.12436110291E+02  0.72472569386E+02  0.00000000000E+00 0.  1.
</event>
<event>
 6    1  0.3240171E-005  0.1858604E+03  0.7818608E-02  0.1299992E+00
          2   -1    0    0  502    0  0.00000000000E+00  0.00000000000E+00  0.34781134306E+02  0.34781134306E+02  0.00000000000E+00 0. -1.
          1   -1    0    0  501    0 -0.00000000000E+00 -0.00000000000E+00 -0.12787451845E+04  0.12787451845E+04  0.00000000000E+00 0.  1.
          2    1    1    2  501    0 -0.68981958831E+02 -0.30051639231E+02 -0.15299325905E+03  0.17049501160E+03  0.00000000000E+00 0. -1.
          1    1    1    2  502    0 -0.31266821118E+02  0.11106503130E+02 -0.87044331317E+03  0.87107550186E+03  0.00000000000E+00 0.  1.
         22    1    1    2    0    0  0.10930434633E+03  0.24776848432E+02 -0.23111228354E+03  0.25685447232E+03  0.00000000000E+00 0.  1.
         22    1    1    2    0    0 -0.90555663840E+01 -0.58317123307E+01  0.10584805546E+02  0.15101333044E+02  0.00000000000E+00 0. -1.
</event>
<event>
 6    1  0.3240171E-005  0.9928351E+02  0.7818608E-02  0.1328347E+00
          2   -1    0    0  502    0  0.00000000000E+00  0.00000000000E+00  0.52223994683E+03  0.52223994683E+03  0.00000000000E+00 0. -1.
          1   -1    0    0  501    0 -0.00000000000E+00 -0.00000000000E+00 -0.79662918028E+03  0.79662918028E+03  0.00000000000E+00 0.  1.
          2    1    1    2  501    0 -0.22999874349E+01  0.53947293538E+02  0.83913658297E+02  0.99785281836E+02  0.00000000000E+00 0. -1.
          1    1    1    2  502    0 -0.19386446089E+02 -0.90004662844E+02 -0.77506340384E+03  0.78051262231E+03  0.00000000000E+00 0.  1.
         22    1    1    2    0    0  0.32356610303E+02  0.77067921735E+02  0.18551941628E+03  0.20347940586E+03  0.00000000000E+00 0. -1.
         22    1    1    2    0    0 -0.10670176779E+02 -0.41010552430E+02  0.23124109581E+03  0.23509181711E+03  0.00000000000E+00 0. -1.
</event>
<event>
 6    1  0.3531922E-005  0.1037059E+03  0.7818608E-02  0.1358878E+00
          2   -1    0    0  502    0  0.00000000000E+00  0.00000000000E+00  0.10874634944E+03  0.10874634944E+03  0.00000000000E+00 0. -1.
          1   -1    0    0  501    0 -0.00000000000E+00 -0.00000000000E+00 -0.14915634042E+04  0.14915634042E+04  0.00000000000E+00 0. -1.
          2    1    1    2  501    0 -0.76703718599E+02  0.26108289293E+02 -0.66064720851E+03  0.66559735376E+03  0.00000000000E+00 0. -1.
          1    1    1    2  502    0  0.90826241880E+02 -0.55499699516E+02 -0.78605623472E+03  0.79323012235E+03  0.00000000000E+00 0. -1.
         22    1    1    2    0    0 -0.29735363101E+01  0.10458810546E+02 -0.36827760941E+02  0.38399382966E+02  0.00000000000E+00 0. -1.
         22    1    1    2    0    0 -0.11148986971E+02  0.18932599676E+02  0.10071414946E+03  0.10308289452E+03  0.00000000000E+00 0. -1.
</event>
<event>
 6    1  0.3240171E-005  0.1759190E+03  0.7818608E-02  0.1214057E+00
          2   -1    0    0  502    0  0.00000000000E+00  0.00000000000E+00  0.45571281807E+03  0.45571281807E+03  0.00000000000E+00 0. -1.
          1   -1    0    0  501    0 -0.00000000000E+00 -0.00000000000E+00 -0.44964699323E+03  0.44964699323E+03  0.00000000000E+00 0. -1.
          2    1    1    2  501    0 -0.35665811071E+02  0.73182999663E+01  0.18928091236E+02  0.41035109743E+02  0.00000000000E+00 0. -1.
          1    1    1    2  502    0  0.15262449176E+03 -0.10096977822E+03 -0.39453786176E+03  0.43491292917E+03  0.00000000000E+00 0. -1.
         22    1    1    2    0    0 -0.56694573207E+02  0.59071895469E+02  0.63161668349E+02  0.10340773575E+03  0.00000000000E+00 0. -1.
         22    1    1    2    0    0 -0.60264107481E+02  0.34579582783E+02  0.31851392702E+03  0.32600403663E+03  0.00000000000E+00 0. -1.
</event>
<event>
 6    1  0.3240171E-005  0.1954462E+03  0.7818608E-02  0.1233108E+00
          2   -1    0    0  502    0  0.00000000000E+00  0.00000000000E+00  0.54302048736E+02  0.54302048736E+02  0.00000000000E+00 0. -1.
          1   -1    0    0  501    0 -0.00000000000E+00 -0.00000000000E+00 -0.14130450466E+04  0.14130450466E+04  0.00000000000E+00 0.  1.
          2    1    1    2  501    0  0.55118370060E+02 -0.12100336078E+02 -0.44612755092E+03  0.44968238184E+03  0.00000000000E+00 0. -1.
          1    1    1    2  502    0 -0.40609977258E+02 -0.31221012912E+02 -0.87796612573E+03  0.87945917463E+03  0.00000000000E+00 0.  1.
         22    1    1    2    0    0  0.32737558689E+02 -0.93365729225E+01  0.27713168260E+02  0.43896913763E+02  0.00000000000E+00 0. -1.
         22    1    1    2    0    0 -0.47245951491E+02  0.52657921912E+02 -0.62362489422E+02  0.94308625053E+02  0.00000000000E+00 0.  1.
</event>
<event>
 6    1  0.3240171E-005  0.3806566E+03  0.7818608E-02  0.1123903E+00
          2   -1    0    0  502    0  0.00000000000E+00  0.00000000000E+00  0.25546265576E+03  0.25546265576E+03  0.00000000000E+00 0.  1.
          1   -1    0    0  501    0 -0.00000000000E+00 -0.00000000000E+00 -0.89646692735E+03  0.89646692735E+03  0.00000000000E+00 0. -1.
          2    1    1    2  501    0 -0.11071770168E+03 -0.21517172340E+03 -0.73204386925E+02  0.25281645967E+03  0.00000000000E+00 0.  1.
          1    1    1    2  502    0  0.16711730717E+03  0.31401298294E+03 -0.62389012255E+03  0.71817214707E+03  0.00000000000E+00 0. -1.
         22    1    1    2    0    0 -0.98352609086E+02 -0.64377613288E+02  0.42250082616E+02  0.12491109754E+03  0.00000000000E+00 0.  1.
         22    1    1    2    0    0  0.41953003593E+02 -0.34463646254E+02  0.13840155267E+02  0.56029878827E+02  0.00000000000E+00 0.  1.
</event>
<event>
 6    1  0.3240171E-005  0.3578005E+03  0.7818608E-02  0.1186725E+00
          2   -1    0    0  502    0  0.00000000000E+00  0.00000000000E+00  0.36045866189E+03  0.36045866189E+03  0.00000000000E+00 0.  1.
          1   -1    0    0  501    0 -0.00000000000E+00 -0.00000000000E+00 -0.33523588313E+03  0.33523588313E+03  0.00000000000E+00 0.  1.
          2    1    1    2  501    0  0.81657264960E+02  0.14304032873E+03  0.48234533351E+02  0.17162463335E+03  0.00000000000E+00 0.  1.
          1    1    1    2  502    0 -0.24006787459E+03 -0.27725673251E+02 -0.12354686053E+03  0.27141319812E+03  0.00000000000E+00 0.  1.
         22    1    1    2    0    0  0.14808527506E+02  0.20286137619E+01  0.61309977696E+02  0.63105634659E+02  0.00000000000E+00 0.  1.
         22    1    1    2    0    0  0.14360208212E+03 -0.11734326924E+03  0.39225128243E+02  0.18955107890E+03  0.00000000000E+00 0.  1.
</event>
<event>
 6    1  0.3240171E-005  0.7519775E+02  0.7818608E-02  0.1346875E+00
          2   -1    0    0  502    0  0.00000000000E+00  0.00000000000E+00  0.58867172197E+03  0.58867172197E+03  0.00000000000E+00 0. -1.
          1   -1    0    0  501    0 -0.00000000000E+00 -0.00000000000E+00 -0.91889952450E+03  0.91889952450E+03  0.00000000000E+00 0.  1.
          2    1    1    2  501    0  0.22363006771E+02 -0.19003616715E+02  0.91597626463E+02  0.96184025149E+02  0.00000000000E+00 0. -1.
          1    1    1    2  502    0 -0.25768248743E+02  0.26147035637E+02 -0.90890969243E+03  0.90965075667E+03  0.00000000000E+00 0.  1.
         22    1    1    2    0    0 -0.43954675623E+02  0.29127402028E+02  0.14076312000E+03  0.15031525209E+03  0.00000000000E+00 0.  1.
         22    1    1    2    0    0  0.47359917595E+02 -0.36270820950E+02  0.34632114344E+03  0.35142121256E+03  0.00000000000E+00 0. -1.
</event>
<event>
 6    1  0.3240171E-005  0.1528584E+03  0.7818608E-02  0.1198270E+00
          2   -1    0    0  502    0  0.00000000000E+00  0.00000000000E+00  0.42626996633E+03  0.42626996633E+03  0.00000000000E+00 0. -1.
          1   -1    0    0  501    0 -0.00000000000E+00 -0.00000000000E+00 -0.14852837060E+03  0.14852837060E+03  0.00000000000E+00 0. -1.
          2    1    1    2  501    0 -0.15546207508E+03 -0.27817439781E+02  0.62183867628E+02  0.16973243690E+03  0.00000000000E+00 0. -1.
          1    1    1    2  502    0  0.50206043817E+02 -0.28138639430E+02 -0.56957427580E+02  0.80972701705E+02  0.00000000000E+00 0. -1.
         22    1    1    2    0    0 -0.16773895387E+02 -0.16234994524E+02  0.93164878295E+01  0.25134350183E+02  0.00000000000E+00 0.  1.
         22    1    1    2    0    0  0.12202992665E+03  0.72191073735E+02  0.26319866784E+03  0.29895884814E+03  0.00000000000E+00 0. -1.
</event>
<event>
 6    1  0.3240171E-005  0.1322723E+03  0.7818608E-02  0.1336159E+00
          2   -1    0    0  502    0  0.00000000000E+00  0.00000000000E+00  0.14642491526E+03  0.14642491526E+03  0.00000000000E+00 0.  1.
          1   -1    0    0  501    0 -0.00000000000E+00 -0.00000000000E+00 -0.28196069376E+03  0.28196069376E+03  0.00000000000E+00 0.  1.
          2    1    1    2  501    0  0.44506174985E+02  0.11963455270E+02  0.36264545850E+02  0.58643338578E+02  0.00000000000E+00 0.  1.
          1    1    1    2  502    0 -0.10778461922E+03 -0.15892704795E+02 -0.19801769619E+03  0.22601130550E+03  0.00000000000E+00 0.  1.
         22    1    1    2    0    0 -0.72933951563E+01 -0.13820117256E+02  0.61075729315E+02  0.63043111957E+02  0.00000000000E+00 0. -1.
         22    1    1    2    0    0  0.70571839389E+02  0.17749366781E+02 -0.34858357468E+02  0.80687852997E+02  0.00000000000E+00 0.  1.
</event>
<event>
 6    1  0.3240171E-005  0.1609350E+03  0.7818608E-02  0.1260961E+00
          2   -1    0    0  502    0  0.00000000000E+00  0.00000000000E+00  0.54677786233E+03  0.54677786233E+03  0.00000000000E+00 0.  1.
          1   -1    0    0  501    0 -0.00000000000E+00 -0.00000000000E+00 -0.65731218416E+02  0.65731218416E+02  0.00000000000E+00 0.  1.
          2    1    1    2  501    0 -0.21688825628E+02  0.12292728732E+02  0.14165072841E+01  0.24970439117E+02  0.00000000000E+00 0.  1.
          1    1    1    2  502    0 -0.43268358210E+02 -0.47741968823E+02 -0.20378385350E+02  0.67577548038E+02  0.00000000000E+00 0.  1.
         22    1    1    2    0    0 -0.23246150019E+02 -0.25972600737E+02  0.10807226652E+03  0.11355427896E+03  0.00000000000E+00 0.  1.
         22    1    1    2    0    0  0.88203333857E+02  0.61421840828E+02  0.39193625547E+03  0.40640681464E+03  0.00000000000E+00 0.  1.
</event>
<event>
 6    1  0.3240171E-005  0.1302102E+03  0.7818608E-02  0.1228345E+00
          2   -1    0    0  502    0  0.00000000000E+00  0.00000000000E+00  0.91194130418E+03  0.91194130418E+03  0.00000000000E+00 0.  1.
          1   -1    0    0  501    0 -0.00000000000E+00 -0.00000000000E+00 -0.10053546281E+03  0.10053546281E+03  0.00000000000E+00 0. -1.
          2    1    1    2  501    0 -0.44994228558E+01  0.78459519637E+02  0.10956234122E+03  0.13483340699E+03  0.00000000000E+00 0.  1.
          1    1    1    2  502    0  0.25418122823E+02  0.46868450504E+02 -0.69019030356E+02  0.87214443597E+02  0.00000000000E+00 0. -1.
         22    1    1    2    0    0 -0.14835798005E+02  0.15692879837E+02  0.34812721744E+02  0.40966974202E+02  0.00000000000E+00 0.  1.
         22    1    1    2    0    0 -0.60829019626E+01 -0.14102084998E+03  0.73604980877E+03  0.74946194220E+03  0.00000000000E+00 0.  1.
</event>
<event>
 6    1  0.3240171E-005  0.2266206E+03  0.7818608E-02  0.1196285E+00
          2   -1    0    0  502    0  0.00000000000E+00  0.00000000000E+00  0.38842926325E+03  0.38842926325E+03  0.00000000000E+00 0. -1.
          1   -1    0    0  501    0 -0.00000000000E+00 -0.00000000000E+00 -0.64363342594E+02  0.64363342594E+02  0.00000000000E+00 0. -1.
          2    1    1    2  501    0 -0.47935254662E+02 -0.18670449559E+02 -0.22752163829E+02  0.56249758090E+02  0.00000000000E+00 0. -1.
          1    1    1    2  502    0 -0.30426599124E+02 -0.32327216966E+00  0.17237030764E+02  0.34971383568E+02  0.00000000000E+00 0. -1.
         22    1    1    2    0    0  0.99561525556E+02 -0.22033237814E+02  0.24071823827E+03  0.26142538357E+03  0.00000000000E+00 0. -1.
         22    1    1    2    0    0 -0.21199671770E+02  0.41026959543E+02  0.88862815450E+02  0.10014608061E+03  0.00000000000E+00 0. -1.
</event>
<event>
 6    1  0.3240171E-005  0.7571928E+02  0.7818608E-02  0.1390367E+00
          2   -1    0    0  502    0  0.00000000000E+00  0.00000000000E+00  0.25236457622E+02  0.25236457622E+02  0.00000000000E+00 0.  1.
          1   -1    0    0  501    0 -0.00000000000E+00 -0.00000000000E+00 -0.86699825363E+03  0.86699825363E+03  0.00000000000E+00 0.  1.
          2    1    1    2  501    0 -0.25916132820E+02  0.17540036173E+02 -0.30300913774E+02  0.43559662359E+02  0.00000000000E+00 0.  1.
          1    1    1    2  502    0  0.16856861411E+02 -0.29187709853E+02 -0.62617022744E+03  0.62707673367E+03  0.00000000000E+00 0.  1.
         22    1    1    2    0    0  0.26040776097E+01  0.51430033453E+02 -0.17140054872E+03  0.17896920870E+03  0.00000000000E+00 0.  1.
         22    1    1    2    0    0  0.64551937989E+01 -0.39782359772E+02 -0.13890106075E+02  0.42629106521E+02  0.00000000000E+00 0. -1.
</event>
<event>
 6    1  0.3240171E-005  0.1370024E+03  0.7818608E-02  0.1335836E+00
          2   -1    0    0  502    0  0.00000000000E+00  0.00000000000E+00  0.26048328560E+02  0.26048328560E+02  0.00000000000E+00 0. -1.
          1   -1    0    0  501    0 -0.00000000000E+00 -0.00000000000E+00 -0.19230169087E+04  0.19230169087E+04  0.00000000000E+00 0. -1.
          2    1    1    2  501    0 -0.28871110224E+02 -0.38906551375E+02 -0.15096974802E+03  0.15855322628E+03  0.00000000000E+00 0. -1.
          1    1    1    2  502    0  0.24150042433E+02  0.12268843389E+03 -0.14632848552E+04  0.14686178004E+04  0.00000000000E+00 0. -1.
         22    1    1    2    0    0  0.15174669299E+02 -0.93307632799E+02 -0.29067771772E+03  0.30566341048E+03  0.00000000000E+00 0. -1.
         22    1    1    2    0    0 -0.10453601508E+02  0.95257502805E+01  0.79637407947E+01  0.16230800053E+02  0.00000000000E+00 0.  1.
</event>
<event>
 6    1  0.3240171E-005  0.6848347E+02  0.7818608E-02  0.1439717E+00
          2   -1    0    0  502    0  0.00000000000E+00  0.00000000000E+00  0.55080462227E+02  0.55080462227E+02  0.00000000000E+00 0.  1.
          1   -1    0    0  501    0 -0.00000000000E+00 -0.00000000000E+00 -0.37306713849E+03  0.37306713849E+03  0.00000000000E+00 0.  1.
          2    1    1    2  501    0  0.16030389339E+02  0.26702191202E+02 -0.75277437124E+02  0.81465777706E+02  0.00000000000E+00 0.  1.
          1    1    1    2  502    0 -0.62459720335E+02 -0.44385270432E+02 -0.18791417014E+03  0.20293596092E+03  0.00000000000E+00 0.  1.
         22    1    1    2    0    0  0.27632522666E+02  0.79674490284E+01 -0.94486857481E+02  0.98766405166E+02  0.00000000000E+00 0.  1.
         22    1    1    2    0    0  0.18796808331E+02  0.97156302009E+01  0.39691788473E+02  0.44979456931E+02  0.00000000000E+00 0.  1.
</event>
<event>
 6    1  0.3240171E-005  0.2979519E+03  0.7818608E-02  0.1119835E+00
          2   -1    0    0  502    0  0.00000000000E+00  0.00000000000E+00  0.20543583821E+03  0.20543583821E+03  0.00000000000E+00 0.  1.
          1   -1    0    0  501    0 -0.00000000000E+00 -0.00000000000E+00 -0.78771197142E+03  0.78771197142E+03  0.00000000000E+00 0. -1.
          2    1    1    2  501    0  0.26505654767E+02  0.12111733457E+03 -0.35573340783E+03  0.37672034179E+03  0.00000000000E+00 0.  1.
          1    1    1    2  502    0  0.55214408140E+01 -0.29416371830E+02 -0.39006012761E+03  0.39120673869E+03  0.00000000000E+00 0. -1.
         22    1    1    2    0    0 -0.29795775379E+02 -0.11978205450E+03  0.11282595314E+03  0.16722806138E+03  0.00000000000E+00 0.  1.
         22    1    1    2    0    0 -0.22313202014E+01  0.28081091758E+02  0.50691449100E+02  0.57992667778E+02  0.00000000000E+00 0. -1.
</event>
<event>
 6    1  0.3240171E-005  0.3941470E+02  0.7818608E-02  0.1526639E+00
          2   -1    0    0  502    0  0.00000000000E+00  0.00000000000E+00  0.15730820582E+03  0.15730820582E+03  0.00000000000E+00 0. -1.
          1   -1    0    0  501    0 -0.00000000000E+00 -0.00000000000E+00 -0.19453077351E+03  0.19453077351E+03  0.00000000000E+00 0. -1.
          2    1    1    2  501    0 -0.13240161667E+02  0.19101598941E+02 -0.14226072863E+03  0.14414675811E+03  0.00000000000E+00 0. -1.
          1    1    1    2  502    0 -0.44923421126E+01 -0.21918280847E+02  0.77162186385E+02  0.80340495272E+02  0.00000000000E+00 0. -1.
         22    1    1    2    0    0  0.29756858656E+02 -0.13214170860E+02  0.71929094393E+02  0.78954921118E+02  0.00000000000E+00 0. -1.
         22    1    1    2    0    0 -0.12024354876E+02  0.16030852765E+02 -0.44053119839E+02  0.48396804834E+02  0.00000000000E+00 0. -1.
</event>
<event>
 6    1  0.3240171E-005  0.1594134E+03  0.7818608E-02  0.1256363E+00
          2   -1    0    0  502    0  0.00000000000E+00  0.00000000000E+00  0.34707482241E+03  0.34707482241E+03  0.00000000000E+00 0. -1.
          1   -1    0    0  501    0 -0.00000000000E+00 -0.00000000000E+00 -0.12231186269E+03  0.12231186269E+03  0.00000000000E+00 0.  1.
          2    1    1    2  501    0 -0.12925153438E+02  0.16640278275E+02  0.27572461631E+02  0.34701571907E+02  0.00000000000E+00 0. -1.
          1    1    1    2  502    0  0.11370795004E+03 -0.11884150886E+03  0.83091296248E+01  0.16468710868E+03  0.00000000000E+00 0.  1.
         22    1    1    2    0    0 -0.62088782738E+02  0.10886575346E+03  0.67341022084E+02  0.14227291546E+03  0.00000000000E+00 0. -1.
         22    1    1    2    0    0 -0.38694013862E+02 -0.66645228770E+01  0.12154034639E+03  0.12772508905E+03  0.00000000000E+00 0. -1.
</event>
<event>
 6    1  0.3240171E-005  0.2469227E+03  0.7818608E-02  0.1212883E+00
          2   -1    0    0  502    0  0.00000000000E+00  0.00000000000E+00  0.19909676717E+03  0.19909676717E+03  0.00000000000E+00 0. -1.
          1   -1    0    0  501    0 -0.00000000000E+00 -0.00000000000E+00 -0.43163358305E+03  0.43163358305E+03  0.00000000000E+00 0.  1.
          2    1    1    2  501    0  0.58635917442E+02  0.23692631224E+02 -0.63852397051E+02  0.89870129619E+02  0.00000000000E+00 0. -1.
          1    1    1    2  502    0 -0.18109636888E+02 -0.14226559477E+02 -0.32987071567E+03  0.33067362005E+03  0.00000000000E+00 0.  1.
         22    1    1    2    0    0 -0.34876410025E+02 -0.36389440433E+02  0.17304010334E+03  0.18023160853E+03  0.00000000000E+00 0. -1.
         22    1    1    2    0    0 -0.56498705287E+01  0.26923368687E+02 -0.11853806498E+02  0.29954992020E+02  0.00000000000E+00 0. -1.
</event>
<event>
 6    1  0.3240171E-005  0.2810665E+03  0.7818608E-02  0.1170828E+00
          2   -1    0    0  502    0  0.00000000000E+00  0.00000000000E+00  0.89039733317E+03  0.89039733317E+03  0.00000000000E+00 0.  1.
          1   -1    0    0  501    0 -0.00000000000E+00 -0.00000000000E+00 -0.14591065026E+03  0.14591065026E+03  0.00000000000E+00 0.  1.
          2    1    1    2  501    0  0.22120127215E+02  0.36387262741E+02  0.50068557105E+02  0.65728177583E+02  0.00000000000E+00 0.  1.
          1    1    1    2  502    0 -0.20091487381E+02 -0.27538123664E+03  0.61715275322E+02  0.28292625995E+03  0.00000000000E+00 0.  1.
         22    1    1    2    0    0  0.38473038328E+02  0.22151028873E+03  0.51405110461E+03  0.56106641393E+03  0.00000000000E+00 0.  1.
         22    1    1    2    0    0 -0.40501678162E+02  0.17483685174E+02  0.11865174586E+03  0.12658713196E+03  0.00000000000E+00 0.  1.
</event>
<event>
 6    1  0.3240171E-005  0.1408202E+03  0.7818608E-02  0.1231682E+00
          2   -1    0    0  502    0  0.00000000000E+00  0.00000000000E+00  0.28899534214E+03  0.28899534214E+03  0.00000000000E+00 0. -1.
          1   -1    0    0  501    0 -0.00000000000E+00 -0.00000000000E+00 -0.74942601708E+03  0.74942601708E+03  0.00000000000E+00 0. -1.
          2    1    1    2  501    0  0.66647444000E+02  0.11350380975E+03 -0.86927762023E+02  0.15773849381E+03  0.00000000000E+00 0. -1.
          1    1    1    2  502    0  0.24601107523E+02 -0.12522518457E+03 -0.59519410372E+03  0.60872208966E+03  0.00000000000E+00 0. -1.
         22    1    1    2    0    0 -0.14094400236E-01  0.33176665756E+02  0.21445387462E+01  0.33245907955E+02  0.00000000000E+00 0.  1.
         22    1    1    2    0    0 -0.91234457123E+02 -0.21455290934E+02  0.21954665205E+03  0.23871486779E+03  0.00000000000E+00 0. -1.
</event>
<event>
 6    1  0.3240171E-005  0.8067480E+02  0.7818608E-02  0.1354113E+00
          2   -1    0    0  502    0  0.00000000000E+00  0.00000000000E+00  0.71347850058E+02  0.71347850058E+02  0.00000000000E+00 0. -1.
          1   -1    0    0  501    0 -0.00000000000E+00 -0.00000000000E+00 -0.92600373242E+03  0.92600373242E+03  0.00000000000E+00 0. -1.
          2    1    1    2  501    0 -0.60525638839E+02 -0.22082158314E+02 -0.40239089195E+02  0.75961562463E+02  0.00000000000E+00 0. -1.
          1    1    1    2  502    0  0.44998504787E+02 -0.63012088320E+01 -0.78887206029E+03  0.79017953541E+03  0.00000000000E+00 0. -1.
         22    1    1    2    0    0  0.46618852287E+02 -0.16831338883E+01  0.33921591731E+02  0.57678633078E+02  0.00000000000E+00 0. -1.
         22    1    1    2    0    0 -0.31091718236E+02  0.30066501034E+02 -0.59466324604E+02  0.73531851529E+02  0.00000000000E+00 0. -1.
</event>
<event>
 6    1  0.3240171E-005  0.2496315E+03  0.7818608E-02  0.1242999E+00
          2   -1    0    0  502    0  0.00000000000E+00  0.00000000000E+00  0.10446331237E+03  0.10446331237E+03  0.00000000000E+00 0.  1.
          1   -1    0    0  501    0 -0.00000000000E+00 -0.00000000000E+00 -0.65398876537E+03  0.65398876537E+03  0.00000000000E+00 0.  1.
          2    1    1    2  501    0  0.33371905258E+02  0.19151267636E+01 -0.30537272935E+02  0.45275565258E+02  0.00000000000E+00 0.  1.
          1    1    1    2  502    0 -0.22663374355E+03  0.88404600763E+02 -0.25451759886E+03  0.35207589421E+03  0.00000000000E+00 0.  1.
         22    1    1    2    0    0 -0.95179526373E+01 -0.93702219298E+01  0.50133719719E+01  0.14266267204E+02  0.00000000000E+00 0. -1.
         22    1    1    2    0    0  0.20277979093E+03 -0.80949505597E+02 -0.26948395318E+03  0.34683435107E+03  0.00000000000E+00 0.  1.
</event>
<event>
 6    1  0.3240171E-005  0.9098466E+02  0.7818608E-02  0.1326429E+00
          2   -1    0    0  502    0  0.00000000000E+00  0.00000000000E+00  0.95732237572E+02  0.95732237572E+02  0.00000000000E+00 0.  1.
          1   -1    0    0  501    0 -0.00000000000E+00 -0.00000000000E+00 -0.60153224343E+03  0.60153224343E+03  0.00000000000E+00 0.  1.
          2    1    1    2  501    0  0.33200900244E+02  0.34947290361E+02 -0.23181694434E+02  0.53488352353E+02  0.00000000000E+00 0.  1.
          1    1    1    2  502    0 -0.27901863328E+01 -0.23351131131E+02 -0.51280645986E+03  0.51334542536E+03  0.00000000000E+00 0.  1.
         22    1    1    2    0    0  0.69525237461E+01 -0.53372619339E+02  0.47484151560E+02  0.71775474439E+02  0.00000000000E+00 0.  1.
         22    1    1    2    0    0 -0.37363237658E+02  0.41776460109E+02 -0.17296003128E+02  0.58655228852E+02  0.00000000000E+00 0.  1.
</event>
<event>
 6    1  0.3240171E-005  0.4475543E+02  0.7818608E-02  0.1492808E+00
          2   -1    0    0  502    0  0.00000000000E+00  0.00000000000E+00  0.48712697188E+02  0.48712697188E+02  0.00000000000E+00 0.  1.
          1   -1    0    0  501    0 -0.00000000000E+00 -0.00000000000E+00 -0.14388866013E+04  0.14388866013E+04  0.00000000000E+00 0. -1.
          2    1    1    2  501    0 -0.43459552408E+01 -0.21445127018E+02 -0.22041868513E+03  0.22150209379E+03  0.00000000000E+00 0.  1.
          1    1    1    2  502    0  0.22505499468E+02 -0.10915179330E+02 -0.11256320302E+04  0.11259099014E+04  0.00000000000E+00 0. -1.
         22    1    1    2    0    0 -0.14517062440E+00  0.35515695628E+02  0.40351663572E+02  0.53755394739E+02  0.00000000000E+00 0.  1.
         22    1    1    2    0    0 -0.18014373603E+02 -0.31553892807E+01 -0.84474852384E+02  0.86431908593E+02  0.00000000000E+00 0.  1.
</event>
<event>
 6    1  0.3240171E-005  0.3108141E+03  0.7818608E-02  0.1158573E+00
          2   -1    0    0  502    0  0.00000000000E+00  0.00000000000E+00  0.96895576875E+02  0.96895576875E+02  0.00000000000E+00 0. -1.
          1   -1    0    0  501    0 -0.00000000000E+00 -0.00000000000E+00 -0.12930590736E+04  0.12930590736E+04  0.00000000000E+00 0.  1.
          2    1    1    2  501    0 -0.22626123819E+02  0.19622555887E+03 -0.27742305049E+03  0.34055830686E+03  0.00000000000E+00 0. -1.
          1    1    1    2  502    0  0.58878414321E+02 -0.24481039410E+03 -0.85976336377E+03  0.89587490110E+03  0.00000000000E+00 0.  1.
         22    1    1    2    0    0  0.43219212013E+02  0.24553764322E+01 -0.41533024094E+02  0.59991009750E+02  0.00000000000E+00 0.  1.
         22    1    1    2    0    0 -0.79471502515E+02  0.46129458798E+02 -0.17444058374E+02  0.93530432767E+02  0.00000000000E+00 0. -1.
</event>
<event>
 6    1  0.3240171E-005  0.1231467E+03  0.7818608E-02  0.1359290E+00
          2   -1    0    0  502    0  0.00000000000E+00  0.00000000000E+00  0.74434264681E+02  0.74434264681E+02  0.00000000000E+00 0.  1.
          1   -1    0    0  501    0 -0.00000000000E+00 -0.00000000000E+00 -0.94951456970E+03  0.94951456970E+03  0.00000000000E+00 0. -1.
          2    1    1    2  501    0  0.28698997472E+02  0.21464937922E+02  0.38719488133E+01  0.36046747475E+02  0.00000000000E+00 0.  1.
          1    1    1    2  502    0 -0.23903911922E+02  0.46552528165E+02 -0.83491392611E+03  0.83655232885E+03  0.00000000000E+00 0. -1.
         22    1    1    2    0    0 -0.24874737491E+01  0.12791700694E+02  0.35575418718E+02  0.37887010297E+02  0.00000000000E+00 0.  1.
         22    1    1    2    0    0 -0.23076118014E+01 -0.80809166781E+02 -0.79613746444E+02  0.11346274777E+03  0.00000000000E+00 0.  1.
</event>
<event>
 6    1  0.3240171E-005  0.1381980E+03  0.7818608E-02  0.1266586E+00
          2   -1    0    0  502    0  0.00000000000E+00  0.00000000000E+00  0.43487687272E+02  0.43487687272E+02  0.00000000000E+00 0.  1.
          1   -1    0    0  501    0 -0.00000000000E+00 -0.00000000000E+00 -0.66057821159E+03  0.66057821159E+03  0.00000000000E+00 0.  1.
          2    1    1    2  501    0 -0.27786578634E+02 -0.25313235181E+02 -0.12185642832E+03  0.12752193126E+03  0.00000000000E+00 0.  1.
          1    1    1    2  502    0 -0.87396119767E+01 -0.24418155024E+02 -0.41272090706E+03  0.41353497341E+03  0.00000000000E+00 0.  1.
         22    1    1    2    0    0  0.80776160135E+02  0.27299099779E+02 -0.73530594548E+02  0.11259119517E+03  0.00000000000E+00 0.  1.
         22    1    1    2    0    0 -0.44249969524E+02  0.22432290426E+02 -0.89825943888E+01  0.50417799026E+02  0.00000000000E+00 0.  1.
</event>
<event>
 6    1  0.3240171E-005  0.7045522E+02  0.7818608E-02  0.1396284E+00
          2   -1    0    0  502    0  0.00000000000E+00  0.00000000000E+00  0.12330160097E+03  0.12330160097E+03  0.00000000000E+00 0. -1.
          1   -1    0    0  501    0 -0.00000000000E+00 -0.00000000000E+00 -0.42735135524E+03  0.42735135524E+03  0.00000000000E+00 0. -1.
          2    1    1    2  501    0 -0.10225319564E+02 -0.25745959343E+02 -0.89932125566E+01  0.29125409091E+02  0.00000000000E+00 0. -1.
          1    1    1    2  502    0  0.55295486141E+02  0.44381542022E+02 -0.36503666324E+03  0.37185894848E+03  0.00000000000E+00 0. -1.
         22    1    1    2    0    0 -0.35428306523E+02 -0.13686551023E+02  0.10571282362E+03  0.11232848107E+03  0.00000000000E+00 0. -1.
         22    1    1    2    0    0 -0.96418600544E+01 -0.49490316560E+01 -0.35732702105E+02  0.37340117559E+02  0.00000000000E+00 0.  1.
</event>
<event>
 6    1  0.3240171E-005  0.7239395E+02  0.7818608E-02  0.1406863E+00
          2   -1    0    0  502    0  0.00000000000E+00  0.00000000000E+00  0.21991843798E+03  0.21991843798E+03  0.00000000000E+00 0.  1.
          1   -1    0    0  501    0 -0.00000000000E+00 -0.00000000000E+00 -0.10720823066E+03  0.10720823066E+03  0.00000000000E+00 0.  1.
          2    1    1    2  501    0 -0.27707584553E+01 -0.46510198441E+02 -0.16427036592E+02  0.49403675902E+02  0.00000000000E+00 0.  1.
          1    1    1    2  502    0  0.47271693216E+01  0.47132519603E+02 -0.44176161936E+02  0.64771550988E+02  0.00000000000E+00 0.  1.
         22    1    1    2    0    0  0.29576089703E+02 -0.16296835437E+01  0.17853336375E+03  0.18097392885E+03  0.00000000000E+00 0.  1.
         22    1    1    2    0    0 -0.31532500569E+02  0.10073623820E+01 -0.52199578983E+01  0.31977512905E+02  0.00000000000E+00 0.  1.
</event>
<event>
 6    1  0.3240171E-005  0.1367637E+03  0.7818608E-02  0.1255714E+00
          2   -1    0    0  502    0  0.00000000000E+00  0.00000000000E+00  0.14820358963E+02  0.14820358963E+02  0.00000000000E+00 0.  1.
          1   -1    0    0  501    0 -0.00000000000E+00 -0.00000000000E+00 -0.27636528737E+04  0.27636528737E+04  0.00000000000E+00 0. -1.
          2    1    1    2  501    0 -0.29883188392E+02  0.43998375387E+02 -0.19678201702E+03  0.20384313628E+03  0.00000000000E+00 0.  1.
          1    1    1    2  502    0 -0.39083174466E+02  0.15102905839E+02 -0.20363711031E+04  0.20368021166E+04  0.00000000000E+00 0. -1.
         22    1    1    2    0    0 -0.64894049934E+00 -0.75273030946E+02 -0.33867156942E+03  0.34693642392E+03  0.00000000000E+00 0.  1.
         22    1    1    2    0    0  0.69615303357E+02  0.16171749720E+02 -0.17700782517E+03  0.19089155592E+03  0.00000000000E+00 0.  1.
</event>
<event>
 6    1  0.3240171E-005  0.1058844E+03  0.7818608E-02  0.1278454E+00
          2   -1    0    0  502    0  0.00000000000E+00  0.00000000000E+00  0.23868307813E+03  0.23868307813E+03  0.00000000000E+00 0.  1.
          1   -1    0    0  501    0 -0.00000000000E+00 -0.00000000000E+00 -0.19408556737E+03  0.19408556737E+03  0.00000000000E+00 0.  1.
          2    1    1    2  501    0  0.87265104182E+02 -0.15420340315E+02  0.10067050435E+02  0.89187055158E+02  0.00000000000E+00 0.  1.
          1    1    1    2  502    0 -0.59662882747E+02  0.30674559307E+02 -0.12343414925E+03  0.14048692952E+03  0.00000000000E+00 0.  1.
         22    1    1    2    0    0 -0.74385239893E+02  0.80142396996E+01  0.10243501816E+03  0.12684764443E+03  0.00000000000E+00 0.  1.
         22    1    1    2    0    0  0.46783018459E+02 -0.23268458692E+02  0.55529591415E+02  0.76247016392E+02  0.00000000000E+00 0.  1.
</event>
<event>
 6    1  0.3240171E-005  0.1211906E+03  0.7818608E-02  0.1278777E+00
          2   -1    0    0  502    0  0.00000000000E+00  0.00000000000E+00  0.46573270810E+03  0.46573270810E+03  0.00000000000E+00 0.  1.
          1   -1    0    0  501    0 -0.00000000000E+00 -0.00000000000E+00 -0.16640174805E+04  0.16640174805E+04  0.00000000000E+00 0. -1.
          2    1    1    2  501    0  0.71067793866E+02 -0.94576832383E+02  0.75303573352E+02  0.14023564707E+03  0.00000000000E+00 0.  1.
          1    1    1    2  502    0 -0.83018053133E+02  0.76371412758E+02 -0.16173992712E+04  0.16213281569E+04  0.00000000000E+00 0. -1.
         22    1    1    2    0    0 -0.77338141080E-01 -0.38360274936E+02  0.28949504746E+02  0.48058199086E+02  0.00000000000E+00 0. -1.
         22    1    1    2    0    0  0.12027597408E+02  0.56565694561E+02  0.31486142073E+03  0.32012818552E+03  0.00000000000E+00 0.  1.
</event>
<event>
 6    1  0.3240171E-005  0.1231653E+03  0.7818608E-02  0.1295573E+00
          2   -1    0    0  502    0  0.00000000000E+00  0.00000000000E+00  0.40153426431E+03  0.40153426431E+03  0.00000000000E+00 0.  1.
          1   -1    0    0  501    0 -0.00000000000E+00 -0.00000000000E+00 -0.18352048846E+03  0.18352048846E+03  0.00000000000E+00 0.  1.
          2    1    1    2  501    0 -0.27474184747E+02 -0.69087237174E+02  0.13575719544E+03  0.15478337534E+03  0.00000000000E+00 0.  1.
          1    1    1    2  502    0 -0.93161502940E+01  0.10219987361E+03 -0.13730461759E+03  0.17141809366E+03  0.00000000000E+00 0.  1.
         22    1    1    2    0    0  0.29552043360E+02  0.27201990355E+02  0.18427413539E+03  0.18860071188E+03  0.00000000000E+00 0. -1.
         22    1    1    2    0    0  0.72382916807E+01 -0.60314626793E+02  0.35287062600E+02  0.70252571900E+02  0.00000000000E+00 0. -1.
</event>
<event>
 6    1  0.3240171E-005  0.1109027E+03  0.7818608E-02  0.1294494E+00
          2   -1    0    0  502    0  0.00000000000E+00  0.00000000000E+00  0.21815412913E+03  0.21815412913E+03  0.00000000000E+00 0.  1.
          1   -1    0    0  501    0 -0.00000000000E+00 -0.00000000000E+00 -0.11225879948E+03  0.11225879948E+03  0.00000000000E+00 0.  1.
          2    1    1    2  501    0 -0.46148889682E+02 -0.25499583603E+01  0.24553591910E+02  0.52336423094E+02  0.00000000000E+00 0.  1.
          1    1    1    2  502    0  0.99391404650E+02 -0.81508708264E+00 -0.25200640427E+02  0.10253968970E+03  0.00000000000E+00 0.  1.
         22    1    1    2    0    0  0.10519533352E+02  0.55135818714E+02  0.31946745335E+02  0.64584933418E+02  0.00000000000E+00 0. -1.
         22    1    1    2    0    0 -0.63762048319E+02 -0.51770773271E+02  0.74595632836E+02  0.11095188240E+03  0.00000000000E+00 0.  1.
</event>
<event>
 6    1  0.5078625E-005  0.4381446E+02  0.7818608E-02  0.1504233E+00
          2   -1    0    0  502    0  0.00000000000E+00  0.00000000000E+00  0.11657452777E+03  0.11657452777E+03  0.00000000000E+00 0. -1.
          1   -1    0    0  501    0 -0.00000000000E+00 -0.00000000000E+00 -0.25995296960E+04  0.25995296960E+04  0.00000000000E+00 0. -1.
          2    1    1    2  501    0 -0.54537126257E+02 -0.12394395858E+02 -0.93240947850E+02  0.10872807156E+03  0.00000000000E+00 0. -1.
          1    1    1    2  502    0  0.40621519877E+02 -0.53396053088E+01 -0.24601665551E+04  0.24605076911E+04  0.00000000000E+00 0. -1.
         22    1    1    2    0    0  0.28258738756E+02  0.15293442509E+02  0.10477401301E+03  0.10959032576E+03  0.00000000000E+00 0. -1.
         22    1    1    2    0    0 -0.14343132376E+02  0.24405586578E+01 -0.34321678332E+02  0.37278135367E+02  0.00000000000E+00 0. -1.
</event>
<event>
 6    1  0.3240171E-005  0.9692861E+02  0.7818608E-02  0.1320011E+00
          2   -1    0    0  502    0  0.00000000000E+00  0.00000000000E+00  0.89234038043E+02  0.89234038043E+02  0.00000000000E+00 0. -1.
          1   -1    0    0  501    0 -0.00000000000E+00 -0.00000000000E+00 -0.71071840040E+03  0.71071840040E+03  0.00000000000E+00 0. -1.
          2    1    1    2  501    0  0.57253395494E+02 -0.26209987271E+02 -0.52984915555E+03  0.53357758795E+03  0.00000000000E+00 0. -1.
          1    1    1    2  502    0 -0.72810227941E+02  0.87476430163E+02 -0.50965672670E+02  0.12470346795E+03  0.00000000000E+00 0. -1.
         22    1    1    2    0    0  0.30233902647E+02 -0.43292093509E+02  0.34450594317E+02  0.63048692917E+02  0.00000000000E+00 0. -1.
         22    1    1    2    0    0 -0.14677070200E+02 -0.17974349382E+02 -0.75120128455E+02  0.78622689629E+02  0.00000000000E+00 0. -1.
</event>
<event>
 6    1  0.3240171E-005  0.2875278E+03  0.7818608E-02  0.1227005E+00
          2   -1    0    0  502    0  0.00000000000E+00  0.00000000000E+00  0.35778183072E+02  0.35778183072E+02  0.00000000000E+00 0. -1.
          1   -1    0    0  501    0 -0.00000000000E+00 -0.00000000000E+00 -0.23929715573E+04  0.23929715573E+04  0.00000000000E+00 0. -1.
          2    1    1    2  501    0 -0.73981779756E+02 -0.80564902546E+02 -0.55134688514E+03  0.56209198091E+03  0.00000000000E+00 0. -1.
          1    1    1    2  502    0 -0.45485706362E+02 -0.23853289282E+02 -0.14990133580E+04  0.14998929883E+04  0.00000000000E+00 0. -1.
         22    1    1    2    0    0  0.11260380100E+02 -0.45050783524E+01  0.93244729331E+01  0.15298290311E+02  0.00000000000E+00 0. -1.
         22    1    1    2    0    0  0.10820710602E+03  0.10892327018E+03 -0.31615760408E+03  0.35146648090E+03  0.00000000000E+00 0. -1.
</event>
<event>
 6    1  0.3240171E-005  0.1289587E+03  0.7818608E-02  0.1323334E+00
          2   -1    0    0  502    0  0.00000000000E+00  0.00000000000E+00  0.11355731630E+03  0.11355731630E+03  0.00000000000E+00 0. -1.
          1   -1    0    0  501    0 -0.00000000000E+00 -0.00000000000E+00 -0.94114437454E+03  0.94114437454E+03  0.00000000000E+00 0. -1.
          2    1    1    2  501    0  0.93455280528E+02 -0.33311457030E+02 -0.38344161553E+03  0.39606945748E+03  0.00000000000E+00 0. -1.
          1    1    1    2  502    0 -0.13225713049E+03  0.33158431848E+02 -0.49920659448E+03  0.51749266095E+03  0.00000000000E+00 0. -1.
         22    1    1    2    0    0  0.20662916130E+02  0.44297604206E+01  0.94864299480E+02  0.97189578640E+02  0.00000000000E+00 0. -1.
         22    1    1    2    0    0  0.18138933834E+02 -0.42767352389E+01 -0.39803147708E+02  0.43949993771E+02  0.00000000000E+00 0.  1.
</event>
<event>
 6    1  0.3240171E-005  0.1373800E+03  0.7818608E-02  0.1274647E+00
          2   -1    0    0  502    0  0.00000000000E+00  0.00000000000E+00  0.32207618533E+02  0.32207618533E+02  0.00000000000E+00 0. -1.
          1   -1    0    0  501    0 -0.00000000000E+00 -0.00000000000E+00 -0.57316388827E+03  0.57316388827E+03  0.00000000000E+00 0. -1.
          2    1    1    2  501    0  0.71036150223E+02 -0.46089860845E+01 -0.20802915995E+03  0.21987157338E+03  0.00000000000E+00 0. -1.
          1    1    1    2  502    0 -0.36256208328E+02  0.41705760723E+02 -0.15513909936E+03  0.16468765367E+03  0.00000000000E+00 0. -1.
         22    1    1    2    0    0  0.79465670317E+01 -0.41606852743E+02 -0.48714516198E+01  0.42638118669E+02  0.00000000000E+00 0.  1.
         22    1    1    2    0    0 -0.42726508926E+02  0.45100781045E+01 -0.17291655881E+03  0.17817416109E+03  0.00000000000E+00 0.  1.
</event>
<event>
 6    1  0.3240171E-005  0.2125232E+03  0.7818608E-02  0.1178245E+00
          2   -1    0    0  502    0  0.00000000000E+00  0.00000000000E+00  0.53714819748E+03  0.53714819748E+03  0.00000000000E+00 0. -1.
          1   -1    0    0  501    0 -0.00000000000E+00 -0.00000000000E+00 -0.21275185054E+03  0.21275185054E+03  0.00000000000E+00 0. -1.
          2    1    1    2  501    0  0.54416402146E+02 -0.82990075046E+02 -0.17604311914E+03  0.20208829055E+03  0.00000000000E+00 0. -1.
          1    1    1    2  502    0  0.28261226893E+02  0.49104146077E+02  0.21313238121E+03  0.22053418336E+03  0.00000000000E+00 0. -1.
         22    1    1    2    0    0 -0.35744263828E+02 -0.37399073086E+02  0.39218745714E+02  0.64918819149E+02  0.00000000000E+00 0.  1.
         22    1    1    2    0    0 -0.46933365212E+02  0.71285002055E+02  0.24808833915E+03  0.26235875497E+03  0.00000000000E+00 0. -1.
</event>
<event>
 6    1  0.3240171E-005  0.1069818E+03  0.7818608E-02  0.1272461E+00
          2   -1    0    0  502    0  0.00000000000E+00  0.00000000000E+00  0.54544814127E+02  0.54544814127E+02  0.00000000000E+00 0.  1.
          1   -1    0    0  501    0 -0.00000000000E+00 -0.00000000000E+00 -0.13357865097E+04  0.13357865097E+04  0.00000000000E+00 0.  1.
          2    1    1    2  501    0  0.95147813157E+02 -0.43668505591E+02 -0.16867280580E+03  0.19852093125E+03  0.00000000000E+00 0.  1.
          1    1    1    2  502    0 -0.31792583367E+02  0.15950350325E+02 -0.10217807583E+04  0.10223996773E+04  0.00000000000E+00 0.  1.
         22    1    1    2    0    0 -0.87120365575E+02  0.18343366274E+02 -0.16100575040E+02  0.90474668835E+02  0.00000000000E+00 0. -1.
         22    1    1    2    0    0  0.23765135786E+02  0.93747889929E+01 -0.74687556458E+02  0.78936046501E+02  0.00000000000E+00 0. -1.
</event>
<event>
 6    1  0.3240171E-005  0.4288031E+02  0.7818608E-02  0.1539296E+00
          2   -1    0    0  502    0  0.00000000000E+00  0.00000000000E+00  0.68996252796E+02  0.68996252796E+02  0.00000000000E+00 0.  1.
          1   -1    0    0  501    0 -0.00000000000E+00 -0.00000000000E+00 -0.19433058595E+03  0.19433058595E+03  0.00000000000E+00 0.  1.
          2    1    1    2  501    0  0.47053916883E+01 -0.24438445264E+02 -0.58367173493E+02  0.63451597769E+02  0.00000000000E+00 0.  1.
          1    1    1    2  502    0 -0.28165124875E+01  0.39284224447E+02 -0.64890033951E+02  0.75907177125E+02  0.00000000000E+00 0.  1.
         22    1    1    2    0    0  0.16843803952E+02 -0.43558804117E+01 -0.59853889943E+02  0.62331176525E+02  0.00000000000E+00 0.  1.
         22    1    1    2    0    0 -0.18732683152E+02 -0.10489898772E+02  0.57776764232E+02  0.61636887328E+02  0.00000000000E+00 0.  1.
</event>
<event>
 6    1  0.5762934E-005  0.2071187E+03  0.7818608E-02  0.1222398E+00
          2   -1    0    0  502    0  0.00000000000E+00  0.00000000000E+00  0.30735079250E+03  0.30735079250E+03  0.00000000000E+00 0.  1.
          1   -1    0    0  501    0 -0.00000000000E+00 -0.00000000000E+00 -0.25242899455E+03  0.25242899455E+03  0.00000000000E+00 0.  1.
          2    1    1    2  501    0  0.37866359637E+02  0.39018916355E+01 -0.26718906619E+02  0.46507912460E+02  0.00000000000E+00 0.  1.
          1    1    1    2  502    0 -0.28703406628E+02  0.16584052224E+02 -0.20082551160E+03  0.20354312184E+03  0.00000000000E+00 0.  1.
         22    1    1    2    0    0  0.16063663623E+02  0.30789203906E+02  0.17915579800E+02  0.39076647319E+02  0.00000000000E+00 0. -1.
         22    1    1    2    0    0 -0.25226616631E+02 -0.51275147765E+02  0.26455063638E+03  0.27065210543E+03  0.00000000000E+00 0.  1.
</event>
<event>
 6    1  0.3240171E-005  0.2611664E+03  0.7818608E-02  0.1230257E+00
          2   -1    0    0  502    0  0.00000000000E+00  0.00000000000E+00  0.17912884247E+03  0.17912884247E+03  0.00000000000E+00 0.  1.
          1   -1    0    0  501    0 -0.00000000000E+00 -0.00000000000E+00 -0.12853235039E+04  0.12853235039E+04  0.00000000000E+00 0.  1.
          2    1    1    2  501    0 -0.87507917082E+01 -0.22384938517E+02 -0.12123502000E+02  0.26919159137E+02  0.00000000000E+00 0.  1.
          1    1    1    2  502    0  0.21987331083E+03  0.12860454944E+03 -0.11402014764E+04  0.11683076692E+04  0.00000000000E+00 0.  1.
         22    1    1    2    0    0 -0.19929816468E+03 -0.96779549421E+02  0.92535725870E+00  0.22155562714E+03  0.00000000000E+00 0.  1.
         22    1    1    2    0    0 -0.11824354448E+02 -0.94400615025E+01  0.45204959726E+02  0.47669890949E+02  0.00000000000E+00 0. -1.
</event>
<event>
 6    1  0.3240171E-005  0.1188747E+03  0.7818608E-02  0.1342447E+00
          2   -1    0    0  502    0  0.00000000000E+00  0.00000000000E+00  0.33107968656E+02  0.33107968656E+02  0.00000000000E+00 0. -1.
          1   -1    0    0  501    0 -0.00000000000E+00 -0.00000000000E+00 -0.93415131115E+03  0.93415131115E+03  0.00000000000E+00 0. -1.
          2    1    1    2  501    0  0.46871943302E+02 -0.36851397841E+02 -0.37868901677E+03  0.38335411308E+03  0.00000000000E+00 0. -1.
          1    1    1    2  502    0 -0.59020192065E+02  0.10303957384E+03 -0.28035748949E+03  0.30446815722E+03  0.00000000000E+00 0. -1.
         22    1    1    2    0    0 -0.11583007442E+02 -0.15442465600E+02  0.96841410309E+01  0.21596721805E+02  0.00000000000E+00 0. -1.
         22    1    1    2    0    0  0.23731256204E+02 -0.50745710400E+02 -0.25168097726E+03  0.25784028769E+03  0.00000000000E+00 0.  1.
</event>
<event>
 6    1  0.3240171E-005  0.7464890E+02  0.7818608E-02  0.1366752E+00
          2   -1    0    0  502    0  0.00000000000E+00  0.00000000000E+00  0.26294204519E+03  0.26294204519E+03  0.00000000000E+00 0. -1.
          1   -1    0    0  501    0 -0.00000000000E+00 -0.00000000000E+00 -0.29506456938E+03  0.29506456938E+03  0.00000000000E+00 0. -1.
          2    1    1    2  501    0  0.16337482986E+02 -0.20100609475E+02  0.25375604402E+02  0.36261124505E+02  0.00000000000E+00 0. -1.
          1    1    1    2  502    0  0.14301831546E+02  0.65515778991E+02 -0.26634748825E+03  0.27465950590E+03  0.00000000000E+00 0. -1.
         22    1    1    2    0    0 -0.38317445588E+02  0.34615155524E+02  0.81394820856E+02  0.96392699364E+02  0.00000000000E+00 0. -1.
         22    1    1    2    0    0  0.76781310554E+01 -0.80030325040E+02  0.12745453880E+03  0.15069328480E+03  0.00000000000E+00 0. -1.
</event>
<event>
 6    1  0.3240171E-005  0.1067600E+03  0.7818608E-02  0.1297341E+00
          2   -1    0    0  502    0  0.00000000000E+00  0.00000000000E+00  0.13970278765E+02  0.13970278765E+02  0.00000000000E+00 0.  1.
          1   -1    0    0  501    0 -0.00000000000E+00 -0.00000000000E+00 -0.19916643816E+04  0.19916643816E+04  0.00000000000E+00 0. -1.
          2    1    1    2  501    0 -0.49526666397E+02  0.31611524689E+02 -0.34822315329E+03  0.35314521612E+03  0.00000000000E+00 0.  1.
          1    1    1    2  502    0  0.45598626186E+02 -0.13043109329E+02 -0.12757649805E+04  0.12766462481E+04  0.00000000000E+00 0. -1.
         22    1    1    2    0    0 -0.39542195933E+02 -0.52340663185E+02 -0.24964095267E+03  0.25811574057E+03  0.00000000000E+00 0.  1.
         22    1    1    2    0    0  0.43470236144E+02  0.33772247825E+02 -0.10406501633E+03  0.11772745550E+03  0.00000000000E+00 0.  1.
</event>
<event>
 6    1  0.3240171E-005  0.5801173E+02  0.7818608E-02  0.1410849E+00
          2   -1    0    0  502    0  0.00000000000E+00  0.00000000000E+00  0.25384083650E+02  0.25384083650E+02  0.00000000000E+00 0.  1.
          1   -1    0    0  501    0 -0.00000000000E+00 -0.00000000000E+00 -0.63674130080E+03  0.63674130080E+03  0.00000000000E+00 0.  1.
          2    1    1    2  501    0 -0.20388080783E+02  0.74913538146E+01 -0.67617058428E+02  0.71020143695E+02  0.00000000000E+00 0.  1.
          1    1    1    2  502    0 -0.18418766651E+02 -0.15875763028E+02 -0.37158980101E+03  0.37238457410E+03  0.00000000000E+00 0.  1.
         22    1    1    2    0    0 -0.15522526109E+02  0.21572239141E+02 -0.15910817192E+03  0.16131249390E+03  0.00000000000E+00 0.  1.
         22    1    1    2    0    0  0.54329373543E+02 -0.13187829928E+02 -0.13042185794E+02  0.57408172747E+02  0.00000000000E+00 0.  1.
</event>
<event>
 6    1  0.3240171E-005  0.1247353E+03  0.7818608E-02  0.1250214E+00
          2   -1    0    0  502    0  0.00000000000E+00  0.00000000000E+00  0.15849674073E+04  0.15849674073E+04  0.00000000000E+00 0. -1.
          1   -1    0    0  501    0 -0.00000000000E+00 -0.00000000000E+00 -0.35432999268E+02  0.35432999268E+02  0.00000000000E+00 0. -1.
          2    1    1    2  501    0  0.49522825221E+02  0.45618790065E+02  0.71314237718E+03  0.71631392165E+03  0.00000000000E+00 0. -1.
          1    1    1    2  502    0  0.32009941171E+02 -0.18125358330E+02 -0.14585990592E+02  0.39571657407E+02  0.00000000000E+00 0. -1.
         22    1    1    2    0    0 -0.11050148697E+03  0.24443539868E+01  0.63734035718E+03  0.64685337162E+03  0.00000000000E+00 0. -1.
         22    1    1    2    0    0  0.28968720578E+02 -0.29937785722E+02  0.21363766421E+03  0.21766145584E+03  0.00000000000E+00 0. -1.
</event>
<event>
 6    1  0.3240171E-005  0.8067665E+02  0.7818608E-02  0.1335174E+00
          2   -1    0    0  502    0  0.00000000000E+00  0.00000000000E+00  0.23686318978E+03  0.23686318978E+03  0.00000000000E+00 0.  1.
          1   -1    0    0  501    0 -0.00000000000E+00 -0.00000000000E+00 -0.13913057371E+03  0.13913057371E+03  0.00000000000E+00 0.  1.
          2    1    1    2  501    0  0.32594298293E+01 -0.20262117241E+02 -0.11814708732E+01  0.20556584136E+02  0.00000000000E+00 0.  1.
          1    1    1    2  502    0 -0.31893435988E+02  0.42262381397E+01 -0.10848763304E+03  0.11315749587E+03  0.00000000000E+00 0.  1.
         22    1    1    2    0    0 -0.29086360211E+02 -0.33678348355E+02  0.47095220348E+02  0.64793574356E+02  0.00000000000E+00 0.  1.
         22    1    1    2    0    0  0.57720366370E+02  0.49714227456E+02  0.16030649964E+03  0.17748610912E+03  0.00000000000E+00 0.  1.
</event>
<event>
 6    1  0.3240171E-005  0.1200964E+03  0.7818608E-02  0.1295702E+00
          2   -1    0    0  502    0  0.00000000000E+00  0.00000000000E+00  0.71404657404E+03  0.71404657404E+03  0.00000000000E+00 0. -1.
          1   -1    0    0  501    0 -0.00000000000E+00 -0.00000000000E+00 -0.30602798399E+02  0.30602798399E+02  0.00000000000E+00 0. -1.
          2    1    1    2  501    0 -0.22563010850E+02 -0.67061219487E+01  0.67323586125E+02  0.71319890486E+02  0.00000000000E+00 0. -1.
          1    1    1    2  502    0  0.11506052154E+03  0.14169005952E+02  0.25473341819E+03  0.27987282593E+03  0.00000000000E+00 0. -1.
         22    1    1    2    0    0 -0.70667186074E+01  0.42638576540E+02  0.19578995645E+03  0.20050360038E+03  0.00000000000E+00 0. -1.
         22    1    1    2    0    0 -0.85430792087E+02 -0.50101460544E+02  0.16559681488E+03  0.19295305564E+03  0.00000000000E+00 0. -1.
</event>
<event>
 6    1  0.3240171E-005  0.1722400E+03  0.7818608E-02  0.1266694E+00
          2   -1    0    0  502    0  0.00000000000E+00  0.00000000000E+00  0.44527054423E+03  0.44527054423E+03  0.00000000000E+00 0. -1.
          1   -1    0    0  501    0 -0.00000000000E+00 -0.00000000000E+00 -0.93905367072E+02  0.93905367072E+02  0.00000000000E+00 0. -1.
          2    1    1    2  501    0 -0.24850630578E+02  0.29746932180E+02  0.46068547511E+02  0.60205854234E+02  0.00000000000E+00 0. -1.
          1    1    1    2  502    0  0.12163015215E+03 -0.12413529196E+03  0.89705613829E+02  0.19557750836E+03  0.00000000000E+00 0. -1.
         22    1    1    2    0    0  0.90809999629E+01  0.23744245300E+02  0.12403644207E+03  0.12661474127E+03  0.00000000000E+00 0. -1.
         22    1    1    2    0    0 -0.10586052154E+03  0.70644114482E+02  0.91554573749E+02  0.15677780744E+03  0.00000000000E+00 0. -1.
</event>
<event>
 6    1  0.3240171E-005  0.1541769E+03  0.7818608E-02  0.1254992E+00
          2   -1    0    0  502    0  0.00000000000E+00  0.00000000000E+00  0.45909714349E+03  0.45909714349E+03  0.00000000000E+00 0. -1.
          1   -1    0    0  501    0 -0.00000000000E+00 -0.00000000000E+00 -0.53006365087E+03  0.53006365087E+03  0.00000000000E+00 0. -1.
          2    1    1    2  501    0 -0.35185566781E+02  0.29727919483E+02  0.35011254233E+02  0.57858112910E+02  0.00000000000E+00 0. -1.
          1    1    1    2  502    0 -0.37598309341E+02  0.39831539017E+01 -0.50479266062E+03  0.50620660663E+03  0.00000000000E+00 0. -1.
         22    1    1    2    0    0  0.10404339454E+03 -0.65903903977E+01  0.25622570221E+03  0.27662261596E+03  0.00000000000E+00 0.  1.
         22    1    1    2    0    0 -0.31259518413E+02 -0.27120682987E+02  0.14258919680E+03  0.14847345885E+03  0.00000000000E+00 0. -1.
</event>
<event>
 6    1  0.3240171E-005  0.4293540E+03  0.7818608E-02  0.1130786E+00
          2   -1    0    0  502    0  0.00000000000E+00  0.00000000000E+00  0.13960980511E+04  0.13960980511E+04  0.00000000000E+00 0. -1.
          1   -1    0    0  501    0 -0.00000000000E+00 -0.00000000000E+00 -0.13571954518E+03  0.13571954518E+03  0.00000000000E+00 0. -1.
          2    1    1    2  501    0 -0.27100422747E+03  0.17999816507E+03  0.63011029548E+03  0.70914146346E+03  0.00000000000E+00 0. -1.
          1    1    1    2  502    0  0.25013173691E+03 -0.25033444291E+03  0.31403439343E+03  0.47312875560E+03  0.00000000000E+00 0. -1.
         22    1    1    2    0    0  0.46539563144E+02  0.89320888862E+02  0.15268779756E+03  0.18291450366E+03  0.00000000000E+00 0. -1.
         22    1    1    2    0    0 -0.25667072584E+02 -0.18984611023E+02  0.16354601943E+03  0.16663287353E+03  0.00000000000E+00 0. -1.
</event>
<event>
 6    1  0.3240171E-005  0.7204216E+03  0.7818608E-02  0.1060201E+00
          2   -1    0    0  502    0  0.00000000000E+00  0.00000000000E+00  0.52373678919E+03  0.52373678919E+03  0.00000000000E+00 0.  1.
          1   -1    0    0  501    0 -0.00000000000E+00 -0.00000000000E+00 -0.52108800610E+03  0.52108800610E+03  0.00000000000E+00 0. -1.
          2    1    1    2  501    0 -0.36171494200E+01  0.62985445337E+02 -0.27398240553E+03  0.28115228727E+03  0.00000000000E+00 0.  1.
          1    1    1    2  502    0  0.10306322106E+03  0.20519486006E+02 -0.21531347350E+03  0.23958916652E+03  0.00000000000E+00 0. -1.
         22    1    1    2    0    0 -0.36025414769E+02  0.23350555155E+02  0.54758543861E+02  0.69581441930E+02  0.00000000000E+00 0.  1.
         22    1    1    2    0    0 -0.63420656868E+02 -0.10685548650E+03  0.43718611826E+03  0.45450189957E+03  0.00000000000E+00 0.  1.
</event>
<event>
 6    1  0.3240171E-005  0.1789640E+03  0.7818608E-02  0.1220962E+00
          2   -1    0    0  502    0  0.00000000000E+00  0.00000000000E+00  0.62351183212E+03  0.62351183212E+03  0.00000000000E+00 0.  1.
          1   -1    0    0  501    0 -0.00000000000E+00 -0.00000000000E+00 -0.28090908764E+04  0.28090908764E+04  0.00000000000E+00 0. -1.
          2    1    1    2  501    0  0.48434857388E+02 -0.13650300636E+03  0.26190948696E+03  0.29929180663E+03  0.00000000000E+00 0.  1.
          1    1    1    2  502    0  0.88908547097E+01  0.15096018489E+03 -0.27747291014E+04  0.27788468131E+04  0.00000000000E+00 0. -1.
         22    1    1    2    0    0 -0.27802680219E+00 -0.13683732825E+02 -0.70113881387E+01  0.15377951963E+02  0.00000000000E+00 0. -1.
         22    1    1    2    0    0 -0.57047685295E+02 -0.77344569885E+00  0.33425195824E+03  0.33908613685E+03  0.00000000000E+00 0.  1.
</event>
<event>
 6    1  0.3240171E-005  0.1247605E+03  0.7818608E-02  0.1260639E+00
          2   -1    0    0  502    0  0.00000000000E+00  0.00000000000E+00  0.13366920161E+03  0.13366920161E+03  0.00000000000E+00 0. -1.
          1   -1    0    0  501    0 -0.00000000000E+00 -0.00000000000E+00 -0.15021810286E+03  0.15021810286E+03  0.00000000000E+00 0. -1.
          2    1    1    2  501    0 -0.10246120850E+02 -0.41393633091E+02 -0.25132347406E+02  0.49497987222E+02  0.00000000000E+00 0. -1.
          1    1    1    2  502    0  0.16747037551E+02 -0.50729405403E+02 -0.48601951971E+02  0.72222472781E+02  0.00000000000E+00 0. -1.
         22    1    1    2    0    0 -0.51738931574E+02  0.15561111315E+02  0.48868807244E+02  0.72850707253E+02  0.00000000000E+00 0. -1.
         22    1    1    2    0    0  0.45238014873E+02  0.76561927179E+02  0.83165908770E+01  0.89316137214E+02  0.00000000000E+00 0. -1.
</event>
<event>
 6    1  0.3240171E-005  0.8590621E+02  0.7818608E-02  0.1375137E+00
          2   -1    0    0  502    0  0.00000000000E+00  0.00000000000E+00  0.84873398292E+02  0.84873398292E+02  0.00000000000E+00 0.  1.
          1   -1    0    0  501    0 -0.00000000000E+00 -0.00000000000E+00 -0.49563211595E+03  0.49563211595E+03  0.00000000000E+00 0.  1.
          2    1    1    2  501    0  0.83540464381E+01 -0.43574146292E+02 -0.24555036403E+02  0.50709428410E+02  0.00000000000E+00 0.  1.
          1    1    1    2  502    0  0.17364090818E+02  0.77465507346E+02 -0.38828477595E+03  0.39631740274E+03  0.00000000000E+00 0.  1.
         22    1    1    2    0    0 -0.97737445033E+01  0.27829381201E+02  0.47004726558E+02  0.55492745998E+02  0.00000000000E+00 0.  1.
         22    1    1    2    0    0 -0.15944392753E+02 -0.61720742256E+02 -0.44923631860E+02  0.77985937093E+02  0.00000000000E+00 0.  1.
</event>
<event>
 6    1  0.3240171E-005  0.2063532E+03  0.7818608E-02  0.1272961E+00
          2   -1    0    0  502    0  0.00000000000E+00  0.00000000000E+00  0.31334340874E+03  0.31334340874E+03  0.00000000000E+00 0. -1.
          1   -1    0    0  501    0 -0.00000000000E+00 -0.00000000000E+00 -0.47030264185E+03  0.47030264185E+03  0.00000000000E+00 0. -1.
          2    1    1    2  501    0  0.37594541230E+01 -0.38278795633E+02  0.73146763330E+02  0.82642898522E+02  0.00000000000E+00 0. -1.
          1    1    1    2  502    0 -0.13952136929E+03  0.11146800952E+03 -0.39996705287E+03  0.43802394115E+03  0.00000000000E+00 0. -1.
         22    1    1    2    0    0  0.14884945674E+03 -0.73642297966E+02  0.10426349467E+03  0.19608728960E+03  0.00000000000E+00 0. -1.
         22    1    1    2    0    0 -0.13087541568E+02  0.45308407597E+00  0.65597561757E+02  0.66891921321E+02  0.00000000000E+00 0.  1.
</event>
<event>
 6    1  0.3240171E-005  0.2618693E+03  0.7818608E-02  0.1205186E+00
          2   -1    0    0  502    0  0.00000000000E+00  0.00000000000E+00  0.68458842161E+03  0.68458842161E+03  0.00000000000E+00 0.  1.
          1   -1    0    0  501    0 -0.00000000000E+00 -0.00000000000E+00 -0.37795928714E+03  0.37795928714E+03  0.00000000000E+00 0.  1.
          2    1    1    2  501    0 -0.23647662879E+02  0.42913948394E+01 -0.12980051957E+02  0.27315010125E+02  0.00000000000E+00 0.  1.
          1    1    1    2  502    0 -0.10927405988E+02 -0.14725758378E+03 -0.32832089951E+03  0.35999835726E+03  0.00000000000E+00 0.  1.
         22    1    1    2    0    0 -0.23048180609E+02 -0.10817800014E+02  0.10266501121E+03  0.10577498737E+03  0.00000000000E+00 0.  1.
         22    1    1    2    0    0  0.57623249476E+02  0.15378398895E+03  0.54526507472E+03  0.56945935399E+03  0.00000000000E+00 0.  1.
</event>
<event>
 6    1  0.3240171E-005  0.8179824E+02  0.7818608E-02  0.1440108E+00
          2   -1    0    0  502    0  0.00000000000E+00  0.00000000000E+00  0.15977894245E+03  0.15977894245E+03  0.00000000000E+00 0. -1.
          1   -1    0    0  501    0 -0.00000000000E+00 -0.00000000000E+00 -0.25289723439E+03  0.25289723439E+03  0.00000000000E+00 0. -1.
          2    1    1    2  501    0  0.52777094984E+02 -0.10866587244E+02 -0.15035950021E+03  0.15972314728E+03  0.00000000000E+00 0. -1.
          1    1    1    2  502    0 -0.81589964207E+02 -0.89780738028E+01  0.90884870265E+02  0.12246463862E+03  0.00000000000E+00 0. -1.
         22    1    1    2    0    0  0.26731803689E+02  0.76765043302E+01 -0.78858157495E+02  0.83618939545E+02  0.00000000000E+00 0. -1.
         22    1    1    2    0    0  0.20810655340E+01  0.12168156717E+02  0.45214495501E+02  0.46869451406E+02  0.00000000000E+00 0. -1.
</event>
<event>
 6    1  0.3240171E-005  0.9042691E+02  0.7818608E-02  0.1326472E+00
          2   -1    0    0  502    0  0.00000000000E+00  0.00000000000E+00  0.37288056760E+03  0.37288056760E+03  0.00000000000E+00 0.  1.
          1   -1    0    0  501    0 -0.00000000000E+00 -0.00000000000E+00 -0.23207684236E+02  0.23207684236E+02  0.00000000000E+00 0.  1.
          2    1    1    2  501    0 -0.15844601428E+00  0.30630657017E+02  0.10138868952E+03  0.10591472333E+03  0.00000000000E+00 0.  1.
          1    1    1    2  502    0 -0.12845783799E+02 -0.25270883819E+02  0.45836944671E+02  0.53894871994E+02  0.00000000000E+00 0.  1.
         22    1    1    2    0    0 -0.44674431217E+02  0.82808335837E+01  0.31336863938E+02  0.55193985640E+02  0.00000000000E+00 0.  1.
         22    1    1    2    0    0  0.57678661031E+02 -0.13640606781E+02  0.17111038523E+03  0.18108467087E+03  0.00000000000E+00 0.  1.
</event>
<event>
 6    1  0.3240171E-005  0.1718241E+03  0.7818608E-02  0.1269126E+00
          2   -1    0    0  502    0  0.00000000000E+00  0.00000000000E+00  0.32145309855E+03  0.32145309855E+03  0.00000000000E+00 0.  1.
          1   -1    0    0  501    0 -0.00000000000E+00 -0.00000000000E+00 -0.18398167873E+03  0.18398167873E+03  0.00000000000E+00 0.  1.
          2    1    1    2  501    0  0.85238579438E+02 -0.31001938787E+02  0.30028887901E+02  0.95543025605E+02  0.00000000000E+00 0.  1.
          1    1    1    2  502    0 -0.15385865376E+03  0.21275137836E+02 -0.79019986574E+02  0.17426782579E+03  0.00000000000E+00 0.  1.
         22    1    1    2    0    0  0.88306799653E+02  0.24185909443E+02  0.66399597272E+02  0.11310152783E+03  0.00000000000E+00 0.  1.
         22    1    1    2    0    0 -0.19686725330E+02 -0.14459108491E+02  0.12006292122E+03  0.12252239805E+03  0.00000000000E+00 0.  1.
</event>
<event>
 6    1  0.3240171E-005  0.3200381E+03  0.7818608E-02  0.1078787E+00
          2   -1    0    0  502    0  0.00000000000E+00  0.00000000000E+00  0.50774084961E+03  0.50774084961E+03  0.00000000000E+00 0. -1.
          1   -1    0    0  501    0 -0.00000000000E+00 -0.00000000000E+00 -0.65788012252E+03  0.65788012252E+03  0.00000000000E+00 0.  1.
          2    1    1    2  501    0 -0.27126887099E+03  0.10217883987E+03  0.64205743578E+02  0.29690014010E+03  0.00000000000E+00 0. -1.
          1    1    1    2  502    0  0.31080738917E+03  0.17895147760E+03 -0.37562337708E+03  0.51934361064E+03  0.00000000000E+00 0.  1.
         22    1    1    2    0    0 -0.82455591752E+01  0.11030725445E+02 -0.82366864594E+00  0.13796542320E+02  0.00000000000E+00 0.  1.
         22    1    1    2    0    0 -0.31292959013E+02 -0.29216104292E+03  0.16210202924E+03  0.33558067907E+03  0.00000000000E+00 0. -1.
</event>
<event>
 6    1  0.3240171E-005  0.3451755E+03  0.7818608E-02  0.1111650E+00
          2   -1    0    0  502    0  0.00000000000E+00  0.00000000000E+00  0.30389444032E+03  0.30389444032E+03  0.00000000000E+00 0. -1.
          1   -1    0    0  501    0 -0.00000000000E+00 -0.00000000000E+00 -0.83236657106E+03  0.83236657106E+03  0.00000000000E+00 0.  1.
          2    1    1    2  501    0  0.13062557053E+03  0.97402971450E+02 -0.10301153631E+03  0.19277384454E+03  0.00000000000E+00 0. -1.
          1    1    1    2  502    0 -0.64475160649E+02 -0.13784132184E+02 -0.65551903874E+03  0.65882642539E+03  0.00000000000E+00 0.  1.
         22    1    1    2    0    0 -0.77255298463E+02 -0.46257079783E+02  0.55436590060E+02  0.10574173295E+03  0.00000000000E+00 0. -1.
         22    1    1    2    0    0  0.11104888582E+02 -0.37361759483E+02  0.17462185425E+03  0.17891900850E+03  0.00000000000E+00 0. -1.
</event>
<event>
 6    1  0.3240171E-005  0.1587883E+03  0.7818608E-02  0.1290569E+00
          2   -1    0    0  502    0  0.00000000000E+00  0.00000000000E+00  0.96471651454E+02  0.96471651454E+02  0.00000000000E+00 0.  1.
          1   -1    0    0  501    0 -0.00000000000E+00 -0.00000000000E+00 -0.15092940862E+04  0.15092940862E+04  0.00000000000E+00 0.  1.
          2    1    1    2  501    0  0.37314955749E+02  0.37355243302E+02  0.96198409614E+01  0.53668999105E+02  0.00000000000E+00 0.  1.
          1    1    1    2  502    0 -0.15534112936E+02 -0.12543005775E+03 -0.13890574009E+04  0.13947954943E+04  0.00000000000E+00 0.  1.
         22    1    1    2    0    0  0.10693243491E+02 -0.17579668142E+02  0.24933366952E+02  0.32327433797E+02  0.00000000000E+00 0.  1.
         22    1    1    2    0    0 -0.32474086304E+02  0.10565448259E+03 -0.58318241817E+02  0.12497381046E+03  0.00000000000E+00 0.  1.
</event>
<event>
 6    1  0.3240171E-005  0.5241234E+02  0.7818608E-02  0.1491660E+00
          2   -1    0    0  502    0  0.00000000000E+00  0.00000000000E+00  0.48966254706E+02  0.48966254706E+02  0.00000000000E+00 0. -1.
          1   -1    0    0  501    0 -0.00000000000E+00 -0.00000000000E+00 -0.69802650708E+03  0.69802650708E+03  0.00000000000E+00 0. -1.
          2    1    1    2  501    0  0.30378980487E+02 -0.10549821607E+02 -0.10966193012E+03  0.11428000748E+03  0.00000000000E+00 0. -1.
          1    1    1    2  502    0 -0.41351950177E+02  0.14892386226E+02 -0.50276566960E+03  0.50468315355E+03  0.00000000000E+00 0. -1.
         22    1    1    2    0    0  0.20635064135E+02  0.15780110111E+02 -0.77349627708E+02  0.81595236709E+02  0.00000000000E+00 0.  1.
         22    1    1    2    0    0 -0.96620944449E+01 -0.20122674730E+02  0.40716975052E+02  0.46434364050E+02  0.00000000000E+00 0. -1.
</event>
<event>
 6    1  0.3240171E-005  0.2946435E+03  0.7818608E-02  0.1217866E+00
          2   -1    0    0  502    0  0.00000000000E+00  0.00000000000E+00  0.49160733675E+02  0.49160733675E+02  0.00000000000E+00 0.  1.
          1   -1    0    0  501    0 -0.00000000000E+00 -0.00000000000E+00 -0.20079459483E+04  0.20079459483E+04  0.00000000000E+00 0.  1.
          2    1    1    2  501    0  0.86258759803E+01  0.38407649199E+02 -0.16505680641E+03  0.16968589392E+03  0.00000000000E+00 0.  1.
          1    1    1    2  502    0 -0.91233247968E+01 -0.28376085306E+03 -0.11930046917E+04  0.12263211860E+04  0.00000000000E+00 0.  1.
         22    1    1    2    0    0  0.81617034413E+01 -0.10933552233E+02 -0.93669806166E+01  0.16549812487E+02  0.00000000000E+00 0. -1.
         22    1    1    2    0    0 -0.76642546249E+01  0.25628675610E+03 -0.59135673586E+03  0.64454978954E+03  0.00000000000E+00 0.  1.
</event>
<event>
 6    1  0.3240171E-005  0.1480894E+03  0.7818608E-02  0.1219119E+00
          2   -1    0    0  502    0  0.00000000000E+00  0.00000000000E+00  0.43487458049E+03  0.43487458049E+03  0.00000000000E+00 0.  1.
          1   -1    0    0  501    0 -0.00000000000E+00 -0.00000000000E+00 -0.29476386772E+03  0.29476386772E+03  0.00000000000E+00 0. -1.
          2    1    1    2  501    0 -0.12445360143E+03 -0.70923815107E+02  0.77585236123E+02  0.16290597080E+03  0.00000000000E+00 0.  1.
          1    1    1    2  502    0  0.47157071551E+02  0.13599248748E+03 -0.20675162043E+03  0.25192057994E+03  0.00000000000E+00 0. -1.
         22    1    1    2    0    0  0.93802685676E+02 -0.46434578357E+02  0.27034130814E+03  0.28989573435E+03  0.00000000000E+00 0.  1.
         22    1    1    2    0    0 -0.16506155800E+02 -0.18634094017E+02 -0.10642110699E+01  0.24916163114E+02  0.00000000000E+00 0.  1.
</event>
<event>
 6    1  0.3240171E-005  0.3674111E+02  0.7818608E-02  0.1559807E+00
          2   -1    0    0  502    0  0.00000000000E+00  0.00000000000E+00  0.34410588663E+02  0.34410588663E+02  0.00000000000E+00 0. -1.
          1   -1    0    0  501    0 -0.00000000000E+00 -0.00000000000E+00 -0.14676218705E+04  0.14676218705E+04  0.00000000000E+00 0. -1.
          2    1    1    2  501    0  0.13113276893E+01  0.23550842142E+02 -0.17817188067E+03  0.17972640543E+03  0.00000000000E+00 0. -1.
          1    1    1    2  502    0  0.57744470883E+01 -0.29310304565E+02 -0.11766087763E+04  0.11769879569E+04  0.00000000000E+00 0. -1.
         22    1    1    2    0    0  0.15825909338E+02  0.18510240587E+02 -0.10511963583E+03  0.10790378237E+03  0.00000000000E+00 0. -1.
         22    1    1    2    0    0 -0.22911684115E+02 -0.12750778164E+02  0.26689011033E+02  0.37414314409E+02  0.00000000000E+00 0. -1.
</event>
<event>
 6    1  0.3240171E-005  0.4834053E+03  0.7818608E-02  0.1018673E+00
          2   -1    0    0  502    0  0.00000000000E+00  0.00000000000E+00  0.37397834851E+04  0.37397834851E+04  0.00000000000E+00 0.  1.
          1   -1    0    0  501    0 -0.00000000000E+00 -0.00000000000E+00 -0.12527677017E+03  0.12527677017E+03  0.00000000000E+00 0.  1.
          2    1    1    2  501    0 -0.22146909503E+02  0.53692375947E+03  0.13906244278E+04  0.14908433547E+04  0.00000000000E+00 0.  1.
          1    1    1    2  502    0  0.14129906278E+03 -0.10196909094E+03  0.10310021906E+03  0.20246672769E+03  0.00000000000E+00 0.  1.
         22    1    1    2    0    0 -0.10949390149E+03 -0.43961740855E+03  0.21005478130E+04  0.21488493421E+04  0.00000000000E+00 0.  1.
         22    1    1    2    0    0 -0.96582517819E+01  0.46627400225E+01  0.20234255092E+02  0.22900830795E+02  0.00000000000E+00 0. -1.
</event>
<event>
 6    1  0.3240171E-005  0.1261197E+03  0.7818608E-02  0.1292348E+00
          2   -1    0    0  502    0  0.00000000000E+00  0.00000000000E+00  0.12317995100E+03  0.12317995100E+03  0.00000000000E+00 0. -1.
          1   -1    0    0  501    0 -0.00000000000E+00 -0.00000000000E+00 -0.30338967414E+03  0.30338967414E+03  0.00000000000E+00 0. -1.
          2    1    1    2  501    0 -0.59447507799E+01 -0.43925374378E+02 -0.77630416581E+02  0.89393848528E+02  0.00000000000E+00 0. -1.
          1    1    1    2  502    0  0.69784688332E+02  0.10576254454E+03 -0.12648357333E+03  0.17903550730E+03  0.00000000000E+00 0. -1.
         22    1    1    2    0    0 -0.43338901159E+01 -0.39485403185E+02  0.69404842563E+02  0.79968192673E+02  0.00000000000E+00 0. -1.
         22    1    1    2    0    0 -0.59506047436E+02 -0.22351766974E+02 -0.45500575801E+02  0.78172076642E+02  0.00000000000E+00 0. -1.
</event>
<event>
 6    1  0.3240171E-005  0.2512081E+03  0.7818608E-02  0.1197345E+00
          2   -1    0    0  502    0  0.00000000000E+00  0.00000000000E+00  0.25255997176E+03  0.25255997176E+03  0.00000000000E+00 0.  1.
          1   -1    0    0  501    0 -0.00000000000E+00 -0.00000000000E+00 -0.34715299879E+03  0.34715299879E+03  0.00000000000E+00 0.  1.
          2    1    1    2  501    0 -0.51288721597E+02  0.67715169665E+02  0.11922251742E+02  0.85778885819E+02  0.00000000000E+00 0.  1.
          1    1    1    2  502    0  0.61436816506E+02 -0.24334899481E+03 -0.14970230040E+03  0.29223961819E+03  0.00000000000E+00 0.  1.
         22    1    1    2    0    0 -0.35520712296E+02  0.15272571114E+03 -0.11477528687E+02  0.15722149188E+03  0.00000000000E+00 0. -1.
         22    1    1    2    0    0  0.25372617388E+02  0.22908114001E+02  0.54664550316E+02  0.64472974660E+02  0.00000000000E+00 0.  1.
</event>
<event>
 6    1  0.3240171E-005  0.2503991E+03  0.7818608E-02  0.1156587E+00
          2   -1    0    0  502    0  0.00000000000E+00  0.00000000000E+00  0.29881828439E+03  0.29881828439E+03  0.00000000000E+00 0.  1.
          1   -1    0    0  501    0 -0.00000000000E+00 -0.00000000000E+00 -0.47802849031E+03  0.47802849031E+03  0.00000000000E+00 0.  1.
          2    1    1    2  501    0  0.16196424049E+03  0.14433284005E+03  0.20010653764E+03  0.29513896781E+03  0.00000000000E+00 0.  1.
          1    1    1    2  502    0 -0.13301509197E+03 -0.81468551897E+02 -0.18256112122E+03  0.24012226598E+03  0.00000000000E+00 0.  1.
         22    1    1    2    0    0 -0.31568959172E+02  0.23821621194E+02 -0.19158814352E+02  0.43944612717E+02  0.00000000000E+00 0.  1.
         22    1    1    2    0    0  0.26198106546E+01 -0.86685909352E+02 -0.17759680799E+03  0.19764092819E+03  0.00000000000E+00 0.  1.
</event>
<event>
 6    1  0.3240171E-005  0.1334675E+03  0.7818608E-02  0.1345376E+00
          2   -1    0    0  502    0  0.00000000000E+00  0.00000000000E+00  0.36049256477E+02  0.36049256477E+02  0.00000000000E+00 0. -1.
          1   -1    0    0  501    0 -0.00000000000E+00 -0.00000000000E+00 -0.55042613805E+03  0.55042613805E+03  0.00000000000E+00 0. -1.
          2    1    1    2  501    0 -0.47076224514E+01 -0.52907395835E+02 -0.18008627490E+03  0.18775627993E+03  0.00000000000E+00 0. -1.
          1    1    1    2  502    0 -0.25128808202E+02 -0.59898659561E+01 -0.20616333167E+03  0.20777549139E+03  0.00000000000E+00 0. -1.
         22    1    1    2    0    0  0.27594028000E+02  0.71669931265E+02 -0.14827485312E+03  0.16698335695E+03  0.00000000000E+00 0. -1.
         22    1    1    2    0    0  0.22424026535E+01 -0.12772669474E+02  0.20147578126E+02  0.23960266265E+02  0.00000000000E+00 0. -1.
</event>
<event>
 6    1  0.3240171E-005  0.2932459E+03  0.7818608E-02  0.1208938E+00
          2   -1    0    0  502    0  0.00000000000E+00  0.00000000000E+00  0.22763481905E+03  0.22763481905E+03  0.00000000000E+00 0. -1.
          1   -1    0    0  501    0 -0.00000000000E+00 -0.00000000000E+00 -0.47540430320E+03  0.47540430320E+03  0.00000000000E+00 0. -1.
          2    1    1    2  501    0 -0.13372716227E+03 -0.15250182874E+03 -0.14666414852E+03  0.25030008821E+03  0.00000000000E+00 0. -1.
          1    1    1    2  502    0  0.15738807991E+03  0.22870220146E+03 -0.12174290194E+03  0.30314524378E+03  0.00000000000E+00 0. -1.
         22    1    1    2    0    0  0.13842543340E+02  0.93930620707E+01  0.49128042065E+02  0.51898074515E+02  0.00000000000E+00 0. -1.
         22    1    1    2    0    0 -0.37503460981E+02 -0.85593434797E+02 -0.28490475763E+02  0.97695715746E+02  0.00000000000E+00 0. -1.
</event>
<event>
 6    1  0.3240171E-005  0.5506459E+03  0.7818608E-02  0.1127747E+00
          2   -1    0    0  502    0  0.00000000000E+00  0.00000000000E+00  0.18912390891E+04  0.18912390891E+04  0.00000000000E+00 0. -1.
          1   -1    0    0  501    0 -0.00000000000E+00 -0.00000000000E+00 -0.25261849114E+03  0.25261849114E+03  0.00000000000E+00 0.  1.
          2    1    1    2  501    0 -0.12188168877E+03 -0.22276699084E+03  0.60726971878E+03  0.65822244691E+03  0.00000000000E+00 0. -1.
          1    1    1    2  502    0 -0.30201206290E+02  0.22659745375E+01 -0.20858688855E+03  0.21077413877E+03  0.00000000000E+00 0.  1.
         22    1    1    2    0    0 -0.16023551878E+02 -0.30367550584E+01  0.83804021997E+02  0.85376168800E+02  0.00000000000E+00 0.  1.
         22    1    1    2    0    0  0.16810644693E+03  0.22353777136E+03  0.11561337457E+04  0.11894848258E+04  0.00000000000E+00 0.  1.
</event>
<event>
 6    1  0.3240171E-005  0.1333472E+03  0.7818608E-02  0.1309560E+00
          2   -1    0    0  502    0  0.00000000000E+00  0.00000000000E+00  0.19148922264E+03  0.19148922264E+03  0.00000000000E+00 0. -1.
          1   -1    0    0  501    0 -0.00000000000E+00 -0.00000000000E+00 -0.43104161753E+03  0.43104161753E+03  0.00000000000E+00 0. -1.
          2    1    1    2  501    0 -0.13548068617E+02 -0.78093984192E+02 -0.34945360892E+02  0.86622161011E+02  0.00000000000E+00 0. -1.
          1    1    1    2  502    0  0.78677976833E+01  0.12520333656E+03 -0.32828032845E+03  0.35143385120E+03  0.00000000000E+00 0. -1.
         22    1    1    2    0    0 -0.22809469153E+02 -0.88911022219E+01  0.13356555019E+03  0.13579057323E+03  0.00000000000E+00 0. -1.
         22    1    1    2    0    0  0.28489740086E+02 -0.38218250144E+02 -0.98922557370E+01  0.48684254722E+02  0.00000000000E+00 0. -1.
</event>
<event>
 6    1  0.3240171E-005  0.1398095E+03  0.7818608E-02  0.1261540E+00
          2   -1    0    0  502    0  0.00000000000E+00  0.00000000000E+00  0.76820483981E+02  0.76820483981E+02  0.00000000000E+00 0.  1.
          1   -1    0    0  501    0 -0.00000000000E+00 -0.00000000000E+00 -0.55711943168E+03  0.55711943168E+03  0.00000000000E+00 0.  1.
          2    1    1    2  501    0  0.17811530367E+02  0.81712058798E+02 -0.31404181761E+03  0.32498672954E+03  0.00000000000E+00 0.  1.
          1    1    1    2  502    0 -0.65153616732E+02 -0.63442712258E+02  0.26876534332E+01  0.90979090966E+02  0.00000000000E+00 0.  1.
         22    1    1    2    0    0  0.40285179455E+02  0.33766333959E+02 -0.14035530507E+02  0.54406406878E+02  0.00000000000E+00 0.  1.
         22    1    1    2    0    0  0.70569069104E+01 -0.52035680498E+02 -0.15490925302E+03  0.16356768828E+03  0.00000000000E+00 0.  1.
</event>
<event>
 6    1  0.3240171E-005  0.1856013E+03  0.7818608E-02  0.1214048E+00
          2   -1    0    0  502    0  0.00000000000E+00  0.00000000000E+00  0.74348067559E+02  0.74348067559E+02  0.00000000000E+00 0. -1.
          1   -1    0    0  501    0 -0.00000000000E+00 -0.00000000000E+00 -0.72733712353E+03  0.72733712353E+03  0.00000000000E+00 0. -1.
          2    1    1    2  501    0  0.43188367752E+02 -0.79371087497E+02 -0.23105242569E+03  0.24809318422E+03  0.00000000000E+00 0. -1.
          1    1    1    2  502    0 -0.10663834712E+03  0.14761577772E+03 -0.13065503758E+03  0.22412695901E+03  0.00000000000E+00 0. -1.
         22    1    1    2    0    0  0.54216849426E+02  0.23713419735E+02 -0.14272242430E+03  0.15450399164E+03  0.00000000000E+00 0. -1.
         22    1    1    2    0    0  0.92331299394E+01 -0.91958109959E+02 -0.14855916841E+03  0.17496105622E+03  0.00000000000E+00 0. -1.
</event>
<event>
 6    1  0.3240171E-005  0.1854442E+03  0.7818608E-02  0.1166468E+00
          2   -1    0    0  502    0  0.00000000000E+00  0.00000000000E+00  0.54140063472E+03  0.54140063472E+03  0.00000000000E+00 0. -1.
          1   -1    0    0  501    0 -0.00000000000E+00 -0.00000000000E+00 -0.41657845953E+03  0.41657845953E+03  0.00000000000E+00 0. -1.
          2    1    1    2  501    0  0.12033318200E+03  0.62222946389E+02  0.28231523494E+03  0.31313521301E+03  0.00000000000E+00 0. -1.
          1    1    1    2  502    0  0.14568382552E+03 -0.63810283754E+02 -0.28417956818E+03  0.32565864997E+03  0.00000000000E+00 0. -1.
         22    1    1    2    0    0 -0.27100920482E+03 -0.19104191271E+02  0.11757116737E+03  0.29603030017E+03  0.00000000000E+00 0. -1.
         22    1    1    2    0    0  0.49921972969E+01  0.20691528635E+02  0.91153410599E+01  0.23154931090E+02  0.00000000000E+00 0.  1.
</event>
<event>
 6    1  0.3240171E-005  0.2677269E+03  0.7818608E-02  0.1230125E+00
          2   -1    0    0  502    0  0.00000000000E+00  0.00000000000E+00  0.15659008394E+03  0.15659008394E+03  0.00000000000E+00 0. -1.
          1   -1    0    0  501    0 -0.00000000000E+00 -0.00000000000E+00 -0.83330077752E+03  0.83330077752E+03  0.00000000000E+00 0. -1.
          2    1    1    2  501    0 -0.18839656153E+03  0.92283174687E+02 -0.49703404035E+03  0.53949261903E+03  0.00000000000E+00 0. -1.
          1    1    1    2  502    0  0.16027256074E+03 -0.12052073656E+03  0.28773292892E+02  0.20258441216E+03  0.00000000000E+00 0. -1.
         22    1    1    2    0    0 -0.29890654758E+01 -0.13762563316E+02  0.13670017861E+02  0.19626819655E+02  0.00000000000E+00 0. -1.
         22    1    1    2    0    0  0.31113066264E+02  0.42000125192E+02 -0.22211996399E+03  0.22818701061E+03  0.00000000000E+00 0. -1.
</event>
<event>
 6    1  0.3240171E-005  0.2528802E+03  0.7818608E-02  0.1191926E+00
          2   -1    0    0  502    0  0.00000000000E+00  0.00000000000E+00  0.50265256291E+03  0.50265256291E+03  0.00000000000E+00 0. -1.
          1   -1    0    0  501    0 -0.00000000000E+00 -0.00000000000E+00 -0.69996638909E+03  0.69996638909E+03  0.00000000000E+00 0.  1.
          2    1    1    2  501    0 -0.11295959223E+03  0.29543823214E+02  0.10086883030E+03  0.15429591017E+03  0.00000000000E+00 0. -1.
          1    1    1    2  502    0  0.18681811873E+02 -0.29917427005E+02 -0.65649618464E+03  0.65744300360E+03  0.00000000000E+00 0.  1.
         22    1    1    2    0    0 -0.42441850221E+01  0.42582781558E+02  0.58484416564E+02  0.72468844151E+02  0.00000000000E+00 0. -1.
         22    1    1    2    0    0  0.98521965381E+02 -0.42209177767E+02  0.29982911160E+03  0.31841119408E+03  0.00000000000E+00 0. -1.
</event>
<event>
 6    1  0.3240171E-005  0.2437028E+03  0.7818608E-02  0.1117764E+00
          2   -1    0    0  502    0  0.00000000000E+00  0.00000000000E+00  0.37686109119E+03  0.37686109119E+03  0.00000000000E+00 0. -1.
          1   -1    0    0  501    0 -0.00000000000E+00 -0.00000000000E+00 -0.90833632150E+03  0.90833632150E+03  0.00000000000E+00 0.  1.
          2    1    1    2  501    0 -0.11228717067E+03 -0.19183578271E+03  0.66538750167E+02  0.23202754470E+03  0.00000000000E+00 0. -1.
          1    1    1    2  502    0  0.13485891524E+02 -0.16314375723E+02 -0.74903687135E+03  0.74933588114E+03  0.00000000000E+00 0.  1.
         22    1    1    2    0    0 -0.14969896018E+02 -0.83326141045E+01  0.15230359701E+01  0.17200287299E+02  0.00000000000E+00 0. -1.
         22    1    1    2    0    0  0.11377117516E+03  0.21648277254E+03  0.14949985490E+03  0.28663369955E+03  0.00000000000E+00 0.  1.
</event>
<event>
 6    1  0.3240171E-005  0.7515130E+02  0.7818608E-02  0.1462356E+00
          2   -1    0    0  502    0  0.00000000000E+00  0.00000000000E+00  0.75312748582E+02  0.75312748582E+02  0.00000000000E+00 0. -1.
          1   -1    0    0  501    0 -0.00000000000E+00 -0.00000000000E+00 -0.17459790904E+04  0.17459790904E+04  0.00000000000E+00 0.  1.
          2    1    1    2  501    0 -0.51203564610E+02 -0.57277602872E+01 -0.17134171659E+03  0.17892064194E+03  0.00000000000E+00 0. -1.
          1    1    1    2  502    0  0.55062971919E+02 -0.24885009611E+02 -0.15119099332E+04  0.15131169290E+04  0.00000000000E+00 0.  1.
         22    1    1    2    0    0 -0.16106361899E+01  0.19359410704E+02 -0.56228718372E+02  0.59489912603E+02  0.00000000000E+00 0. -1.
         22    1    1    2    0    0 -0.22487711190E+01  0.11253359194E+02  0.68814026382E+02  0.69764355451E+02  0.00000000000E+00 0. -1.
</event>
<event>
 6    1  0.3240171E-005  0.4228280E+03  0.7818608E-02  0.1163266E+00
          2   -1    0    0  502    0  0.00000000000E+00  0.00000000000E+00  0.61384508431E+02  0.61384508431E+02  0.00000000000E+00 0.  1.
          1   -1    0    0  501    0 -0.00000000000E+00 -0.00000000000E+00 -0.21497952216E+04  0.21497952216E+04  0.00000000000E+00 0.  1.
          2    1    1    2  501    0  0.10624710716E+03  0.42682014551E+02 -0.10208160085E+04  0.10272173701E+04  0.00000000000E+00 0.  1.
          1    1    1    2  502    0  0.15773472541E+02  0.38929419339E+02 -0.96570143625E+03  0.96661448681E+03  0.00000000000E+00 0.  1.
         22    1    1    2    0    0 -0.82786219271E+01  0.13006707141E+02  0.20278126804E+02  0.25473759800E+02  0.00000000000E+00 0.  1.
         22    1    1    2    0    0 -0.11374195777E+03 -0.94618141030E+02 -0.12217139523E+03  0.19187411337E+03  0.00000000000E+00 0.  1.
</event>
<event>
 6    1  0.3240171E-005  0.1925193E+03  0.7818608E-02  0.1190174E+00
          2   -1    0    0  502    0  0.00000000000E+00  0.00000000000E+00  0.57621726993E+03  0.57621726993E+03  0.00000000000E+00 0. -1.
          1   -1    0    0  501    0 -0.00000000000E+00 -0.00000000000E+00 -0.49080513984E+03  0.49080513984E+03  0.00000000000E+00 0. -1.
          2    1    1    2  501    0 -0.22434011230E+03  0.43118484208E+02 -0.16021983200E+03  0.27903061523E+03  0.00000000000E+00 0. -1.
          1    1    1    2  502    0  0.16010500615E+03  0.15575241450E+02 -0.23419897483E+03  0.28412208811E+03  0.00000000000E+00 0. -1.
         22    1    1    2    0    0 -0.10712703567E+02 -0.10894252343E+02 -0.59355024134E+00  0.15290488995E+02  0.00000000000E+00 0. -1.
         22    1    1    2    0    0  0.74947809716E+02 -0.47799473315E+02  0.48042448717E+03  0.48857921743E+03  0.00000000000E+00 0. -1.
</event>
<event>
 6    1  0.3240171E-005  0.2341396E+03  0.7818608E-02  0.1206439E+00
          2   -1    0    0  502    0  0.00000000000E+00  0.00000000000E+00  0.47065836102E+03  0.47065836102E+03  0.00000000000E+00 0. -1.
          1   -1    0    0  501    0 -0.00000000000E+00 -0.00000000000E+00 -0.15805247698E+03  0.15805247698E+03  0.00000000000E+00 0. -1.
          2    1    1    2  501    0  0.13145536995E+03 -0.39993100922E+02  0.15765445716E+03  0.20912888436E+03  0.00000000000E+00 0. -1.
          1    1    1    2  502    0 -0.17340991654E+03  0.10694969414E+03 -0.31077249622E+01  0.20376185655E+03  0.00000000000E+00 0. -1.
         22    1    1    2    0    0  0.25842264941E+00  0.34672611793E+02  0.56064115098E+02  0.65919965053E+02  0.00000000000E+00 0. -1.
         22    1    1    2    0    0  0.41696123935E+02 -0.10162920501E+03  0.10199503674E+03  0.14990013203E+03  0.00000000000E+00 0. -1.
</event>
<event>
 6    1  0.3240171E-005  0.1762187E+03  0.7818608E-02  0.1241812E+00
          2   -1    0    0  502    0  0.00000000000E+00  0.00000000000E+00  0.21745514120E+03  0.21745514120E+03  0.00000000000E+00 0. -1.
          1   -1    0    0  501    0 -0.00000000000E+00 -0.00000000000E+00 -0.27419983381E+03  0.27419983381E+03  0.00000000000E+00 0. -1.
          2    1    1    2  501    0 -0.23097550277E+01  0.51920506737E+02 -0.35959273902E+01  0.52096110046E+02  0.00000000000E+00 0. -1.
          1    1    1    2  502    0  0.85980771340E+02  0.68763619202E+02 -0.17869000459E+03  0.20988388720E+03  0.00000000000E+00 0. -1.
         22    1    1    2    0    0 -0.64208275177E+02 -0.87013021580E+02  0.10982841738E+02  0.10869494624E+03  0.00000000000E+00 0. -1.
         22    1    1    2    0    0 -0.19462741135E+02 -0.33671104360E+02  0.11455839763E+03  0.12098003153E+03  0.00000000000E+00 0. -1.
</event>
<event>
 6    1  0.3240171E-005  0.1850916E+03  0.7818608E-02  0.1204595E+00
          2   -1    0    0  502    0  0.00000000000E+00  0.00000000000E+00  0.81638429377E+02  0.81638429377E+02  0.00000000000E+00 0. -1.
          1   -1    0    0  501    0 -0.00000000000E+00 -0.00000000000E+00 -0.68829756831E+03  0.68829756831E+03  0.00000000000E+00 0. -1.
          2    1    1    2  501    0 -0.41855240992E+02  0.30415697155E+02 -0.66363342603E+01  0.52163366114E+02  0.00000000000E+00 0. -1.
          1    1    1    2  502    0 -0.52071772465E+02  0.81426008923E+02 -0.48075105559E+03  0.49037051489E+03  0.00000000000E+00 0. -1.
         22    1    1    2    0    0  0.10591003168E+03 -0.39803792037E+02 -0.10206114404E+03  0.15237373065E+03  0.00000000000E+00 0. -1.
         22    1    1    2    0    0 -0.11983018219E+02 -0.72037914041E+02 -0.17210605037E+02  0.75028386033E+02  0.00000000000E+00 0. -1.
</event>
<event>
 6    1  0.3240171E-005  0.1722260E+03  0.7818608E-02  0.1278523E+00
          2   -1    0    0  502    0  0.00000000000E+00  0.00000000000E+00  0.35001063673E+02  0.35001063673E+02  0.00000000000E+00 0.  1.
          1   -1    0    0  501    0 -0.00000000000E+00 -0.00000000000E+00 -0.20626320236E+04  0.20626320236E+04  0.00000000000E+00 0.  1.
          2    1    1    2  501    0 -0.37368908509E+02 -0.25468169948E+02 -0.12119636552E+04  0.12128070599E+04  0.00000000000E+00 0.  1.
          1    1    1    2  502    0  0.19544825117E+02  0.63716302707E+02 -0.70965877518E+03  0.71278141433E+03  0.00000000000E+00 0.  1.
         22    1    1    2    0    0 -0.20071701688E+02 -0.26626669936E+01  0.24370410119E+02  0.31684063716E+02  0.00000000000E+00 0.  1.
         22    1    1    2    0    0  0.37895785080E+02 -0.35585465765E+02 -0.13037893963E+03  0.14036054930E+03  0.00000000000E+00 0.  1.
</event>
<event>
 6    1  0.3240171E-005  0.7393788E+02  0.7818608E-02  0.1386295E+00
          2   -1    0    0  502    0  0.00000000000E+00  0.00000000000E+00  0.19244319797E+02  0.19244319797E+02  0.00000000000E+00 0.  1.
          1   -1    0    0  501    0 -0.00000000000E+00 -0.00000000000E+00 -0.45118564056E+03  0.45118564056E+03  0.00000000000E+00 0.  1.
          2    1    1    2  501    0  0.46935559123E+01 -0.25154350571E+02 -0.12979759827E+03  0.13229583265E+03  0.00000000000E+00 0.  1.
          1    1    1    2  502    0  0.18290907512E+02  0.98116652016E+01 -0.77342345207E+02  0.80079113592E+02  0.00000000000E+00 0.  1.
         22    1    1    2    0    0  0.35578029121E+02  0.10455598032E+02 -0.14700113458E+02  0.39889961419E+02  0.00000000000E+00 0.  1.
         22    1    1    2    0    0 -0.58562492545E+02  0.48870873372E+01 -0.21010126383E+03  0.21816505269E+03  0.00000000000E+00 0.  1.
</event>
<event>
 6    1  0.3240171E-005  0.1091328E+03  0.7818608E-02  0.1316968E+00
          2   -1    0    0  502    0  0.00000000000E+00  0.00000000000E+00  0.10487105121E+03  0.10487105121E+03  0.00000000000E+00 0. -1.
          1   -1    0    0  501    0 -0.00000000000E+00 -0.00000000000E+00 -0.47618278953E+03  0.47618278953E+03  0.00000000000E+00 0. -1.
          2    1    1    2  501    0  0.22535047053E+02 -0.75122570492E+02 -0.28430495492E+03  0.29492462823E+03  0.00000000000E+00 0. -1.
          1    1    1    2  502    0 -0.27180959338E+02  0.93883502785E+02 -0.12450282545E+03  0.15828414384E+03  0.00000000000E+00 0. -1.
         22    1    1    2    0    0  0.31958144927E+01 -0.38937684128E+02  0.75377581004E+02  0.84900743186E+02  0.00000000000E+00 0. -1.
         22    1    1    2    0    0  0.14500977923E+01  0.20176751835E+02 -0.37881538949E+02  0.42944325485E+02  0.00000000000E+00 0.  1.
</event>
<event>
 6    1  0.3240171E-005  0.1229206E+03  0.7818608E-02  0.1282286E+00
          2   -1    0    0  502    0  0.00000000000E+00  0.00000000000E+00  0.58224039130E+03  0.58224039130E+03  0.00000000000E+00 0.  1.
          1   -1    0    0  501    0 -0.00000000000E+00 -0.00000000000E+00 -0.47288607748E+02  0.47288607748E+02  0.00000000000E+00 0.  1.
          2    1    1    2  501    0 -0.22573158259E+02  0.10244697796E+02  0.12661080699E+02  0.27835306199E+02  0.00000000000E+00 0.  1.
          1    1    1    2  502    0  0.41726357273E+01 -0.38953884044E+02 -0.20802077493E+02  0.44356988165E+02  0.00000000000E+00 0.  1.
         22    1    1    2    0    0  0.40548877380E+02  0.67911247360E+02  0.37988168534E+03  0.38802866367E+03  0.00000000000E+00 0.  1.
         22    1    1    2    0    0 -0.22148354848E+02 -0.39202061111E+02  0.16321109501E+03  0.16930804101E+03  0.00000000000E+00 0.  1.
</event>
<event>
 6    1  0.3240171E-005  0.1558548E+03  0.7818608E-02  0.1234732E+00
          2   -1    0    0  502    0  0.00000000000E+00  0.00000000000E+00  0.61695090739E+02  0.61695090739E+02  0.00000000000E+00 0.  1.
          1   -1    0    0  501    0 -0.00000000000E+00 -0.00000000000E+00 -0.58372693259E+03  0.58372693259E+03  0.00000000000E+00 0.  1.
          2    1    1    2  501    0 -0.55333122349E+02  0.29190990956E+02 -0.12023683634E+03  0.13553879590E+03  0.00000000000E+00 0.  1.
          1    1    1    2  502    0  0.27907187851E+01  0.21010319607E+02 -0.35453591682E+03  0.35516888653E+03  0.00000000000E+00 0.  1.
         22    1    1    2    0    0 -0.12613220349E+01 -0.82614039189E+02 -0.38984717704E+02  0.91359064241E+02  0.00000000000E+00 0.  1.
         22    1    1    2    0    0  0.53803725599E+02  0.32412728626E+02 -0.82743709880E+01  0.63355276659E+02  0.00000000000E+00 0.  1.
</event>
<event>
 6    1  0.3240171E-005  0.1030847E+03  0.7818608E-02  0.1349365E+00
          2   -1    0    0  502    0  0.00000000000E+00  0.00000000000E+00  0.90032004470E+02  0.90032004470E+02  0.00000000000E+00 0.  1.
          1   -1    0    0  501    0 -0.00000000000E+00 -0.00000000000E+00 -0.84379025004E+03  0.84379025004E+03  0.00000000000E+00 0.  1.
          2    1    1    2  501    0 -0.53094772334E+02  0.48033629083E+02 -0.17708634122E+03  0.19101271324E+03  0.00000000000E+00 0.  1.
          1    1    1    2  502    0  0.31625924061E+02  0.77936023577E+01 -0.59914122423E+03  0.60002595434E+03  0.00000000000E+00 0.  1.
         22    1    1    2    0    0  0.54096803037E+01 -0.35016295325E+02 -0.52500954951E+02  0.63338423173E+02  0.00000000000E+00 0.  1.
         22    1    1    2    0    0  0.16059167969E+02 -0.20810936115E+02  0.74970274826E+02  0.79445163763E+02  0.00000000000E+00 0.  1.
</event>
<event>
 6    1  0.3240171E-005  0.9456880E+02  0.7818608E-02  0.1303393E+00
          2   -1    0    0  502    0  0.00000000000E+00  0.00000000000E+00  0.11652599526E+03  0.11652599526E+03  0.00000000000E+00 0.  1.
          1   -1    0    0  501    0 -0.00000000000E+00 -0.00000000000E+00 -0.67056142031E+03  0.67056142031E+03  0.00000000000E+00 0. -1.
          2    1    1    2  501    0 -0.29861865366E+02  0.35651949989E+02 -0.23279476999E+01  0.46564062126E+02  0.00000000000E+00 0.  1.
          1    1    1    2  502    0 -0.10720492039E+02 -0.28123638647E+02 -0.60228625713E+03  0.60303781268E+03  0.00000000000E+00 0. -1.
         22    1    1    2    0    0 -0.34631095982E+02  0.10083819898E+02  0.48199105516E+02  0.60200913658E+02  0.00000000000E+00 0.  1.
         22    1    1    2    0    0  0.75213453386E+02 -0.17612131240E+02  0.23796742548E+01  0.77284627104E+02  0.00000000000E+00 0.  1.
</event>
<event>
 6    1  0.3240171E-005  0.1411024E+03  0.7818608E-02  0.1243919E+00
          2   -1    0    0  502    0  0.00000000000E+00  0.00000000000E+00  0.47723658412E+02  0.47723658412E+02  0.00000000000E+00 0. -1.
          1   -1    0    0  501    0 -0.00000000000E+00 -0.00000000000E+00 -0.40300344671E+03  0.40300344671E+03  0.00000000000E+00 0. -1.
          2    1    1    2  501    0  0.63310937403E+01 -0.54869994291E+02 -0.21636066431E+03  0.22329965536E+03  0.00000000000E+00 0. -1.
          1    1    1    2  502    0 -0.23892933539E+02  0.46587517783E+02 -0.60905121658E+02  0.80316268156E+02  0.00000000000E+00 0. -1.
         22    1    1    2    0    0  0.55946431839E+01 -0.52578082108E+02 -0.78378029966E+01  0.53452651070E+02  0.00000000000E+00 0. -1.
         22    1    1    2    0    0  0.11967196615E+02  0.60860558616E+02 -0.70176199328E+02  0.93658530535E+02  0.00000000000E+00 0. -1.
</event>
<event>
 6    1  0.3240171E-005  0.1612442E+03  0.7818608E-02  0.1190748E+00
          2   -1    0    0  502    0  0.00000000000E+00  0.00000000000E+00  0.11713097705E+04  0.11713097705E+04  0.00000000000E+00 0.  1.
          1   -1    0    0  501    0 -0.00000000000E+00 -0.00000000000E+00 -0.40013315879E+02  0.40013315879E+02  0.00000000000E+00 0. -1.
          2    1    1    2  501    0  0.94998963995E+02 -0.98947284595E+02  0.62043130606E+03  0.63541354552E+03  0.00000000000E+00 0.  1.
          1    1    1    2  502    0 -0.22560554198E+01  0.21593474335E+02 -0.11620679912E+02  0.24625355257E+02  0.00000000000E+00 0. -1.
         22    1    1    2    0    0 -0.57344031662E+01 -0.30314306193E+02  0.16642167131E+03  0.16925723979E+03  0.00000000000E+00 0.  1.
         22    1    1    2    0    0 -0.87008505409E+02  0.10766811645E+03  0.35606415721E+03  0.38202694586E+03  0.00000000000E+00 0. -1.
</event>
<event>
 6    1  0.3240171E-005  0.4335148E+03  0.7818608E-02  0.1126950E+00
          2   -1    0    0  502    0  0.00000000000E+00  0.00000000000E+00  0.36259606514E+03  0.36259606514E+03  0.00000000000E+00 0. -1.
          1   -1    0    0  501    0 -0.00000000000E+00 -0.00000000000E+00 -0.57541342527E+03  0.57541342527E+03  0.00000000000E+00 0. -1.
          2    1    1    2  501    0  0.80177622151E+02 -0.41871435370E+02 -0.13608347405E+03  0.16340250948E+03  0.00000000000E+00 0. -1.
          1    1    1    2  502    0 -0.10959690183E+03  0.17199410531E+02 -0.40644933687E+03  0.42131741485E+03  0.00000000000E+00 0. -1.
         22    1    1    2    0    0  0.59289692975E+02  0.41091147527E+02  0.29842349240E+03  0.30701845370E+03  0.00000000000E+00 0. -1.
         22    1    1    2    0    0 -0.29870413300E+02 -0.16419122688E+02  0.31291958389E+02  0.46271112375E+02  0.00000000000E+00 0. -1.
</event>
<event>
 6    1  0.3240171E-005  0.1178796E+03  0.7818608E-02  0.1321846E+00
          2   -1    0    0  502    0  0.00000000000E+00  0.00000000000E+00  0.49717729824E+02  0.49717729824E+02  0.00000000000E+00 0. -1.
          1   -1    0    0  501    0 -0.00000000000E+00 -0.00000000000E+00 -0.40844981786E+03  0.40844981786E+03  0.00000000000E+00 0. -1.
          2    1    1    2  501    0  0.71613705339E+01  0.42629498762E+02 -0.53535623305E+02  0.68808592161E+02  0.00000000000E+00 0. -1.
          1    1    1    2  502    0  0.27130306652E+02  0.67447687159E+00 -0.23888791900E+03  0.24042451269E+03  0.00000000000E+00 0. -1.
         22    1    1    2    0    0 -0.27703658779E+02 -0.71175285761E+02 -0.85356734410E+02  0.11453901572E+03  0.00000000000E+00 0. -1.
         22    1    1    2    0    0 -0.65880184072E+01  0.27871310128E+02  0.19048188675E+02  0.34395427117E+02  0.00000000000E+00 0. -1.
</event>
<event>
 6    1  0.3240171E-005  0.4490424E+03  0.7818608E-02  0.1164879E+00
          2   -1    0    0  502    0  0.00000000000E+00  0.00000000000E+00  0.19166672807E+03  0.19166672807E+03  0.00000000000E+00 0. -1.
          1   -1    0    0  501    0 -0.00000000000E+00 -0.00000000000E+00 -0.69121336375E+03  0.69121336375E+03  0.00000000000E+00 0.  1.
          2    1    1    2  501    0 -0.41165538667E+01  0.11231804087E+03 -0.18510949718E+02  0.11390760984E+03  0.00000000000E+00 0. -1.
          1    1    1    2  502    0 -0.25028427854E+03  0.73563097773E+02 -0.19284567764E+03  0.32441209105E+03  0.00000000000E+00 0.  1.
         22    1    1    2    0    0  0.25697329474E+03 -0.19801264272E+03 -0.26767276357E+03  0.42058648248E+03  0.00000000000E+00 0. -1.
         22    1    1    2    0    0 -0.25724623360E+01  0.12131504084E+02 -0.20517244754E+02  0.23973908444E+02  0.00000000000E+00 0. -1.
</event>
<event>
 6    1  0.3240171E-005  0.2211656E+03  0.7818608E-02  0.1262536E+00
          2   -1    0    0  502    0  0.00000000000E+00  0.00000000000E+00  0.48840346704E+02  0.48840346704E+02  0.00000000000E+00 0. -1.
          1   -1    0    0  501    0 -0.00000000000E+00 -0.00000000000E+00 -0.71224277849E+03  0.71224277849E+03  0.00000000000E+00 0. -1.
          2    1    1    2  501    0 -0.28488863056E+02 -0.74317872247E+02 -0.25128188302E+03  0.26358555763E+03  0.00000000000E+00 0. -1.
          1    1    1    2  502    0 -0.73958374369E+02  0.15815225539E+01 -0.23520169878E+03  0.24656070543E+03  0.00000000000E+00 0. -1.
         22    1    1    2    0    0 -0.11819882750E+02  0.54649061716E+01  0.13591848727E+02  0.18823208534E+02  0.00000000000E+00 0. -1.
         22    1    1    2    0    0  0.11426712017E+03  0.67271443521E+02 -0.19051069871E+03  0.23211365361E+03  0.00000000000E+00 0. -1.
</event>
<event>
 6    1  0.3240171E-005  0.4441383E+03  0.7818608E-02  0.1075060E+00
          2   -1    0    0  502    0  0.00000000000E+00  0.00000000000E+00  0.26856341397E+03  0.26856341397E+03  0.00000000000E+00 0. -1.
          1   -1    0    0  501    0 -0.00000000000E+00 -0.00000000000E+00 -0.15963461490E+04  0.15963461490E+04  0.00000000000E+00 0. -1.
          2    1    1    2  501    0  0.20277021110E+03  0.35394216323E+03 -0.11271831337E+04  0.11987212480E+04  0.00000000000E+00 0. -1.
          1    1    1    2  502    0 -0.11137556302E+03 -0.39761909481E+03 -0.26870389965E+03  0.49265327187E+03  0.00000000000E+00 0. -1.
         22    1    1    2    0    0  0.23548730758E+02  0.39353921357E+01 -0.13161817544E+02  0.27262858849E+02  0.00000000000E+00 0. -1.
         22    1    1    2    0    0 -0.11494337883E+03  0.39741539448E+02  0.81266115887E+02  0.14627218426E+03  0.00000000000E+00 0. -1.
</event>
<event>
 6    1  0.3240171E-005  0.7933352E+02  0.7818608E-02  0.1362611E+00
          2   -1    0    0  502    0  0.00000000000E+00  0.00000000000E+00  0.38945636493E+03  0.38945636493E+03  0.00000000000E+00 0. -1.
          1   -1    0    0  501    0 -0.00000000000E+00 -0.00000000000E+00 -0.70680233304E+03  0.70680233304E+03  0.00000000000E+00 0. -1.
          2    1    1    2  501    0 -0.59074052977E+01 -0.37800258052E+02  0.39255157472E+02  0.54815365859E+02  0.00000000000E+00 0. -1.
          1    1    1    2  502    0  0.36498500164E+02  0.65858781660E+02 -0.68395924606E+03  0.68809139647E+03  0.00000000000E+00 0. -1.
         22    1    1    2    0    0 -0.22237538812E+02 -0.73392964872E+02  0.13228706054E+03  0.15290814829E+03  0.00000000000E+00 0. -1.
         22    1    1    2    0    0 -0.83535560544E+01  0.45334441264E+02  0.19507105993E+03  0.20044378735E+03  0.00000000000E+00 0. -1.
</event>
<event>
 6    1  0.3240171E-005  0.7004469E+03  0.7818608E-02  0.1042969E+00
          2   -1    0    0  502    0  0.00000000000E+00  0.00000000000E+00  0.19776494413E+04  0.19776494413E+04  0.00000000000E+00 0.  1.
          1   -1    0    0  501    0 -0.00000000000E+00 -0.00000000000E+00 -0.41205364902E+03  0.41205364902E+03  0.00000000000E+00 0. -1.
          2    1    1    2  501    0 -0.43366112132E+03  0.56571069010E+02  0.10795797070E+04  0.11647980931E+04  0.00000000000E+00 0.  1.
          1    1    1    2  502    0  0.68437841739E+03 -0.13256799079E+03  0.47684554650E+02  0.69872877937E+03  0.00000000000E+00 0. -1.
         22    1    1    2    0    0 -0.36141547546E+02  0.67150963562E+02  0.11014470647E+03  0.13396760702E+03  0.00000000000E+00 0.  1.
         22    1    1    2    0    0 -0.21457574852E+03  0.88459582193E+01  0.32818682419E+03  0.39220861082E+03  0.00000000000E+00 0. -1.
</event>
<event>
 6    1  0.3240171E-005  0.2704139E+03  0.7818608E-02  0.1190609E+00
          2   -1    0    0  502    0  0.00000000000E+00  0.00000000000E+00  0.10604030959E+03  0.10604030959E+03  0.00000000000E+00 0. -1.
          1   -1    0    0  501    0 -0.00000000000E+00 -0.00000000000E+00 -0.12492114228E+04  0.12492114228E+04  0.00000000000E+00 0. -1.
          2    1    1    2  501    0 -0.21658008916E+03  0.13228648098E+01 -0.79794933457E+03  0.82682031030E+03  0.00000000000E+00 0. -1.
          1    1    1    2  502    0  0.22788528003E+03  0.41514196848E+01 -0.33536495661E+03  0.40548562152E+03  0.00000000000E+00 0. -1.
         22    1    1    2    0    0  0.18386734264E+02  0.25910269447E+02  0.43766902587E+02  0.54082860702E+02  0.00000000000E+00 0. -1.
         22    1    1    2    0    0 -0.29691925136E+02 -0.31384553942E+02 -0.53623724624E+02  0.68862939865E+02  0.00000000000E+00 0.  1.
</event>
<event>
 6    1  0.3240171E-005  0.6518120E+02  0.7818608E-02  0.1428936E+00
          2   -1    0    0  502    0  0.00000000000E+00  0.00000000000E+00  0.12116121684E+03  0.12116121684E+03  0.00000000000E+00 0.  1.
          1   -1    0    0  501    0 -0.00000000000E+00 -0.00000000000E+00 -0.81456588798E+03  0.81456588798E+03  0.00000000000E+00 0.  1.
          2    1    1    2  501    0  0.21082088510E+02  0.59509548497E+02 -0.56653531214E+02  0.84826077460E+02  0.00000000000E+00 0.  1.
          1    1    1    2  502    0 -0.49030250609E+01 -0.41758992691E+02 -0.70380533226E+03  0.70506013845E+03  0.00000000000E+00 0.  1.
         22    1    1    2    0    0 -0.18015132643E+02  0.11060407465E+02 -0.34390602587E+02  0.40368194953E+02  0.00000000000E+00 0.  1.
         22    1    1    2    0    0  0.18360691936E+01 -0.28810963270E+02  0.10144479492E+03  0.10547269396E+03  0.00000000000E+00 0.  1.
</event>
<event>
 6    1  0.3240171E-005  0.1090222E+03  0.7818608E-02  0.1271166E+00
          2   -1    0    0  502    0  0.00000000000E+00  0.00000000000E+00  0.21625871164E+03  0.21625871164E+03  0.00000000000E+00 0. -1.
          1   -1    0    0  501    0 -0.00000000000E+00 -0.00000000000E+00 -0.33931897539E+03  0.33931897539E+03  0.00000000000E+00 0. -1.
          2    1    1    2  501    0 -0.10392269273E+03  0.11406384455E+03 -0.13323726322E+02  0.15488062623E+03  0.00000000000E+00 0. -1.
          1    1    1    2  502    0  0.55287657995E+02 -0.74820418812E+02 -0.21055812514E+03  0.23019457912E+03  0.00000000000E+00 0. -1.
         22    1    1    2    0    0 -0.30077394652E+02  0.82384756470E+01 -0.35899130512E+01  0.31391234856E+02  0.00000000000E+00 0.  1.
         22    1    1    2    0    0  0.78712429390E+02 -0.47481901385E+02  0.10441150076E+03  0.13911124682E+03  0.00000000000E+00 0. -1.
</event>
<event>
 6    1  0.3240171E-005  0.1965602E+03  0.7818608E-02  0.1189111E+00
          2   -1    0    0  502    0  0.00000000000E+00  0.00000000000E+00  0.28887606785E+03  0.28887606785E+03  0.00000000000E+00 0.  1.
          1   -1    0    0  501    0 -0.00000000000E+00 -0.00000000000E+00 -0.66764428140E+03  0.66764428140E+03  0.00000000000E+00 0.  1.
          2    1    1    2  501    0 -0.39953974197E+02  0.50913206225E+01 -0.11824936715E+03  0.12492059250E+03  0.00000000000E+00 0.  1.
          1    1    1    2  502    0 -0.20717663733E+02 -0.95352188016E+01 -0.52876942099E+03  0.52926103442E+03  0.00000000000E+00 0.  1.
         22    1    1    2    0    0 -0.15361598770E+02  0.45371424745E+02  0.59169863501E+02  0.76128954064E+02  0.00000000000E+00 0. -1.
         22    1    1    2    0    0  0.76033236699E+02 -0.40927526566E+02  0.20908071108E+03  0.22620976827E+03  0.00000000000E+00 0.  1.
</event>
<event>
 6    1  0.3240171E-005  0.1790373E+03  0.7818608E-02  0.1232033E+00
          2   -1    0    0  502    0  0.00000000000E+00  0.00000000000E+00  0.19046788668E+02  0.19046788668E+02  0.00000000000E+00 0.  1.
          1   -1    0    0  501    0 -0.00000000000E+00 -0.00000000000E+00 -0.98878972205E+03  0.98878972205E+03  0.00000000000E+00 0.  1.
          2    1    1    2  501    0  0.31527788252E+02 -0.33372872242E+02 -0.49066951388E+03  0.49281266409E+03  0.00000000000E+00 0.  1.
          1    1    1    2  502    0  0.21557194382E+02 -0.31541915221E+02 -0.10265532839E+03  0.10953411109E+03  0.00000000000E+00 0.  1.
         22    1    1    2    0    0 -0.20766188195E+02 -0.37711851279E+02 -0.10031464835E+03  0.10916247970E+03  0.00000000000E+00 0.  1.
         22    1    1    2    0    0 -0.32318794438E+02  0.10262663874E+03 -0.27610344275E+03  0.29632725584E+03  0.00000000000E+00 0.  1.
</event>
<event>
 6    1  0.3240171E-005  0.1978139E+03  0.7818608E-02  0.1208038E+00
          2   -1    0    0  502    0  0.00000000000E+00  0.00000000000E+00  0.60065688217E+03  0.60065688217E+03  0.00000000000E+00 0.  1.
          1   -1    0    0  501    0 -0.00000000000E+00 -0.00000000000E+00 -0.49538572536E+03  0.49538572536E+03  0.00000000000E+00 0.  1.
          2    1    1    2  501    0 -0.11860612427E+02 -0.17024243587E+03  0.31239102638E+03  0.35596532761E+03  0.00000000000E+00 0.  1.
          1    1    1    2  502    0  0.15608709218E+02  0.18810900308E+03 -0.43837162962E+03  0.47728221682E+03  0.00000000000E+00 0.  1.
         22    1    1    2    0    0 -0.32396099963E+02  0.45136230854E+02  0.98733879059E+02  0.11329238943E+03  0.00000000000E+00 0. -1.
         22    1    1    2    0    0  0.28648003172E+02 -0.63002798069E+02  0.13251788099E+03  0.14950267366E+03  0.00000000000E+00 0.  1.
</event>
<event>
 6    1  0.3240171E-005  0.7303288E+02  0.7818608E-02  0.1357615E+00
          2   -1    0    0  502    0  0.00000000000E+00  0.00000000000E+00  0.76049615752E+02  0.76049615752E+02  0.00000000000E+00 0.  1.
          1   -1    0    0  501    0 -0.00000000000E+00 -0.00000000000E+00 -0.16608279349E+03  0.16608279349E+03  0.00000000000E+00 0.  1.
          2    1    1    2  501    0  0.19032598074E+01  0.22628140993E+02 -0.80152676775E+00  0.22722183166E+02  0.00000000000E+00 0.  1.
          1    1    1    2  502    0  0.10770485526E+02 -0.43999156441E+02 -0.83529965898E+02  0.95022020232E+02  0.00000000000E+00 0.  1.
         22    1    1    2    0    0  0.50998569540E+02  0.28819735549E+02 -0.12579133358E+02  0.59913820178E+02  0.00000000000E+00 0.  1.
         22    1    1    2    0    0 -0.63672314873E+02 -0.74487201015E+01  0.68774482845E+01  0.64474385669E+02  0.00000000000E+00 0.  1.
</event>
<event>
 6    1  0.3240171E-005  0.1654946E+03  0.7818608E-02  0.1241681E+00
          2   -1    0    0  502    0  0.00000000000E+00  0.00000000000E+00  0.29128774834E+02  0.29128774834E+02  0.00000000000E+00 0. -1.
          1   -1    0    0  501    0 -0.00000000000E+00 -0.00000000000E+00 -0.70433349776E+03  0.70433349776E+03  0.00000000000E+00 0. -1.
          2    1    1    2  501    0  0.82463564453E+02 -0.18138301016E+01 -0.32568249231E+03  0.33596519944E+03  0.00000000000E+00 0. -1.
          1    1    1    2  502    0 -0.51350048206E+02  0.75858998793E+01 -0.15868137102E+03  0.16695553551E+03  0.00000000000E+00 0. -1.
         22    1    1    2    0    0 -0.21782686505E+02  0.41734882784E+02 -0.17243550972E+03  0.17874644300E+03  0.00000000000E+00 0.  1.
         22    1    1    2    0    0 -0.93308297413E+01 -0.47506952562E+02 -0.18405349885E+02  0.51795094650E+02  0.00000000000E+00 0.  1.
</event>
<event>
 6    1  0.3240171E-005  0.1711630E+03  0.7818608E-02  0.1216234E+00
          2   -1    0    0  502    0  0.00000000000E+00  0.00000000000E+00  0.16350891638E+03  0.16350891638E+03  0.00000000000E+00 0. -1.
          1   -1    0    0  501    0 -0.00000000000E+00 -0.00000000000E+00 -0.83408686543E+03  0.83408686543E+03  0.00000000000E+00 0. -1.
          2    1    1    2  501    0  0.72858392633E+02  0.82134687770E+02  0.40204043373E+02  0.11692227083E+03  0.00000000000E+00 0. -1.
          1    1    1    2  502    0 -0.51267753633E+02 -0.24036698905E+02 -0.73702788473E+03  0.73919973507E+03  0.00000000000E+00 0. -1.
         22    1    1    2    0    0  0.43617476058E+02 -0.59070847202E+02  0.19067830611E+02  0.75864559388E+02  0.00000000000E+00 0. -1.
         22    1    1    2    0    0 -0.65208115058E+02  0.97285833698E+00  0.71780616924E+01  0.65609216521E+02  0.00000000000E+00 0. -1.
</event>
<event>
 6    1  0.3240171E-005  0.7102592E+02  0.7818608E-02  0.1386077E+00
          2   -1    0    0  502    0  0.00000000000E+00  0.00000000000E+00  0.15392587109E+03  0.15392587109E+03  0.00000000000E+00 0.  1.
          1   -1    0    0  501    0 -0.00000000000E+00 -0.00000000000E+00 -0.11499404634E+03  0.11499404634E+03  0.00000000000E+00 0.  1.
          2    1    1    2  501    0  0.26677169656E+02 -0.19777354605E+02  0.23478872416E+02  0.40670291196E+02  0.00000000000E+00 0.  1.
          1    1    1    2  502    0 -0.29178083875E+02  0.40618474210E+02 -0.63647733833E+02  0.80946000814E+02  0.00000000000E+00 0.  1.
         22    1    1    2    0    0  0.34427052772E+01 -0.64498403972E+02  0.97094998352E+01  0.65315930076E+02  0.00000000000E+00 0.  1.
         22    1    1    2    0    0 -0.94179105890E+00  0.43657284368E+02  0.69391186328E+02  0.81987695350E+02  0.00000000000E+00 0.  1.
</event>
<event>
 6    1  0.3240171E-005  0.6486598E+03  0.7818608E-02  0.1091799E+00
          2   -1    0    0  502    0  0.00000000000E+00  0.00000000000E+00  0.16993080579E+04  0.16993080579E+04  0.00000000000E+00 0. -1.
          1   -1    0    0  501    0 -0.00000000000E+00 -0.00000000000E+00 -0.27195706462E+03  0.27195706462E+03  0.00000000000E+00 0. -1.
          2    1    1    2  501    0 -0.15066289033E+03 -0.13490868516E+03  0.20486005029E+03  0.28786680958E+03  0.00000000000E+00 0. -1.
          1    1    1    2  502    0  0.26770162193E+03  0.56193350890E+03  0.39795364199E+03  0.73878314002E+03  0.00000000000E+00 0. -1.
         22    1    1    2    0    0  0.15559810562E+02 -0.19492969101E+02  0.97758632150E+02  0.10089020621E+03  0.00000000000E+00 0.  1.
         22    1    1    2    0    0 -0.13259854216E+03 -0.40753185464E+03  0.72677866881E+03  0.84372496666E+03  0.00000000000E+00 0. -1.
</event>
<event>
 6    1  0.3240171E-005  0.8322443E+02  0.7818608E-02  0.1375632E+00
          2   -1    0    0  502    0  0.00000000000E+00  0.00000000000E+00  0.45493583190E+02  0.45493583190E+02  0.00000000000E+00 0.  1.
          1   -1    0    0  501    0 -0.00000000000E+00 -0.00000000000E+00 -0.39623231001E+03  0.39623231001E+03  0.00000000000E+00 0.  1.
          2    1    1    2  501    0 -0.26042103983E+02  0.19771388824E+02 -0.60726957462E+02  0.68970010573E+02  0.00000000000E+00 0.  1.
          1    1    1    2  502    0 -0.30309902586E+01 -0.70646975255E+02 -0.19447773391E+03  0.20693421902E+03  0.00000000000E+00 0.  1.
         22    1    1    2    0    0 -0.19541654674E+01  0.59401148429E+02 -0.11411527161E+03  0.12866472093E+03  0.00000000000E+00 0.  1.
         22    1    1    2    0    0  0.31027259709E+02 -0.85255619971E+01  0.18581236156E+02  0.37156942683E+02  0.00000000000E+00 0.  1.
</event>
<event>
 6    1  0.3240171E-005  0.1788251E+03  0.7818608E-02  0.1211336E+00
          2   -1    0    0  502    0  0.00000000000E+00  0.00000000000E+00  0.34853801902E+03  0.34853801902E+03  0.00000000000E+00 0. -1.
          1   -1    0    0  501    0 -0.00000000000E+00 -0.00000000000E+00 -0.26369731386E+03  0.26369731386E+03  0.00000000000E+00 0.  1.
          2    1    1    2  501    0 -0.19131277859E+02  0.77084664277E+02  0.17428287202E+03  0.19152694521E+03  0.00000000000E+00 0. -1.
          1    1    1    2  502    0 -0.26654368715E+02  0.46578442261E+02 -0.20157286763E+03  0.20859440937E+03  0.00000000000E+00 0.  1.
         22    1    1    2    0    0 -0.30504447586E+02 -0.78859121291E+02  0.25561565511E+02  0.88332757031E+02  0.00000000000E+00 0. -1.
         22    1    1    2    0    0  0.76290094159E+02 -0.44803985247E+02  0.86569135261E+02  0.12378122128E+03  0.00000000000E+00 0.  1.
</event>
<event>
 6    1  0.3240171E-005  0.1199028E+03  0.7818608E-02  0.1257344E+00
          2   -1    0    0  502    0  0.00000000000E+00  0.00000000000E+00  0.21955816394E+03  0.21955816394E+03  0.00000000000E+00 0.  1.
          1   -1    0    0  501    0 -0.00000000000E+00 -0.00000000000E+00 -0.18995163427E+03  0.18995163427E+03  0.00000000000E+00 0.  1.
          2    1    1    2  501    0  0.99414199400E+02  0.10200832327E+03 -0.42078309835E+02  0.14852429167E+03  0.00000000000E+00 0.  1.
          1    1    1    2  502    0 -0.67549291687E+02 -0.32431764242E+02 -0.31116575466E+02  0.81135487969E+02  0.00000000000E+00 0.  1.
         22    1    1    2    0    0 -0.11883820488E+02  0.13686512619E+02 -0.21995615153E+02  0.28501805259E+02  0.00000000000E+00 0. -1.
         22    1    1    2    0    0 -0.19981087225E+02 -0.83263071645E+02  0.12479703012E+03  0.15134821331E+03  0.00000000000E+00 0.  1.
</event>
<event>
 6    1  0.3240171E-005  0.1634548E+03  0.7818608E-02  0.1269851E+00
          2   -1    0    0  502    0  0.00000000000E+00  0.00000000000E+00  0.21544417152E+02  0.21544417152E+02  0.00000000000E+00 0. -1.
          1   -1    0    0  501    0 -0.00000000000E+00 -0.00000000000E+00 -0.17338277130E+04  0.17338277130E+04  0.00000000000E+00 0.  1.
          2    1    1    2  501    0  0.29997294833E+02  0.75082042408E+02 -0.32318083759E+03  0.33314111810E+03  0.00000000000E+00 0. -1.
          1    1    1    2  502    0  0.19666111315E+01 -0.24920381966E+02 -0.11225597698E+04  0.11228380692E+04  0.00000000000E+00 0.  1.
         22    1    1    2    0    0 -0.59073814521E+02 -0.57631460086E+02 -0.25663465985E+03  0.26957828063E+03  0.00000000000E+00 0. -1.
         22    1    1    2    0    0  0.27109908556E+02  0.74697996450E+01 -0.99080286152E+01  0.29814662160E+02  0.00000000000E+00 0. -1.
</event>
<event>
 6    1  0.3240171E-005  0.5172910E+03  0.7818608E-02  0.1079960E+00
          2   -1    0    0  502    0  0.00000000000E+00  0.00000000000E+00  0.23075630083E+03  0.23075630083E+03  0.00000000000E+00 0. -1.
          1   -1    0    0  501    0 -0.00000000000E+00 -0.00000000000E+00 -0.14557430575E+04  0.14557430575E+04  0.00000000000E+00 0. -1.
          2    1    1    2  501    0  0.21844614261E+02  0.44698118641E+03 -0.94007170848E+03  0.10411552167E+04  0.00000000000E+00 0. -1.
          1    1    1    2  502    0 -0.37896952378E+02 -0.44900945891E+03 -0.23009958905E+03  0.50595601990E+03  0.00000000000E+00 0. -1.
         22    1    1    2    0    0 -0.27962912649E+02  0.53090663366E+02 -0.33290270148E+02  0.68620588069E+02  0.00000000000E+00 0. -1.
         22    1    1    2    0    0  0.44015250765E+02 -0.51062390865E+02 -0.21525189012E+02  0.70767533678E+02  0.00000000000E+00 0.  1.
</event>
<event>
 6    1  0.3240171E-005  0.1375362E+03  0.7818608E-02  0.1282068E+00
          2   -1    0    0  502    0  0.00000000000E+00  0.00000000000E+00  0.32837903678E+03  0.32837903678E+03  0.00000000000E+00 0.  1.
          1   -1    0    0  501    0 -0.00000000000E+00 -0.00000000000E+00 -0.29571824786E+03  0.29571824786E+03  0.00000000000E+00 0.  1.
          2    1    1    2  501    0 -0.17328075926E+02 -0.67915758710E+02  0.74255956771E+02  0.10211150578E+03  0.00000000000E+00 0.  1.
          1    1    1    2  502    0  0.77966326701E+02  0.82808841500E+02 -0.24892402690E+03  0.27367722502E+03  0.00000000000E+00 0.  1.
         22    1    1    2    0    0 -0.34679567037E+02 -0.41489663486E+02  0.20394259382E+03  0.21098968249E+03  0.00000000000E+00 0.  1.
         22    1    1    2    0    0 -0.25958683738E+02  0.26596580696E+02  0.33862652321E+01  0.37318871343E+02  0.00000000000E+00 0. -1.
</event>
<event>
 6    1  0.3240171E-005  0.1790444E+03  0.7818608E-02  0.1252567E+00
          2   -1    0    0  502    0  0.00000000000E+00  0.00000000000E+00  0.14309677503E+03  0.14309677503E+03  0.00000000000E+00 0. -1.
          1   -1    0    0  501    0 -0.00000000000E+00 -0.00000000000E+00 -0.63683439801E+03  0.63683439801E+03  0.00000000000E+00 0. -1.
          2    1    1    2  501    0  0.12908557333E+03  0.55943061571E+02 -0.18271550609E+03  0.23060283508E+03  0.00000000000E+00 0. -1.
          1    1    1    2  502    0 -0.14970972428E+03 -0.10714876282E+03 -0.36223323202E+03  0.40633332782E+03  0.00000000000E+00 0. -1.
         22    1    1    2    0    0  0.97649003116E+01  0.23368662354E+02 -0.39816330096E+02  0.47188852504E+02  0.00000000000E+00 0.  1.
         22    1    1    2    0    0  0.10859250633E+02  0.27837038890E+02  0.91027445225E+02  0.95806157645E+02  0.00000000000E+00 0. -1.
</event>
<event>
 6    1  0.3240171E-005  0.9775803E+02  0.7818608E-02  0.1288684E+00
          2   -1    0    0  502    0  0.00000000000E+00  0.00000000000E+00  0.14034543623E+03  0.14034543623E+03  0.00000000000E+00 0.  1.
          1   -1    0    0  501    0 -0.00000000000E+00 -0.00000000000E+00 -0.15086874960E+04  0.15086874960E+04  0.00000000000E+00 0. -1.
          2    1    1    2  501    0  0.92483767246E+02 -0.79791583649E+02 -0.22337881508E+03  0.25459387080E+03  0.00000000000E+00 0.  1.
          1    1    1    2  502    0 -0.85034906387E+02  0.10405147354E+02 -0.12258353923E+04  0.12288252973E+04  0.00000000000E+00 0. -1.
         22    1    1    2    0    0 -0.25906879270E+02  0.85295640745E+02  0.10048959371E+03  0.13433045510E+03  0.00000000000E+00 0.  1.
         22    1    1    2    0    0  0.18458018411E+02 -0.15909204451E+02 -0.19617446170E+02  0.31283309034E+02  0.00000000000E+00 0.  1.
</event>
<event>
 6    1  0.3240171E-005  0.4200720E+03  0.7818608E-02  0.1134151E+00
          2   -1    0    0  502    0  0.00000000000E+00  0.00000000000E+00  0.30997518652E+03  0.30997518652E+03  0.00000000000E+00 0. -1.
          1   -1    0    0  501    0 -0.00000000000E+00 -0.00000000000E+00 -0.85364264720E+03  0.85364264720E+03  0.00000000000E+00 0. -1.
          2    1    1    2  501    0  0.14683651222E+03 -0.96502100815E+02 -0.30541678050E+02  0.17834351932E+03  0.00000000000E+00 0. -1.
          1    1    1    2  502    0 -0.33613360616E+03  0.22711670581E+03 -0.58523454052E+03  0.71208655841E+03  0.00000000000E+00 0. -1.
         22    1    1    2    0    0  0.28545036098E+02  0.13073374964E+02 -0.21585133418E+02  0.38100527601E+02  0.00000000000E+00 0.  1.
         22    1    1    2    0    0  0.16075205784E+03 -0.14368797996E+03  0.93693891308E+02  0.23508722839E+03  0.00000000000E+00 0. -1.
</event>
<event>
 6    1  0.3240171E-005  0.5334525E+02  0.7818608E-02  0.1449542E+00
          2   -1    0    0  502    0  0.00000000000E+00  0.00000000000E+00  0.18782982525E+03  0.18782982525E+03  0.00000000000E+00 0.  1.
          1   -1    0    0  501    0 -0.00000000000E+00 -0.00000000000E+00 -0.17136254395E+04  0.17136254395E+04  0.00000000000E+00 0. -1.
          2    1    1    2  501    0 -0.30888832437E+01 -0.39724486000E+02  0.11051261605E+02  0.41348595753E+02  0.00000000000E+00 0.  1.
          1    1    1    2  502    0 -0.20927195336E+02  0.45807198234E+02 -0.16733605338E+04  0.16741181927E+04  0.00000000000E+00 0. -1.
         22    1    1    2    0    0  0.61360417852E+01 -0.40395328858E+02 -0.32310789218E+01  0.40986259567E+02  0.00000000000E+00 0. -1.
         22    1    1    2    0    0  0.17880036794E+02  0.34312616624E+02  0.13974473688E+03  0.14500221675E+03  0.00000000000E+00 0.  1.
</event>
<event>
 6    1  0.3240171E-005  0.1377351E+03  0.7818608E-02  0.1223465E+00
          2   -1    0    0  502    0  0.00000000000E+00  0.00000000000E+00  0.42984309880E+03  0.42984309880E+03  0.00000000000E+00 0. -1.
          1   -1    0    0  501    0 -0.00000000000E+00 -0.00000000000E+00 -0.17920587589E+03  0.17920587589E+03  0.00000000000E+00 0. -1.
          2    1    1    2  501    0 -0.22157061201E+02  0.90659090368E+02  0.12352573567E+03  0.15481800089E+03  0.00000000000E+00 0. -1.
          1    1    1    2  502    0  0.13694573363E+03 -0.14724538593E+02 -0.92937910901E+02  0.16615776022E+03  0.00000000000E+00 0. -1.
         22    1    1    2    0    0 -0.72937262942E+01  0.28419400127E+02  0.12009019074E+02  0.31702953899E+02  0.00000000000E+00 0. -1.
         22    1    1    2    0    0 -0.10749494614E+03 -0.10435395190E+03  0.20804037908E+03  0.25637025968E+03  0.00000000000E+00 0. -1.
</event>
<event>
 6    1  0.3240171E-005  0.1114227E+03  0.7818608E-02  0.1259973E+00
          2   -1    0    0  502    0  0.00000000000E+00  0.00000000000E+00  0.26563028144E+03  0.26563028144E+03  0.00000000000E+00 0.  1.
          1   -1    0    0  501    0 -0.00000000000E+00 -0.00000000000E+00 -0.12046706552E+04  0.12046706552E+04  0.00000000000E+00 0.  1.
          2    1    1    2  501    0 -0.93990821592E+01  0.83166264602E+02  0.53576218216E+02  0.99374953945E+02  0.00000000000E+00 0.  1.
          1    1    1    2  502    0 -0.25420763656E+02 -0.29837310160E+02 -0.11538910699E+04  0.11545566602E+04  0.00000000000E+00 0.  1.
         22    1    1    2    0    0  0.19672985948E+02 -0.96157725374E+02  0.11963822059E+03  0.15474701403E+03  0.00000000000E+00 0.  1.
         22    1    1    2    0    0  0.15146859867E+02  0.42828770933E+02  0.41636257328E+02  0.61622308523E+02  0.00000000000E+00 0.  1.
</event>
<event>
 6    1  0.3240171E-005  0.6365333E+02  0.7818608E-02  0.1399174E+00
          2   -1    0    0  502    0  0.00000000000E+00  0.00000000000E+00  0.19031601217E+03  0.19031601217E+03  0.00000000000E+00 0. -1.
          1   -1    0    0  501    0 -0.00000000000E+00 -0.00000000000E+00 -0.58102408733E+02  0.58102408733E+02  0.00000000000E+00 0. -1.
          2    1    1    2  501    0 -0.19894561380E+02  0.53429242168E+01 -0.13808222357E+02  0.24799343063E+02  0.00000000000E+00 0. -1.
          1    1    1    2  502    0  0.32372164755E+02 -0.38194953799E+01  0.30874027069E+01  0.32742596894E+02  0.00000000000E+00 0. -1.
         22    1    1    2    0    0 -0.19534328302E+02  0.46200727251E+02  0.12340182463E+02  0.51656338275E+02  0.00000000000E+00 0. -1.
         22    1    1    2    0    0  0.70567249275E+01 -0.47724156088E+02  0.13059424062E+03  0.13922014267E+03  0.00000000000E+00 0. -1.
</event>
<event>
 6    1  0.3240171E-005  0.8897958E+02  0.7818608E-02  0.1357051E+00
          2   -1    0    0  502    0  0.00000000000E+00  0.00000000000E+00  0.95525352269E+02  0.95525352269E+02  0.00000000000E+00 0.  1.
          1   -1    0    0  501    0 -0.00000000000E+00 -0.00000000000E+00 -0.11130565478E+03  0.11130565478E+03  0.00000000000E+00 0.  1.
          2    1    1    2  501    0  0.81828007256E+01 -0.19843308774E+02 -0.22129937633E+02  0.30829357282E+02  0.00000000000E+00 0.  1.
          1    1    1    2  502    0  0.24511616413E+02 -0.17947826724E+02 -0.26946597023E+02  0.40608655659E+02  0.00000000000E+00 0.  1.
         22    1    1    2    0    0  0.34114507356E+02  0.22065538582E+01  0.47353564520E+02  0.58404011547E+02  0.00000000000E+00 0.  1.
         22    1    1    2    0    0 -0.66808924495E+02  0.35584581640E+02 -0.14057332378E+02  0.76988982564E+02  0.00000000000E+00 0.  1.
</event>
<event>
 6    1  0.3240171E-005  0.7797534E+02  0.7818608E-02  0.1351567E+00
          2   -1    0    0  502    0  0.00000000000E+00  0.00000000000E+00  0.36075705859E+03  0.36075705859E+03  0.00000000000E+00 0. -1.
          1   -1    0    0  501    0 -0.00000000000E+00 -0.00000000000E+00 -0.11295521761E+04  0.11295521761E+04  0.00000000000E+00 0. -1.
          2    1    1    2  501    0  0.62240673981E+02  0.13620062583E+02  0.11813241198E+03  0.13421875563E+03  0.00000000000E+00 0. -1.
          1    1    1    2  502    0 -0.68293593172E+02 -0.27503880669E+02 -0.11029998175E+04  0.11054542395E+04  0.00000000000E+00 0. -1.
         22    1    1    2    0    0 -0.55129371015E+02  0.19566001603E+02  0.64466279783E+02  0.87051577793E+02  0.00000000000E+00 0.  1.
         22    1    1    2    0    0  0.61182290206E+02 -0.56821835171E+01  0.15160600820E+03  0.16358466177E+03  0.00000000000E+00 0. -1.
</event>
<event>
 6    1  0.3240171E-005  0.1701055E+03  0.7818608E-02  0.1282416E+00
          2   -1    0    0  502    0  0.00000000000E+00  0.00000000000E+00  0.10916572914E+04  0.10916572914E+04  0.00000000000E+00 0. -1.
          1   -1    0    0  501    0 -0.00000000000E+00 -0.00000000000E+00 -0.48246638085E+03  0.48246638085E+03  0.00000000000E+00 0. -1.
          2    1    1    2  501    0 -0.48180299645E+02 -0.81912614522E+02  0.63949104161E+03  0.64651358067E+03  0.00000000000E+00 0. -1.
          1    1    1    2  502    0  0.27465613485E+02  0.16049413660E+03 -0.45196768139E+03  0.48040348961E+03  0.00000000000E+00 0. -1.
         22    1    1    2    0    0  0.13242388434E+01 -0.76384731654E+02  0.42079382000E+03  0.42767256141E+03  0.00000000000E+00 0.  1.
         22    1    1    2    0    0  0.19390447316E+02 -0.21967904228E+01  0.87373031454E+00  0.19534040543E+02  0.00000000000E+00 0. -1.
</event>
<event>
 6    1  0.3240171E-005  0.3022141E+03  0.7818608E-02  0.1191281E+00
          2   -1    0    0  502    0  0.00000000000E+00  0.00000000000E+00  0.43684951341E+03  0.43684951341E+03  0.00000000000E+00 0. -1.
          1   -1    0    0  501    0 -0.00000000000E+00 -0.00000000000E+00 -0.35661094573E+03  0.35661094573E+03  0.00000000000E+00 0.  1.
          2    1    1    2  501    0  0.91495958952E+02 -0.15472531524E+02  0.21877852481E+02  0.95339132393E+02  0.00000000000E+00 0. -1.
          1    1    1    2  502    0 -0.27896425972E+03  0.61023173123E+02 -0.20251519978E+03  0.35008183615E+03  0.00000000000E+00 0.  1.
         22    1    1    2    0    0 -0.13733463759E+02 -0.17728178181E+02  0.52292392769E+02  0.56898072638E+02  0.00000000000E+00 0.  1.
         22    1    1    2    0    0  0.20120176453E+03 -0.27822463418E+02  0.20858352220E+03  0.29114141797E+03  0.00000000000E+00 0. -1.
</event>
<event>
 6    1  0.3240171E-005  0.1188303E+03  0.7818608E-02  0.1246311E+00
          2   -1    0    0  502    0  0.00000000000E+00  0.00000000000E+00  0.30749370962E+03  0.30749370962E+03  0.00000000000E+00 0. -1.
          1   -1    0    0  501    0 -0.00000000000E+00 -0.00000000000E+00 -0.23421409233E+03  0.23421409233E+03  0.00000000000E+00 0.  1.
          2    1    1    2  501    0  0.86208688856E+02  0.17554261032E+02  0.12413008840E+02  0.88849158145E+02  0.00000000000E+00 0. -1.
          1    1    1    2  502    0 -0.22350414706E+01 -0.36503523030E+02 -0.17022764773E+03  0.17411190268E+03  0.00000000000E+00 0.  1.
         22    1    1    2    0    0  0.31318220059E+02  0.10459001325E+02  0.21549874500E+02  0.39428653380E+02  0.00000000000E+00 0. -1.
         22    1    1    2    0    0 -0.11529186744E+03  0.84902606725E+01  0.20954438168E+03  0.23931808774E+03  0.00000000000E+00 0. -1.
</event>
<event>
 6    1  0.3240171E-005  0.7378358E+02  0.7818608E-02  0.1370805E+00
          2   -1    0    0  502    0  0.00000000000E+00  0.00000000000E+00  0.33823698760E+03  0.33823698760E+03  0.00000000000E+00 0.  1.
          1   -1    0    0  501    0 -0.00000000000E+00 -0.00000000000E+00 -0.42404186410E+03  0.42404186410E+03  0.00000000000E+00 0. -1.
          2    1    1    2  501    0 -0.23361845830E+02  0.11601916813E+01  0.36539868684E+01  0.23674321645E+02  0.00000000000E+00 0.  1.
          1    1    1    2  502    0  0.59356046995E+02  0.10469892323E+02 -0.39849482279E+03  0.40302714890E+03  0.00000000000E+00 0. -1.
         22    1    1    2    0    0  0.14547499271E+02 -0.47836137159E+02  0.22811694459E+03  0.23353215231E+03  0.00000000000E+00 0.  1.
         22    1    1    2    0    0 -0.50541700436E+02  0.36206053155E+02  0.80919014836E+02  0.10204522885E+03  0.00000000000E+00 0.  1.
</event>
<event>
 6    1  0.3240171E-005  0.5354035E+02  0.7818608E-02  0.1504818E+00
          2   -1    0    0  502    0  0.00000000000E+00  0.00000000000E+00  0.50962253075E+02  0.50962253075E+02  0.00000000000E+00 0. -1.
          1   -1    0    0  501    0 -0.00000000000E+00 -0.00000000000E+00 -0.45246459564E+03  0.45246459564E+03  0.00000000000E+00 0. -1.
          2    1    1    2  501    0 -0.29876165888E+02  0.25068103333E+02 -0.76886015453E+02  0.86211684041E+02  0.00000000000E+00 0. -1.
          1    1    1    2  502    0  0.17100045633E+02 -0.27633971358E+02 -0.28704598282E+03  0.28887963615E+03  0.00000000000E+00 0. -1.
         22    1    1    2    0    0  0.10762408302E+02  0.19918570634E+02 -0.79633358987E+02  0.82789194658E+02  0.00000000000E+00 0. -1.
         22    1    1    2    0    0  0.20137119533E+01 -0.17352702608E+02  0.42063014690E+02  0.45546333863E+02  0.00000000000E+00 0. -1.
</event>
<event>
 6    1  0.3240171E-005  0.1256876E+03  0.7818608E-02  0.1299331E+00
          2   -1    0    0  502    0  0.00000000000E+00  0.00000000000E+00  0.12099875297E+03  0.12099875297E+03  0.00000000000E+00 0.  1.
          1   -1    0    0  501    0 -0.00000000000E+00 -0.00000000000E+00 -0.81026079001E+03  0.81026079001E+03  0.00000000000E+00 0. -1.
          2    1    1    2  501    0 -0.95318165962E+02 -0.42488814561E+02 -0.45596263902E+02  0.11388534325E+03  0.00000000000E+00 0.  1.
          1    1    1    2  502    0  0.10051797007E+03  0.60601846660E+02 -0.67367353622E+03  0.68382196479E+03  0.00000000000E+00 0. -1.
         22    1    1    2    0    0  0.31802305611E+02 -0.15218486123E+02  0.70377056785E+02  0.78714160630E+02  0.00000000000E+00 0. -1.
         22    1    1    2    0    0 -0.37002109722E+02 -0.28945459761E+01 -0.40369293700E+02  0.54838074311E+02  0.00000000000E+00 0. -1.
</event>
<event>
 6    1  0.3240171E-005  0.7527549E+02  0.7818608E-02  0.1369847E+00
          2   -1    0    0  502    0  0.00000000000E+00  0.00000000000E+00  0.11822117300E+03  0.11822117300E+03  0.00000000000E+00 0. -1.
          1   -1    0    0  501    0 -0.00000000000E+00 -0.00000000000E+00 -0.51880618152E+03  0.51880618152E+03  0.00000000000E+00 0. -1.
          2    1    1    2  501    0 -0.42014914459E+02 -0.59756418121E+02 -0.31233294009E+03  0.32076151267E+03  0.00000000000E+00 0. -1.
          1    1    1    2  502    0  0.31548509631E+01  0.58736347247E+02 -0.15738865604E+03  0.16802113148E+03  0.00000000000E+00 0. -1.
         22    1    1    2    0    0 -0.62008901866E+01 -0.15040314653E+02 -0.32260092063E+02  0.36129982617E+02  0.00000000000E+00 0.  1.
         22    1    1    2    0    0  0.45060953682E+02  0.16060385527E+02  0.10139667968E+03  0.11211472775E+03  0.00000000000E+00 0. -1.
</event>
<event>
 6    1  0.3240171E-005  0.2872838E+03  0.7818608E-02  0.1201430E+00
          2   -1    0    0  502    0  0.00000000000E+00  0.00000000000E+00  0.36807004479E+03  0.36807004479E+03  0.00000000000E+00 0. -1.
          1   -1    0    0  501    0 -0.00000000000E+00 -0.00000000000E+00 -0.34563999765E+03  0.34563999765E+03  0.00000000000E+00 0. -1.
          2    1    1    2  501    0  0.62534746861E+02 -0.31595613058E+00 -0.19647655984E+02  0.65549407159E+02  0.00000000000E+00 0. -1.
          1    1    1    2  502    0 -0.20145198223E+03 -0.94329536663E+02 -0.22023108548E+03  0.31302187406E+03  0.00000000000E+00 0. -1.
         22    1    1    2    0    0 -0.73677246715E+01 -0.19572223874E+02  0.14129250082E+02  0.25238681069E+02  0.00000000000E+00 0.  1.
         22    1    1    2    0    0  0.14628496004E+03  0.11421771667E+03  0.24817953852E+03  0.30990008015E+03  0.00000000000E+00 0. -1.
</event>
<event>
 6    1  0.3240171E-005  0.7741108E+02  0.7818608E-02  0.1357591E+00
          2   -1    0    0  502    0  0.00000000000E+00  0.00000000000E+00  0.86889529065E+02  0.86889529065E+02  0.00000000000E+00 0. -1.
          1   -1    0    0  501    0 -0.00000000000E+00 -0.00000000000E+00 -0.26569420743E+03  0.26569420743E+03  0.00000000000E+00 0. -1.
          2    1    1    2  501    0  0.13281197158E+02 -0.22518025970E+02 -0.10606489673E+03  0.10923925124E+03  0.00000000000E+00 0. -1.
          1    1    1    2  502    0  0.20654851048E+01 -0.52113758921E+02 -0.81765917145E+02  0.96983376432E+02  0.00000000000E+00 0. -1.
         22    1    1    2    0    0 -0.20549777794E+02  0.17665388641E+02 -0.54506019354E+02  0.60870891804E+02  0.00000000000E+00 0.  1.
         22    1    1    2    0    0  0.52030955303E+01  0.56966396250E+02  0.63532154866E+02  0.85490217023E+02  0.00000000000E+00 0. -1.
</event>
<event>
 6    1  0.3240171E-005  0.1409377E+03  0.7818608E-02  0.1318430E+00
          2   -1    0    0  502    0  0.00000000000E+00  0.00000000000E+00  0.39852153151E+02  0.39852153151E+02  0.00000000000E+00 0. -1.
          1   -1    0    0  501    0 -0.00000000000E+00 -0.00000000000E+00 -0.36757357369E+03  0.36757357369E+03  0.00000000000E+00 0. -1.
          2    1    1    2  501    0 -0.30297715960E+02  0.55866343299E+02 -0.69749944278E+02  0.94361298385E+02  0.00000000000E+00 0. -1.
          1    1    1    2  502    0 -0.11975168078E+02 -0.32855352434E+02 -0.27294958815E+02  0.44360946910E+02  0.00000000000E+00 0. -1.
         22    1    1    2    0    0  0.32286848064E+02 -0.37588083843E+02 -0.24245590183E+03  0.24746751087E+03  0.00000000000E+00 0. -1.
         22    1    1    2    0    0  0.99860359745E+01  0.14577092978E+02  0.11779384382E+02  0.21235970677E+02  0.00000000000E+00 0.  1.
</event>
<event>
 6    1  0.3240171E-005  0.5249818E+02  0.7818608E-02  0.1441249E+00
          2   -1    0    0  502    0  0.00000000000E+00  0.00000000000E+00  0.16225610486E+03  0.16225610486E+03  0.00000000000E+00 0. -1.
          1   -1    0    0  501    0 -0.00000000000E+00 -0.00000000000E+00 -0.95113981162E+02  0.95113981162E+02  0.00000000000E+00 0. -1.
          2    1    1    2  501    0 -0.30160107922E+02 -0.43163545334E+01  0.79582758287E+02  0.85215482413E+02  0.00000000000E+00 0. -1.
          1    1    1    2  502    0  0.25770587608E+02  0.36849075809E+01 -0.34203933049E+02  0.42983843076E+02  0.00000000000E+00 0. -1.
         22    1    1    2    0    0  0.14680962147E+02  0.21966516094E+02 -0.48386306908E+02  0.55129784827E+02  0.00000000000E+00 0. -1.
         22    1    1    2    0    0 -0.10291441834E+02 -0.21335069141E+02  0.70149605372E+02  0.74040975710E+02  0.00000000000E+00 0. -1.
</event>
<event>
 6    1  0.3240171E-005  0.3920850E+03  0.7818608E-02  0.1144538E+00
          2   -1    0    0  502    0  0.00000000000E+00  0.00000000000E+00  0.88720942796E+03  0.88720942796E+03  0.00000000000E+00 0. -1.
          1   -1    0    0  501    0 -0.00000000000E+00 -0.00000000000E+00 -0.21203408018E+03  0.21203408018E+03  0.00000000000E+00 0. -1.
          2    1    1    2  501    0 -0.21825700114E+03 -0.26051681113E+02  0.24554277898E+03  0.32955434293E+03  0.00000000000E+00 0. -1.
          1    1    1    2  502    0  0.38763287720E+03 -0.27563892173E+02  0.15352988481E+03  0.41784021009E+03  0.00000000000E+00 0. -1.
         22    1    1    2    0    0 -0.14064002384E+03  0.62387513904E+02  0.12628127140E+03  0.19904466258E+03  0.00000000000E+00 0. -1.
         22    1    1    2    0    0 -0.28735852218E+02 -0.87719406184E+01  0.14982141260E+03  0.15280429254E+03  0.00000000000E+00 0. -1.
</event>
<event>
 6    1  0.3240171E-005  0.1639242E+03  0.7818608E-02  0.1235044E+00
          2   -1    0    0  502    0  0.00000000000E+00  0.00000000000E+00  0.10446613417E+03  0.10446613417E+03  0.00000000000E+00 0. -1.
          1   -1    0    0  501    0 -0.00000000000E+00 -0.00000000000E+00 -0.38551984301E+03  0.38551984301E+03  0.00000000000E+00 0.  1.
          2    1    1    2  501    0 -0.68640410976E+02  0.41134398357E+02  0.22242055991E+02  0.83055727087E+02  0.00000000000E+00 0. -1.
          1    1    1    2  502    0  0.42616564876E+01 -0.25171692006E+02 -0.25799379606E+03  0.25925388059E+03  0.00000000000E+00 0.  1.
         22    1    1    2    0    0  0.32059114376E+02 -0.69651628559E+02 -0.15252036420E+02  0.78177751250E+02  0.00000000000E+00 0. -1.
         22    1    1    2    0    0  0.32319640112E+02  0.53688922207E+02 -0.30049932352E+02  0.69498618254E+02  0.00000000000E+00 0. -1.
</event>
<event>
 6    1  0.3240171E-005  0.1099658E+03  0.7818608E-02  0.1357639E+00
          2   -1    0    0  502    0  0.00000000000E+00  0.00000000000E+00  0.44582898230E+02  0.44582898230E+02  0.00000000000E+00 0.  1.
          1   -1    0    0  501    0 -0.00000000000E+00 -0.00000000000E+00 -0.15890791674E+04  0.15890791674E+04  0.00000000000E+00 0.  1.
          2    1    1    2  501    0  0.62424880941E+02 -0.31260953639E+02 -0.21669837947E+03  0.22766708292E+03  0.00000000000E+00 0.  1.
          1    1    1    2  502    0 -0.96045857365E+02  0.19408537071E+02 -0.12458660180E+04  0.12497134203E+04  0.00000000000E+00 0.  1.
         22    1    1    2    0    0  0.16022286665E+02 -0.98684516052E+01  0.33005707156E+02  0.37993114006E+02  0.00000000000E+00 0.  1.
         22    1    1    2    0    0  0.17598689759E+02  0.21720868173E+02 -0.11493757888E+03  0.11828844844E+03  0.00000000000E+00 0.  1.
</event>
<event>
 6    1  0.3240171E-005  0.7861755E+02  0.7818608E-02  0.1386699E+00
          2   -1    0    0  502    0  0.00000000000E+00  0.00000000000E+00  0.69305619299E+02  0.69305619299E+02  0.00000000000E+00 0.  1.
          1   -1    0    0  501    0 -0.00000000000E+00 -0.00000000000E+00 -0.10883355429E+04  0.10883355429E+04  0.00000000000E+00 0.  1.
          2    1    1    2  501    0 -0.36685329460E+02  0.32190103497E+02 -0.75607122962E+02  0.89991406274E+02  0.00000000000E+00 0.  1.
          1    1    1    2  502    0  0.51099047314E+02 -0.51685948224E+02 -0.94210659348E+03  0.94490601827E+03  0.00000000000E+00 0.  1.
         22    1    1    2    0    0  0.31177086471E+02 -0.66471215997E+01  0.43324750292E+02  0.53788743564E+02  0.00000000000E+00 0. -1.
         22    1    1    2    0    0 -0.45590804325E+02  0.26142966327E+02 -0.44640957438E+02  0.68954994079E+02  0.00000000000E+00 0.  1.
</event>
<event>
 6    1  0.3240171E-005  0.6420033E+02  0.7818608E-02  0.1410796E+00
          2   -1    0    0  502    0  0.00000000000E+00  0.00000000000E+00  0.20316056002E+03  0.20316056002E+03  0.00000000000E+00 0.  1.
          1   -1    0    0  501    0 -0.00000000000E+00 -0.00000000000E+00 -0.94408819752E+02  0.94408819752E+02  0.00000000000E+00 0.  1.
          2    1    1    2  501    0 -0.12108631782E+02 -0.23171213371E+02  0.18649046637E+01  0.26210722274E+02  0.00000000000E+00 0.  1.
          1    1    1    2  502    0 -0.17441528969E+02  0.48395339740E+02 -0.48259406006E+02  0.70535708045E+02  0.00000000000E+00 0.  1.
         22    1    1    2    0    0  0.16673878991E+02  0.36291859963E+02  0.12479246547E+03  0.13102777102E+03  0.00000000000E+00 0. -1.
         22    1    1    2    0    0  0.12876281759E+02 -0.61515986333E+02  0.30353776138E+02  0.69795178431E+02  0.00000000000E+00 0.  1.
</event>
<event>
 6    1  0.3240171E-005  0.6642398E+02  0.7818608E-02  0.1381058E+00
          2   -1    0    0  502    0  0.00000000000E+00  0.00000000000E+00  0.18743459600E+03  0.18743459600E+03  0.00000000000E+00 0.  1.
          1   -1    0    0  501    0 -0.00000000000E+00 -0.00000000000E+00 -0.98852292006E+03  0.98852292006E+03  0.00000000000E+00 0. -1.
          2    1    1    2  501    0  0.18512069729E+02  0.22080208153E+02  0.34052524987E+02  0.44607250260E+02  0.00000000000E+00 0.  1.
          1    1    1    2  502    0  0.74084662846E+01 -0.51678900481E+02 -0.95139060181E+03  0.95282195154E+03  0.00000000000E+00 0. -1.
         22    1    1    2    0    0  0.32518849756E+02  0.13346928088E+02  0.11237852970E+03  0.11774782383E+03  0.00000000000E+00 0.  1.
         22    1    1    2    0    0 -0.58439385769E+02  0.16251764240E+02  0.38712230601E+01  0.60780490439E+02  0.00000000000E+00 0.  1.
</event>
<event>
 6    1  0.3240171E-005  0.1170976E+03  0.7818608E-02  0.1284490E+00
          2   -1    0    0  502    0  0.00000000000E+00  0.00000000000E+00  0.59454759039E+03  0.59454759039E+03  0.00000000000E+00 0. -1.
          1   -1    0    0  501    0 -0.00000000000E+00 -0.00000000000E+00 -0.94136429740E+02  0.94136429740E+02  0.00000000000E+00 0. -1.
          2    1    1    2  501    0 -0.83624250849E+02 -0.19958869072E+02 -0.37355657309E+02  0.93738022796E+02  0.00000000000E+00 0. -1.
          1    1    1    2  502    0  0.10540112764E+03 -0.41999409794E+02  0.25614272920E+03  0.28014718605E+03  0.00000000000E+00 0. -1.
         22    1    1    2    0    0  0.77726349589E+01  0.56992901830E+02  0.27883432156E+03  0.28470543302E+03  0.00000000000E+00 0.  1.
         22    1    1    2    0    0 -0.29549511754E+02  0.49653770356E+01  0.27897672010E+01  0.30093378259E+02  0.00000000000E+00 0. -1.
</event>
<event>
 6    1  0.3240171E-005  0.5558533E+03  0.7818608E-02  0.1136772E+00
          2   -1    0    0  502    0  0.00000000000E+00  0.00000000000E+00  0.89262791067E+02  0.89262791067E+02  0.00000000000E+00 0. -1.
          1   -1    0    0  501    0 -0.00000000000E+00 -0.00000000000E+00 -0.26943904366E+04  0.26943904366E+04  0.00000000000E+00 0. -1.
          2    1    1    2  501    0  0.21252312338E+03 -0.11968091480E+03 -0.50190491049E+03  0.55803058922E+03  0.00000000000E+00 0. -1.
          1    1    1    2  502    0 -0.45188788133E+02 -0.11887857118E+03 -0.17318354698E+04  0.17364988441E+04  0.00000000000E+00 0. -1.
         22    1    1    2    0    0 -0.16691380572E+03  0.25126676899E+03 -0.36824918716E+03  0.47602801554E+03  0.00000000000E+00 0. -1.
         22    1    1    2    0    0 -0.42052952635E+00 -0.12707283017E+02 -0.31380780638E+01  0.13095778736E+02  0.00000000000E+00 0.  1.
</event>
<event>
 6    1  0.3240171E-005  0.2111430E+03  0.7818608E-02  0.1211540E+00
          2   -1    0    0  502    0  0.00000000000E+00  0.00000000000E+00  0.22553981282E+03  0.22553981282E+03  0.00000000000E+00 0.  1.
          1   -1    0    0  501    0 -0.00000000000E+00 -0.00000000000E+00 -0.10751824229E+04  0.10751824229E+04  0.00000000000E+00 0.  1.
          2    1    1    2  501    0  0.17548661250E+02  0.47079215258E+02 -0.52965012611E+02  0.73004798348E+02  0.00000000000E+00 0.  1.
          1    1    1    2  502    0 -0.33948845542E+02 -0.79318920852E+02 -0.99111977458E+03  0.99486804295E+03  0.00000000000E+00 0.  1.
         22    1    1    2    0    0  0.53579818207E+02  0.52610088398E+02  0.16485544190E+03  0.18115169070E+03  0.00000000000E+00 0.  1.
         22    1    1    2    0    0 -0.37179633915E+02 -0.20370382803E+02  0.29586735183E+02  0.51697703743E+02  0.00000000000E+00 0. -1.
</event>
<event>
 6    1  0.3240171E-005  0.7164312E+02  0.7818608E-02  0.1442859E+00
          2   -1    0    0  502    0  0.00000000000E+00  0.00000000000E+00  0.10885618970E+03  0.10885618970E+03  0.00000000000E+00 0. -1.
          1   -1    0    0  501    0 -0.00000000000E+00 -0.00000000000E+00 -0.18521875942E+04  0.18521875942E+04  0.00000000000E+00 0. -1.
          2    1    1    2  501    0  0.22702177559E+01 -0.25137224254E+02 -0.11206346780E+02  0.27615505427E+02  0.00000000000E+00 0. -1.
          1    1    1    2  502    0 -0.29324636910E+02  0.61199376318E+02 -0.17910003276E+04  0.17922855441E+04  0.00000000000E+00 0. -1.
         22    1    1    2    0    0 -0.91628805793E+01  0.15067578889E+02  0.74506487989E+02  0.76565051209E+02  0.00000000000E+00 0. -1.
         22    1    1    2    0    0  0.36217299734E+02 -0.51129730954E+02 -0.15631218112E+02  0.64577683197E+02  0.00000000000E+00 0. -1.
</event>
<event>
 6    1  0.3240171E-005  0.5270827E+02  0.7818608E-02  0.1450746E+00
          2   -1    0    0  502    0  0.00000000000E+00  0.00000000000E+00  0.45868906455E+02  0.45868906455E+02  0.00000000000E+00 0. -1.
          1   -1    0    0  501    0 -0.00000000000E+00 -0.00000000000E+00 -0.13363453401E+04  0.13363453401E+04  0.00000000000E+00 0.  1.
          2    1    1    2  501    0 -0.82090472285E+01 -0.20701962126E+02 -0.52805863924E+01  0.22887644809E+02  0.00000000000E+00 0. -1.
          1    1    1    2  502    0  0.65856571636E+01 -0.21021046950E+02 -0.12098327942E+04  0.12100333240E+04  0.00000000000E+00 0.  1.
         22    1    1    2    0    0  0.18214098630E+02  0.49535877090E+02 -0.10322660365E+03  0.11593656977E+03  0.00000000000E+00 0.  1.
         22    1    1    2    0    0 -0.16590708565E+02 -0.78128680134E+01  0.27863550576E+02  0.33356707990E+02  0.00000000000E+00 0. -1.
</event>
<event>
 6    1  0.3240171E-005  0.1109754E+03  0.7818608E-02  0.1283065E+00
          2   -1    0    0  502    0  0.00000000000E+00  0.00000000000E+00  0.27385038500E+03  0.27385038500E+03  0.00000000000E+00 0.  1.
          1   -1    0    0  501    0 -0.00000000000E+00 -0.00000000000E+00 -0.43828616845E+03  0.43828616845E+03  0.00000000000E+00 0.  1.
          2    1    1    2  501    0  0.86064533721E+02 -0.72451153998E+02  0.95579108616E+01  0.11290539110E+03  0.00000000000E+00 0.  1.
          1    1    1    2  502    0 -0.37695508951E+02  0.82219825380E+02 -0.35983139724E+03  0.37102518179E+03  0.00000000000E+00 0.  1.
         22    1    1    2    0    0  0.99127481360E+01 -0.47484863929E+02  0.28567215386E+02  0.56295298852E+02  0.00000000000E+00 0. -1.
         22    1    1    2    0    0 -0.58281772906E+02  0.37716192547E+02  0.15727048754E+03  0.17191068170E+03  0.00000000000E+00 0.  1.
</event>
<event>
 6    1  0.3240171E-005  0.3971887E+03  0.7818608E-02  0.1109643E+00
          2   -1    0    0  502    0  0.00000000000E+00  0.00000000000E+00  0.72191856185E+03  0.72191856185E+03  0.00000000000E+00 0.  1.
          1   -1    0    0  501    0 -0.00000000000E+00 -0.00000000000E+00 -0.24211817089E+03  0.24211817089E+03  0.00000000000E+00 0.  1.
          2    1    1    2  501    0 -0.47814224973E+02 -0.93893768319E+01 -0.12083184822E+03  0.13028697575E+03  0.00000000000E+00 0.  1.
          1    1    1    2  502    0  0.20714645899E+02 -0.11888255977E+01 -0.10984787704E+03  0.11179027664E+03  0.00000000000E+00 0.  1.
         22    1    1    2    0    0 -0.25073868471E+02  0.54278553126E+02  0.30452013446E+03  0.31033429154E+03  0.00000000000E+00 0.  1.
         22    1    1    2    0    0  0.52173447545E+02 -0.43700350696E+02  0.40595998176E+03  0.41162518881E+03  0.00000000000E+00 0.  1.
</event>
<event>
 6    1  0.3240171E-005  0.2544280E+03  0.7818608E-02  0.1212264E+00
          2   -1    0    0  502    0  0.00000000000E+00  0.00000000000E+00  0.44586416048E+03  0.44586416048E+03  0.00000000000E+00 0. -1.
          1   -1    0    0  501    0 -0.00000000000E+00 -0.00000000000E+00 -0.51546623919E+03  0.51546623919E+03  0.00000000000E+00 0.  1.
          2    1    1    2  501    0 -0.60826316599E+01  0.83808560288E+02  0.95075563221E+02  0.12688670501E+03  0.00000000000E+00 0. -1.
          1    1    1    2  502    0  0.69701206438E+02 -0.23792646695E+03 -0.43106787954E+03  0.49727937684E+03  0.00000000000E+00 0.  1.
         22    1    1    2    0    0  0.23316342514E+02 -0.50592454798E+01  0.45303494470E+02  0.51202093749E+02  0.00000000000E+00 0. -1.
         22    1    1    2    0    0 -0.86934917292E+02  0.15917715214E+03  0.22108674314E+03  0.28596222408E+03  0.00000000000E+00 0. -1.
</event>
<event>
 6    1  0.3240171E-005  0.1142518E+03  0.7818608E-02  0.1257043E+00
          2   -1    0    0  502    0  0.00000000000E+00  0.00000000000E+00  0.42961038993E+03  0.42961038993E+03  0.00000000000E+00 0. -1.
          1   -1    0    0  501    0 -0.00000000000E+00 -0.00000000000E+00 -0.21271074919E+03  0.21271074919E+03  0.00000000000E+00 0. -1.
          2    1    1    2  501    0  0.15903602662E+02 -0.78739249197E+02  0.12350358067E+03  0.14732931949E+03  0.00000000000E+00 0. -1.
          1    1    1    2  502    0  0.28552655530E+01  0.24830650305E+02 -0.18338274690E+03  0.18507821480E+03  0.00000000000E+00 0. -1.
         22    1    1    2    0    0  0.97220804245E+01 -0.35487253678E+02  0.13482634692E+03  0.13975695992E+03  0.00000000000E+00 0.  1.
         22    1    1    2    0    0 -0.28480948639E+02  0.89395852569E+02  0.14195246004E+03  0.17015664490E+03  0.00000000000E+00 0. -1.
</event>
<event>
 6    1  0.3240171E-005  0.9015983E+02  0.7818608E-02  0.1383266E+00
          2   -1    0    0  502    0  0.00000000000E+00  0.00000000000E+00  0.49706831521E+02  0.49706831521E+02  0.00000000000E+00 0.  1.
          1   -1    0    0  501    0 -0.00000000000E+00 -0.00000000000E+00 -0.48147913226E+03  0.48147913226E+03  0.00000000000E+00 0.  1.
          2    1    1    2  501    0 -0.57107652148E+02 -0.60495485089E+01 -0.19226531706E+03  0.20065849874E+03  0.00000000000E+00 0.  1.
          1    1    1    2  502    0  0.66148706575E+02  0.55419374363E+02 -0.12786510780E+03  0.15426096145E+03  0.00000000000E+00 0.  1.
         22    1    1    2    0    0 -0.36459811429E+01 -0.22043565536E+02  0.26890571790E+02  0.34961619116E+02  0.00000000000E+00 0.  1.
         22    1    1    2    0    0 -0.53950732842E+01 -0.27326260318E+02 -0.13853244767E+03  0.14130488447E+03  0.00000000000E+00 0. -1.
</event>
<event>
 6    1  0.3240171E-005  0.2750674E+03  0.7818608E-02  0.1187325E+00
          2   -1    0    0  502    0  0.00000000000E+00  0.00000000000E+00  0.73643891585E+03  0.73643891585E+03  0.00000000000E+00 0.  1.
          1   -1    0    0  501    0 -0.00000000000E+00 -0.00000000000E+00 -0.50222988858E+02  0.50222988858E+02  0.00000000000E+00 0.  1.
          2    1    1    2  501    0  0.87943179336E+02  0.70030512517E+02  0.10147071948E+03  0.15144167982E+03  0.00000000000E+00 0.  1.
          1    1    1    2  502    0 -0.46915225169E+02 -0.62456416051E+01  0.18174552564E+02  0.50698725355E+02  0.00000000000E+00 0.  1.
         22    1    1    2    0    0 -0.42238603217E+00  0.32458797311E+02  0.71110106397E+02  0.78169042239E+02  0.00000000000E+00 0. -1.
         22    1    1    2    0    0 -0.40605568134E+02 -0.96243668222E+02  0.49546054855E+03  0.50635245730E+03  0.00000000000E+00 0.  1.
</event>
<event>
 6    1  0.3240171E-005  0.1264314E+03  0.7818608E-02  0.1266519E+00
          2   -1    0    0  502    0  0.00000000000E+00  0.00000000000E+00  0.55419290625E+02  0.55419290625E+02  0.00000000000E+00 0.  1.
          1   -1    0    0  501    0 -0.00000000000E+00 -0.00000000000E+00 -0.16537403112E+04  0.16537403112E+04  0.00000000000E+00 0.  1.
          2    1    1    2  501    0  0.31771423255E+02 -0.79015742160E+00 -0.71510133037E+02  0.78254372474E+02  0.00000000000E+00 0.  1.
          1    1    1    2  502    0  0.56098520341E+02  0.28695553108E+02 -0.14561913252E+04  0.14575539971E+04  0.00000000000E+00 0.  1.
         22    1    1    2    0    0 -0.16955211848E+02 -0.61132484299E+02  0.60849226124E+01  0.63731359067E+02  0.00000000000E+00 0.  1.
         22    1    1    2    0    0 -0.70914731747E+02  0.33227088612E+02 -0.76704484979E+02  0.10961987325E+03  0.00000000000E+00 0.  1.
</event>
<event>
 6    1  0.3240171E-005  0.7314683E+02  0.7818608E-02  0.1357870E+00
          2   -1    0    0  502    0  0.00000000000E+00  0.00000000000E+00  0.15015015814E+03  0.15015015814E+03  0.00000000000E+00 0.  1.
          1   -1    0    0  501    0 -0.00000000000E+00 -0.00000000000E+00 -0.15150589010E+04  0.15150589010E+04  0.00000000000E+00 0.  1.
          2    1    1    2  501    0 -0.21394181670E+02  0.52822210827E+02  0.17301154817E+02  0.59558600756E+02  0.00000000000E+00 0.  1.
          1    1    1    2  502    0  0.17899241515E+02 -0.48987790089E+02 -0.14608619033E+04  0.14617926278E+04  0.00000000000E+00 0.  1.
         22    1    1    2    0    0  0.13578493469E+02  0.50819032176E+02  0.68284287263E+01  0.53043161247E+02  0.00000000000E+00 0.  1.
         22    1    1    2    0    0 -0.10083553315E+02 -0.54653452914E+02  0.71823576862E+02  0.90814669278E+02  0.00000000000E+00 0.  1.
</event>
<event>
 6    1  0.3240171E-005  0.1524956E+03  0.7818608E-02  0.1200764E+00
          2   -1    0    0  502    0  0.00000000000E+00  0.00000000000E+00  0.17082193970E+03  0.17082193970E+03  0.00000000000E+00 0.  1.
          1   -1    0    0  501    0 -0.00000000000E+00 -0.00000000000E+00 -0.21493727187E+03  0.21493727187E+03  0.00000000000E+00 0. -1.
          2    1    1    2  501    0 -0.51287848141E+02 -0.12581639463E+03  0.40441122526E+02  0.14175927806E+03  0.00000000000E+00 0.  1.
          1    1    1    2  502    0 -0.29295807703E+02  0.56771373791E+02 -0.29896439021E+02  0.70533894670E+02  0.00000000000E+00 0. -1.
         22    1    1    2    0    0  0.66212166033E+02  0.97700589683E+02 -0.70742407681E+02  0.13760067006E+03  0.00000000000E+00 0. -1.
         22    1    1    2    0    0  0.14371489811E+02 -0.28655568848E+02  0.16082392011E+02  0.35865368787E+02  0.00000000000E+00 0. -1.
</event>
<event>
 6    1  0.3240171E-005  0.1807959E+03  0.7818608E-02  0.1289479E+00
          2   -1    0    0  502    0  0.00000000000E+00  0.00000000000E+00  0.88319801243E+02  0.88319801243E+02  0.00000000000E+00 0.  1.
          1   -1    0    0  501    0 -0.00000000000E+00 -0.00000000000E+00 -0.70350085348E+03  0.70350085348E+03  0.00000000000E+00 0.  1.
          2    1    1    2  501    0 -0.72746567698E+02  0.10652260175E+02 -0.34401316734E+02  0.81172559106E+02  0.00000000000E+00 0.  1.
          1    1    1    2  502    0  0.17265184871E+03 -0.26012663380E+01 -0.49867562306E+03  0.52772417463E+03  0.00000000000E+00 0.  1.
         22    1    1    2    0    0 -0.10295454461E+03 -0.21947713957E+02 -0.10959985713E+03  0.15196535489E+03  0.00000000000E+00 0.  1.
         22    1    1    2    0    0  0.30492635994E+01  0.13896720120E+02  0.27495744694E+02  0.30958566099E+02  0.00000000000E+00 0.  1.
</event>
<event>
 6    1  0.3240171E-005  0.2271643E+03  0.7818608E-02  0.1215275E+00
          2   -1    0    0  502    0  0.00000000000E+00  0.00000000000E+00  0.10569496099E+03  0.10569496099E+03  0.00000000000E+00 0. -1.
          1   -1    0    0  501    0 -0.00000000000E+00 -0.00000000000E+00 -0.84219824949E+03  0.84219824949E+03  0.00000000000E+00 0. -1.
          2    1    1    2  501    0  0.12825509314E+02  0.67873927443E+02 -0.82912906091E+02  0.10791623470E+03  0.00000000000E+00 0. -1.
          1    1    1    2  502    0 -0.93715506720E+02 -0.18562729400E+03 -0.61521130986E+03  0.64940360660E+03  0.00000000000E+00 0. -1.
         22    1    1    2    0    0 -0.26414776476E+02  0.17062705045E+02  0.13942762810E+02  0.34398792922E+02  0.00000000000E+00 0.  1.
         22    1    1    2    0    0  0.10730477388E+03  0.10069066151E+03 -0.52321835359E+02  0.15617457626E+03  0.00000000000E+00 0. -1.
</event>
<event>
 6    1  0.3240171E-005  0.6843947E+02  0.7818608E-02  0.1367344E+00
          2   -1    0    0  502    0  0.00000000000E+00  0.00000000000E+00  0.35246444076E+03  0.35246444076E+03  0.00000000000E+00 0. -1.
          1   -1    0    0  501    0 -0.00000000000E+00 -0.00000000000E+00 -0.64766073264E+03  0.64766073264E+03  0.00000000000E+00 0.  1.
          2    1    1    2  501    0 -0.12318204884E+02 -0.35125431430E+02  0.28923468801E+02  0.47139167920E+02  0.00000000000E+00 0. -1.
          1    1    1    2  502    0 -0.16299959471E+02  0.29913446807E+02 -0.62495732856E+03  0.62588510567E+03  0.00000000000E+00 0.  1.
         22    1    1    2    0    0  0.56431641672E+02  0.33861545770E+02  0.26628460064E+03  0.27429659677E+03  0.00000000000E+00 0. -1.
         22    1    1    2    0    0 -0.27813477316E+02 -0.28649561147E+02  0.34552967239E+02  0.52804303039E+02  0.00000000000E+00 0. -1.
</event>
<event>
 6    1  0.3240171E-005  0.8529613E+02  0.7818608E-02  0.1327286E+00
          2   -1    0    0  502    0  0.00000000000E+00  0.00000000000E+00  0.84568711776E+02  0.84568711776E+02  0.00000000000E+00 0. -1.
          1   -1    0    0  501    0 -0.00000000000E+00 -0.00000000000E+00 -0.12123320322E+03  0.12123320322E+03  0.00000000000E+00 0. -1.
          2    1    1    2  501    0 -0.21888906763E+02  0.17197412992E+02 -0.10127406025E+01  0.27854997692E+02  0.00000000000E+00 0. -1.
          1    1    1    2  502    0  0.22945633559E+02 -0.23698776336E+02 -0.36091724947E+02  0.48895262643E+02  0.00000000000E+00 0. -1.
         22    1    1    2    0    0 -0.24501864993E+02 -0.56158176165E+02 -0.72974377745E+01  0.61703603918E+02  0.00000000000E+00 0. -1.
         22    1    1    2    0    0  0.23445138196E+02  0.62659539509E+02  0.77374118799E+01  0.67348050745E+02  0.00000000000E+00 0. -1.
</event>
<event>
 6    1  0.3240171E-005  0.6097001E+02  0.7818608E-02  0.1399228E+00
          2   -1    0    0  502    0  0.00000000000E+00  0.00000000000E+00  0.27279386005E+02  0.27279386005E+02  0.00000000000E+00 0. -1.
          1   -1    0    0  501    0 -0.00000000000E+00 -0.00000000000E+00 -0.10570008311E+04  0.10570008311E+04  0.00000000000E+00 0. -1.
          2    1    1    2  501    0 -0.22965443438E+02 -0.99928554768E+01 -0.99329180508E+02  0.10243805374E+03  0.00000000000E+00 0. -1.
          1    1    1    2  502    0  0.45553646889E+01  0.33183944213E+02 -0.79952674732E+03  0.80022805823E+03  0.00000000000E+00 0. -1.
         22    1    1    2    0    0  0.44452344309E+02 -0.37750750820E+02 -0.12628584550E+02  0.59670857626E+02  0.00000000000E+00 0. -1.
         22    1    1    2    0    0 -0.26042265560E+02  0.14559662083E+02 -0.11823693273E+03  0.12194324752E+03  0.00000000000E+00 0. -1.
</event>
<event>
 6    1  0.3240171E-005  0.1041242E+03  0.7818608E-02  0.1301703E+00
          2   -1    0    0  502    0  0.00000000000E+00  0.00000000000E+00  0.12427321445E+03  0.12427321445E+03  0.00000000000E+00 0. -1.
          1   -1    0    0  501    0 -0.00000000000E+00 -0.00000000000E+00 -0.23924262627E+03  0.23924262627E+03  0.00000000000E+00 0.  1.
          2    1    1    2  501    0 -0.15709993132E+02 -0.47227700514E+02  0.52250998023E+01  0.50045591694E+02  0.00000000000E+00 0. -1.
          1    1    1    2  502    0 -0.14691927879E+02  0.92290671793E+02 -0.14640683814E+03  0.17369048074E+03  0.00000000000E+00 0.  1.
         22    1    1    2    0    0 -0.28056244648E+02 -0.34764294774E+02  0.57393032941E+02  0.72730112643E+02  0.00000000000E+00 0. -1.
         22    1    1    2    0    0  0.58458165659E+02 -0.10298676505E+02 -0.31180706416E+02  0.67049655649E+02  0.00000000000E+00 0.  1.
</event>
<event>
 6    1  0.3240171E-005  0.9668224E+02  0.7818608E-02  0.1308933E+00
          2   -1    0    0  502    0  0.00000000000E+00  0.00000000000E+00  0.33235148551E+03  0.33235148551E+03  0.00000000000E+00 0.  1.
          1   -1    0    0  501    0 -0.00000000000E+00 -0.00000000000E+00 -0.15671149767E+03  0.15671149767E+03  0.00000000000E+00 0.  1.
          2    1    1    2  501    0  0.65339884639E+02 -0.39462465321E+02  0.33424314501E+02  0.83329295531E+02  0.00000000000E+00 0.  1.
          1    1    1    2  502    0 -0.61994968097E+02  0.24942694976E+02 -0.10736578426E+03  0.12646313981E+03  0.00000000000E+00 0.  1.
         22    1    1    2    0    0 -0.61980103614E+02  0.19469352397E+02  0.15229067121E+03  0.16556882999E+03  0.00000000000E+00 0.  1.
         22    1    1    2    0    0  0.58635187071E+02 -0.49495820514E+01  0.97290786386E+02  0.11370171785E+03  0.00000000000E+00 0. -1.
</event>
<event>
 6    1  0.3240171E-005  0.7777981E+02  0.7818608E-02  0.1337602E+00
          2   -1    0    0  502    0  0.00000000000E+00  0.00000000000E+00  0.40513430927E+02  0.40513430927E+02  0.00000000000E+00 0. -1.
          1   -1    0    0  501    0 -0.00000000000E+00 -0.00000000000E+00 -0.55465829889E+03  0.55465829889E+03  0.00000000000E+00 0.  1.
          2    1    1    2  501    0  0.27609848568E+01  0.51132398902E+02 -0.21413494119E+02  0.55503900631E+02  0.00000000000E+00 0. -1.
          1    1    1    2  502    0 -0.31497094667E+02  0.31760731640E+01 -0.31107848624E+03  0.31268511160E+03  0.00000000000E+00 0.  1.
         22    1    1    2    0    0  0.12229623511E+01  0.23152951407E+02  0.43821274038E+01  0.23595716483E+02  0.00000000000E+00 0. -1.
         22    1    1    2    0    0  0.27513147459E+02 -0.77461423473E+02 -0.18603501501E+03  0.20338700110E+03  0.00000000000E+00 0.  1.
</event>
<event>
 6    1  0.3240171E-005  0.1597690E+03  0.7818608E-02  0.1189917E+00
          2   -1    0    0  502    0  0.00000000000E+00  0.00000000000E+00  0.96305870960E+03  0.96305870960E+03  0.00000000000E+00 0. -1.
          1   -1    0    0  501    0 -0.00000000000E+00 -0.00000000000E+00 -0.90106327003E+02  0.90106327003E+02  0.00000000000E+00 0.  1.
          2    1    1    2  501    0  0.38210177907E+01 -0.14797035482E+03  0.31983500912E+03  0.35242624638E+03  0.00000000000E+00 0. -1.
          1    1    1    2  502    0 -0.26489250347E+02  0.18674736721E+02 -0.55976347759E+02  0.64682128010E+02  0.00000000000E+00 0.  1.
         22    1    1    2    0    0  0.13910920312E+02  0.15026217861E+03  0.57903678171E+03  0.59837766552E+03  0.00000000000E+00 0. -1.
         22    1    1    2    0    0  0.87573122442E+01 -0.20966560512E+02  0.30056939533E+02  0.37678996690E+02  0.00000000000E+00 0.  1.
</event>
<event>
 6    1  0.3240171E-005  0.4166866E+03  0.7818608E-02  0.1150528E+00
          2   -1    0    0  502    0  0.00000000000E+00  0.00000000000E+00  0.12109988961E+03  0.12109988961E+03  0.00000000000E+00 0. -1.
          1   -1    0    0  501    0 -0.00000000000E+00 -0.00000000000E+00 -0.11792901646E+04  0.11792901646E+04  0.00000000000E+00 0. -1.
          2    1    1    2  501    0 -0.20497282850E+03 -0.38043339492E+02 -0.28102559879E+03  0.34990933580E+03  0.00000000000E+00 0. -1.
          1    1    1    2  502    0  0.67918505105E+02  0.71862076676E+02 -0.75752693020E+03  0.76395296412E+03  0.00000000000E+00 0. -1.
         22    1    1    2    0    0  0.15811822331E+03 -0.39057178506E+02 -0.23256524877E+02  0.16452264794E+03  0.00000000000E+00 0.  1.
         22    1    1    2    0    0 -0.21063899921E+02  0.52384413209E+01  0.36187788398E+01  0.22005106400E+02  0.00000000000E+00 0.  1.
</event>
<event>
 6    1  0.3240171E-005  0.8249390E+02  0.7818608E-02  0.1328711E+00
          2   -1    0    0  502    0  0.00000000000E+00  0.00000000000E+00  0.20752603192E+02  0.20752603192E+02  0.00000000000E+00 0. -1.
          1   -1    0    0  501    0 -0.00000000000E+00 -0.00000000000E+00 -0.16884923997E+04  0.16884923997E+04  0.00000000000E+00 0. -1.
          2    1    1    2  501    0 -0.18373616386E+02 -0.45228334288E+02 -0.81521526100E+02  0.95020793616E+02  0.00000000000E+00 0. -1.
          1    1    1    2  502    0  0.11881760381E+02  0.22687576970E+02 -0.13208473935E+04  0.13210956587E+04  0.00000000000E+00 0. -1.
         22    1    1    2    0    0  0.28692156822E+02  0.47847982532E+02 -0.24994841540E+03  0.25609935505E+03  0.00000000000E+00 0. -1.
         22    1    1    2    0    0 -0.22200300817E+02 -0.25307225214E+02 -0.15422461459E+02  0.37029195533E+02  0.00000000000E+00 0. -1.
</event>
<event>
 6    1  0.3240171E-005  0.1433052E+03  0.7818608E-02  0.1258492E+00
          2   -1    0    0  502    0  0.00000000000E+00  0.00000000000E+00  0.14454717905E+03  0.14454717905E+03  0.00000000000E+00 0.  1.
          1   -1    0    0  501    0 -0.00000000000E+00 -0.00000000000E+00 -0.92940339454E+03  0.92940339454E+03  0.00000000000E+00 0.  1.
          2    1    1    2  501    0 -0.58833177584E+02  0.82307329815E+02 -0.46359806000E+02  0.11128823360E+03  0.00000000000E+00 0.  1.
          1    1    1    2  502    0  0.12494055926E+03 -0.37632644548E+02 -0.79587019331E+03  0.80649595404E+03  0.00000000000E+00 0.  1.
         22    1    1    2    0    0 -0.16865336560E+02 -0.49002898028E+02  0.84989458917E+02  0.99543617170E+02  0.00000000000E+00 0.  1.
         22    1    1    2    0    0 -0.49242045115E+02  0.43282127605E+01 -0.27615675108E+02  0.56622768781E+02  0.00000000000E+00 0.  1.
</event>
<event>
 6    1  0.3240171E-005  0.9029151E+02  0.7818608E-02  0.1394765E+00
          2   -1    0    0  502    0  0.00000000000E+00  0.00000000000E+00  0.55392468485E+02  0.55392468485E+02  0.00000000000E+00 0.  1.
          1   -1    0    0  501    0 -0.00000000000E+00 -0.00000000000E+00 -0.78515766089E+03  0.78515766089E+03  0.00000000000E+00 0. -1.
          2    1    1    2  501    0  0.22126289992E+02  0.22444658870E+02 -0.14504478183E+03  0.14842952590E+03  0.00000000000E+00 0.  1.
          1    1    1    2  502    0  0.28134668349E+02 -0.72402078974E+01 -0.54916651300E+03  0.54993439534E+03  0.00000000000E+00 0. -1.
         22    1    1    2    0    0  0.16021336276E+01 -0.18417522440E+02  0.43681218154E+02  0.47432275767E+02  0.00000000000E+00 0.  1.
         22    1    1    2    0    0 -0.51863091968E+02  0.32130714673E+01 -0.79235115727E+02  0.94753932378E+02  0.00000000000E+00 0.  1.
</event>
<event>
 6    1  0.3240171E-005  0.4215924E+02  0.7818608E-02  0.1541599E+00
          2   -1    0    0  502    0  0.00000000000E+00  0.00000000000E+00  0.10858125461E+03  0.10858125461E+03  0.00000000000E+00 0. -1.
          1   -1    0    0  501    0 -0.00000000000E+00 -0.00000000000E+00 -0.19666222068E+03  0.19666222068E+03  0.00000000000E+00 0.  1.
          2    1    1    2  501    0  0.11908853666E+01 -0.26920782168E+02 -0.81606933040E+02  0.85940899696E+02  0.00000000000E+00 0. -1.
          1    1    1    2  502    0 -0.91572426420E+01  0.49594909467E+02 -0.62688969986E+02  0.80457548407E+02  0.00000000000E+00 0.  1.
         22    1    1    2    0    0 -0.32482107249E+01 -0.21681408277E+02  0.95497136665E+02  0.97981311733E+02  0.00000000000E+00 0. -1.
         22    1    1    2    0    0  0.11214568000E+02 -0.99271902227E+00 -0.39282199706E+02  0.40863715448E+02  0.00000000000E+00 0.  1.
</event>
<event>
 6    1  0.3240171E-005  0.9369169E+02  0.7818608E-02  0.1372341E+00
          2   -1    0    0  502    0  0.00000000000E+00  0.00000000000E+00  0.18232194280E+03  0.18232194280E+03  0.00000000000E+00 0. -1.
          1   -1    0    0  501    0 -0.00000000000E+00 -0.00000000000E+00 -0.16877635730E+03  0.16877635730E+03  0.00000000000E+00 0. -1.
          2    1    1    2  501    0  0.15789575061E+02 -0.38573209868E+02 -0.58738889236E+02  0.72024025914E+02  0.00000000000E+00 0. -1.
          1    1    1    2  502    0 -0.23601054238E+02  0.10167960867E+03 -0.26010400112E+02  0.10757459502E+03  0.00000000000E+00 0. -1.
         22    1    1    2    0    0 -0.49409565571E+01 -0.23289480629E+02  0.12141257039E+03  0.12372479625E+03  0.00000000000E+00 0. -1.
         22    1    1    2    0    0  0.12752435733E+02 -0.39816918170E+02 -0.23117695545E+02  0.47774882909E+02  0.00000000000E+00 0.  1.
</event>
<event>
 6    1  0.3240171E-005  0.1519785E+03  0.7818608E-02  0.1254436E+00
          2   -1    0    0  502    0  0.00000000000E+00  0.00000000000E+00  0.15641489307E+03  0.15641489307E+03  0.00000000000E+00 0. -1.
          1   -1    0    0  501    0 -0.00000000000E+00 -0.00000000000E+00 -0.23899180703E+03  0.23899180703E+03  0.00000000000E+00 0. -1.
          2    1    1    2  501    0 -0.33971440318E+02 -0.89065039471E+02 -0.72664404257E+02  0.11986140187E+03  0.00000000000E+00 0. -1.
          1    1    1    2  502    0  0.39998811706E+02  0.10889203001E+02  0.90247455254E+02  0.99313054830E+02  0.00000000000E+00 0. -1.
         22    1    1    2    0    0 -0.25264673230E+02  0.40618235023E+02  0.17732313965E+02  0.51015484790E+02  0.00000000000E+00 0. -1.
         22    1    1    2    0    0  0.19237301842E+02  0.37557601447E+02 -0.11789227892E+03  0.12521675861E+03  0.00000000000E+00 0. -1.
</event>
<event>
 6    1  0.3240171E-005  0.1151770E+03  0.7818608E-02  0.1334968E+00
          2   -1    0    0  502    0  0.00000000000E+00  0.00000000000E+00  0.11042113679E+03  0.11042113679E+03  0.00000000000E+00 0.  1.
          1   -1    0    0  501    0 -0.00000000000E+00 -0.00000000000E+00 -0.15097854717E+03  0.15097854717E+03  0.00000000000E+00 0.  1.
          2    1    1    2  501    0  0.26648395431E+02  0.36092115205E+02  0.97594547938E+01  0.45913230303E+02  0.00000000000E+00 0.  1.
          1    1    1    2  502    0  0.22164423892E+02 -0.21317187711E+02 -0.69763527970E+02  0.76240632298E+02  0.00000000000E+00 0.  1.
         22    1    1    2    0    0 -0.71329907313E+02 -0.60021218692E+01 -0.34997566952E+02  0.79679425429E+02  0.00000000000E+00 0.  1.
         22    1    1    2    0    0  0.22517087989E+02 -0.87728056240E+01  0.54444229750E+02  0.59566395922E+02  0.00000000000E+00 0.  1.
</event>
<event>
 6    1  0.3240171E-005  0.1583823E+03  0.7818608E-02  0.1232636E+00
          2   -1    0    0  502    0  0.00000000000E+00  0.00000000000E+00  0.31289021333E+03  0.31289021333E+03  0.00000000000E+00 0.  1.
          1   -1    0    0  501    0 -0.00000000000E+00 -0.00000000000E+00 -0.22179332898E+03  0.22179332898E+03  0.00000000000E+00 0.  1.
          2    1    1    2  501    0 -0.27807850571E+02  0.62480225183E+01 -0.35173705087E+02  0.45271446501E+02  0.00000000000E+00 0.  1.
          1    1    1    2  502    0  0.35901031873E+02 -0.25763576320E+01 -0.16664517231E+03  0.17048793260E+03  0.00000000000E+00 0.  1.
         22    1    1    2    0    0  0.14988382920E+02  0.57776014604E+02  0.12147879901E+03  0.13535072255E+03  0.00000000000E+00 0. -1.
         22    1    1    2    0    0 -0.23081564222E+02 -0.61447679490E+02  0.17143696273E+03  0.18357344065E+03  0.00000000000E+00 0.  1.
</event>
<event>
 6    1  0.3240171E-005  0.5760852E+02  0.7818608E-02  0.1427125E+00
          2   -1    0    0  502    0  0.00000000000E+00  0.00000000000E+00  0.44928856928E+02  0.44928856928E+02  0.00000000000E+00 0. -1.
          1   -1    0    0  501    0 -0.00000000000E+00 -0.00000000000E+00 -0.27535747881E+03  0.27535747881E+03  0.00000000000E+00 0.  1.
          2    1    1    2  501    0 -0.17195082310E+02 -0.19773582512E+02 -0.41411100765E+02  0.49005557721E+02  0.00000000000E+00 0. -1.
          1    1    1    2  502    0  0.31377481109E+02  0.25228618880E+02 -0.12856427250E+03  0.13472119988E+03  0.00000000000E+00 0.  1.
         22    1    1    2    0    0 -0.34308282703E+02  0.27062543730E+02  0.19561538916E+02  0.47875811637E+02  0.00000000000E+00 0. -1.
         22    1    1    2    0    0  0.20125883904E+02 -0.32517580097E+02 -0.80014787526E+02  0.88683766503E+02  0.00000000000E+00 0. -1.
</event>
<event>
 6    1  0.3240171E-005  0.8479207E+02  0.7818608E-02  0.1430059E+00
          2   -1    0    0  502    0  0.00000000000E+00  0.00000000000E+00  0.93726603339E+02  0.93726603339E+02  0.00000000000E+00 0.  1.
          1   -1    0    0  501    0 -0.00000000000E+00 -0.00000000000E+00 -0.10671137515E+03  0.10671137515E+03  0.00000000000E+00 0.  1.
          2    1    1    2  501    0 -0.10747063127E+02 -0.34443482918E+02 -0.99905884620E+01  0.37438813272E+02  0.00000000000E+00 0.  1.
          1    1    1    2  502    0  0.21552993814E+02 -0.13957458910E+02  0.64626531958E+01  0.26478445723E+02  0.00000000000E+00 0.  1.
         22    1    1    2    0    0 -0.74958824482E+01  0.35940556191E+02 -0.67620979637E+02  0.76944842063E+02  0.00000000000E+00 0.  1.
         22    1    1    2    0    0 -0.33100482396E+01  0.12460385637E+02  0.58164143094E+02  0.59575877429E+02  0.00000000000E+00 0.  1.
</event>
<event>
 6    1  0.3240171E-005  0.7900778E+02  0.7818608E-02  0.1334750E+00
          2   -1    0    0  502    0  0.00000000000E+00  0.00000000000E+00  0.56032600310E+02  0.56032600310E+02  0.00000000000E+00 0. -1.
          1   -1    0    0  501    0 -0.00000000000E+00 -0.00000000000E+00 -0.42538627643E+03  0.42538627643E+03  0.00000000000E+00 0. -1.
          2    1    1    2  501    0  0.34280789019E+02 -0.56772341919E+02 -0.21062636269E+03  0.22082059678E+03  0.00000000000E+00 0. -1.
          1    1    1    2  502    0 -0.71969522889E+02  0.16832719081E+02 -0.65598074217E+02  0.98823377789E+02  0.00000000000E+00 0. -1.
         22    1    1    2    0    0 -0.83699857769E+00 -0.27214982410E+02 -0.78363063893E+02  0.82958577717E+02  0.00000000000E+00 0. -1.
         22    1    1    2    0    0  0.38525732448E+02  0.67154605248E+02 -0.14766175320E+02  0.78816324453E+02  0.00000000000E+00 0. -1.
</event>
<event>
 6    1  0.3240171E-005  0.1416691E+03  0.7818608E-02  0.1213678E+00
          2   -1    0    0  502    0  0.00000000000E+00  0.00000000000E+00  0.51932728220E+03  0.51932728220E+03  0.00000000000E+00 0. -1.
          1   -1    0    0  501    0 -0.00000000000E+00 -0.00000000000E+00 -0.11686047998E+03  0.11686047998E+03  0.00000000000E+00 0. -1.
          2    1    1    2  501    0  0.89928661399E+02  0.56904824449E+02  0.77784814078E+02  0.13181729965E+03  0.00000000000E+00 0. -1.
          1    1    1    2  502    0  0.23037178973E+02  0.30429129800E+01 -0.68647090441E+02  0.72473401745E+02  0.00000000000E+00 0. -1.
         22    1    1    2    0    0 -0.11384412467E+03 -0.80652037315E+02  0.38511056889E+03  0.40960393811E+03  0.00000000000E+00 0. -1.
         22    1    1    2    0    0  0.87828429440E+00  0.20704299886E+02  0.82185097020E+01  0.22293122679E+02  0.00000000000E+00 0.  1.
</event>
<event>
 6    1  0.3240171E-005  0.1910797E+03  0.7818608E-02  0.1207732E+00
          2   -1    0    0  502    0  0.00000000000E+00  0.00000000000E+00  0.44928883515E+03  0.44928883515E+03  0.00000000000E+00 0. -1.
          1   -1    0    0  501    0 -0.00000000000E+00 -0.00000000000E+00 -0.12808611362E+03  0.12808611362E+03  0.00000000000E+00 0.  1.
          2    1    1    2  501    0  0.25175859276E+02 -0.17909326029E+02 -0.17381857961E+02  0.35449920102E+02  0.00000000000E+00 0. -1.
          1    1    1    2  502    0 -0.31195889554E+02 -0.22376151013E+02 -0.87097612742E+02  0.95183348358E+02  0.00000000000E+00 0.  1.
         22    1    1    2    0    0  0.55872693695E+02  0.10158793236E+02  0.32902586647E+03  0.33389067041E+03  0.00000000000E+00 0. -1.
         22    1    1    2    0    0 -0.49852663417E+02  0.30126683805E+02  0.96656325761E+02  0.11285100990E+03  0.00000000000E+00 0. -1.
</event>
<event>
 6    1  0.3240171E-005  0.1146723E+03  0.7818608E-02  0.1256118E+00
          2   -1    0    0  502    0  0.00000000000E+00  0.00000000000E+00  0.20626872627E+03  0.20626872627E+03  0.00000000000E+00 0.  1.
          1   -1    0    0  501    0 -0.00000000000E+00 -0.00000000000E+00 -0.88031121502E+03  0.88031121502E+03  0.00000000000E+00 0. -1.
          2    1    1    2  501    0  0.25966157181E+02 -0.19515394699E+02 -0.32159717655E+03  0.32323340780E+03  0.00000000000E+00 0.  1.
          1    1    1    2  502    0 -0.15148684044E+02  0.13801317573E+03 -0.51080405233E+03  0.52933722633E+03  0.00000000000E+00 0. -1.
         22    1    1    2    0    0  0.74634154655E+01 -0.10573609080E+03  0.17608398004E+03  0.20552710647E+03  0.00000000000E+00 0.  1.
         22    1    1    2    0    0 -0.18280888602E+02 -0.12761690240E+02 -0.17725239912E+02  0.28482200684E+02  0.00000000000E+00 0.  1.
</event>
<event>
 6    1  0.3240171E-005  0.2670918E+03  0.7818608E-02  0.1218612E+00
          2   -1    0    0  502    0  0.00000000000E+00  0.00000000000E+00  0.11852189377E+03  0.11852189377E+03  0.00000000000E+00 0. -1.
          1   -1    0    0  501    0 -0.00000000000E+00 -0.00000000000E+00 -0.18109614565E+04  0.18109614565E+04  0.00000000000E+00 0.  1.
          2    1    1    2  501    0 -0.19072357257E+03  0.17572905428E+03 -0.53215098319E+03  0.59198044779E+03  0.00000000000E+00 0. -1.
          1    1    1    2  502    0  0.20253838180E+03 -0.16436756162E+03 -0.11811578585E+04  0.12096166244E+04  0.00000000000E+00 0.  1.
         22    1    1    2    0    0 -0.12111866876E+02  0.66672746680E+01 -0.51490181329E+02  0.53314056721E+02  0.00000000000E+00 0. -1.
         22    1    1    2    0    0  0.29705764176E+00 -0.18028767327E+02  0.72359460309E+02  0.74572221308E+02  0.00000000000E+00 0. -1.
</event>
<event>
 6    1  0.3240171E-005  0.1345237E+03  0.7818608E-02  0.1266826E+00
          2   -1    0    0  502    0  0.00000000000E+00  0.00000000000E+00  0.59949241211E+03  0.59949241211E+03  0.00000000000E+00 0. -1.
          1   -1    0    0  501    0 -0.00000000000E+00 -0.00000000000E+00 -0.23648610979E+02  0.23648610979E+02  0.00000000000E+00 0. -1.
          2    1    1    2  501    0 -0.11396800444E+02  0.56558835087E+02  0.14253529454E+03  0.15376962989E+03  0.00000000000E+00 0. -1.
          1    1    1    2  502    0  0.60604942963E+01 -0.21983314016E+02  0.73151094725E+01  0.23947996009E+02  0.00000000000E+00 0. -1.
         22    1    1    2    0    0 -0.55003753899E+02  0.83109928278E+01  0.16435717454E+03  0.17351589659E+03  0.00000000000E+00 0. -1.
         22    1    1    2    0    0  0.60340060047E+02 -0.42886513899E+02  0.26163622257E+03  0.27190750060E+03  0.00000000000E+00 0.  1.
</event>
<event>
 6    1  0.3240171E-005  0.4703722E+03  0.7818608E-02  0.1138333E+00
          2   -1    0    0  502    0  0.00000000000E+00  0.00000000000E+00  0.63471046539E+03  0.63471046539E+03  0.00000000000E+00 0.  1.
          1   -1    0    0  501    0 -0.00000000000E+00 -0.00000000000E+00 -0.35673330099E+03  0.35673330099E+03  0.00000000000E+00 0.  1.
          2    1    1    2  501    0  0.25581949021E+03  0.11137706957E+03  0.17883367461E+03  0.33140601439E+03  0.00000000000E+00 0.  1.
          1    1    1    2  502    0 -0.16819463207E+03  0.10020409491E+02 -0.22554855042E+03  0.28153506258E+03  0.00000000000E+00 0.  1.
         22    1    1    2    0    0  0.92024992975E+01  0.17985591734E+02  0.66708058337E+02  0.69700305240E+02  0.00000000000E+00 0. -1.
         22    1    1    2    0    0 -0.96827357439E+02 -0.13938307079E+03  0.25798398187E+03  0.30880238418E+03  0.00000000000E+00 0.  1.
</event>
<event>
 6    1  0.3240171E-005  0.2795158E+03  0.7818608E-02  0.1197665E+00
          2   -1    0    0  502    0  0.00000000000E+00  0.00000000000E+00  0.21845591117E+03  0.21845591117E+03  0.00000000000E+00 0. -1.
          1   -1    0    0  501    0 -0.00000000000E+00 -0.00000000000E+00 -0.47910621803E+03  0.47910621803E+03  0.00000000000E+00 0. -1.
          2    1    1    2  501    0  0.18252310579E+03 -0.10940713680E+02  0.46031790695E+01  0.18290864556E+03  0.00000000000E+00 0. -1.
          1    1    1    2  502    0 -0.20798089790E+03  0.10592828200E+03 -0.26711485355E+03  0.35472129878E+03  0.00000000000E+00 0. -1.
         22    1    1    2    0    0  0.49999624596E+02 -0.92768454349E+02 -0.38871815339E+02  0.11232527147E+03  0.00000000000E+00 0. -1.
         22    1    1    2    0    0 -0.24541832488E+02 -0.22191139718E+01  0.40733182967E+02  0.47606913398E+02  0.00000000000E+00 0.  1.
</event>
<event>
 6    1  0.3240171E-005  0.1670254E+03  0.7818608E-02  0.1220201E+00
          2   -1    0    0  502    0  0.00000000000E+00  0.00000000000E+00  0.30888971772E+02  0.30888971772E+02  0.00000000000E+00 0.  1.
          1   -1    0    0  501    0 -0.00000000000E+00 -0.00000000000E+00 -0.20220907081E+04  0.20220907081E+04  0.00000000000E+00 0.  1.
          2    1    1    2  501    0 -0.13770744401E+03 -0.38507189952E+02 -0.39944937837E+03  0.42427108043E+03  0.00000000000E+00 0.  1.
          1    1    1    2  502    0  0.13495593545E+03 -0.19594025514E+02 -0.13033301907E+04  0.13104451978E+04  0.00000000000E+00 0.  1.
         22    1    1    2    0    0 -0.38027065884E+02 -0.39960294300E+00 -0.25365564674E+02  0.45712463218E+02  0.00000000000E+00 0. -1.
         22    1    1    2    0    0  0.40778574445E+02  0.58500818409E+02 -0.26305660257E+03  0.27255093843E+03  0.00000000000E+00 0.  1.
</event>
<event>
 6    1  0.3240171E-005  0.9061403E+02  0.7818608E-02  0.1327059E+00
          2   -1    0    0  502    0  0.00000000000E+00  0.00000000000E+00  0.88538801900E+03  0.88538801900E+03  0.00000000000E+00 0.  1.
          1   -1    0    0  501    0 -0.00000000000E+00 -0.00000000000E+00 -0.42337032108E+03  0.42337032108E+03  0.00000000000E+00 0. -1.
          2    1    1    2  501    0 -0.37167942728E+02 -0.21749845652E+02  0.23011388436E+03  0.23410876004E+03  0.00000000000E+00 0.  1.
          1    1    1    2  502    0  0.77148833758E+02  0.34430140636E+02 -0.40995474114E+03  0.41856930957E+03  0.00000000000E+00 0. -1.
         22    1    1    2    0    0 -0.39726956107E+01  0.56883450113E+02  0.24271565631E+03  0.24932388378E+03  0.00000000000E+00 0.  1.
         22    1    1    2    0    0 -0.36008195420E+02 -0.69563745097E+02  0.39914289839E+03  0.40675638668E+03  0.00000000000E+00 0.  1.
</event>
<event>
 6    1  0.3240171E-005  0.8875107E+02  0.7818608E-02  0.1328993E+00
          2   -1    0    0  502    0  0.00000000000E+00  0.00000000000E+00  0.56768370601E+02  0.56768370601E+02  0.00000000000E+00 0. -1.
          1   -1    0    0  501    0 -0.00000000000E+00 -0.00000000000E+00 -0.29107311218E+03  0.29107311218E+03  0.00000000000E+00 0. -1.
          2    1    1    2  501    0  0.15741461428E+02 -0.20124443376E+02 -0.21804179772E+02  0.33588823805E+02  0.00000000000E+00 0. -1.
          1    1    1    2  502    0 -0.16592575497E+02  0.27413094777E+02 -0.18665390785E+03  0.18938445723E+03  0.00000000000E+00 0. -1.
         22    1    1    2    0    0 -0.52364489704E+02 -0.31794993697E+02 -0.11061749544E+01  0.61271404662E+02  0.00000000000E+00 0. -1.
         22    1    1    2    0    0  0.53215603773E+02  0.24506342295E+02 -0.24740479008E+02  0.63596797082E+02  0.00000000000E+00 0. -1.
</event>
<event>
 6    1  0.3240171E-005  0.5840911E+03  0.7818608E-02  0.1070875E+00
          2   -1    0    0  502    0  0.00000000000E+00  0.00000000000E+00  0.94305344980E+03  0.94305344980E+03  0.00000000000E+00 0. -1.
          1   -1    0    0  501    0 -0.00000000000E+00 -0.00000000000E+00 -0.37265453053E+03  0.37265453053E+03  0.00000000000E+00 0. -1.
          2    1    1    2  501    0 -0.12910411052E+03  0.22190513131E+03 -0.11416771517E+03  0.28096979525E+03  0.00000000000E+00 0. -1.
          1    1    1    2  502    0  0.32848051422E+03 -0.36309429994E+03  0.35061003939E+03  0.60221617265E+03  0.00000000000E+00 0. -1.
         22    1    1    2    0    0 -0.90401939991E+01  0.59255851424E+02  0.12291930453E+03  0.13675575477E+03  0.00000000000E+00 0. -1.
         22    1    1    2    0    0 -0.19033620970E+03  0.81933317214E+02  0.21103729051E+03  0.29576625767E+03  0.00000000000E+00 0. -1.
</event>
<event>
 6    1  0.3240171E-005  0.1058583E+03  0.7818608E-02  0.1277707E+00
          2   -1    0    0  502    0  0.00000000000E+00  0.00000000000E+00  0.53064755068E+03  0.53064755068E+03  0.00000000000E+00 0. -1.
          1   -1    0    0  501    0 -0.00000000000E+00 -0.00000000000E+00 -0.12375393469E+03  0.12375393469E+03  0.00000000000E+00 0. -1.
          2    1    1    2  501    0 -0.54419188919E+02  0.38747254701E+02  0.12199798088E+03  0.13909099615E+03  0.00000000000E+00 0. -1.
          1    1    1    2  502    0  0.33280123964E+02 -0.30918598890E+02 -0.99710128309E+02  0.10957023362E+03  0.00000000000E+00 0. -1.
         22    1    1    2    0    0 -0.49670829617E+02  0.62178074129E+01  0.22601564376E+03  0.23149281559E+03  0.00000000000E+00 0. -1.
         22    1    1    2    0    0  0.70809894572E+02 -0.14046463224E+02  0.15859011966E+03  0.17424744001E+03  0.00000000000E+00 0.  1.
</event>
<event>
 6    1  0.3240171E-005  0.1142120E+03  0.7818608E-02  0.1327695E+00
          2   -1    0    0  502    0  0.00000000000E+00  0.00000000000E+00  0.21688757216E+03  0.21688757216E+03  0.00000000000E+00 0.  1.
          1   -1    0    0  501    0 -0.00000000000E+00 -0.00000000000E+00 -0.13423943631E+04  0.13423943631E+04  0.00000000000E+00 0. -1.
          2    1    1    2  501    0  0.18646644417E+02  0.55055221447E+02  0.76268052231E+01  0.58625445965E+02  0.00000000000E+00 0.  1.
          1    1    1    2  502    0 -0.27838208349E+02 -0.10539758572E+03 -0.12891543655E+04  0.12937552299E+04  0.00000000000E+00 0. -1.
         22    1    1    2    0    0 -0.80710175381E+00  0.76666272961E+02  0.38005870701E+02  0.85573448164E+02  0.00000000000E+00 0.  1.
         22    1    1    2    0    0  0.99986656855E+01 -0.26323908692E+02  0.11801489860E+03  0.12132781122E+03  0.00000000000E+00 0.  1.
</event>
<event>
 6    1  0.3240171E-005  0.7002543E+02  0.7818608E-02  0.1369333E+00
          2   -1    0    0  502    0  0.00000000000E+00  0.00000000000E+00  0.72071064817E+03  0.72071064817E+03  0.00000000000E+00 0.  1.
          1   -1    0    0  501    0 -0.00000000000E+00 -0.00000000000E+00 -0.53072043994E+02  0.53072043994E+02  0.00000000000E+00 0.  1.
          2    1    1    2  501    0 -0.19087313248E+02  0.33495730361E+02 -0.20163413965E+02  0.43506927520E+02  0.00000000000E+00 0.  1.
          1    1    1    2  502    0  0.58183102373E+02 -0.69230819452E+02  0.42441704527E+03  0.43394470625E+03  0.00000000000E+00 0.  1.
         22    1    1    2    0    0  0.13321415072E+02 -0.18871147496E+02  0.86386066758E+00  0.23115504809E+02  0.00000000000E+00 0.  1.
         22    1    1    2    0    0 -0.52417204197E+02  0.54606236586E+02  0.26252111220E+03  0.27321555359E+03  0.00000000000E+00 0.  1.
</event>
<event>
 6    1  0.3240171E-005  0.5573398E+02  0.7818608E-02  0.1512237E+00
          2   -1    0    0  502    0  0.00000000000E+00  0.00000000000E+00  0.17155785818E+03  0.17155785818E+03  0.00000000000E+00 0. -1.
          1   -1    0    0  501    0 -0.00000000000E+00 -0.00000000000E+00 -0.59655037803E+03  0.59655037803E+03  0.00000000000E+00 0. -1.
          2    1    1    2  501    0  0.20733141366E+02 -0.27756386639E+01  0.28528239252E+02  0.35375524812E+02  0.00000000000E+00 0. -1.
          1    1    1    2  502    0 -0.19341233892E+02  0.20691310257E+02 -0.56241494712E+03  0.56312768214E+03  0.00000000000E+00 0. -1.
         22    1    1    2    0    0  0.73184081224E+01  0.11937077855E+02 -0.26883699544E+02  0.30311486706E+02  0.00000000000E+00 0.  1.
         22    1    1    2    0    0 -0.87103155960E+01 -0.29852749448E+02  0.13577788756E+03  0.13929354256E+03  0.00000000000E+00 0. -1.
</event>
<event>
 6    1  0.3240171E-005  0.1715983E+03  0.7818608E-02  0.1211644E+00
          2   -1    0    0  502    0  0.00000000000E+00  0.00000000000E+00  0.26869054494E+03  0.26869054494E+03  0.00000000000E+00 0. -1.
          1   -1    0    0  501    0 -0.00000000000E+00 -0.00000000000E+00 -0.30134766404E+03  0.30134766404E+03  0.00000000000E+00 0. -1.
          2    1    1    2  501    0  0.71676715735E+02 -0.46065872247E+02 -0.31426191348E+02  0.90814215116E+02  0.00000000000E+00 0. -1.
          1    1    1    2  502    0 -0.54113997062E+02  0.29633081810E+02 -0.21841880003E+03  0.22696523174E+03  0.00000000000E+00 0. -1.
         22    1    1    2    0    0 -0.15841334087E+02  0.71222344103E+02  0.11252539783E+03  0.13411016115E+03  0.00000000000E+00 0. -1.
         22    1    1    2    0    0 -0.17213845855E+01 -0.54789553665E+02  0.10466247444E+03  0.11814860098E+03  0.00000000000E+00 0. -1.
</event>
<event>
 6    1  0.3240171E-005  0.1556128E+03  0.7818608E-02  0.1266512E+00
          2   -1    0    0  502    0  0.00000000000E+00  0.00000000000E+00  0.94199985815E+02  0.94199985815E+02  0.00000000000E+00 0. -1.
          1   -1    0    0  501    0 -0.00000000000E+00 -0.00000000000E+00 -0.44695408689E+03  0.44695408689E+03  0.00000000000E+00 0. -1.
          2    1    1    2  501    0  0.47372492941E+01  0.51965948842E+02 -0.52439422934E+02  0.73978337691E+02  0.00000000000E+00 0. -1.
          1    1    1    2  502    0  0.76397120291E+02  0.34502768853E+02 -0.27779357310E+03  0.29016586688E+03  0.00000000000E+00 0. -1.
         22    1    1    2    0    0  0.64520466430E+01 -0.33987006691E+02  0.43378947043E+02  0.55484038933E+02  0.00000000000E+00 0. -1.
         22    1    1    2    0    0 -0.87586416228E+02 -0.52481711005E+02 -0.65900052081E+02  0.12152582920E+03  0.00000000000E+00 0. -1.
</event>
<event>
 6    1  0.3240171E-005  0.1594593E+03  0.7818608E-02  0.1240900E+00
          2   -1    0    0  502    0  0.00000000000E+00  0.00000000000E+00  0.88582272653E+02  0.88582272653E+02  0.00000000000E+00 0. -1.
          1   -1    0    0  501    0 -0.00000000000E+00 -0.00000000000E+00 -0.58496935861E+03  0.58496935861E+03  0.00000000000E+00 0. -1.
          2    1    1    2  501    0  0.96570165860E+02  0.53546828059E+02 -0.18194647126E+03  0.21283227700E+03  0.00000000000E+00 0. -1.
          1    1    1    2  502    0 -0.15667736691E+03 -0.55554322697E+02 -0.25797317927E+03  0.30689451167E+03  0.00000000000E+00 0. -1.
         22    1    1    2    0    0  0.39954120071E+02 -0.35530246482E+02  0.27159853084E+02  0.59969890322E+02  0.00000000000E+00 0. -1.
         22    1    1    2    0    0  0.20153080981E+02  0.37537741120E+02 -0.83627288512E+02  0.93854952268E+02  0.00000000000E+00 0.  1.
</event>
<event>
 6    1  0.3240171E-005  0.3339918E+03  0.7818608E-02  0.1104714E+00
          2   -1    0    0  502    0  0.00000000000E+00  0.00000000000E+00  0.23545001298E+04  0.23545001298E+04  0.00000000000E+00 0. -1.
          1   -1    0    0  501    0 -0.00000000000E+00 -0.00000000000E+00 -0.67178828148E+02  0.67178828148E+02  0.00000000000E+00 0. -1.
          2    1    1    2  501    0  0.22687676281E+03  0.21048894689E+03  0.61442721338E+03  0.68796763210E+03  0.00000000000E+00 0. -1.
          1    1    1    2  502    0 -0.11715916113E+03 -0.25278736219E+03  0.92489222810E+03  0.96594686868E+03  0.00000000000E+00 0. -1.
         22    1    1    2    0    0 -0.13029646062E+03  0.80751833421E+01  0.51043165465E+03  0.52686131981E+03  0.00000000000E+00 0. -1.
         22    1    1    2    0    0  0.20578858938E+02  0.34223231960E+02  0.23757020548E+03  0.24090313732E+03  0.00000000000E+00 0. -1.
</event>
<event>
 6    1  0.3240171E-005  0.1296598E+03  0.7818608E-02  0.1228942E+00
          2   -1    0    0  502    0  0.00000000000E+00  0.00000000000E+00  0.65958673656E+02  0.65958673656E+02  0.00000000000E+00 0.  1.
          1   -1    0    0  501    0 -0.00000000000E+00 -0.00000000000E+00 -0.73419381180E+03  0.73419381180E+03  0.00000000000E+00 0.  1.
          2    1    1    2  501    0 -0.70729899899E+02  0.36199237313E+01 -0.81900364759E+02  0.10827507717E+03  0.00000000000E+00 0.  1.
          1    1    1    2  502    0 -0.76961224786E+02 -0.12922650701E+02 -0.44301151995E+03  0.44983244862E+03  0.00000000000E+00 0.  1.
         22    1    1    2    0    0  0.16550900623E+03  0.75451910297E+01 -0.96083330365E+02  0.19152589231E+03  0.00000000000E+00 0.  1.
         22    1    1    2    0    0 -0.17817881546E+02  0.17575359397E+01 -0.47239923066E+02  0.50519067357E+02  0.00000000000E+00 0.  1.
</event>
<event>
 6    1  0.3240171E-005  0.1044242E+03  0.7818608E-02  0.1320950E+00
          2   -1    0    0  502    0  0.00000000000E+00  0.00000000000E+00  0.28622836272E+03  0.28622836272E+03  0.00000000000E+00 0. -1.
          1   -1    0    0  501    0 -0.00000000000E+00 -0.00000000000E+00 -0.11276024012E+03  0.11276024012E+03  0.00000000000E+00 0.  1.
          2    1    1    2  501    0 -0.33786472049E+02 -0.11539694968E+02 -0.12759957679E+02  0.37914466546E+02  0.00000000000E+00 0. -1.
          1    1    1    2  502    0  0.91902634906E+02 -0.13286852444E+02 -0.36266405161E+02  0.99688950710E+02  0.00000000000E+00 0.  1.
         22    1    1    2    0    0 -0.61089204406E+02 -0.16594517911E+02  0.41513749706E+02  0.75701125053E+02  0.00000000000E+00 0. -1.
         22    1    1    2    0    0  0.29730415498E+01  0.41421065322E+02  0.18098073573E+03  0.18568406053E+03  0.00000000000E+00 0. -1.
</event>
<event>
 6    1  0.3240171E-005  0.1289542E+03  0.7818608E-02  0.1333126E+00
          2   -1    0    0  502    0  0.00000000000E+00  0.00000000000E+00  0.13001593588E+03  0.13001593588E+03  0.00000000000E+00 0.  1.
          1   -1    0    0  501    0 -0.00000000000E+00 -0.00000000000E+00 -0.83579005705E+03  0.83579005705E+03  0.00000000000E+00 0. -1.
          2    1    1    2  501    0 -0.31220616608E+00  0.74631576424E+02 -0.35444629015E+02  0.82621373737E+02  0.00000000000E+00 0.  1.
          1    1    1    2  502    0  0.36655846809E+02 -0.12020840597E+03 -0.72438155129E+03  0.73520224688E+03  0.00000000000E+00 0. -1.
         22    1    1    2    0    0 -0.13950538644E+02  0.11026111511E+02  0.90964140823E+02  0.92685854256E+02  0.00000000000E+00 0.  1.
         22    1    1    2    0    0 -0.22393101999E+02  0.34550718039E+02 -0.36912081693E+02  0.55296518056E+02  0.00000000000E+00 0.  1.
</event>
<event>
 6    1  0.3240171E-005  0.9160434E+02  0.7818608E-02  0.1302269E+00
          2   -1    0    0  502    0  0.00000000000E+00  0.00000000000E+00  0.54530429618E+03  0.54530429618E+03  0.00000000000E+00 0.  1.
          1   -1    0    0  501    0 -0.00000000000E+00 -0.00000000000E+00 -0.83367374234E+02  0.83367374234E+02  0.00000000000E+00 0. -1.
          2    1    1    2  501    0 -0.14581560501E+02  0.14963176733E+02  0.27276066678E+02  0.34358439691E+02  0.00000000000E+00 0.  1.
          1    1    1    2  502    0  0.77437796713E+01 -0.10238521462E+03 -0.27585949793E+02  0.10631877973E+03  0.00000000000E+00 0. -1.
         22    1    1    2    0    0 -0.51691610679E+02  0.24040791057E+02  0.95364570519E+02  0.11110528142E+03  0.00000000000E+00 0.  1.
         22    1    1    2    0    0  0.58529391509E+02  0.63381246833E+02  0.36688223454E+03  0.37688916957E+03  0.00000000000E+00 0.  1.
</event>
<event>
 6    1  0.3240171E-005  0.1534692E+03  0.7818608E-02  0.1261345E+00
          2   -1    0    0  502    0  0.00000000000E+00  0.00000000000E+00  0.23787765963E+03  0.23787765963E+03  0.00000000000E+00 0.  1.
          1   -1    0    0  501    0 -0.00000000000E+00 -0.00000000000E+00 -0.89380116151E+02  0.89380116151E+02  0.00000000000E+00 0. -1.
          2    1    1    2  501    0 -0.16508204638E+02 -0.66988621043E+02  0.43285848520E+02  0.81447288793E+02  0.00000000000E+00 0.  1.
          1    1    1    2  502    0 -0.11052838999E+02  0.28970115931E+02 -0.40328131254E+02  0.50870335535E+02  0.00000000000E+00 0. -1.
         22    1    1    2    0    0  0.62259143829E+02  0.58652565820E+02  0.75457292069E+02  0.11406194542E+03  0.00000000000E+00 0. -1.
         22    1    1    2    0    0 -0.34698100192E+02 -0.20634060708E+02  0.70082534145E+02  0.80878206028E+02  0.00000000000E+00 0.  1.
</event>
<event>
 6    1  0.3240171E-005  0.1390915E+03  0.7818608E-02  0.1258510E+00
          2   -1    0    0  502    0  0.00000000000E+00  0.00000000000E+00  0.16856921184E+03  0.16856921184E+03  0.00000000000E+00 0. -1.
          1   -1    0    0  501    0 -0.00000000000E+00 -0.00000000000E+00 -0.57086883825E+03  0.57086883825E+03  0.00000000000E+00 0.  1.
          2    1    1    2  501    0  0.17280536939E+02 -0.85385834890E+02 -0.13803076464E+02  0.88203643216E+02  0.00000000000E+00 0. -1.
          1    1    1    2  502    0 -0.10035800002E+03  0.86159182370E+02 -0.46523569632E+03  0.48367280884E+03  0.00000000000E+00 0.  1.
         22    1    1    2    0    0  0.43633794130E+02 -0.41446815014E+02 -0.12871258393E+02  0.61541983699E+02  0.00000000000E+00 0. -1.
         22    1    1    2    0    0  0.39443668947E+02  0.40673467534E+02  0.89610404771E+02  0.10601961434E+03  0.00000000000E+00 0. -1.
</event>
<event>
 6    1  0.3240171E-005  0.6028369E+02  0.7818608E-02  0.1424474E+00
          2   -1    0    0  502    0  0.00000000000E+00  0.00000000000E+00  0.41065711863E+02  0.41065711863E+02  0.00000000000E+00 0. -1.
          1   -1    0    0  501    0 -0.00000000000E+00 -0.00000000000E+00 -0.36433661147E+03  0.36433661147E+03  0.00000000000E+00 0.  1.
          2    1    1    2  501    0 -0.27078839217E+02  0.42333851734E+02 -0.94554980629E+02  0.10707970348E+03  0.00000000000E+00 0. -1.
          1    1    1    2  502    0  0.12193626808E+02 -0.41885543273E+02 -0.13147596701E+03  0.13852441363E+03  0.00000000000E+00 0.  1.
         22    1    1    2    0    0  0.30881842309E+02 -0.23914938932E+02  0.16621238217E+02  0.42448534114E+02  0.00000000000E+00 0. -1.
         22    1    1    2    0    0 -0.15996629900E+02  0.23466630471E+02 -0.11386119018E+03  0.11734967210E+03  0.00000000000E+00 0.  1.
</event>
<event>
 6    1  0.3240171E-005  0.1666101E+03  0.7818608E-02  0.1195303E+00
          2   -1    0    0  502    0  0.00000000000E+00  0.00000000000E+00  0.50999872784E+03  0.50999872784E+03  0.00000000000E+00 0.  1.
          1   -1    0    0  501    0 -0.00000000000E+00 -0.00000000000E+00 -0.65927740481E+02  0.65927740481E+02  0.00000000000E+00 0.  1.
          2    1    1    2  501    0  0.67367183845E+01  0.12861151392E+03  0.85517924225E+02  0.15459502014E+03  0.00000000000E+00 0.  1.
          1    1    1    2  502    0  0.32298647613E+02 -0.92198818240E+01  0.11009764727E+03  0.11510734466E+03  0.00000000000E+00 0.  1.
         22    1    1    2    0    0 -0.46786498237E+02 -0.31790240342E-01  0.25684614292E+02  0.53372997285E+02  0.00000000000E+00 0.  1.
         22    1    1    2    0    0  0.77511322401E+01 -0.11935984185E+03  0.22277080157E+03  0.25285110625E+03  0.00000000000E+00 0.  1.
</event>
<event>
 6    1  0.3240171E-005  0.1895074E+03  0.7818608E-02  0.1197186E+00
          2   -1    0    0  502    0  0.00000000000E+00  0.00000000000E+00  0.37484228137E+03  0.37484228137E+03  0.00000000000E+00 0.  1.
          1   -1    0    0  501    0 -0.00000000000E+00 -0.00000000000E+00 -0.10832798948E+03  0.10832798948E+03  0.00000000000E+00 0.  1.
          2    1    1    2  501    0 -0.20601866295E+02  0.26916645672E+02 -0.34012732418E+02  0.48018836675E+02  0.00000000000E+00 0.  1.
          1    1    1    2  502    0  0.28882130962E+02  0.66138671906E+02 -0.23044277898E+02  0.75759752866E+02  0.00000000000E+00 0.  1.
         22    1    1    2    0    0  0.54004909341E+02 -0.66204168553E+02  0.14400372235E+03  0.16744131574E+03  0.00000000000E+00 0.  1.
         22    1    1    2    0    0 -0.62285174008E+02 -0.26851149024E+02  0.17956757987E+03  0.19195036557E+03  0.00000000000E+00 0.  1.
</event>
<event>
 6    1  0.3240171E-005  0.1089406E+03  0.7818608E-02  0.1316692E+00
          2   -1    0    0  502    0  0.00000000000E+00  0.00000000000E+00  0.78086324444E+02  0.78086324444E+02  0.00000000000E+00 0. -1.
          1   -1    0    0  501    0 -0.00000000000E+00 -0.00000000000E+00 -0.38316336762E+03  0.38316336762E+03  0.00000000000E+00 0. -1.
          2    1    1    2  501    0  0.63285182171E+01 -0.46870071087E+02 -0.12313762199E+03  0.13190802726E+03  0.00000000000E+00 0. -1.
          1    1    1    2  502    0 -0.19202069610E+02  0.95501367248E+02  0.60902923867E+01  0.97602880515E+02  0.00000000000E+00 0. -1.
         22    1    1    2    0    0 -0.25263799793E+02 -0.58801977641E+02 -0.18056147953E+03  0.19156821251E+03  0.00000000000E+00 0. -1.
         22    1    1    2    0    0  0.38137351186E+02  0.10170681480E+02 -0.74682340444E+01  0.40170571779E+02  0.00000000000E+00 0. -1.
</event>
<event>
 6    1  0.3240171E-005  0.1600782E+03  0.7818608E-02  0.1217315E+00
          2   -1    0    0  502    0  0.00000000000E+00  0.00000000000E+00  0.22380854708E+03  0.22380854708E+03  0.00000000000E+00 0. -1.
          1   -1    0    0  501    0 -0.00000000000E+00 -0.00000000000E+00 -0.17968312136E+04  0.17968312136E+04  0.00000000000E+00 0. -1.
          2    1    1    2  501    0  0.48954010163E+02 -0.45476404098E+02  0.52812420430E+02  0.85168950870E+02  0.00000000000E+00 0. -1.
          1    1    1    2  502    0 -0.71040230112E+02  0.13871606585E+03 -0.17369686050E+04  0.17439463283E+04  0.00000000000E+00 0. -1.
         22    1    1    2    0    0 -0.33666879811E+02 -0.79218216448E+02  0.28128439464E+02  0.90554921015E+02  0.00000000000E+00 0. -1.
         22    1    1    2    0    0  0.55753099760E+02 -0.14021445302E+02  0.83005078626E+02  0.10096956046E+03  0.00000000000E+00 0.  1.
</event>
<event>
 6    1  0.3240171E-005  0.1205534E+03  0.7818608E-02  0.1267448E+00
          2   -1    0    0  502    0  0.00000000000E+00  0.00000000000E+00  0.83447272622E+02  0.83447272622E+02  0.00000000000E+00 0. -1.
          1   -1    0    0  501    0 -0.00000000000E+00 -0.00000000000E+00 -0.77562844371E+03  0.77562844371E+03  0.00000000000E+00 0.  1.
          2    1    1    2  501    0  0.52713548570E+02 -0.34820947112E+01 -0.32617743514E+02  0.62086716602E+02  0.00000000000E+00 0. -1.
          1    1    1    2  502    0  0.58724752729E+01  0.21792556019E+02 -0.66090843546E+03  0.66129370292E+03  0.00000000000E+00 0.  1.
         22    1    1    2    0    0 -0.44948065984E+02 -0.68276965242E+02 -0.10915978588E+02  0.82469577463E+02  0.00000000000E+00 0. -1.
         22    1    1    2    0    0 -0.13637957860E+02  0.49966503934E+02  0.12260986476E+02  0.53225719341E+02  0.00000000000E+00 0. -1.
</event>
<event>
 6    1  0.3240171E-005  0.2077790E+03  0.7818608E-02  0.1218198E+00
          2   -1    0    0  502    0  0.00000000000E+00  0.00000000000E+00  0.39464721017E+03  0.39464721017E+03  0.00000000000E+00 0.  1.
          1   -1    0    0  501    0 -0.00000000000E+00 -0.00000000000E+00 -0.72325570488E+03  0.72325570488E+03  0.00000000000E+00 0.  1.
          2    1    1    2  501    0  0.30637356483E+02 -0.32090164812E+02  0.26484389822E+02  0.51670583451E+02  0.00000000000E+00 0.  1.
          1    1    1    2  502    0 -0.18576334016E+03  0.89404920172E+02 -0.66300881307E+03  0.69432121133E+03  0.00000000000E+00 0.  1.
         22    1    1    2    0    0  0.12395148501E+03 -0.80137169518E+02  0.15437046807E+03  0.21357944187E+03  0.00000000000E+00 0.  1.
         22    1    1    2    0    0  0.31174498658E+02  0.22822414159E+02  0.15354546046E+03  0.15833167839E+03  0.00000000000E+00 0. -1.
</event>
<event>
 6    1  0.3240171E-005  0.1222803E+03  0.7818608E-02  0.1241769E+00
          2   -1    0    0  502    0  0.00000000000E+00  0.00000000000E+00  0.22431657191E+03  0.22431657191E+03  0.00000000000E+00 0. -1.
          1   -1    0    0  501    0 -0.00000000000E+00 -0.00000000000E+00 -0.75869765856E+03  0.75869765856E+03  0.00000000000E+00 0. -1.
          2    1    1    2  501    0 -0.10892888800E+03  0.23385219345E+02  0.66849661888E+02  0.12992785852E+03  0.00000000000E+00 0. -1.
          1    1    1    2  502    0  0.49594206338E+02  0.27329796023E+01 -0.68809964541E+03  0.68988997419E+03  0.00000000000E+00 0. -1.
         22    1    1    2    0    0 -0.26317006265E+02  0.26407146603E+02  0.18113618607E+02  0.41449069826E+02  0.00000000000E+00 0.  1.
         22    1    1    2    0    0  0.85651687931E+02 -0.52525345550E+02  0.68755278264E+02  0.12174732794E+03  0.00000000000E+00 0. -1.
</event>
<event>
 6    1  0.3240171E-005  0.1243202E+03  0.7818608E-02  0.1292365E+00
          2   -1    0    0  502    0  0.00000000000E+00  0.00000000000E+00  0.10499803834E+03  0.10499803834E+03  0.00000000000E+00 0.  1.
          1   -1    0    0  501    0 -0.00000000000E+00 -0.00000000000E+00 -0.57409091501E+03  0.57409091501E+03  0.00000000000E+00 0.  1.
          2    1    1    2  501    0  0.80040046064E+01  0.27615512928E+02 -0.20024173861E+03  0.20229541401E+03  0.00000000000E+00 0.  1.
          1    1    1    2  502    0 -0.15813672255E+02 -0.31545922331E+02 -0.33399198649E+03  0.33585095576E+03  0.00000000000E+00 0.  1.
         22    1    1    2    0    0  0.42598634859E+02 -0.18762933695E+02 -0.16465173327E+02  0.49374014475E+02  0.00000000000E+00 0.  1.
         22    1    1    2    0    0 -0.34788967210E+02  0.22693343098E+02  0.81606021762E+02  0.91568569107E+02  0.00000000000E+00 0.  1.
</event>
<event>
 6    1  0.3240171E-005  0.2914270E+03  0.7818608E-02  0.1115167E+00
          2   -1    0    0  502    0  0.00000000000E+00  0.00000000000E+00  0.20708488354E+03  0.20708488354E+03  0.00000000000E+00 0.  1.
          1   -1    0    0  501    0 -0.00000000000E+00 -0.00000000000E+00 -0.80173238423E+03  0.80173238423E+03  0.00000000000E+00 0.  1.
          2    1    1    2  501    0  0.22133997331E+02  0.24307364882E+03 -0.16104978956E+03  0.29242391712E+03  0.00000000000E+00 0.  1.
          1    1    1    2  502    0 -0.15657114347E+03 -0.27244287057E+03 -0.42469736079E+03  0.52830624543E+03  0.00000000000E+00 0.  1.
         22    1    1    2    0    0  0.14938352399E+03  0.18848305104E+02  0.22018861970E+02  0.15216939944E+03  0.00000000000E+00 0.  1.
         22    1    1    2    0    0 -0.14946377843E+02  0.10520916647E+02 -0.30919212320E+02  0.35917705777E+02  0.00000000000E+00 0. -1.
</event>
<event>
 6    1  0.3240171E-005  0.2105315E+03  0.7818608E-02  0.1173993E+00
          2   -1    0    0  502    0  0.00000000000E+00  0.00000000000E+00  0.91364496136E+03  0.91364496136E+03  0.00000000000E+00 0. -1.
          1   -1    0    0  501    0 -0.00000000000E+00 -0.00000000000E+00 -0.17740842474E+03  0.17740842474E+03  0.00000000000E+00 0. -1.
          2    1    1    2  501    0  0.83173426874E+01  0.93389582049E+02  0.16112231497E+03  0.18641671761E+03  0.00000000000E+00 0. -1.
          1    1    1    2  502    0  0.92095540178E+02 -0.20743574237E+03 -0.63415847788E+02  0.23565386796E+03  0.00000000000E+00 0. -1.
         22    1    1    2    0    0 -0.17042855129E+02  0.63172193668E+02  0.86927705736E+02  0.10880078579E+03  0.00000000000E+00 0. -1.
         22    1    1    2    0    0 -0.83370027736E+02  0.50873966650E+02  0.55160236370E+03  0.56018201475E+03  0.00000000000E+00 0. -1.
</event>
<event>
 6    1  0.5880774E-005  0.6524222E+02  0.7818608E-02  0.1384761E+00
          2   -1    0    0  502    0  0.00000000000E+00  0.00000000000E+00  0.38319988060E+03  0.38319988060E+03  0.00000000000E+00 0.  1.
          1   -1    0    0  501    0 -0.00000000000E+00 -0.00000000000E+00 -0.31970440829E+03  0.31970440829E+03  0.00000000000E+00 0. -1.
          2    1    1    2  501    0  0.24255281903E+02 -0.24334197531E+02  0.12384125981E+02  0.36521753051E+02  0.00000000000E+00 0.  1.
          1    1    1    2  502    0  0.23682612356E+02  0.31822861310E+02 -0.29315982772E+03  0.29583144731E+03  0.00000000000E+00 0. -1.
         22    1    1    2    0    0 -0.49820253384E+00 -0.40090450795E+02  0.27561998238E+02  0.48653429454E+02  0.00000000000E+00 0.  1.
         22    1    1    2    0    0 -0.47439691725E+02  0.32601787015E+02  0.31670917581E+03  0.32189765907E+03  0.00000000000E+00 0.  1.
</event>
<event>
 6    1  0.3240171E-005  0.3180071E+03  0.7818608E-02  0.1148783E+00
          2   -1    0    0  502    0  0.00000000000E+00  0.00000000000E+00  0.38336604797E+03  0.38336604797E+03  0.00000000000E+00 0.  1.
          1   -1    0    0  501    0 -0.00000000000E+00 -0.00000000000E+00 -0.53990777249E+03  0.53990777249E+03  0.00000000000E+00 0.  1.
          2    1    1    2  501    0  0.16743874724E+03 -0.28602509108E+01  0.11288735872E+03  0.20195908217E+03  0.00000000000E+00 0.  1.
          1    1    1    2  502    0 -0.97619225005E+01 -0.34353467374E+02 -0.44828622165E+03  0.44970656252E+03  0.00000000000E+00 0.  1.
         22    1    1    2    0    0 -0.14669941841E+03 -0.15789818176E+02  0.11008110965E+03  0.18408663292E+03  0.00000000000E+00 0.  1.
         22    1    1    2    0    0 -0.10977406334E+02  0.53003536461E+02  0.68776028774E+02  0.87521542840E+02  0.00000000000E+00 0.  1.
</event>
<event>
 6    1  0.3240171E-005  0.1537887E+03  0.7818608E-02  0.1198556E+00
          2   -1    0    0  502    0  0.00000000000E+00  0.00000000000E+00  0.41508097688E+03  0.41508097688E+03  0.00000000000E+00 0.  1.
          1   -1    0    0  501    0 -0.00000000000E+00 -0.00000000000E+00 -0.11283223421E+03  0.11283223421E+03  0.00000000000E+00 0.  1.
          2    1    1    2  501    0  0.37776379132E+02  0.15583627091E+03  0.12881858454E+03  0.20568477307E+03  0.00000000000E+00 0.  1.
          1    1    1    2  502    0  0.14150369570E+02 -0.94951569339E+02  0.14566621370E+03  0.17445537909E+03  0.00000000000E+00 0.  1.
         22    1    1    2    0    0  0.22779055039E+02  0.15017162820E+02  0.30908153418E+02  0.41227593616E+02  0.00000000000E+00 0.  1.
         22    1    1    2    0    0 -0.74705803741E+02 -0.75901864388E+02 -0.31442089867E+01  0.10654546532E+03  0.00000000000E+00 0.  1.
</event>
<event>
 6    1  0.3240171E-005  0.1371057E+03  0.7818608E-02  0.1220493E+00
          2   -1    0    0  502    0  0.00000000000E+00  0.00000000000E+00  0.28220933886E+03  0.28220933886E+03  0.00000000000E+00 0. -1.
          1   -1    0    0  501    0 -0.00000000000E+00 -0.00000000000E+00 -0.31448009192E+03  0.31448009192E+03  0.00000000000E+00 0.  1.
          2    1    1    2  501    0  0.83340175415E+02  0.15674862039E+02 -0.43705367669E+02  0.95401495278E+02  0.00000000000E+00 0. -1.
          1    1    1    2  502    0 -0.42506440349E+01  0.83760483812E+02 -0.20489208033E+03  0.22139252744E+03  0.00000000000E+00 0.  1.
         22    1    1    2    0    0 -0.10591325222E+03 -0.87936997807E+02  0.20820974854E+03  0.24960334927E+03  0.00000000000E+00 0. -1.
         22    1    1    2    0    0  0.26823720840E+02 -0.11498348044E+02  0.81169464059E+01  0.30292058801E+02  0.00000000000E+00 0. -1.
</event>
<event>
 6    1  0.3240171E-005  0.6876303E+02  0.7818608E-02  0.1416341E+00
          2   -1    0    0  502    0  0.00000000000E+00  0.00000000000E+00  0.22945075717E+03  0.22945075717E+03  0.00000000000E+00 0. -1.
          1   -1    0    0  501    0 -0.00000000000E+00 -0.00000000000E+00 -0.56034912797E+02  0.56034912797E+02  0.00000000000E+00 0.  1.
          2    1    1    2  501    0 -0.20369788477E+02 -0.19135533156E+01  0.45683802544E+02  0.50055966515E+02  0.00000000000E+00 0. -1.
          1    1    1    2  502    0  0.52136325621E+02 -0.25084030531E+02  0.85045871356E+01  0.58478483558E+02  0.00000000000E+00 0.  1.
         22    1    1    2    0    0 -0.56717776077E+02  0.43333235796E+02  0.12739673744E+03  0.14602946332E+03  0.00000000000E+00 0. -1.
         22    1    1    2    0    0  0.24951238933E+02 -0.16335651950E+02 -0.81692827463E+01  0.30921756572E+02  0.00000000000E+00 0.  1.
</event>
<event>
 6    1  0.3240171E-005  0.2324497E+03  0.7818608E-02  0.1186017E+00
          2   -1    0    0  502    0  0.00000000000E+00  0.00000000000E+00  0.53590261050E+03  0.53590261050E+03  0.00000000000E+00 0.  1.
          1   -1    0    0  501    0 -0.00000000000E+00 -0.00000000000E+00 -0.41537998669E+03  0.41537998669E+03  0.00000000000E+00 0. -1.
          2    1    1    2  501    0 -0.32573964229E+02 -0.31840426076E+02 -0.20731991532E+02  0.50046891524E+02  0.00000000000E+00 0.  1.
          1    1    1    2  502    0 -0.29064593132E+02  0.37276756498E+02 -0.36966650608E+03  0.37267631112E+03  0.00000000000E+00 0. -1.
         22    1    1    2    0    0  0.54171417505E+02  0.53240584595E+02  0.30456171805E+03  0.31389001645E+03  0.00000000000E+00 0.  1.
         22    1    1    2    0    0  0.74671398558E+01 -0.58676915017E+02  0.20635940337E+03  0.21466937810E+03  0.00000000000E+00 0.  1.
</event>
<event>
 6    1  0.3240171E-005  0.1955877E+03  0.7818608E-02  0.1267295E+00
          2   -1    0    0  502    0  0.00000000000E+00  0.00000000000E+00  0.28341126251E+03  0.28341126251E+03  0.00000000000E+00 0. -1.
          1   -1    0    0  501    0 -0.00000000000E+00 -0.00000000000E+00 -0.11513183208E+04  0.11513183208E+04  0.00000000000E+00 0.  1.
          2    1    1    2  501    0 -0.87786272608E+02  0.50142980745E+02  0.89953409545E+02  0.13532318377E+03  0.00000000000E+00 0. -1.
          1    1    1    2  502    0  0.16024248719E+03 -0.10192040289E+03 -0.10846831220E+04  0.11011825000E+04  0.00000000000E+00 0.  1.
         22    1    1    2    0    0  0.16249282296E+02  0.55150498511E+01  0.89995161527E+02  0.91616505326E+02  0.00000000000E+00 0. -1.
         22    1    1    2    0    0 -0.88705496875E+02  0.46262372293E+02  0.36827492694E+02  0.10660739413E+03  0.00000000000E+00 0.  1.
</event>
<event>
 6    1  0.3240171E-005  0.1517829E+03  0.7818608E-02  0.1326230E+00
          2   -1    0    0  502    0  0.00000000000E+00  0.00000000000E+00  0.35238735701E+03  0.35238735701E+03  0.00000000000E+00 0. -1.
          1   -1    0    0  501    0 -0.00000000000E+00 -0.00000000000E+00 -0.17448811911E+03  0.17448811911E+03  0.00000000000E+00 0. -1.
          2    1    1    2  501    0 -0.64021592471E+02 -0.66136796785E+02 -0.53377524047E+02  0.10640488835E+03  0.00000000000E+00 0. -1.
          1    1    1    2  502    0  0.11428987203E+03  0.68622839508E+02  0.24685753589E+03  0.28055286842E+03  0.00000000000E+00 0. -1.
         22    1    1    2    0    0  0.50176295825E+01 -0.11243080675E+02  0.51269601487E+02  0.52727179958E+02  0.00000000000E+00 0. -1.
         22    1    1    2    0    0 -0.55285909144E+02  0.87570379518E+01 -0.66850375430E+02  0.87190539388E+02  0.00000000000E+00 0. -1.
</event>
<event>
 6    1  0.3240171E-005  0.7903975E+02  0.7818608E-02  0.1370623E+00
          2   -1    0    0  502    0  0.00000000000E+00  0.00000000000E+00  0.13738470117E+03  0.13738470117E+03  0.00000000000E+00 0. -1.
          1   -1    0    0  501    0 -0.00000000000E+00 -0.00000000000E+00 -0.37891956725E+03  0.37891956725E+03  0.00000000000E+00 0. -1.
          2    1    1    2  501    0 -0.17888437393E+02 -0.17770805563E+02  0.57785354399E+01  0.25868691396E+02  0.00000000000E+00 0. -1.
          1    1    1    2  502    0  0.14516157967E+02  0.18268407724E+02 -0.33666827352E+03  0.33747589537E+03  0.00000000000E+00 0. -1.
         22    1    1    2    0    0  0.28184509693E+02 -0.26983240542E+02 -0.15512941664E+02  0.41989441719E+02  0.00000000000E+00 0. -1.
         22    1    1    2    0    0 -0.24812230268E+02  0.26485638382E+02  0.10486781366E+03  0.11097023994E+03  0.00000000000E+00 0.  1.
</event>
<event>
 6    1  0.3240171E-005  0.1704374E+03  0.7818608E-02  0.1180112E+00
          2   -1    0    0  502    0  0.00000000000E+00  0.00000000000E+00  0.25505447160E+03  0.25505447160E+03  0.00000000000E+00 0. -1.
          1   -1    0    0  501    0 -0.00000000000E+00 -0.00000000000E+00 -0.84529540617E+03  0.84529540617E+03  0.00000000000E+00 0. -1.
          2    1    1    2  501    0 -0.14841687599E+03 -0.14925195355E+03 -0.21451458700E+03  0.30053323070E+03  0.00000000000E+00 0. -1.
          1    1    1    2  502    0 -0.76076628689E+01  0.16424077684E+03 -0.52441380362E+03  0.54958415802E+03  0.00000000000E+00 0. -1.
         22    1    1    2    0    0 -0.42678887917E+01 -0.17362982952E+02 -0.13335658893E+02  0.22305332319E+02  0.00000000000E+00 0. -1.
         22    1    1    2    0    0  0.16029242765E+03  0.23741596672E+01  0.16202311495E+03  0.22792715673E+03  0.00000000000E+00 0. -1.
</event>
<event>
 6    1  0.3240171E-005  0.1620874E+03  0.7818608E-02  0.1292217E+00
          2   -1    0    0  502    0  0.00000000000E+00  0.00000000000E+00  0.35849092917E+03  0.35849092917E+03  0.00000000000E+00 0. -1.
          1   -1    0    0  501    0 -0.00000000000E+00 -0.00000000000E+00 -0.98728297692E+02  0.98728297692E+02  0.00000000000E+00 0. -1.
          2    1    1    2  501    0 -0.86309235446E+01  0.30499284560E+02 -0.15186726747E+01  0.31733351015E+02  0.00000000000E+00 0. -1.
          1    1    1    2  502    0  0.54957527131E+02 -0.13911784888E+03  0.58935822680E+02  0.16077169172E+03  0.00000000000E+00 0. -1.
         22    1    1    2    0    0 -0.34363677755E+02  0.12306753912E+03  0.10444007020E+03  0.16502790612E+03  0.00000000000E+00 0. -1.
         22    1    1    2    0    0 -0.11962925831E+02 -0.14448974803E+02  0.97905411271E+02  0.99686278010E+02  0.00000000000E+00 0. -1.
</event>
<event>
 6    1  0.3240171E-005  0.9758094E+02  0.7818608E-02  0.1330161E+00
          2   -1    0    0  502    0  0.00000000000E+00  0.00000000000E+00  0.11472111312E+03  0.11472111312E+03  0.00000000000E+00 0.  1.
          1   -1    0    0  501    0 -0.00000000000E+00 -0.00000000000E+00 -0.74098866007E+03  0.74098866007E+03  0.00000000000E+00 0.  1.
          2    1    1    2  501    0 -0.39929740438E+02  0.34351729044E+02 -0.35995448534E+02  0.63797317929E+02  0.00000000000E+00 0.  1.
          1    1    1    2  502    0  0.62222099837E+02 -0.58199363823E+02 -0.64750492822E+03  0.65308604925E+03  0.00000000000E+00 0.  1.
         22    1    1    2    0    0 -0.49287376412E+02 -0.99177680602E+01 -0.16874548007E+02  0.53031669475E+02  0.00000000000E+00 0.  1.
         22    1    1    2    0    0  0.26995017014E+02  0.33765402839E+02  0.74107377809E+02  0.85794736541E+02  0.00000000000E+00 0.  1.
</event>
<event>
 6    1  0.3240171E-005  0.5721226E+02  0.7818608E-02  0.1418314E+00
          2   -1    0    0  502    0  0.00000000000E+00  0.00000000000E+00  0.61573091318E+02  0.61573091318E+02  0.00000000000E+00 0. -1.
          1   -1    0    0  501    0 -0.00000000000E+00 -0.00000000000E+00 -0.22942006281E+03  0.22942006281E+03  0.00000000000E+00 0. -1.
          2    1    1    2  501    0 -0.21867331070E+02 -0.81807571512E+01 -0.26128138925E+02  0.35039757411E+02  0.00000000000E+00 0. -1.
          1    1    1    2  502    0  0.20561436100E+02 -0.31677375038E+01 -0.12407232446E+03  0.12580440737E+03  0.00000000000E+00 0. -1.
         22    1    1    2    0    0  0.46468208848E+02 -0.11033434893E+02  0.33501721916E+02  0.58338636343E+02  0.00000000000E+00 0.  1.
         22    1    1    2    0    0 -0.45162313878E+02  0.22381929548E+02 -0.51148230020E+02  0.71810353009E+02  0.00000000000E+00 0. -1.
</event>
<event>
 6    1  0.3240171E-005  0.6928960E+02  0.7818608E-02  0.1364909E+00
          2   -1    0    0  502    0  0.00000000000E+00  0.00000000000E+00  0.35111073700E+02  0.35111073700E+02  0.00000000000E+00 0.  1.
          1   -1    0    0  501    0 -0.00000000000E+00 -0.00000000000E+00 -0.81753581764E+03  0.81753581764E+03  0.00000000000E+00 0.  1.
          2    1    1    2  501    0 -0.10947698164E+02  0.18717569605E+02 -0.25749017255E+02  0.33663205382E+02  0.00000000000E+00 0.  1.
          1    1    1    2  502    0  0.21609234730E+02  0.38023851890E+01 -0.65423219132E+03  0.65460001323E+03  0.00000000000E+00 0.  1.
         22    1    1    2    0    0 -0.76127111060E+00  0.45038083916E+02 -0.81232112666E+02  0.92885223070E+02  0.00000000000E+00 0.  1.
         22    1    1    2    0    0 -0.99002654553E+01 -0.67558038710E+02 -0.21211422695E+02  0.71498449655E+02  0.00000000000E+00 0.  1.
</event>
<event>
 6    1  0.3240171E-005  0.7547610E+02  0.7818608E-02  0.1354613E+00
          2   -1    0    0  502    0  0.00000000000E+00  0.00000000000E+00  0.34286538276E+02  0.34286538276E+02  0.00000000000E+00 0.  1.
          1   -1    0    0  501    0 -0.00000000000E+00 -0.00000000000E+00 -0.60948316461E+03  0.60948316461E+03  0.00000000000E+00 0. -1.
          2    1    1    2  501    0  0.43848844977E+02  0.93236678751E+01 -0.11757060612E+02  0.46345231283E+02  0.00000000000E+00 0.  1.
          1    1    1    2  502    0 -0.10823857241E+02  0.22084216046E+02 -0.30662474612E+03  0.30760949825E+03  0.00000000000E+00 0. -1.
         22    1    1    2    0    0  0.17292813166E+02 -0.27708761127E+02 -0.50569839446E+01  0.33051322470E+02  0.00000000000E+00 0. -1.
         22    1    1    2    0    0 -0.50317800902E+02 -0.36991227936E+01 -0.25175783566E+03  0.25676365088E+03  0.00000000000E+00 0. -1.
</event>
<event>
 6    1  0.3240171E-005  0.1026915E+03  0.7818608E-02  0.1278277E+00
          2   -1    0    0  502    0  0.00000000000E+00  0.00000000000E+00  0.97728315257E+03  0.97728315257E+03  0.00000000000E+00 0. -1.
          1   -1    0    0  501    0 -0.00000000000E+00 -0.00000000000E+00 -0.12540817780E+02  0.12540817780E+02  0.00000000000E+00 0. -1.
          2    1    1    2  501    0 -0.21771144866E+01  0.53966049741E+02  0.35563102384E+03  0.35970890936E+03  0.00000000000E+00 0. -1.
          1    1    1    2  502    0 -0.20201716356E+02  0.26363309236E+01  0.69203594109E+02  0.72140120752E+02  0.00000000000E+00 0. -1.
         22    1    1    2    0    0  0.26945753062E+02 -0.95943280314E+02  0.42144519298E+03  0.43306724343E+03  0.00000000000E+00 0. -1.
         22    1    1    2    0    0 -0.45669222188E+01  0.39340899649E+02  0.11846252385E+03  0.12490769681E+03  0.00000000000E+00 0. -1.
</event>
<event>
 6    1  0.3240171E-005  0.2596907E+03  0.7818608E-02  0.1197116E+00
          2   -1    0    0  502    0  0.00000000000E+00  0.00000000000E+00  0.21085147871E+03  0.21085147871E+03  0.00000000000E+00 0.  1.
          1   -1    0    0  501    0 -0.00000000000E+00 -0.00000000000E+00 -0.13505295262E+04  0.13505295262E+04  0.00000000000E+00 0. -1.
          2    1    1    2  501    0  0.85890496798E+02 -0.45599768922E+02 -0.50000644623E+02  0.10934615141E+03  0.00000000000E+00 0.  1.
          1    1    1    2  502    0 -0.20175434376E+02  0.11037124111E+01 -0.12392448178E+04  0.12394095307E+04  0.00000000000E+00 0. -1.
         22    1    1    2    0    0 -0.24722112249E+02  0.90129889621E+01 -0.20988720543E+02  0.33659221532E+02  0.00000000000E+00 0. -1.
         22    1    1    2    0    0 -0.40992950173E+02  0.35483067549E+02  0.17055613549E+03  0.17896610126E+03  0.00000000000E+00 0.  1.
</event>
<event>
 6    1  0.3240171E-005  0.2781304E+03  0.7818608E-02  0.1176556E+00
          2   -1    0    0  502    0  0.00000000000E+00  0.00000000000E+00  0.39340485157E+03  0.39340485157E+03  0.00000000000E+00 0.  1.
          1   -1    0    0  501    0 -0.00000000000E+00 -0.00000000000E+00 -0.28829646211E+03  0.28829646211E+03  0.00000000000E+00 0.  1.
          2    1    1    2  501    0  0.11103297489E+02  0.65015925628E+02 -0.29476952940E+02  0.72244339259E+02  0.00000000000E+00 0.  1.
          1    1    1    2  502    0 -0.16092922666E+02  0.14010329569E+02 -0.22294836311E+03  0.22396706032E+03  0.00000000000E+00 0.  1.
         22    1    1    2    0    0 -0.36410938576E+02 -0.68702910491E+02  0.31784213617E+03  0.32721471526E+03  0.00000000000E+00 0.  1.
         22    1    1    2    0    0  0.41400563753E+02 -0.10323344707E+02  0.39691569334E+02  0.58275198852E+02  0.00000000000E+00 0.  1.
</event>
<event>
 6    1  0.4033565E-005  0.1779056E+03  0.7818608E-02  0.1253209E+00
          2   -1    0    0  502    0  0.00000000000E+00  0.00000000000E+00  0.36873460575E+03  0.36873460575E+03  0.00000000000E+00 0. -1.
          1   -1    0    0  501    0 -0.00000000000E+00 -0.00000000000E+00 -0.73723843607E+03  0.73723843607E+03  0.00000000000E+00 0. -1.
          2    1    1    2  501    0  0.88236489814E+02 -0.63708967288E+01 -0.66088871178E+03  0.66678343997E+03  0.00000000000E+00 0. -1.
          1    1    1    2  502    0 -0.15686482117E+03 -0.16618514492E+01  0.23369342078E+03  0.28146393870E+03  0.00000000000E+00 0. -1.
         22    1    1    2    0    0  0.38657904952E+02  0.55739935777E+01 -0.39189740855E+02  0.55329366596E+02  0.00000000000E+00 0.  1.
         22    1    1    2    0    0  0.29970426408E+02  0.24587546003E+01  0.97881201531E+02  0.10239629655E+03  0.00000000000E+00 0.  1.
</event>
<event>
 6    1  0.3660319E-005  0.2649641E+03  0.7818608E-02  0.1170138E+00
          2   -1    0    0  502    0  0.00000000000E+00  0.00000000000E+00  0.15812729581E+03  0.15812729581E+03  0.00000000000E+00 0. -1.
          1   -1    0    0  501    0 -0.00000000000E+00 -0.00000000000E+00 -0.12385396147E+04  0.12385396147E+04  0.00000000000E+00 0. -1.
          2    1    1    2  501    0 -0.35280173311E+02 -0.20085903181E+03 -0.97191262060E+03  0.99307763209E+03  0.00000000000E+00 0. -1.
          1    1    1    2  502    0  0.49742260134E+02  0.24460760755E+03 -0.26373070987E+02  0.25100341231E+03  0.00000000000E+00 0. -1.
         22    1    1    2    0    0 -0.50820236118E+02 -0.16695248509E+02  0.56607712831E+01  0.53791003462E+02  0.00000000000E+00 0.  1.
         22    1    1    2    0    0  0.36358149296E+02 -0.27053327232E+02 -0.87787398594E+02  0.98794862652E+02  0.00000000000E+00 0.  1.
</event>
<event>
 6    1  0.3240171E-005  0.1732877E+03  0.7818608E-02  0.1240485E+00
          2   -1    0    0  502    0  0.00000000000E+00  0.00000000000E+00  0.81378339034E+02  0.81378339034E+02  0.00000000000E+00 0. -1.
          1   -1    0    0  501    0 -0.00000000000E+00 -0.00000000000E+00 -0.69505260051E+03  0.69505260051E+03  0.00000000000E+00 0. -1.
          2    1    1    2  501    0  0.60125256448E+02 -0.12428816541E+01 -0.40381033761E+03  0.40826386073E+03  0.00000000000E+00 0. -1.
          1    1    1    2  502    0 -0.83106210886E+02  0.88527154508E+02 -0.17112305254E+03  0.20982563829E+03  0.00000000000E+00 0. -1.
         22    1    1    2    0    0 -0.11247320355E+02 -0.62919886541E+02 -0.77997218743E+02  0.10084136289E+03  0.00000000000E+00 0. -1.
         22    1    1    2    0    0  0.34228274793E+02 -0.24364386313E+02  0.39256347416E+02  0.57500077636E+02  0.00000000000E+00 0. -1.
</event>
<event>
 6    1  0.3324039E-005  0.3773420E+03  0.7818608E-02  0.1149135E+00
          2   -1    0    0  502    0  0.00000000000E+00  0.00000000000E+00  0.41243654924E+03  0.41243654924E+03  0.00000000000E+00 0.  1.
          1   -1    0    0  501    0 -0.00000000000E+00 -0.00000000000E+00 -0.57396969271E+03  0.57396969271E+03  0.00000000000E+00 0.  1.
          2    1    1    2  501    0  0.70373522469E+02  0.76425096922E+02 -0.67039506925E+02  0.12364272560E+03  0.00000000000E+00 0.  1.
          1    1    1    2  502    0 -0.11402458097E+03 -0.32672116209E+02 -0.45876468435E+03  0.47385030109E+03  0.00000000000E+00 0.  1.
         22    1    1    2    0    0 -0.30010205601E+02  0.34578917965E+01  0.27124981604E+02  0.40599680823E+02  0.00000000000E+00 0.  1.
         22    1    1    2    0    0  0.73661264106E+02 -0.47210872510E+02  0.33714606620E+03  0.34831353443E+03  0.00000000000E+00 0.  1.
</event>
<event>
 6    1  0.3240171E-005  0.1121429E+03  0.7818608E-02  0.1344192E+00
          2   -1    0    0  502    0  0.00000000000E+00  0.00000000000E+00  0.47494702845E+02  0.47494702845E+02  0.00000000000E+00 0. -1.
          1   -1    0    0  501    0 -0.00000000000E+00 -0.00000000000E+00 -0.11078414168E+04  0.11078414168E+04  0.00000000000E+00 0. -1.
          2    1    1    2  501    0  0.73923064347E+02 -0.49377946796E+02 -0.22741860405E+03  0.24417621207E+03  0.00000000000E+00 0. -1.
          1    1    1    2  502    0 -0.83964577847E+02  0.66715589184E+02 -0.76100950114E+03  0.76852877694E+03  0.00000000000E+00 0. -1.
         22    1    1    2    0    0 -0.19053010906E+02 -0.11609773745E+02  0.29488158722E+02  0.36977771375E+02  0.00000000000E+00 0. -1.
         22    1    1    2    0    0  0.29094524407E+02 -0.57278686425E+01 -0.10140676753E+03  0.10565335930E+03  0.00000000000E+00 0. -1.
</event>
<event>
 6    1  0.3240171E-005  0.1806410E+03  0.7818608E-02  0.1242803E+00
          2   -1    0    0  502    0  0.00000000000E+00  0.00000000000E+00  0.12335935340E+03  0.12335935340E+03  0.00000000000E+00 0. -1.
          1   -1    0    0  501    0 -0.00000000000E+00 -0.00000000000E+00 -0.82697772873E+03  0.82697772873E+03  0.00000000000E+00 0. -1.
          2    1    1    2  501    0 -0.53626110787E+02 -0.26074730838E+02 -0.74845211229E+02  0.95694602723E+02  0.00000000000E+00 0. -1.
          1    1    1    2  502    0  0.17369925742E+03  0.59092265243E+02 -0.65407941038E+03  0.67932555003E+03  0.00000000000E+00 0. -1.
         22    1    1    2    0    0 -0.34939259462E+02 -0.56183474020E+01  0.67663805624E+02  0.76359074581E+02  0.00000000000E+00 0.  1.
         22    1    1    2    0    0 -0.85133887175E+02 -0.27399187003E+02 -0.42357559352E+02  0.98957854808E+02  0.00000000000E+00 0. -1.
</event>
<event>
 6    1  0.3240171E-005  0.1384168E+03  0.7818608E-02  0.1221986E+00
          2   -1    0    0  502    0  0.00000000000E+00  0.00000000000E+00  0.21055024868E+04  0.21055024868E+04  0.00000000000E+00 0. -1.
          1   -1    0    0  501    0 -0.00000000000E+00 -0.00000000000E+00 -0.41714958917E+02  0.41714958917E+02  0.00000000000E+00 0.  1.
          2    1    1    2  501    0  0.42124821580E+02  0.88029621220E+02  0.17167926490E+04  0.17195641059E+04  0.00000000000E+00 0. -1.
          1    1    1    2  502    0 -0.45197704610E+02  0.11890943338E+02 -0.85378736865E-01  0.46735792761E+02  0.00000000000E+00 0.  1.
         22    1    1    2    0    0 -0.20788619371E+01 -0.12377937604E+03  0.22879351217E+03  0.26013866843E+03  0.00000000000E+00 0.  1.
         22    1    1    2    0    0  0.51517449670E+01  0.23858811485E+02  0.11828674548E+03  0.12077887861E+03  0.00000000000E+00 0. -1.
</event>
<event>
 6    1  0.3240171E-005  0.6006849E+02  0.7818608E-02  0.1440637E+00
          2   -1    0    0  502    0  0.00000000000E+00  0.00000000000E+00  0.55427244695E+02  0.55427244695E+02  0.00000000000E+00 0.  1.
          1   -1    0    0  501    0 -0.00000000000E+00 -0.00000000000E+00 -0.30223358430E+03  0.30223358430E+03  0.00000000000E+00 0.  1.
          2    1    1    2  501    0  0.25036459264E+02 -0.54353112084E+00 -0.43257057873E+02  0.49982924829E+02  0.00000000000E+00 0.  1.
          1    1    1    2  502    0  0.17617461990E+01 -0.37932722926E+02 -0.16574778594E+03  0.17004212350E+03  0.00000000000E+00 0.  1.
         22    1    1    2    0    0  0.36404489176E+01  0.43953771067E+02 -0.76374863703E+02  0.88194708827E+02  0.00000000000E+00 0.  1.
         22    1    1    2    0    0 -0.30438654381E+02 -0.54775170201E+01  0.38573367912E+02  0.49441071846E+02  0.00000000000E+00 0.  1.
</event>
<event>
 6    1  0.3240171E-005  0.8172559E+02  0.7818608E-02  0.1337959E+00
          2   -1    0    0  502    0  0.00000000000E+00  0.00000000000E+00  0.36417474887E+03  0.36417474887E+03  0.00000000000E+00 0.  1.
          1   -1    0    0  501    0 -0.00000000000E+00 -0.00000000000E+00 -0.13606851332E+03  0.13606851332E+03  0.00000000000E+00 0.  1.
          2    1    1    2  501    0  0.21710012692E+01  0.61859094695E+02 -0.14204001353E+02  0.63506019380E+02  0.00000000000E+00 0.  1.
          1    1    1    2  502    0 -0.19263163713E+02 -0.62976041353E+01 -0.82116808949E+02  0.84580728337E+02  0.00000000000E+00 0.  1.
         22    1    1    2    0    0 -0.18281239473E+02 -0.16094674309E+01 -0.28583366007E+01  0.18573211629E+02  0.00000000000E+00 0.  1.
         22    1    1    2    0    0  0.35373401917E+02 -0.53952023129E+02  0.32728538245E+03  0.33358330283E+03  0.00000000000E+00 0.  1.
</event>
<event>
 6    1  0.3240171E-005  0.3418519E+02  0.7818608E-02  0.1640039E+00
          2   -1    0    0  502    0  0.00000000000E+00  0.00000000000E+00  0.73441343428E+02  0.73441343428E+02  0.00000000000E+00 0. -1.
          1   -1    0    0  501    0 -0.00000000000E+00 -0.00000000000E+00 -0.55344210656E+03  0.55344210656E+03  0.00000000000E+00 0. -1.
          2    1    1    2  501    0 -0.16249139001E+02  0.11727862379E+02 -0.54430467242E+02  0.58002181325E+02  0.00000000000E+00 0. -1.
          1    1    1    2  502    0  0.24127266503E+02 -0.18193926679E+02 -0.44069004113E+03  0.44172486494E+03  0.00000000000E+00 0. -1.
         22    1    1    2    0    0 -0.17808920886E+01  0.17249498763E+02 -0.54113207878E+02  0.56823903871E+02  0.00000000000E+00 0. -1.
         22    1    1    2    0    0 -0.60972354138E+01 -0.10783434464E+02  0.69232953116E+02  0.70332499854E+02  0.00000000000E+00 0. -1.
</event>
<event>
 6    1  0.3240171E-005  0.1015172E+03  0.7818608E-02  0.1310551E+00
          2   -1    0    0  502    0  0.00000000000E+00  0.00000000000E+00  0.18497494005E+03  0.18497494005E+03  0.00000000000E+00 0. -1.
          1   -1    0    0  501    0 -0.00000000000E+00 -0.00000000000E+00 -0.16881437700E+03  0.16881437700E+03  0.00000000000E+00 0.  1.
          2    1    1    2  501    0 -0.40599696318E+02  0.17695702319E+02 -0.58937736281E+00  0.44292443908E+02  0.00000000000E+00 0. -1.
          1    1    1    2  502    0  0.52548025362E+02 -0.77416471615E+02 -0.92897598382E+02  0.13185055492E+03  0.00000000000E+00 0.  1.
         22    1    1    2    0    0 -0.64185529071E+02  0.44199985480E+02  0.35524119729E+02  0.85646855990E+02  0.00000000000E+00 0. -1.
         22    1    1    2    0    0  0.52237200028E+02  0.15520783816E+02  0.74123419070E+02  0.91999462236E+02  0.00000000000E+00 0. -1.
</event>
<event>
 6    1  0.3240171E-005  0.1358599E+03  0.7818608E-02  0.1250357E+00
          2   -1    0    0  502    0  0.00000000000E+00  0.00000000000E+00  0.31146902120E+03  0.31146902120E+03  0.00000000000E+00 0.  1.
          1   -1    0    0  501    0 -0.00000000000E+00 -0.00000000000E+00 -0.16875792757E+03  0.16875792757E+03  0.00000000000E+00 0.  1.
          2    1    1    2  501    0 -0.45072668016E+02 -0.41834510013E+02 -0.37237705979E+02  0.71891017358E+02  0.00000000000E+00 0.  1.
          1    1    1    2  502    0  0.15683755374E+03 -0.92805740373E+01  0.19563471299E+01  0.15712407394E+03  0.00000000000E+00 0.  1.
         22    1    1    2    0    0 -0.55386794559E+02  0.45168907050E+02  0.18083898027E+03  0.19444964377E+03  0.00000000000E+00 0.  1.
         22    1    1    2    0    0 -0.56378091163E+02  0.59461770006E+01 -0.28465277883E+01  0.56762213704E+02  0.00000000000E+00 0.  1.
</event>
<event>
 6    1  0.3240171E-005  0.2688589E+03  0.7818608E-02  0.1142575E+00
          2   -1    0    0  502    0  0.00000000000E+00  0.00000000000E+00  0.10146901863E+03  0.10146901863E+03  0.00000000000E+00 0. -1.
          1   -1    0    0  501    0 -0.00000000000E+00 -0.00000000000E+00 -0.16459778073E+04  0.16459778073E+04  0.00000000000E+00 0. -1.
          2    1    1    2  501    0  0.21123291610E+03 -0.91061616456E+01 -0.86864135416E+03  0.89400227582E+03  0.00000000000E+00 0. -1.
          1    1    1    2  502    0 -0.26839186203E+03  0.13069176452E+03 -0.56056826577E+03  0.63509944852E+03  0.00000000000E+00 0. -1.
         22    1    1    2    0    0  0.31503885209E+02 -0.27341421881E+02 -0.11320841154E+03  0.12064904715E+03  0.00000000000E+00 0. -1.
         22    1    1    2    0    0  0.25655060726E+02 -0.94244180991E+02 -0.20907572076E+01  0.97696054460E+02  0.00000000000E+00 0. -1.
</event>
<event>
 6    1  0.3240171E-005  0.9578232E+02  0.7818608E-02  0.1386328E+00
          2   -1    0    0  502    0  0.00000000000E+00  0.00000000000E+00  0.37101199413E+02  0.37101199413E+02  0.00000000000E+00 0.  1.
          1   -1    0    0  501    0 -0.00000000000E+00 -0.00000000000E+00 -0.13108197418E+04  0.13108197418E+04  0.00000000000E+00 0.  1.
          2    1    1    2  501    0 -0.49254824329E+02 -0.39536652643E+02 -0.60105362386E+03  0.60436300629E+03  0.00000000000E+00 0.  1.
          1    1    1    2  502    0  0.59661919852E+02  0.50718558719E+02 -0.57650246440E+03  0.58179636329E+03  0.00000000000E+00 0.  1.
         22    1    1    2    0    0  0.52692104993E+01  0.16932587033E+02  0.28193552398E+02  0.33306958428E+02  0.00000000000E+00 0.  1.
         22    1    1    2    0    0 -0.15676306022E+02 -0.28114493108E+02 -0.12435600652E+03  0.12845461319E+03  0.00000000000E+00 0.  1.
</event>
<event>
 6    1  0.3240171E-005  0.5550570E+02  0.7818608E-02  0.1424307E+00
          2   -1    0    0  502    0  0.00000000000E+00  0.00000000000E+00  0.14310269794E+03  0.14310269794E+03  0.00000000000E+00 0.  1.
          1   -1    0    0  501    0 -0.00000000000E+00 -0.00000000000E+00 -0.20716989067E+04  0.20716989067E+04  0.00000000000E+00 0. -1.
          2    1    1    2  501    0  0.22119001055E+02  0.70083659918E+00 -0.12252622228E+03  0.12450870061E+03  0.00000000000E+00 0.  1.
          1    1    1    2  502    0  0.26993751703E+02  0.36995706099E+01 -0.19172735775E+04  0.19174671628E+04  0.00000000000E+00 0. -1.
         22    1    1    2    0    0 -0.50609308664E+02  0.59141336288E+01  0.13637436722E+03  0.14558244102E+03  0.00000000000E+00 0.  1.
         22    1    1    2    0    0  0.14965559059E+01 -0.10314540838E+02 -0.25170776210E+02  0.27243300227E+02  0.00000000000E+00 0.  1.
</event>
<event>
 6    1  0.3240171E-005  0.1051406E+03  0.7818608E-02  0.1293738E+00
          2   -1    0    0  502    0  0.00000000000E+00  0.00000000000E+00  0.50079865015E+03  0.50079865015E+03  0.00000000000E+00 0. -1.
          1   -1    0    0  501    0 -0.00000000000E+00 -0.00000000000E+00 -0.27884057086E+03  0.27884057086E+03  0.00000000000E+00 0. -1.
          2    1    1    2  501    0 -0.51859052710E+02  0.94346231542E+02  0.91490661920E+02  0.14128380648E+03  0.00000000000E+00 0. -1.
          1    1    1    2  502    0  0.64042589736E+02 -0.74051207269E+02 -0.23249297820E+03  0.25226577157E+03  0.00000000000E+00 0. -1.
         22    1    1    2    0    0 -0.20311911089E+02  0.46016724725E+02  0.73797900001E+02  0.89309813185E+02  0.00000000000E+00 0. -1.
         22    1    1    2    0    0  0.81283740635E+01 -0.66311748998E+02  0.28916249557E+03  0.29677982978E+03  0.00000000000E+00 0.  1.
</event>
<event>
 6    1  0.3240171E-005  0.8916915E+02  0.7818608E-02  0.1370704E+00
          2   -1    0    0  502    0  0.00000000000E+00  0.00000000000E+00  0.64576650015E+02  0.64576650015E+02  0.00000000000E+00 0. -1.
          1   -1    0    0  501    0 -0.00000000000E+00 -0.00000000000E+00 -0.69197037318E+03  0.69197037318E+03  0.00000000000E+00 0.  1.
          2    1    1    2  501    0 -0.21394028941E+02 -0.38943163534E+02 -0.15281126124E+03  0.15914005160E+03  0.00000000000E+00 0. -1.
          1    1    1    2  502    0  0.14578721511E+01  0.72077015187E+02 -0.46404255643E+03  0.46960910946E+03  0.00000000000E+00 0.  1.
         22    1    1    2    0    0 -0.47395918831E+01 -0.47141643398E+02 -0.56529788691E+02  0.73759170839E+02  0.00000000000E+00 0. -1.
         22    1    1    2    0    0  0.24675748673E+02  0.14007791744E+02  0.45989883191E+02  0.54038691306E+02  0.00000000000E+00 0. -1.
</event>
<event>
 6    1  0.3240171E-005  0.2675753E+03  0.7818608E-02  0.1215502E+00
          2   -1    0    0  502    0  0.00000000000E+00  0.00000000000E+00  0.40997248742E+03  0.40997248742E+03  0.00000000000E+00 0. -1.
          1   -1    0    0  501    0 -0.00000000000E+00 -0.00000000000E+00 -0.20325059045E+03  0.20325059045E+03  0.00000000000E+00 0. -1.
          2    1    1    2  501    0 -0.57109169465E+02 -0.11915108534E+03  0.56678907482E+02  0.14377390907E+03  0.00000000000E+00 0. -1.
          1    1    1    2  502    0  0.16254285132E+03  0.19002885805E+03  0.22043523605E+02  0.25103199466E+03  0.00000000000E+00 0. -1.
         22    1    1    2    0    0 -0.12106118585E+03 -0.81946097119E+02  0.79794561847E+02  0.16654772785E+03  0.00000000000E+00 0. -1.
         22    1    1    2    0    0  0.15627503992E+02  0.11068324412E+02  0.48204904029E+02  0.51869446294E+02  0.00000000000E+00 0. -1.
</event>
<event>
 6    1  0.3240171E-005  0.7642513E+02  0.7818608E-02  0.1352904E+00
          2   -1    0    0  502    0  0.00000000000E+00  0.00000000000E+00  0.19991385480E+03  0.19991385480E+03  0.00000000000E+00 0. -1.
          1   -1    0    0  501    0 -0.00000000000E+00 -0.00000000000E+00 -0.10177273210E+03  0.10177273210E+03  0.00000000000E+00 0. -1.
          2    1    1    2  501    0  0.11338820143E+02 -0.23260782200E+02 -0.13136129725E+01  0.25910584900E+02  0.00000000000E+00 0. -1.
          1    1    1    2  502    0 -0.18546991939E+02  0.75808321885E+02 -0.32949468440E+02  0.84714579899E+02  0.00000000000E+00 0. -1.
         22    1    1    2    0    0  0.50075353751E+02 -0.95234888953E+01  0.66445719174E+01  0.51404165493E+02  0.00000000000E+00 0. -1.
         22    1    1    2    0    0 -0.42867181955E+02 -0.43024050790E+02  0.12575963219E+03  0.13965725661E+03  0.00000000000E+00 0. -1.
</event>
<event>
 6    1  0.3240171E-005  0.2123655E+03  0.7818608E-02  0.1277136E+00
          2   -1    0    0  502    0  0.00000000000E+00  0.00000000000E+00  0.17715663850E+03  0.17715663850E+03  0.00000000000E+00 0. -1.
          1   -1    0    0  501    0 -0.00000000000E+00 -0.00000000000E+00 -0.78883267366E+03  0.78883267366E+03  0.00000000000E+00 0. -1.
          2    1    1    2  501    0 -0.99909767408E+02  0.48077894305E+02  0.46374987344E+02  0.12018354711E+03  0.00000000000E+00 0. -1.
          1    1    1    2  502    0  0.17704713972E+03 -0.59671177289E+02 -0.66928065732E+03  0.69486900732E+03  0.00000000000E+00 0. -1.
         22    1    1    2    0    0 -0.93524051783E+01 -0.59594233785E+01  0.62928648590E+02  0.63898333491E+02  0.00000000000E+00 0. -1.
         22    1    1    2    0    0 -0.67784967129E+02  0.17552706362E+02 -0.51699013771E+02  0.87038424240E+02  0.00000000000E+00 0.  1.
</event>
<event>
 6    1  0.3240171E-005  0.2301536E+03  0.7818608E-02  0.1190434E+00
          2   -1    0    0  502    0  0.00000000000E+00  0.00000000000E+00  0.58610377272E+03  0.58610377272E+03  0.00000000000E+00 0.  1.
          1   -1    0    0  501    0 -0.00000000000E+00 -0.00000000000E+00 -0.75594182315E+03  0.75594182315E+03  0.00000000000E+00 0. -1.
          2    1    1    2  501    0  0.16668562147E+02  0.14252725221E+03  0.18475805697E+03  0.23393887707E+03  0.00000000000E+00 0.  1.
          1    1    1    2  502    0 -0.20842826949E+02 -0.21336429164E+03 -0.70157673051E+03  0.73359979088E+03  0.00000000000E+00 0. -1.
         22    1    1    2    0    0  0.51611265561E+02  0.35086332982E+01  0.19383488616E+03  0.20061903283E+03  0.00000000000E+00 0.  1.
         22    1    1    2    0    0 -0.47437000759E+02  0.67328406124E+02  0.15314573695E+03  0.17388789509E+03  0.00000000000E+00 0.  1.
</event>
<event>
 6    1  0.3240171E-005  0.1495885E+03  0.7818608E-02  0.1250409E+00
          2   -1    0    0  502    0  0.00000000000E+00  0.00000000000E+00  0.70497473194E+02  0.70497473194E+02  0.00000000000E+00 0. -1.
          1   -1    0    0  501    0 -0.00000000000E+00 -0.00000000000E+00 -0.48920785072E+03  0.48920785072E+03  0.00000000000E+00 0.  1.
          2    1    1    2  501    0  0.52614869291E+02  0.11568042737E+02 -0.73930166123E+02  0.91475753871E+02  0.00000000000E+00 0. -1.
          1    1    1    2  502    0  0.21560208295E+02  0.21139499605E+02 -0.31810625579E+03  0.31953608716E+03  0.00000000000E+00 0.  1.
         22    1    1    2    0    0 -0.40717195500E+02  0.24513305947E+02  0.34314619662E+02  0.58619837089E+02  0.00000000000E+00 0. -1.
         22    1    1    2    0    0 -0.33457882086E+02 -0.57220848289E+02 -0.60988575281E+02  0.90073645799E+02  0.00000000000E+00 0. -1.
</event>
<event>
 6    1  0.3240171E-005  0.2429078E+03  0.7818608E-02  0.1218767E+00
          2   -1    0    0  502    0  0.00000000000E+00  0.00000000000E+00  0.55323122126E+03  0.55323122126E+03  0.00000000000E+00 0. -1.
          1   -1    0    0  501    0 -0.00000000000E+00 -0.00000000000E+00 -0.20760502979E+03  0.20760502979E+03  0.00000000000E+00 0.  1.
          2    1    1    2  501    0  0.39090380537E+02  0.66422057700E+02  0.40699270973E+02  0.87157204277E+02  0.00000000000E+00 0. -1.
          1    1    1    2  502    0  0.29801334429E+02 -0.13675219215E+02 -0.17042240834E+03  0.17354805795E+03  0.00000000000E+00 0.  1.
         22    1    1    2    0    0 -0.91481960005E+02 -0.44964631883E+02  0.46126830215E+03  0.47239730492E+03  0.00000000000E+00 0. -1.
         22    1    1    2    0    0  0.22590245039E+02 -0.77822066016E+01  0.14081026687E+02  0.27733683907E+02  0.00000000000E+00 0. -1.
</event>
<event>
 6    1  0.3240171E-005  0.6082188E+02  0.7818608E-02  0.1399454E+00
          2   -1    0    0  502    0  0.00000000000E+00  0.00000000000E+00  0.71568925808E+02  0.71568925808E+02  0.00000000000E+00 0.  1.
          1   -1    0    0  501    0 -0.00000000000E+00 -0.00000000000E+00 -0.28029513270E+03  0.28029513270E+03  0.00000000000E+00 0. -1.
          2    1    1    2  501    0 -0.69270542391E+01  0.33317701042E+02 -0.96363539288E+02  0.10219581688E+03  0.00000000000E+00 0.  1.
          1    1    1    2  502    0  0.32736982644E+02 -0.14174051960E+01 -0.11667252801E+03  0.12118662411E+03  0.00000000000E+00 0. -1.
         22    1    1    2    0    0 -0.48677980710E+02 -0.41641615527E+02  0.46745985553E+02  0.79301684188E+02  0.00000000000E+00 0.  1.
         22    1    1    2    0    0  0.22868052305E+02  0.97413196809E+01 -0.42436125140E+02  0.49179933329E+02  0.00000000000E+00 0.  1.
</event>
<event>
 6    1  0.3240171E-005  0.1703138E+03  0.7818608E-02  0.1202649E+00
          2   -1    0    0  502    0  0.00000000000E+00  0.00000000000E+00  0.33810346881E+03  0.33810346881E+03  0.00000000000E+00 0. -1.
          1   -1    0    0  501    0 -0.00000000000E+00 -0.00000000000E+00 -0.28392672651E+03  0.28392672651E+03  0.00000000000E+00 0.  1.
          2    1    1    2  501    0  0.11982295218E+03  0.11078029497E+03 -0.22249620049E+00  0.16318658991E+03  0.00000000000E+00 0. -1.
          1    1    1    2  502    0  0.77725603098E+01 -0.10352643112E+03 -0.15397792643E+03  0.18570766398E+03  0.00000000000E+00 0.  1.
         22    1    1    2    0    0 -0.35942561983E+02  0.26749668555E+02  0.20842267723E+01  0.44852608964E+02  0.00000000000E+00 0.  1.
         22    1    1    2    0    0 -0.91652950505E+02 -0.34003532406E+02  0.20629293815E+03  0.22828333247E+03  0.00000000000E+00 0. -1.
</event>
<event>
 6    1  0.3240171E-005  0.8589321E+02  0.7818608E-02  0.1328171E+00
          2   -1    0    0  502    0  0.00000000000E+00  0.00000000000E+00  0.11418163331E+03  0.11418163331E+03  0.00000000000E+00 0.  1.
          1   -1    0    0  501    0 -0.00000000000E+00 -0.00000000000E+00 -0.30265351576E+03  0.30265351576E+03  0.00000000000E+00 0. -1.
          2    1    1    2  501    0 -0.20305146070E+02  0.39215304941E+02 -0.15436445566E+03  0.16055691910E+03  0.00000000000E+00 0.  1.
          1    1    1    2  502    0  0.65456535501E+02 -0.71398502870E+02 -0.63503078871E+02  0.11582290481E+03  0.00000000000E+00 0. -1.
         22    1    1    2    0    0 -0.64979637223E+02  0.93484922381E+01  0.65921695279E+02  0.93034496125E+02  0.00000000000E+00 0.  1.
         22    1    1    2    0    0  0.19828247793E+02  0.22834705692E+02 -0.36526043201E+02  0.47420829036E+02  0.00000000000E+00 0.  1.
</event>
<event>
 6    1  0.3240171E-005  0.3135185E+03  0.7818608E-02  0.1102777E+00
          2   -1    0    0  502    0  0.00000000000E+00  0.00000000000E+00  0.36980698000E+03  0.36980698000E+03  0.00000000000E+00 0. -1.
          1   -1    0    0  501    0 -0.00000000000E+00 -0.00000000000E+00 -0.51236486526E+03  0.51236486526E+03  0.00000000000E+00 0. -1.
          2    1    1    2  501    0  0.28784780742E+03 -0.14015379334E+03 -0.23561563878E+03  0.39750996876E+03  0.00000000000E+00 0. -1.
          1    1    1    2  502    0 -0.20980303697E+03  0.33388594088E+01  0.17075521627E+03  0.27052875298E+03  0.00000000000E+00 0. -1.
         22    1    1    2    0    0 -0.10938955265E+03  0.12473176783E+03 -0.62944372100E+02  0.17744317996E+03  0.00000000000E+00 0. -1.
         22    1    1    2    0    0  0.31344782204E+02  0.12083166106E+02 -0.14753090653E+02  0.36689943559E+02  0.00000000000E+00 0. -1.
</event>
<event>
 6    1  0.3240171E-005  0.5316672E+02  0.7818608E-02  0.1519431E+00
          2   -1    0    0  502    0  0.00000000000E+00  0.00000000000E+00  0.69420904076E+02  0.69420904076E+02  0.00000000000E+00 0. -1.
          1   -1    0    0  501    0 -0.00000000000E+00 -0.00000000000E+00 -0.20514555747E+03  0.20514555747E+03  0.00000000000E+00 0.  1.
          2    1    1    2  501    0 -0.15172866229E+01 -0.24709014379E+02 -0.19250988734E+02  0.31359816924E+02  0.00000000000E+00 0. -1.
          1    1    1    2  502    0 -0.39163251761E+01  0.38822177853E+02 -0.10533950350E+03  0.11233392228E+03  0.00000000000E+00 0.  1.
         22    1    1    2    0    0 -0.14558972128E+02  0.15609192839E+01  0.56635636844E+02  0.58497824739E+02  0.00000000000E+00 0. -1.
         22    1    1    2    0    0  0.19992583927E+02 -0.15674082758E+02 -0.67769798007E+02  0.72374897612E+02  0.00000000000E+00 0.  1.
</event>
<event>
 6    1  0.3240171E-005  0.3131872E+03  0.7818608E-02  0.1157978E+00
          2   -1    0    0  502    0  0.00000000000E+00  0.00000000000E+00  0.19056123888E+03  0.19056123888E+03  0.00000000000E+00 0. -1.
          1   -1    0    0  501    0 -0.00000000000E+00 -0.00000000000E+00 -0.48139936441E+03  0.48139936441E+03  0.00000000000E+00 0. -1.
          2    1    1    2  501    0 -0.17327377512E+03  0.11017081989E+03 -0.26804782689E+03  0.33765522090E+03  0.00000000000E+00 0. -1.
          1    1    1    2  502    0  0.16287057807E+03 -0.26301685356E+02 -0.64333231955E+02  0.17708011912E+03  0.00000000000E+00 0. -1.
         22    1    1    2    0    0 -0.37840405945E+02 -0.20222219650E+02  0.61422375484E+02  0.74923579063E+02  0.00000000000E+00 0.  1.
         22    1    1    2    0    0  0.48243602994E+02 -0.63646914880E+02 -0.19879442167E+02  0.82301684214E+02  0.00000000000E+00 0. -1.
</event>
<event>
 6    1  0.3240171E-005  0.1959400E+03  0.7818608E-02  0.1204249E+00
          2   -1    0    0  502    0  0.00000000000E+00  0.00000000000E+00  0.21308598632E+03  0.21308598632E+03  0.00000000000E+00 0.  1.
          1   -1    0    0  501    0 -0.00000000000E+00 -0.00000000000E+00 -0.71260585571E+03  0.71260585571E+03  0.00000000000E+00 0.  1.
          2    1    1    2  501    0  0.21458338786E+02 -0.10491858572E+03  0.26290953785E+02  0.11027050459E+03  0.00000000000E+00 0.  1.
          1    1    1    2  502    0  0.52590715099E+02  0.18235094889E+03 -0.60349328832E+03  0.63263085676E+03  0.00000000000E+00 0.  1.
         22    1    1    2    0    0 -0.56965264524E+02  0.24519112175E+02  0.26536595539E+02  0.67456794520E+02  0.00000000000E+00 0. -1.
         22    1    1    2    0    0 -0.17083789361E+02 -0.10195147534E+03  0.51145869607E+02  0.11533368615E+03  0.00000000000E+00 0.  1.
</event>
<event>
 6    1  0.3240171E-005  0.2013725E+03  0.7818608E-02  0.1269797E+00
          2   -1    0    0  502    0  0.00000000000E+00  0.00000000000E+00  0.20504361683E+03  0.20504361683E+03  0.00000000000E+00 0. -1.
          1   -1    0    0  501    0 -0.00000000000E+00 -0.00000000000E+00 -0.10442847230E+04  0.10442847230E+04  0.00000000000E+00 0.  1.
          2    1    1    2  501    0  0.22163988496E+02  0.11511609397E+02 -0.23608316863E+02  0.34367312407E+02  0.00000000000E+00 0. -1.
          1    1    1    2  502    0  0.12558933240E+03 -0.28175805245E+02 -0.96179416920E+03  0.97036827047E+03  0.00000000000E+00 0.  1.
         22    1    1    2    0    0 -0.16240015501E+03  0.13530043653E+02  0.89370955107E+02  0.18586027022E+03  0.00000000000E+00 0. -1.
         22    1    1    2    0    0  0.14646834114E+02  0.31341521957E+01  0.56790424752E+02  0.58732486778E+02  0.00000000000E+00 0. -1.
</event>
<event>
 6    1  0.3240171E-005  0.8673219E+02  0.7818608E-02  0.1417552E+00
          2   -1    0    0  502    0  0.00000000000E+00  0.00000000000E+00  0.51342765383E+02  0.51342765383E+02  0.00000000000E+00 0.  1.
          1   -1    0    0  501    0 -0.00000000000E+00 -0.00000000000E+00 -0.18290895862E+04  0.18290895862E+04  0.00000000000E+00 0. -1.
          2    1    1    2  501    0  0.96574553825E+00 -0.25576390311E+02 -0.24150098168E+03  0.24285347137E+03  0.00000000000E+00 0.  1.
          1    1    1    2  502    0  0.68152812899E+01  0.61177761713E+02 -0.14957690922E+04  0.14970351845E+04  0.00000000000E+00 0. -1.
         22    1    1    2    0    0 -0.10257934108E+02  0.10370278669E+02  0.42893848902E+02  0.45306182419E+02  0.00000000000E+00 0.  1.
         22    1    1    2    0    0  0.24769072796E+01 -0.45971650070E+02 -0.83370595890E+02  0.95237513297E+02  0.00000000000E+00 0.  1.
</event>
<event>
 6    1  0.3240171E-005  0.9886525E+02  0.7818608E-02  0.1354527E+00
          2   -1    0    0  502    0  0.00000000000E+00  0.00000000000E+00  0.11784469623E+03  0.11784469623E+03  0.00000000000E+00 0. -1.
          1   -1    0    0  501    0 -0.00000000000E+00 -0.00000000000E+00 -0.14735318463E+03  0.14735318463E+03  0.00000000000E+00 0. -1.
          2    1    1    2  501    0 -0.40593594879E+02  0.13018232267E+02 -0.61095901431E+02  0.74498479771E+02  0.00000000000E+00 0. -1.
          1    1    1    2  502    0 -0.77253467186E+01 -0.43112399587E+02 -0.15795483112E+02  0.46560254153E+02  0.00000000000E+00 0. -1.
         22    1    1    2    0    0  0.29271752267E+02  0.49642324681E+02 -0.27924176551E+02  0.64038703270E+02  0.00000000000E+00 0. -1.
         22    1    1    2    0    0  0.19047189331E+02 -0.19548157361E+02  0.75307072698E+02  0.80100443669E+02  0.00000000000E+00 0. -1.
</event>
<event>
 6    1  0.3240171E-005  0.1376120E+03  0.7818608E-02  0.1217206E+00
          2   -1    0    0  502    0  0.00000000000E+00  0.00000000000E+00  0.45462160957E+02  0.45462160957E+02  0.00000000000E+00 0.  1.
          1   -1    0    0  501    0 -0.00000000000E+00 -0.00000000000E+00 -0.12973796903E+04  0.12973796903E+04  0.00000000000E+00 0.  1.
          2    1    1    2  501    0 -0.75753545583E+02  0.72853083316E+02 -0.53091546335E+03  0.54121844078E+03  0.00000000000E+00 0.  1.
          1    1    1    2  502    0 -0.57556210848E+02 -0.99280931049E+02 -0.49947231952E+03  0.51248611556E+03  0.00000000000E+00 0.  1.
         22    1    1    2    0    0  0.14812272921E+03  0.23257007336E+02 -0.13648685385E+03  0.20275574609E+03  0.00000000000E+00 0.  1.
         22    1    1    2    0    0 -0.14812972780E+02  0.31708403965E+01 -0.85042892642E+02  0.86381548842E+02  0.00000000000E+00 0. -1.
</event>
<event>
 6    1  0.3240171E-005  0.1861450E+03  0.7818608E-02  0.1197927E+00
          2   -1    0    0  502    0  0.00000000000E+00  0.00000000000E+00  0.21950028706E+03  0.21950028706E+03  0.00000000000E+00 0. -1.
          1   -1    0    0  501    0 -0.00000000000E+00 -0.00000000000E+00 -0.12248679589E+03  0.12248679589E+03  0.00000000000E+00 0. -1.
          2    1    1    2  501    0 -0.11662863540E+03 -0.16556426703E+02  0.22692659205E+02  0.11996378888E+03  0.00000000000E+00 0. -1.
          1    1    1    2  502    0  0.31715058167E+02 -0.92133226806E+01 -0.20894727174E+02  0.39080939766E+02  0.00000000000E+00 0. -1.
         22    1    1    2    0    0  0.52246116960E+02 -0.49219063429E+02  0.27904575298E+02  0.77011935859E+02  0.00000000000E+00 0. -1.
         22    1    1    2    0    0  0.32667460273E+02  0.74988812813E+02  0.67310983841E+02  0.10593041845E+03  0.00000000000E+00 0. -1.
</event>
<event>
 6    1  0.3240171E-005  0.5757159E+02  0.7818608E-02  0.1486189E+00
          2   -1    0    0  502    0  0.00000000000E+00  0.00000000000E+00  0.49366559567E+02  0.49366559567E+02  0.00000000000E+00 0.  1.
          1   -1    0    0  501    0 -0.00000000000E+00 -0.00000000000E+00 -0.71753061065E+03  0.71753061065E+03  0.00000000000E+00 0.  1.
          2    1    1    2  501    0 -0.22810018798E+02 -0.39925929897E+02 -0.18813961363E+03  0.19367728584E+03  0.00000000000E+00 0.  1.
          1    1    1    2  502    0  0.27812329052E+02  0.41797573705E+02 -0.44167724773E+03  0.44452148877E+03  0.00000000000E+00 0.  1.
         22    1    1    2    0    0  0.15854295521E+02  0.88944139710E+01  0.41588492678E+02  0.45388016145E+02  0.00000000000E+00 0. -1.
         22    1    1    2    0    0 -0.20856605775E+02 -0.10766057778E+02 -0.79935682405E+02  0.83310379462E+02  0.00000000000E+00 0. -1.
</event>
<event>
 6    1  0.3240171E-005  0.1295982E+03  0.7818608E-02  0.1260474E+00
          2   -1    0    0  502    0  0.00000000000E+00  0.00000000000E+00  0.11128312891E+03  0.11128312891E+03  0.00000000000E+00 0.  1.
          1   -1    0    0  501    0 -0.00000000000E+00 -0.00000000000E+00 -0.30535858077E+03  0.30535858077E+03  0.00000000000E+00 0.  1.
          2    1    1    2  501    0  0.42633116180E+02 -0.11180872194E+03 -0.24035588573E+02  0.12205114672E+03  0.00000000000E+00 0.  1.
          1    1    1    2  502    0 -0.35452839071E+02  0.97946016666E+02 -0.12414268511E+03  0.16205471991E+03  0.00000000000E+00 0.  1.
         22    1    1    2    0    0 -0.76225832103E+01 -0.53524838845E+02 -0.34647834246E+02  0.64214364173E+02  0.00000000000E+00 0.  1.
         22    1    1    2    0    0  0.44230610105E+00  0.67387544121E+02 -0.11249343924E+02  0.68321478878E+02  0.00000000000E+00 0. -1.
</event>
<event>
 6    1  0.3240171E-005  0.2110197E+03  0.7818608E-02  0.1282179E+00
          2   -1    0    0  502    0  0.00000000000E+00  0.00000000000E+00  0.15920440068E+03  0.15920440068E+03  0.00000000000E+00 0. -1.
          1   -1    0    0  501    0 -0.00000000000E+00 -0.00000000000E+00 -0.18143424082E+03  0.18143424082E+03  0.00000000000E+00 0.  1.
          2    1    1    2  501    0  0.21884614835E+02  0.92971442088E+02 -0.17297874165E+02  0.97066172589E+02  0.00000000000E+00 0. -1.
          1    1    1    2  502    0 -0.45314776145E+02  0.16309222276E+02 -0.51458693484E+02  0.70479903543E+02  0.00000000000E+00 0.  1.
         22    1    1    2    0    0  0.33084346076E+02 -0.11277849512E+03 -0.78136246429E+01  0.11779055840E+03  0.00000000000E+00 0. -1.
         22    1    1    2    0    0 -0.96541847653E+01  0.34978307597E+01  0.54340352150E+02  0.55302006974E+02  0.00000000000E+00 0. -1.
</event>
<event>
 6    1  0.3240171E-005  0.2061997E+03  0.7818608E-02  0.1207358E+00
          2   -1    0    0  502    0  0.00000000000E+00  0.00000000000E+00  0.89212282702E+02  0.89212282702E+02  0.00000000000E+00 0.  1.
          1   -1    0    0  501    0 -0.00000000000E+00 -0.00000000000E+00 -0.10738559963E+04  0.10738559963E+04  0.00000000000E+00 0. -1.
          2    1    1    2  501    0 -0.13318554658E+03 -0.55524116731E+02 -0.11529615192E+03  0.18470116406E+03  0.00000000000E+00 0.  1.
          1    1    1    2  502    0  0.18855928618E+03  0.11800394291E+02 -0.79746269681E+03  0.81953682438E+03  0.00000000000E+00 0. -1.
         22    1    1    2    0    0  0.33168689960E+02  0.37110456775E+02 -0.42064734126E+02  0.65167398696E+02  0.00000000000E+00 0. -1.
         22    1    1    2    0    0 -0.88542429557E+02  0.66132656654E+01 -0.29820130732E+02  0.93662891859E+02  0.00000000000E+00 0.  1.
</event>
<event>
 6    1  0.3240171E-005  0.8631552E+02  0.7818608E-02  0.1328954E+00
          2   -1    0    0  502    0  0.00000000000E+00  0.00000000000E+00  0.27490727539E+03  0.27490727539E+03  0.00000000000E+00 0. -1.
          1   -1    0    0  501    0 -0.00000000000E+00 -0.00000000000E+00 -0.12072001156E+03  0.12072001156E+03  0.00000000000E+00 0.  1.
          2    1    1    2  501    0 -0.77347998658E+02 -0.31016400030E+02 -0.74980156296E+01  0.83671681026E+02  0.00000000000E+00 0. -1.
          1    1    1    2  502    0  0.75126138677E+02 -0.15092699053E+02 -0.28188116097E+02  0.81647389220E+02  0.00000000000E+00 0.  1.
         22    1    1    2    0    0 -0.71215470739E+01 -0.17005923170E+02 -0.96656207322E+01  0.20816870075E+02  0.00000000000E+00 0. -1.
         22    1    1    2    0    0  0.93434070552E+01  0.63115022254E+02  0.19953901630E+03  0.20949134663E+03  0.00000000000E+00 0. -1.
</event>
<event>
 6    1  0.3240171E-005  0.7285362E+02  0.7818608E-02  0.1353622E+00
          2   -1    0    0  502    0  0.00000000000E+00  0.00000000000E+00  0.23083993237E+03  0.23083993237E+03  0.00000000000E+00 0.  1.
          1   -1    0    0  501    0 -0.00000000000E+00 -0.00000000000E+00 -0.18391130755E+03  0.18391130755E+03  0.00000000000E+00 0. -1.
          2    1    1    2  501    0  0.21874980664E+02  0.29020937544E+01  0.11649934841E+02  0.24953114215E+02  0.00000000000E+00 0.  1.
          1    1    1    2  502    0 -0.56817823920E+01 -0.27527409824E+02 -0.15791378341E+03  0.16039577281E+03  0.00000000000E+00 0. -1.
         22    1    1    2    0    0  0.40913304394E+02 -0.21083626258E+02  0.46190416130E+02  0.65207149262E+02  0.00000000000E+00 0.  1.
         22    1    1    2    0    0 -0.57106502666E+02  0.45708942327E+02  0.14700205727E+03  0.16419520363E+03  0.00000000000E+00 0.  1.
</event>
<event>
 6    1  0.3240171E-005  0.1073779E+03  0.7818608E-02  0.1329485E+00
          2   -1    0    0  502    0  0.00000000000E+00  0.00000000000E+00  0.87497431322E+02  0.87497431322E+02  0.00000000000E+00 0. -1.
          1   -1    0    0  501    0 -0.00000000000E+00 -0.00000000000E+00 -0.27496723364E+03  0.27496723364E+03  0.00000000000E+00 0. -1.
          2    1    1    2  501    0 -0.16538497360E+02 -0.16608161950E+02  0.87412368402E+01  0.25015238552E+02  0.00000000000E+00 0. -1.
          1    1    1    2  502    0  0.87734789864E+02  0.31627117332E+02 -0.16904991832E+03  0.19306875145E+03  0.00000000000E+00 0. -1.
         22    1    1    2    0    0  0.21870752553E+02  0.24486845738E+02  0.13375931019E+02  0.35452093902E+02  0.00000000000E+00 0. -1.
         22    1    1    2    0    0 -0.93067045057E+02 -0.39505801119E+02 -0.40537051858E+02  0.10892858106E+03  0.00000000000E+00 0. -1.
</event>
<event>
 6    1  0.3240171E-005  0.1069346E+03  0.7818608E-02  0.1322523E+00
          2   -1    0    0  502    0  0.00000000000E+00  0.00000000000E+00  0.22443138925E+03  0.22443138925E+03  0.00000000000E+00 0.  1.
          1   -1    0    0  501    0 -0.00000000000E+00 -0.00000000000E+00 -0.37784632205E+03  0.37784632205E+03  0.00000000000E+00 0.  1.
          2    1    1    2  501    0  0.21135151277E+01  0.31496777672E+02  0.23522694400E+02  0.39367894302E+02  0.00000000000E+00 0.  1.
          1    1    1    2  502    0 -0.70396932231E+02 -0.63511246757E+02 -0.33433570480E+03  0.34751945275E+03  0.00000000000E+00 0.  1.
         22    1    1    2    0    0  0.25950964233E+02 -0.27211346425E+02 -0.45072413206E+01  0.37871165063E+02  0.00000000000E+00 0.  1.
         22    1    1    2    0    0  0.42332452870E+02  0.59225815510E+02  0.16190531892E+03  0.17751919919E+03  0.00000000000E+00 0.  1.
</event>
<event>
 6    1  0.3240171E-005  0.1506032E+03  0.7818608E-02  0.1250511E+00
          2   -1    0    0  502    0  0.00000000000E+00  0.00000000000E+00  0.60076706371E+03  0.60076706371E+03  0.00000000000E+00 0.  1.
          1   -1    0    0  501    0 -0.00000000000E+00 -0.00000000000E+00 -0.10874502504E+03  0.10874502504E+03  0.00000000000E+00 0.  1.
          2    1    1    2  501    0  0.19975958978E+02  0.27178482074E+02  0.12829880401E+02  0.36087596983E+02  0.00000000000E+00 0.  1.
          1    1    1    2  502    0 -0.12419752739E+02 -0.34737706218E+02 -0.86907947573E+02  0.94413716391E+02  0.00000000000E+00 0.  1.
         22    1    1    2    0    0 -0.57860280001E+02 -0.21009133390E+02  0.34611471338E+03  0.35154600056E+03  0.00000000000E+00 0.  1.
         22    1    1    2    0    0  0.50304073762E+02  0.28568357534E+02  0.21998539246E+03  0.22746477482E+03  0.00000000000E+00 0.  1.
</event>
<event>
 6    1  0.3240171E-005  0.1425102E+03  0.7818608E-02  0.1213953E+00
          2   -1    0    0  502    0  0.00000000000E+00  0.00000000000E+00  0.27227993043E+03  0.27227993043E+03  0.00000000000E+00 0. -1.
          1   -1    0    0  501    0 -0.00000000000E+00 -0.00000000000E+00 -0.78913079718E+03  0.78913079718E+03  0.00000000000E+00 0. -1.
          2    1    1    2  501    0  0.12807803573E+03 -0.33949756334E+02 -0.16903700338E+03  0.21477913702E+03  0.00000000000E+00 0. -1.
          1    1    1    2  502    0 -0.55611253888E+02  0.12252242783E+03 -0.55874202768E+03  0.57471472087E+03  0.00000000000E+00 0. -1.
         22    1    1    2    0    0  0.22801854673E+02  0.13220558235E+01 -0.90459484944E+00  0.22858055472E+02  0.00000000000E+00 0. -1.
         22    1    1    2    0    0 -0.95268636510E+02 -0.89894727323E+02  0.21183275916E+03  0.24905881425E+03  0.00000000000E+00 0. -1.
</event>
<event>
 6    1  0.3240171E-005  0.8188943E+02  0.7818608E-02  0.1343655E+00
          2   -1    0    0  502    0  0.00000000000E+00  0.00000000000E+00  0.40067954956E+03  0.40067954956E+03  0.00000000000E+00 0. -1.
          1   -1    0    0  501    0 -0.00000000000E+00 -0.00000000000E+00 -0.89680250432E+03  0.89680250432E+03  0.00000000000E+00 0.  1.
          2    1    1    2  501    0 -0.37056467880E+00  0.47820889544E+02  0.87470192553E+02  0.99689565052E+02  0.00000000000E+00 0. -1.
          1    1    1    2  502    0  0.44690549104E+02 -0.37047992247E+02 -0.87483142162E+03  0.87675527667E+03  0.00000000000E+00 0.  1.
         22    1    1    2    0    0 -0.56739290658E+02 -0.23434217011E+02  0.29630085329E+03  0.30259330014E+03  0.00000000000E+00 0.  1.
         22    1    1    2    0    0  0.12419306233E+02  0.12661319714E+02 -0.50625789848E+01  0.18443912009E+02  0.00000000000E+00 0.  1.
</event>
<event>
 6    1  0.3240171E-005  0.2228265E+03  0.7818608E-02  0.1258976E+00
          2   -1    0    0  502    0  0.00000000000E+00  0.00000000000E+00  0.10207562754E+03  0.10207562754E+03  0.00000000000E+00 0. -1.
          1   -1    0    0  501    0 -0.00000000000E+00 -0.00000000000E+00 -0.94308056666E+03  0.94308056666E+03  0.00000000000E+00 0. -1.
          2    1    1    2  501    0 -0.78243730685E+02  0.80405544120E+02 -0.51029105648E+02  0.12325219081E+03  0.00000000000E+00 0. -1.
          1    1    1    2  502    0  0.15544591045E+03 -0.14852126909E+03 -0.70462693958E+03  0.73669608553E+03  0.00000000000E+00 0. -1.
         22    1    1    2    0    0 -0.80323521851E+02  0.54822577412E+02 -0.11616734095E+03  0.15149994805E+03  0.00000000000E+00 0.  1.
         22    1    1    2    0    0  0.31213420912E+01  0.13293147558E+02  0.30818447066E+02  0.33707969799E+02  0.00000000000E+00 0.  1.
</event>
<event>
 6    1  0.3240171E-005  0.2782286E+03  0.7818608E-02  0.1128639E+00
          2   -1    0    0  502    0  0.00000000000E+00  0.00000000000E+00  0.31405539358E+03  0.31405539358E+03  0.00000000000E+00 0. -1.
          1   -1    0    0  501    0 -0.00000000000E+00 -0.00000000000E+00 -0.91843073424E+03  0.91843073424E+03  0.00000000000E+00 0. -1.
          2    1    1    2  501    0  0.22458813186E+03 -0.47788876523E+00  0.43510269093E+02  0.22876450963E+03  0.00000000000E+00 0. -1.
          1    1    1    2  502    0 -0.23415095430E+03  0.12779855326E+03 -0.75045742527E+03  0.79645808851E+03  0.00000000000E+00 0. -1.
         22    1    1    2    0    0  0.49386443113E+02 -0.10229489402E+02  0.55337706626E+02  0.74872725284E+02  0.00000000000E+00 0. -1.
         22    1    1    2    0    0 -0.39823620671E+02 -0.11709117509E+03  0.47234108886E+02  0.13239080440E+03  0.00000000000E+00 0.  1.
</event>
<event>
 6    1  0.3240171E-005  0.1172171E+03  0.7818608E-02  0.1307503E+00
          2   -1    0    0  502    0  0.00000000000E+00  0.00000000000E+00  0.22151265315E+03  0.22151265315E+03  0.00000000000E+00 0. -1.
          1   -1    0    0  501    0 -0.00000000000E+00 -0.00000000000E+00 -0.47517421989E+03  0.47517421989E+03  0.00000000000E+00 0. -1.
          2    1    1    2  501    0  0.42699367564E+02 -0.11573287628E+03 -0.37502946532E+02  0.12893333797E+03  0.00000000000E+00 0. -1.
          1    1    1    2  502    0 -0.31104152315E+02  0.10327864037E+03 -0.36016087785E+03  0.37596516299E+03  0.00000000000E+00 0. -1.
         22    1    1    2    0    0 -0.41469852600E+01 -0.24213161569E+02 -0.14771938636E+02  0.28665045804E+02  0.00000000000E+00 0. -1.
         22    1    1    2    0    0 -0.74482299900E+01  0.36667397473E+02  0.15877419628E+03  0.16312332627E+03  0.00000000000E+00 0. -1.
</event>
<event>
 6    1  0.3240171E-005  0.2869498E+03  0.7818608E-02  0.1181106E+00
          2   -1    0    0  502    0  0.00000000000E+00  0.00000000000E+00  0.11176545189E+03  0.11176545189E+03  0.00000000000E+00 0. -1.
          1   -1    0    0  501    0 -0.00000000000E+00 -0.00000000000E+00 -0.55944454355E+03  0.55944454355E+03  0.00000000000E+00 0. -1.
          2    1    1    2  501    0  0.16563254761E+03 -0.20697216104E+02 -0.91968119393E+02  0.19057977481E+03  0.00000000000E+00 0. -1.
          1    1    1    2  502    0 -0.15320716297E+03  0.80409713735E+02 -0.13117505916E+03  0.21712911595E+03  0.00000000000E+00 0. -1.
         22    1    1    2    0    0  0.78017692686E+01  0.31910567544E+02 -0.19972879007E+02  0.38445647615E+02  0.00000000000E+00 0. -1.
         22    1    1    2    0    0 -0.20227153912E+02 -0.91623065175E+02 -0.20456303411E+03  0.22505545705E+03  0.00000000000E+00 0.  1.
</event>
<event>
 6    1  0.3240171E-005  0.5443448E+03  0.7818608E-02  0.1107082E+00
          2   -1    0    0  502    0  0.00000000000E+00  0.00000000000E+00  0.49657545937E+03  0.49657545937E+03  0.00000000000E+00 0.  1.
          1   -1    0    0  501    0 -0.00000000000E+00 -0.00000000000E+00 -0.79863183136E+03  0.79863183136E+03  0.00000000000E+00 0. -1.
          2    1    1    2  501    0  0.14128012015E+03 -0.53177201440E+02 -0.85012461164E+02  0.17324839294E+03  0.00000000000E+00 0.  1.
          1    1    1    2  502    0 -0.40885408744E+03  0.56955551826E+02 -0.54372336406E+03  0.68267173394E+03  0.00000000000E+00 0. -1.
         22    1    1    2    0    0  0.25255870513E+03  0.20299321168E+02  0.32323152086E+03  0.41070254206E+03  0.00000000000E+00 0.  1.
         22    1    1    2    0    0  0.15015262160E+02 -0.24077671555E+02  0.34479323749E+01  0.28584621790E+02  0.00000000000E+00 0.  1.
</event>
<event>
 6    1  0.3240171E-005  0.8531238E+02  0.7818608E-02  0.1319919E+00
          2   -1    0    0  502    0  0.00000000000E+00  0.00000000000E+00  0.21100000667E+03  0.21100000667E+03  0.00000000000E+00 0. -1.
          1   -1    0    0  501    0 -0.00000000000E+00 -0.00000000000E+00 -0.23142598584E+04  0.23142598584E+04  0.00000000000E+00 0.  1.
          2    1    1    2  501    0  0.46430918396E+02 -0.32825221422E+01  0.70437936159E+02  0.84428123188E+02  0.00000000000E+00 0. -1.
          1    1    1    2  502    0 -0.31327360478E+02 -0.20220679041E+01 -0.22778335077E+04  0.22780498197E+04  0.00000000000E+00 0.  1.
         22    1    1    2    0    0  0.37871622992E+02  0.30107831778E+02  0.90650571458E+02  0.10275343044E+03  0.00000000000E+00 0.  1.
         22    1    1    2    0    0 -0.52975180910E+02 -0.24803241732E+02  0.13485148357E+02  0.60028491727E+02  0.00000000000E+00 0. -1.
</event>
<event>
 6    1  0.3240171E-005  0.2329303E+03  0.7818608E-02  0.1218572E+00
          2   -1    0    0  502    0  0.00000000000E+00  0.00000000000E+00  0.21588439855E+03  0.21588439855E+03  0.00000000000E+00 0. -1.
          1   -1    0    0  501    0 -0.00000000000E+00 -0.00000000000E+00 -0.79531092772E+03  0.79531092772E+03  0.00000000000E+00 0.  1.
          2    1    1    2  501    0 -0.17712828508E+02 -0.33401576795E+02  0.45609854013E+02  0.59242454450E+02  0.00000000000E+00 0. -1.
          1    1    1    2  502    0  0.91310624032E+02  0.20007348476E+03 -0.68827525256E+03  0.72255785419E+03  0.00000000000E+00 0.  1.
         22    1    1    2    0    0 -0.20178091104E+02 -0.18251346629E+02  0.66255942762E+02  0.71624834839E+02  0.00000000000E+00 0.  1.
         22    1    1    2    0    0 -0.53419704419E+02 -0.14842056133E+03 -0.30170733818E+01  0.15777018279E+03  0.00000000000E+00 0.  1.
</event>
<event>
 6    1  0.3240171E-005  0.1222418E+03  0.7818608E-02  0.1305140E+00
          2   -1    0    0  502    0  0.00000000000E+00  0.00000000000E+00  0.38135348438E+03  0.38135348438E+03  0.00000000000E+00 0.  1.
          1   -1    0    0  501    0 -0.00000000000E+00 -0.00000000000E+00 -0.50848467499E+02  0.50848467499E+02  0.00000000000E+00 0.  1.
          2    1    1    2  501    0 -0.50157600083E+02 -0.11297975715E+02  0.31608333195E+02  0.60353258642E+02  0.00000000000E+00 0.  1.
          1    1    1    2  502    0 -0.41130461890E+02  0.23509244914E+02  0.14347959353E+03  0.15109862095E+03  0.00000000000E+00 0.  1.
         22    1    1    2    0    0  0.30033623163E+02  0.16861346315E+02  0.14867456361E+03  0.15261208794E+03  0.00000000000E+00 0.  1.
         22    1    1    2    0    0  0.61254438810E+02 -0.29072615513E+02  0.67425265363E+01  0.68137984347E+02  0.00000000000E+00 0.  1.
</event>
<event>
 6    1  0.3240171E-005  0.1307398E+03  0.7818608E-02  0.1250379E+00
          2   -1    0    0  502    0  0.00000000000E+00  0.00000000000E+00  0.49610510149E+03  0.49610510149E+03  0.00000000000E+00 0. -1.
          1   -1    0    0  501    0 -0.00000000000E+00 -0.00000000000E+00 -0.30821597333E+03  0.30821597333E+03  0.00000000000E+00 0.  1.
          2    1    1    2  501    0  0.31932579880E+02 -0.14195572290E+02 -0.64456257778E+01  0.35535194133E+02  0.00000000000E+00 0. -1.
          1    1    1    2  502    0  0.38573090265E+02  0.87170403676E+01 -0.27535911256E+03  0.27818431112E+03  0.00000000000E+00 0.  1.
         22    1    1    2    0    0 -0.59778092490E+02  0.58194022564E+02  0.34220228900E+03  0.35222488726E+03  0.00000000000E+00 0. -1.
         22    1    1    2    0    0 -0.10727577654E+02 -0.52715490641E+02  0.12749157749E+03  0.13837668231E+03  0.00000000000E+00 0. -1.
</event>
<event>
 6    1  0.3240171E-005  0.1047246E+03  0.7818608E-02  0.1368771E+00
          2   -1    0    0  502    0  0.00000000000E+00  0.00000000000E+00  0.30409400241E+02  0.30409400241E+02  0.00000000000E+00 0.  1.
          1   -1    0    0  501    0 -0.00000000000E+00 -0.00000000000E+00 -0.73283835111E+03  0.73283835111E+03  0.00000000000E+00 0.  1.
          2    1    1    2  501    0  0.47307399403E+00 -0.24749413449E+02 -0.85725478799E+02  0.89227882303E+02  0.00000000000E+00 0.  1.
          1    1    1    2  502    0 -0.68819167118E+02  0.74110092502E+02 -0.38683072710E+03  0.39983295887E+03  0.00000000000E+00 0.  1.
         22    1    1    2    0    0  0.15373410472E+02  0.95259248851E+01  0.10629158519E+02  0.20977702574E+02  0.00000000000E+00 0.  1.
         22    1    1    2    0    0  0.52972682652E+02 -0.58886603937E+02 -0.24050190349E+03  0.25320920760E+03  0.00000000000E+00 0.  1.
</event>
<event>
 6    1  0.3240171E-005  0.1273291E+03  0.7818608E-02  0.1242099E+00
          2   -1    0    0  502    0  0.00000000000E+00  0.00000000000E+00  0.17411797231E+03  0.17411797231E+03  0.00000000000E+00 0.  1.
          1   -1    0    0  501    0 -0.00000000000E+00 -0.00000000000E+00 -0.12238708745E+04  0.12238708745E+04  0.00000000000E+00 0.  1.
          2    1    1    2  501    0  0.91002797031E+02  0.22932357189E+02  0.61246542996E+02  0.11206489684E+03  0.00000000000E+00 0.  1.
          1    1    1    2  502    0 -0.21666843631E+02  0.41395275924E+00 -0.11358209854E+04  0.11360276996E+04  0.00000000000E+00 0.  1.
         22    1    1    2    0    0  0.18998210375E+02 -0.32711527465E+02  0.45016642510E+02  0.58800290216E+02  0.00000000000E+00 0.  1.
         22    1    1    2    0    0 -0.88334163775E+02  0.93652175166E+01 -0.20195102264E+02  0.91095960088E+02  0.00000000000E+00 0. -1.
</event>
<event>
 6    1  0.3240171E-005  0.9931533E+02  0.7818608E-02  0.1303048E+00
          2   -1    0    0  502    0  0.00000000000E+00  0.00000000000E+00  0.39012505800E+03  0.39012505800E+03  0.00000000000E+00 0. -1.
          1   -1    0    0  501    0 -0.00000000000E+00 -0.00000000000E+00 -0.13953620044E+03  0.13953620044E+03  0.00000000000E+00 0. -1.
          2    1    1    2  501    0 -0.68460357801E+02  0.21141423928E+01 -0.10310816494E+02  0.69264732188E+02  0.00000000000E+00 0. -1.
          1    1    1    2  502    0  0.11245079659E+03  0.49599238738E+02 -0.39042325739E+02  0.12895568749E+03  0.00000000000E+00 0. -1.
         22    1    1    2    0    0 -0.28762615797E+02 -0.60219322705E+02  0.30583373776E+03  0.31303023823E+03  0.00000000000E+00 0. -1.
         22    1    1    2    0    0 -0.15227822993E+02  0.85059415741E+01 -0.58917379704E+01  0.18410600519E+02  0.00000000000E+00 0.  1.
</event>
<event>
 6    1  0.3240171E-005  0.1062578E+03  0.7818608E-02  0.1269052E+00
          2   -1    0    0  502    0  0.00000000000E+00  0.00000000000E+00  0.41902600164E+03  0.41902600164E+03  0.00000000000E+00 0. -1.
          1   -1    0    0  501    0 -0.00000000000E+00 -0.00000000000E+00 -0.14002515792E+04  0.14002515792E+04  0.00000000000E+00 0. -1.
          2    1    1    2  501    0  0.72771840972E+02 -0.18944346823E+02  0.15050150915E+03  0.16824188946E+03  0.00000000000E+00 0. -1.
          1    1    1    2  502    0 -0.99152696106E+01  0.56033726222E+02 -0.13713681919E+04  0.13725482902E+04  0.00000000000E+00 0. -1.
         22    1    1    2    0    0  0.34284696116E+02  0.72841315030E+01  0.61481949968E+02  0.70770962488E+02  0.00000000000E+00 0. -1.
         22    1    1    2    0    0 -0.97141267477E+02 -0.44373510902E+02  0.17815915525E+03  0.20771643872E+03  0.00000000000E+00 0. -1.
</event>
<event>
 6    1  0.3240171E-005  0.1821924E+03  0.7818608E-02  0.1215964E+00
          2   -1    0    0  502    0  0.00000000000E+00  0.00000000000E+00  0.15689429195E+03  0.15689429195E+03  0.00000000000E+00 0.  1.
          1   -1    0    0  501    0 -0.00000000000E+00 -0.00000000000E+00 -0.10534224703E+04  0.10534224703E+04  0.00000000000E+00 0.  1.
          2    1    1    2  501    0 -0.97877280229E+02  0.42226466921E+02 -0.36749070452E+02  0.11275429337E+03  0.00000000000E+00 0.  1.
          1    1    1    2  502    0  0.15382161992E+03 -0.66478763088E+02 -0.92858168226E+03  0.94358065756E+03  0.00000000000E+00 0.  1.
         22    1    1    2    0    0 -0.42412176569E+02 -0.34276179983E+02 -0.94356021663E+01  0.55341483751E+02  0.00000000000E+00 0. -1.
         22    1    1    2    0    0 -0.13532163123E+02  0.58528476150E+02  0.78238176520E+02  0.98640327577E+02  0.00000000000E+00 0.  1.
</event>
<event>
 6    1  0.3451875E-005  0.8341871E+02  0.7818608E-02  0.1399985E+00
          2   -1    0    0  502    0  0.00000000000E+00  0.00000000000E+00  0.13078642143E+03  0.13078642143E+03  0.00000000000E+00 0.  1.
          1   -1    0    0  501    0 -0.00000000000E+00 -0.00000000000E+00 -0.16849440663E+04  0.16849440663E+04  0.00000000000E+00 0.  1.
          2    1    1    2  501    0  0.42596508595E+02 -0.64231795698E+02 -0.11316655205E+03  0.13691915361E+03  0.00000000000E+00 0.  1.
          1    1    1    2  502    0 -0.49302557624E+02  0.63792836167E+02 -0.15266365311E+04  0.15287639995E+04  0.00000000000E+00 0.  1.
         22    1    1    2    0    0  0.34375236275E+01 -0.20888476374E+02 -0.27589340190E+02  0.34775231215E+02  0.00000000000E+00 0. -1.
         22    1    1    2    0    0  0.32685254014E+01  0.21327435906E+02  0.11323477843E+03  0.11527210342E+03  0.00000000000E+00 0.  1.
</event>
<event>
 6    1  0.3240171E-005  0.1812681E+03  0.7818608E-02  0.1228358E+00
          2   -1    0    0  502    0  0.00000000000E+00  0.00000000000E+00  0.18276511906E+03  0.18276511906E+03  0.00000000000E+00 0. -1.
          1   -1    0    0  501    0 -0.00000000000E+00 -0.00000000000E+00 -0.40361759661E+03  0.40361759661E+03  0.00000000000E+00 0. -1.
          2    1    1    2  501    0 -0.10606975947E+03  0.13280220130E+03 -0.24717990026E+03  0.29997520170E+03  0.00000000000E+00 0. -1.
          1    1    1    2  502    0  0.94390491269E+02 -0.11426470164E+03 -0.22465544222E+02  0.14990226003E+03  0.00000000000E+00 0. -1.
         22    1    1    2    0    0 -0.55499742887E+01  0.25259826069E+02 -0.33127730432E+02  0.42027461870E+02  0.00000000000E+00 0. -1.
         22    1    1    2    0    0  0.17229242490E+02 -0.43797325721E+02  0.81920697365E+02  0.94477792067E+02  0.00000000000E+00 0. -1.
</event>
<event>
 6    1  0.3309149E-005  0.5077436E+02  0.7818608E-02  0.1528526E+00
          2   -1    0    0  502    0  0.00000000000E+00  0.00000000000E+00  0.74911288000E+02  0.74911288000E+02  0.00000000000E+00 0. -1.
          1   -1    0    0  501    0 -0.00000000000E+00 -0.00000000000E+00 -0.12634186590E+04  0.12634186590E+04  0.00000000000E+00 0. -1.
          2    1    1    2  501    0  0.39398204314E+02  0.11149936160E+02 -0.20844730526E+03  0.21243073848E+03  0.00000000000E+00 0. -1.
          1    1    1    2  502    0 -0.37676692623E+02 -0.31774387091E+02 -0.99354087439E+03  0.99476259174E+03  0.00000000000E+00 0. -1.
         22    1    1    2    0    0  0.69629784323E+01  0.85224052313E+01 -0.57533655006E+02  0.58576752367E+02  0.00000000000E+00 0. -1.
         22    1    1    2    0    0 -0.86844901239E+01  0.12102045700E+02  0.71014463645E+02  0.72559864426E+02  0.00000000000E+00 0. -1.
</event>
<event>
 6    1  0.3240171E-005  0.4803482E+02  0.7818608E-02  0.1461527E+00
          2   -1    0    0  502    0  0.00000000000E+00  0.00000000000E+00  0.13088026828E+03  0.13088026828E+03  0.00000000000E+00 0. -1.
          1   -1    0    0  501    0 -0.00000000000E+00 -0.00000000000E+00 -0.19330798313E+03  0.19330798313E+03  0.00000000000E+00 0.  1.
          2    1    1    2  501    0 -0.22165478064E+02  0.85900521639E+01  0.35965736922E+02  0.43111850416E+02  0.00000000000E+00 0. -1.
          1    1    1    2  502    0  0.67711528840E+00 -0.48030042466E+02 -0.13596217619E+03  0.14419797786E+03  0.00000000000E+00 0.  1.
         22    1    1    2    0    0 -0.20645528153E+02  0.84692905207E+01  0.71260263767E+02  0.74672564619E+02  0.00000000000E+00 0. -1.
         22    1    1    2    0    0  0.42133890928E+02  0.30970699781E+02 -0.33691539346E+02  0.62205858512E+02  0.00000000000E+00 0.  1.
</event>
<event>
 6    1  0.3240171E-005  0.2192336E+03  0.7818608E-02  0.1221917E+00
          2   -1    0    0  502    0  0.00000000000E+00  0.00000000000E+00  0.37073090323E+03  0.37073090323E+03  0.00000000000E+00 0. -1.
          1   -1    0    0  501    0 -0.00000000000E+00 -0.00000000000E+00 -0.55374300252E+03  0.55374300252E+03  0.00000000000E+00 0. -1.
          2    1    1    2  501    0  0.70824852423E+02 -0.23441794529E+01  0.20380717529E+02  0.73736209186E+02  0.00000000000E+00 0. -1.
          1    1    1    2  502    0 -0.35164575963E+02  0.83716483968E+02 -0.50361253316E+03  0.51173291926E+03  0.00000000000E+00 0. -1.
         22    1    1    2    0    0 -0.51928190192E+02 -0.10707742777E+03  0.27443613558E+03  0.29912757310E+03  0.00000000000E+00 0. -1.
         22    1    1    2    0    0  0.16267913733E+02  0.25705123254E+02  0.25783580765E+02  0.39877204212E+02  0.00000000000E+00 0. -1.
</event>
<event>
 6    1  0.3240171E-005  0.3854059E+03  0.7818608E-02  0.1147119E+00
          2   -1    0    0  502    0  0.00000000000E+00  0.00000000000E+00  0.27395102032E+03  0.27395102032E+03  0.00000000000E+00 0. -1.
          1   -1    0    0  501    0 -0.00000000000E+00 -0.00000000000E+00 -0.15076732770E+04  0.15076732770E+04  0.00000000000E+00 0.  1.
          2    1    1    2  501    0 -0.31729867781E+02 -0.11763323155E+03 -0.12184567833E+03  0.17230998521E+03  0.00000000000E+00 0. -1.
          1    1    1    2  502    0  0.12103219254E+03  0.62341605897E+02 -0.13300984916E+04  0.13370479665E+04  0.00000000000E+00 0.  1.
         22    1    1    2    0    0 -0.11879363748E+03  0.59161757146E+02  0.18495911219E+03  0.22764427292E+03  0.00000000000E+00 0. -1.
         22    1    1    2    0    0  0.29491312712E+02 -0.38701314894E+01  0.33262800999E+02  0.44622072717E+02  0.00000000000E+00 0.  1.
</event>
<event>
 6    1  0.3240171E-005  0.1848449E+03  0.7818608E-02  0.1206216E+00
          2   -1    0    0  502    0  0.00000000000E+00  0.00000000000E+00  0.81759533257E+02  0.81759533257E+02  0.00000000000E+00 0.  1.
          1   -1    0    0  501    0 -0.00000000000E+00 -0.00000000000E+00 -0.55917056190E+03  0.55917056190E+03  0.00000000000E+00 0.  1.
          2    1    1    2  501    0 -0.34397828302E+02 -0.76400106312E+02 -0.34659564855E+03  0.35657920639E+03  0.00000000000E+00 0.  1.
          1    1    1    2  502    0  0.94375118388E+02  0.23254357351E+02 -0.75011559482E+02  0.12277687959E+03  0.00000000000E+00 0.  1.
         22    1    1    2    0    0  0.10063370171E+02  0.63537384946E+02 -0.63449020179E+02  0.90355126400E+02  0.00000000000E+00 0.  1.
         22    1    1    2    0    0 -0.70040660258E+02 -0.10391635985E+02  0.76451995635E+01  0.71218882778E+02  0.00000000000E+00 0.  1.
</event>
<event>
 6    1  0.3240171E-005  0.1271582E+03  0.7818608E-02  0.1276524E+00
          2   -1    0    0  502    0  0.00000000000E+00  0.00000000000E+00  0.12488267080E+03  0.12488267080E+03  0.00000000000E+00 0. -1.
          1   -1    0    0  501    0 -0.00000000000E+00 -0.00000000000E+00 -0.52252953527E+03  0.52252953527E+03  0.00000000000E+00 0. -1.
          2    1    1    2  501    0  0.32154217734E+02  0.54075464234E+01 -0.21416841624E+02  0.39010465026E+02  0.00000000000E+00 0. -1.
          1    1    1    2  502    0  0.18495541915E+02  0.37613652388E+02 -0.44691685855E+03  0.44887810190E+03  0.00000000000E+00 0. -1.
         22    1    1    2    0    0 -0.84621941593E+02  0.25968038193E+00  0.25661250615E+02  0.88427598724E+02  0.00000000000E+00 0. -1.
         22    1    1    2    0    0  0.33972181944E+02 -0.43280879194E+02  0.45025585093E+02  0.71096040416E+02  0.00000000000E+00 0.  1.
</event>
<event>
 6    1  0.3240171E-005  0.1109013E+03  0.7818608E-02  0.1359023E+00
          2   -1    0    0  502    0  0.00000000000E+00  0.00000000000E+00  0.35901565549E+02  0.35901565549E+02  0.00000000000E+00 0.  1.
          1   -1    0    0  501    0 -0.00000000000E+00 -0.00000000000E+00 -0.77632368163E+03  0.77632368163E+03  0.00000000000E+00 0.  1.
          2    1    1    2  501    0  0.28005159668E+02  0.50153788711E+02 -0.25641387209E+03  0.26276941468E+03  0.00000000000E+00 0.  1.
          1    1    1    2  502    0 -0.48357849436E+02 -0.87605975856E+02 -0.32855942420E+03  0.34345972666E+03  0.00000000000E+00 0.  1.
         22    1    1    2    0    0 -0.14278502023E+02 -0.10832127100E+02  0.16320415762E+02  0.24239772445E+02  0.00000000000E+00 0.  1.
         22    1    1    2    0    0  0.34631191791E+02  0.48284314245E+02 -0.17176923556E+03  0.18175633340E+03  0.00000000000E+00 0.  1.
</event>
<event>
 6    1  0.3240171E-005  0.1255599E+03  0.7818608E-02  0.1271544E+00
          2   -1    0    0  502    0  0.00000000000E+00  0.00000000000E+00  0.52035491125E+02  0.52035491125E+02  0.00000000000E+00 0. -1.
          1   -1    0    0  501    0 -0.00000000000E+00 -0.00000000000E+00 -0.76742429047E+03  0.76742429047E+03  0.00000000000E+00 0.  1.
          2    1    1    2  501    0 -0.37901383165E+02  0.42048132108E+01 -0.87903127218E+02  0.95818344145E+02  0.00000000000E+00 0. -1.
          1    1    1    2  502    0  0.20162323855E+02 -0.30653724729E+01 -0.59548219228E+03  0.59583131601E+03  0.00000000000E+00 0.  1.
         22    1    1    2    0    0  0.38267656550E+02 -0.36458702825E+02 -0.58714890349E+02  0.79000562645E+02  0.00000000000E+00 0.  1.
         22    1    1    2    0    0 -0.20528597239E+02  0.35319262087E+02  0.26711410502E+02  0.48809558798E+02  0.00000000000E+00 0. -1.
</event>
<event>
 6    1  0.3240171E-005  0.9166991E+02  0.7818608E-02  0.1334996E+00
          2   -1    0    0  502    0  0.00000000000E+00  0.00000000000E+00  0.21304518519E+03  0.21304518519E+03  0.00000000000E+00 0.  1.
          1   -1    0    0  501    0 -0.00000000000E+00 -0.00000000000E+00 -0.16720773471E+03  0.16720773471E+03  0.00000000000E+00 0.  1.
          2    1    1    2  501    0  0.61223818213E+01 -0.28789202731E+02  0.65464896132E+01  0.30152251646E+02  0.00000000000E+00 0.  1.
          1    1    1    2  502    0 -0.32938217281E+02 -0.13776613975E+02 -0.13016254549E+03  0.13497040231E+03  0.00000000000E+00 0.  1.
         22    1    1    2    0    0  0.51707908374E+02 -0.38770427485E+01  0.15041735290E+03  0.15910411466E+03  0.00000000000E+00 0.  1.
         22    1    1    2    0    0 -0.24892072915E+02  0.46442859455E+02  0.19036153453E+02  0.56026151275E+02  0.00000000000E+00 0.  1.
</event>
<event>
 6    1  0.3240171E-005  0.1131817E+03  0.7818608E-02  0.1301364E+00
          2   -1    0    0  502    0  0.00000000000E+00  0.00000000000E+00  0.42982280243E+02  0.42982280243E+02  0.00000000000E+00 0.  1.
          1   -1    0    0  501    0 -0.00000000000E+00 -0.00000000000E+00 -0.48936833741E+03  0.48936833741E+03  0.00000000000E+00 0.  1.
          2    1    1    2  501    0  0.38564437972E+02 -0.38949083124E+02 -0.36727448956E+02  0.65978424194E+02  0.00000000000E+00 0.  1.
          1    1    1    2  502    0 -0.34160141000E+02  0.32933331759E+02 -0.29193923085E+03  0.29577023867E+03  0.00000000000E+00 0.  1.
         22    1    1    2    0    0 -0.19158337345E+02 -0.42376728752E+02 -0.46596670092E+01  0.46739079219E+02  0.00000000000E+00 0.  1.
         22    1    1    2    0    0  0.14754040373E+02  0.48392480117E+02 -0.11305971035E+03  0.12386287556E+03  0.00000000000E+00 0.  1.
</event>
<event>
 6    1  0.3240171E-005  0.1933396E+03  0.7818608E-02  0.1188810E+00
          2   -1    0    0  502    0  0.00000000000E+00  0.00000000000E+00  0.29520967062E+03  0.29520967062E+03  0.00000000000E+00 0. -1.
          1   -1    0    0  501    0 -0.00000000000E+00 -0.00000000000E+00 -0.11079503472E+04  0.11079503472E+04  0.00000000000E+00 0.  1.
          2    1    1    2  501    0 -0.12062619860E+02 -0.11564627695E+03 -0.82970676020E+02  0.14284152495E+03  0.00000000000E+00 0. -1.
          1    1    1    2  502    0 -0.23716052232E+02  0.78034085193E+02 -0.97561702463E+03  0.97902009598E+03  0.00000000000E+00 0.  1.
         22    1    1    2    0    0 -0.44788228473E+02 -0.89508998406E+00  0.57808167309E+02  0.73133923752E+02  0.00000000000E+00 0.  1.
         22    1    1    2    0    0  0.80566900564E+02  0.38507281740E+02  0.18803885678E+03  0.20816447312E+03  0.00000000000E+00 0. -1.
</event>
<event>
 6    1  0.3240171E-005  0.1136972E+03  0.7818608E-02  0.1282332E+00
          2   -1    0    0  502    0  0.00000000000E+00  0.00000000000E+00  0.37545350282E+03  0.37545350282E+03  0.00000000000E+00 0. -1.
          1   -1    0    0  501    0 -0.00000000000E+00 -0.00000000000E+00 -0.17098953458E+03  0.17098953458E+03  0.00000000000E+00 0.  1.
          2    1    1    2  501    0  0.88254630458E+01  0.39340166398E+02  0.53253905054E+02  0.66794579823E+02  0.00000000000E+00 0. -1.
          1    1    1    2  502    0  0.19987519911E+02  0.36193311416E+01 -0.14830201565E+03  0.14968663386E+03  0.00000000000E+00 0.  1.
         22    1    1    2    0    0  0.42814349373E+02 -0.42189796888E+02  0.87347304244E+02  0.10603112294E+03  0.00000000000E+00 0. -1.
         22    1    1    2    0    0 -0.71627332329E+02 -0.76970065196E+00  0.21216477459E+03  0.22393070078E+03  0.00000000000E+00 0. -1.
</event>
<event>
 6    1  0.3240171E-005  0.1047036E+03  0.7818608E-02  0.1331506E+00
          2   -1    0    0  502    0  0.00000000000E+00  0.00000000000E+00  0.19634319483E+03  0.19634319483E+03  0.00000000000E+00 0. -1.
          1   -1    0    0  501    0 -0.00000000000E+00 -0.00000000000E+00 -0.10094851146E+03  0.10094851146E+03  0.00000000000E+00 0. -1.
          2    1    1    2  501    0 -0.20890962735E+01  0.21426856769E+02 -0.44187075205E+02  0.49152539399E+02  0.00000000000E+00 0. -1.
          1    1    1    2  502    0 -0.86049065307E+01 -0.72323832811E+02  0.36599121936E+02  0.81512434238E+02  0.00000000000E+00 0. -1.
         22    1    1    2    0    0 -0.33934210303E+02  0.40614490540E+01  0.95585622264E+02  0.10151175883E+03  0.00000000000E+00 0.  1.
         22    1    1    2    0    0  0.44628213107E+02  0.46835526988E+02  0.73970143739E+01  0.65114973816E+02  0.00000000000E+00 0. -1.
</event>
<event>
 6    1  0.3240171E-005  0.1497461E+03  0.7818608E-02  0.1251117E+00
          2   -1    0    0  502    0  0.00000000000E+00  0.00000000000E+00  0.24445593061E+03  0.24445593061E+03  0.00000000000E+00 0. -1.
          1   -1    0    0  501    0 -0.00000000000E+00 -0.00000000000E+00 -0.21258954377E+03  0.21258954377E+03  0.00000000000E+00 0. -1.
          2    1    1    2  501    0 -0.67991413482E+02  0.75338045812E+01 -0.21268291334E+02  0.71637495315E+02  0.00000000000E+00 0. -1.
          1    1    1    2  502    0  0.82740128409E+02 -0.27774404255E+02 -0.13229681239E+03  0.15849224886E+03  0.00000000000E+00 0. -1.
         22    1    1    2    0    0 -0.52140257526E+02  0.57194290839E+02  0.97710204484E+02  0.12464781354E+03  0.00000000000E+00 0.  1.
         22    1    1    2    0    0  0.37391542599E+02 -0.36953691165E+02  0.87721286077E+02  0.10226791667E+03  0.00000000000E+00 0. -1.
</event>
<event>
 6    1  0.3240171E-005  0.1073261E+03  0.7818608E-02  0.1362016E+00
          2   -1    0    0  502    0  0.00000000000E+00  0.00000000000E+00  0.71647344251E+02  0.71647344251E+02  0.00000000000E+00 0. -1.
          1   -1    0    0  501    0 -0.00000000000E+00 -0.00000000000E+00 -0.74479343243E+03  0.74479343243E+03  0.00000000000E+00 0. -1.
          2    1    1    2  501    0  0.32773226785E+02 -0.26425485257E+02 -0.29772951884E+02  0.51563740447E+02  0.00000000000E+00 0. -1.
          1    1    1    2  502    0 -0.91176135314E+02  0.43640283044E+02 -0.61988754702E+03  0.62807494211E+03  0.00000000000E+00 0. -1.
         22    1    1    2    0    0 -0.51180141770E+01 -0.18094803584E+02  0.41722768115E+02  0.45764673768E+02  0.00000000000E+00 0. -1.
         22    1    1    2    0    0  0.63520922706E+02  0.88000579749E+00 -0.65208357387E+02  0.91037420354E+02  0.00000000000E+00 0. -1.
</event>
<event>
 6    1  0.3240171E-005  0.6089304E+03  0.7818608E-02  0.1114878E+00
          2   -1    0    0  502    0  0.00000000000E+00  0.00000000000E+00  0.13271521646E+03  0.13271521646E+03  0.00000000000E+00 0.  1.
          1   -1    0    0  501    0 -0.00000000000E+00 -0.00000000000E+00 -0.20168039880E+04  0.20168039880E+04  0.00000000000E+00 0. -1.
          2    1    1    2  501    0  0.29495383039E+03 -0.66750655541E+01 -0.32434627707E+03  0.43845504445E+03  0.00000000000E+00 0.  1.
          1    1    1    2  502    0  0.21174973945E+02 -0.18234395504E+02 -0.12514739205E+04  0.12517858628E+04  0.00000000000E+00 0. -1.
         22    1    1    2    0    0 -0.30939588704E+01  0.16335526433E+02  0.39341311944E+01  0.17085063465E+02  0.00000000000E+00 0.  1.
         22    1    1    2    0    0 -0.31303484546E+03  0.85739346248E+01 -0.31220270521E+03  0.44219323375E+03  0.00000000000E+00 0.  1.
</event>
<event>
 6    1  0.3240171E-005  0.2354201E+03  0.7818608E-02  0.1223387E+00
          2   -1    0    0  502    0  0.00000000000E+00  0.00000000000E+00  0.96586770630E+03  0.96586770630E+03  0.00000000000E+00 0.  1.
          1   -1    0    0  501    0 -0.00000000000E+00 -0.00000000000E+00 -0.59196377889E+02  0.59196377889E+02  0.00000000000E+00 0.  1.
          2    1    1    2  501    0  0.43513330500E+01 -0.52082356322E+02  0.83041679620E+02  0.98119450128E+02  0.00000000000E+00 0.  1.
          1    1    1    2  502    0  0.15391590382E+03  0.11785223962E+03  0.25481695581E+03  0.32017329183E+03  0.00000000000E+00 0.  1.
         22    1    1    2    0    0  0.18433932834E+02 -0.15091800435E+02  0.10904058099E+03  0.11161281567E+03  0.00000000000E+00 0.  1.
         22    1    1    2    0    0 -0.17670116971E+03 -0.50678082864E+02  0.45977211199E+03  0.49515852655E+03  0.00000000000E+00 0.  1.
</event>
<event>
 6    1  0.3240171E-005  0.1526627E+03  0.7818608E-02  0.1256793E+00
          2   -1    0    0  502    0  0.00000000000E+00  0.00000000000E+00  0.55359678693E+03  0.55359678693E+03  0.00000000000E+00 0. -1.
          1   -1    0    0  501    0 -0.00000000000E+00 -0.00000000000E+00 -0.29752150555E+03  0.29752150555E+03  0.00000000000E+00 0. -1.
          2    1    1    2  501    0  0.48328955513E+02 -0.93734715552E+02  0.20609795198E+03  0.23151296001E+03  0.00000000000E+00 0. -1.
          1    1    1    2  502    0 -0.81255652811E+02  0.95843855879E+02 -0.25695560425E+03  0.28603270508E+03  0.00000000000E+00 0. -1.
         22    1    1    2    0    0 -0.40827384885E+02  0.17265509071E+02  0.56658016110E+02  0.71938195346E+02  0.00000000000E+00 0. -1.
         22    1    1    2    0    0  0.73754082183E+02 -0.19374649398E+02  0.25027491755E+03  0.26163443204E+03  0.00000000000E+00 0. -1.
</event>
<event>
 6    1  0.3240171E-005  0.1240920E+03  0.7818608E-02  0.1274442E+00
          2   -1    0    0  502    0  0.00000000000E+00  0.00000000000E+00  0.22974248911E+02  0.22974248911E+02  0.00000000000E+00 0.  1.
          1   -1    0    0  501    0 -0.00000000000E+00 -0.00000000000E+00 -0.74109865321E+03  0.74109865321E+03  0.00000000000E+00 0.  1.
          2    1    1    2  501    0 -0.11180941276E+02 -0.50051634232E+02 -0.24079163837E+03  0.24619259259E+03  0.00000000000E+00 0.  1.
          1    1    1    2  502    0  0.23735838857E+02  0.41445262462E+02 -0.29378537036E+03  0.29764230826E+03  0.00000000000E+00 0.  1.
         22    1    1    2    0    0  0.51012269985E+02  0.23049821465E+02 -0.95306328218E+02  0.11052982474E+03  0.00000000000E+00 0. -1.
         22    1    1    2    0    0 -0.63567167566E+02 -0.14443449695E+02 -0.88241067352E+02  0.10970817654E+03  0.00000000000E+00 0.  1.
</event>
<event>
 6    1  0.3240171E-005  0.8683864E+02  0.7818608E-02  0.1311735E+00
          2   -1    0    0  502    0  0.00000000000E+00  0.00000000000E+00  0.58117193362E+03  0.58117193362E+03  0.00000000000E+00 0. -1.
          1   -1    0    0  501    0 -0.00000000000E+00 -0.00000000000E+00 -0.23680727567E+02  0.23680727567E+02  0.00000000000E+00 0. -1.
          2    1    1    2  501    0  0.19495106974E+02 -0.41549207266E+02  0.35571668453E+02  0.58066680780E+02  0.00000000000E+00 0. -1.
          1    1    1    2  502    0  0.21561711810E+02  0.90634332044E-01  0.67606514010E+02  0.70961654204E+02  0.00000000000E+00 0. -1.
         22    1    1    2    0    0  0.22731780516E+02 -0.19696991493E+02  0.30275715513E+02  0.42676975867E+02  0.00000000000E+00 0.  1.
         22    1    1    2    0    0 -0.63788599300E+02  0.61155564427E+02  0.42403730808E+03  0.43314735034E+03  0.00000000000E+00 0. -1.
</event>
<event>
 6    1  0.4644954E-005  0.1441882E+03  0.7818608E-02  0.1304407E+00
          2   -1    0    0  502    0  0.00000000000E+00  0.00000000000E+00  0.12950024078E+03  0.12950024078E+03  0.00000000000E+00 0.  1.
          1   -1    0    0  501    0 -0.00000000000E+00 -0.00000000000E+00 -0.53246579601E+03  0.53246579601E+03  0.00000000000E+00 0. -1.
          2    1    1    2  501    0  0.19807944576E+02  0.11240167518E+02 -0.32849573237E+02  0.39972371659E+02  0.00000000000E+00 0.  1.
          1    1    1    2  502    0 -0.58750881776E+02  0.12303865782E+02 -0.46027107821E+03  0.46416862955E+03  0.00000000000E+00 0. -1.
         22    1    1    2    0    0  0.34223630851E+02 -0.44285426853E+02  0.11331229972E+03  0.12638090524E+03  0.00000000000E+00 0.  1.
         22    1    1    2    0    0  0.47193063487E+01  0.20741393553E+02 -0.23157203507E+02  0.31444130346E+02  0.00000000000E+00 0.  1.
</event>
<event>
 6    1  0.3240171E-005  0.1031930E+03  0.7818608E-02  0.1343046E+00
          2   -1    0    0  502    0  0.00000000000E+00  0.00000000000E+00  0.15433345519E+03  0.15433345519E+03  0.00000000000E+00 0. -1.
          1   -1    0    0  501    0 -0.00000000000E+00 -0.00000000000E+00 -0.56340078882E+03  0.56340078882E+03  0.00000000000E+00 0. -1.
          2    1    1    2  501    0 -0.20494659504E+02 -0.80919742985E+02 -0.39919365158E+03  0.40782791387E+03  0.00000000000E+00 0. -1.
          1    1    1    2  502    0  0.57249637625E+02  0.10281673040E+03 -0.93585898768E+02  0.15035664770E+03  0.00000000000E+00 0. -1.
         22    1    1    2    0    0 -0.10326598402E+02 -0.94664911964E+01 -0.34788367012E+02  0.37503114131E+02  0.00000000000E+00 0. -1.
         22    1    1    2    0    0 -0.26428379719E+02 -0.12430496223E+02  0.11850058373E+03  0.12204656831E+03  0.00000000000E+00 0. -1.
</event>
<event>
 6    1  0.3240171E-005  0.2065231E+03  0.7818608E-02  0.1212988E+00
          2   -1    0    0  502    0  0.00000000000E+00  0.00000000000E+00  0.32177440788E+03  0.32177440788E+03  0.00000000000E+00 0. -1.
          1   -1    0    0  501    0 -0.00000000000E+00 -0.00000000000E+00 -0.31671636284E+03  0.31671636284E+03  0.00000000000E+00 0.  1.
          2    1    1    2  501    0  0.10394204575E+02 -0.35997860902E+02  0.52057288717E+02  0.64139276476E+02  0.00000000000E+00 0. -1.
          1    1    1    2  502    0  0.76147662425E+02  0.18592125955E+03 -0.22229018830E+03  0.29962995354E+03  0.00000000000E+00 0.  1.
         22    1    1    2    0    0 -0.53583155873E+02 -0.12088038681E+03  0.49004894063E+02  0.14101312758E+03  0.00000000000E+00 0. -1.
         22    1    1    2    0    0 -0.32958711127E+02 -0.29043011837E+02  0.12628605056E+03  0.13370841313E+03  0.00000000000E+00 0. -1.
</event>
<event>
 6    1  0.3240171E-005  0.1894266E+03  0.7818608E-02  0.1160757E+00
          2   -1    0    0  502    0  0.00000000000E+00  0.00000000000E+00  0.16989183091E+03  0.16989183091E+03  0.00000000000E+00 0.  1.
          1   -1    0    0  501    0 -0.00000000000E+00 -0.00000000000E+00 -0.14945743003E+04  0.14945743003E+04  0.00000000000E+00 0.  1.
          2    1    1    2  501    0  0.16849409110E+03  0.63762407945E+02 -0.23031644093E+03  0.29240650876E+03  0.00000000000E+00 0.  1.
          1    1    1    2  502    0 -0.27992937607E+02  0.23800203391E+02 -0.11569705381E+04  0.11575538347E+04  0.00000000000E+00 0.  1.
         22    1    1    2    0    0 -0.15928442804E+03 -0.81940277420E+02  0.71636925276E+02  0.19291860237E+03  0.00000000000E+00 0.  1.
         22    1    1    2    0    0  0.18783274542E+02 -0.56223339166E+01 -0.90324157000E+01  0.21587185425E+02  0.00000000000E+00 0. -1.
</event>
<event>
 6    1  0.3240171E-005  0.8865960E+02  0.7818608E-02  0.1307998E+00
          2   -1    0    0  502    0  0.00000000000E+00  0.00000000000E+00  0.18942354493E+03  0.18942354493E+03  0.00000000000E+00 0. -1.
          1   -1    0    0  501    0 -0.00000000000E+00 -0.00000000000E+00 -0.66512444005E+03  0.66512444005E+03  0.00000000000E+00 0. -1.
          2    1    1    2  501    0  0.58183552897E+02  0.60733408619E+02 -0.40249056151E+02  0.93240866959E+02  0.00000000000E+00 0. -1.
          1    1    1    2  502    0  0.17798367008E+02 -0.59284910800E+02 -0.56351505947E+03  0.56690449352E+03  0.00000000000E+00 0. -1.
         22    1    1    2    0    0 -0.82074703127E+02 -0.23781663312E+02  0.14319020487E+03  0.16674909048E+03  0.00000000000E+00 0. -1.
         22    1    1    2    0    0  0.60927832214E+01  0.22333165493E+02 -0.15126984373E+02  0.27653534034E+02  0.00000000000E+00 0. -1.
</event>
<event>
 6    1  0.3240171E-005  0.5643410E+02  0.7818608E-02  0.1469572E+00
          2   -1    0    0  502    0  0.00000000000E+00  0.00000000000E+00  0.32597266408E+03  0.32597266408E+03  0.00000000000E+00 0. -1.
          1   -1    0    0  501    0 -0.00000000000E+00 -0.00000000000E+00 -0.26332961183E+03  0.26332961183E+03  0.00000000000E+00 0. -1.
          2    1    1    2  501    0  0.37482757931E+02  0.91024008984E+01  0.24589914415E+03  0.24890600623E+03  0.00000000000E+00 0. -1.
          1    1    1    2  502    0 -0.31110033027E+02  0.28001046361E+02 -0.20104118549E+03  0.20535201732E+03  0.00000000000E+00 0. -1.
         22    1    1    2    0    0  0.85981654747E+01 -0.17805423469E+02  0.72488031251E+02  0.75136384190E+02  0.00000000000E+00 0.  1.
         22    1    1    2    0    0 -0.14970890379E+02 -0.19298023791E+02 -0.54702937655E+02  0.59907868174E+02  0.00000000000E+00 0. -1.
</event>
<event>
 6    1  0.3240171E-005  0.2909636E+03  0.7818608E-02  0.1142585E+00
          2   -1    0    0  502    0  0.00000000000E+00  0.00000000000E+00  0.79491314040E+03  0.79491314040E+03  0.00000000000E+00 0.  1.
          1   -1    0    0  501    0 -0.00000000000E+00 -0.00000000000E+00 -0.18573074435E+03  0.18573074435E+03  0.00000000000E+00 0. -1.
          2    1    1    2  501    0 -0.77407937267E+02 -0.14339160399E+03  0.17299800061E+03  0.23765826109E+03  0.00000000000E+00 0.  1.
          1    1    1    2  502    0 -0.20831333727E+02 -0.51344922368E+01 -0.13234761117E+03  0.13407534321E+03  0.00000000000E+00 0. -1.
         22    1    1    2    0    0  0.26848829904E+02  0.11535031454E+03  0.20322074640E+03  0.23521315120E+03  0.00000000000E+00 0.  1.
         22    1    1    2    0    0  0.71390441090E+02  0.33175781695E+02  0.36531126020E+03  0.37369712924E+03  0.00000000000E+00 0.  1.
</event>
<event>
 6    1  0.3240171E-005  0.1041694E+03  0.7818608E-02  0.1325118E+00
          2   -1    0    0  502    0  0.00000000000E+00  0.00000000000E+00  0.35489417009E+02  0.35489417009E+02  0.00000000000E+00 0.  1.
          1   -1    0    0  501    0 -0.00000000000E+00 -0.00000000000E+00 -0.63908164989E+03  0.63908164989E+03  0.00000000000E+00 0.  1.
          2    1    1    2  501    0  0.48651265100E+01  0.33492967631E+02 -0.30263283651E+02  0.45401703426E+02  0.00000000000E+00 0.  1.
          1    1    1    2  502    0 -0.20215435065E+02  0.10102104009E+02 -0.44954306103E+03  0.45011074198E+03  0.00000000000E+00 0.  1.
         22    1    1    2    0    0 -0.31803783693E+02  0.17719596710E+02 -0.42150571094E+01  0.36650122389E+02  0.00000000000E+00 0.  1.
         22    1    1    2    0    0  0.47154092247E+02 -0.61314668350E+02 -0.11957083109E+03  0.14240849910E+03  0.00000000000E+00 0.  1.
</event>
<event>
 6    1  0.3240171E-005  0.9491230E+02  0.7818608E-02  0.1323534E+00
          2   -1    0    0  502    0  0.00000000000E+00  0.00000000000E+00  0.14675116329E+03  0.14675116329E+03  0.00000000000E+00 0.  1.
          1   -1    0    0  501    0 -0.00000000000E+00 -0.00000000000E+00 -0.95889849021E+03  0.95889849021E+03  0.00000000000E+00 0. -1.
          2    1    1    2  501    0 -0.20317133085E+02  0.27203122234E+01  0.22628597096E+02  0.30532595728E+02  0.00000000000E+00 0.  1.
          1    1    1    2  502    0 -0.15067694244E+02  0.29665200853E+02 -0.91891311145E+03  0.91951528858E+03  0.00000000000E+00 0. -1.
         22    1    1    2    0    0 -0.21009118546E+02  0.32858884943E+02  0.64496639216E+01  0.39530842978E+02  0.00000000000E+00 0.  1.
         22    1    1    2    0    0  0.56393945876E+02 -0.65244398020E+02  0.77687523499E+02  0.11607092621E+03  0.00000000000E+00 0.  1.
</event>
<event>
 6    1  0.3240171E-005  0.1315107E+03  0.7818608E-02  0.1356109E+00
          2   -1    0    0  502    0  0.00000000000E+00  0.00000000000E+00  0.10584060488E+03  0.10584060488E+03  0.00000000000E+00 0. -1.
          1   -1    0    0  501    0 -0.00000000000E+00 -0.00000000000E+00 -0.80073235433E+03  0.80073235433E+03  0.00000000000E+00 0.  1.
          2    1    1    2  501    0  0.51219490137E+02 -0.49393428184E+02 -0.26484135023E+02  0.75924675341E+02  0.00000000000E+00 0. -1.
          1    1    1    2  502    0 -0.42493445111E+02  0.43298585430E+01 -0.69002638935E+03  0.69134713317E+03  0.00000000000E+00 0.  1.
         22    1    1    2    0    0 -0.14346578796E+02  0.54854425663E+02 -0.44592653887E+02  0.72134160553E+02  0.00000000000E+00 0. -1.
         22    1    1    2    0    0  0.56205337700E+01 -0.97908560216E+01  0.66211428801E+02  0.67166990146E+02  0.00000000000E+00 0. -1.
</event>
<event>
 6    1  0.3240171E-005  0.1191711E+03  0.7818608E-02  0.1264496E+00
          2   -1    0    0  502    0  0.00000000000E+00  0.00000000000E+00  0.20728561757E+03  0.20728561757E+03  0.00000000000E+00 0.  1.
          1   -1    0    0  501    0 -0.00000000000E+00 -0.00000000000E+00 -0.12416030084E+03  0.12416030084E+03  0.00000000000E+00 0. -1.
          2    1    1    2  501    0  0.56156639327E+01  0.54879483312E+02  0.20137091765E+02  0.58726449192E+02  0.00000000000E+00 0.  1.
          1    1    1    2  502    0 -0.23357188378E+02  0.13784550166E+01 -0.73291356716E+02  0.76935566265E+02  0.00000000000E+00 0. -1.
         22    1    1    2    0    0  0.59870350571E+02  0.53210959228E+01  0.89198885801E+02  0.10756028155E+03  0.00000000000E+00 0.  1.
         22    1    1    2    0    0 -0.42128826126E+02 -0.61579034251E+02  0.47080695880E+02  0.88223621409E+02  0.00000000000E+00 0. -1.
</event>
<event>
 6    1  0.3240171E-005  0.7178259E+02  0.7818608E-02  0.1355700E+00
          2   -1    0    0  502    0  0.00000000000E+00  0.00000000000E+00  0.53165907424E+03  0.53165907424E+03  0.00000000000E+00 0.  1.
          1   -1    0    0  501    0 -0.00000000000E+00 -0.00000000000E+00 -0.43892337115E+02  0.43892337115E+02  0.00000000000E+00 0.  1.
          2    1    1    2  501    0 -0.15498135411E+02  0.16612915822E+02  0.62103351198E+02  0.66128718446E+02  0.00000000000E+00 0.  1.
          1    1    1    2  502    0  0.21493923438E+02 -0.18890326997E+02 -0.26758373724E+02  0.39177082117E+02  0.00000000000E+00 0.  1.
         22    1    1    2    0    0  0.55063272220E+02 -0.25068813386E+02  0.24175466637E+03  0.24921020859E+03  0.00000000000E+00 0.  1.
         22    1    1    2    0    0 -0.61059060246E+02  0.27346224561E+02  0.21066709328E+03  0.22103540220E+03  0.00000000000E+00 0.  1.
</event>
<event>
 6    1  0.3240171E-005  0.1014123E+03  0.7818608E-02  0.1279200E+00
          2   -1    0    0  502    0  0.00000000000E+00  0.00000000000E+00  0.87571451429E+02  0.87571451429E+02  0.00000000000E+00 0.  1.
          1   -1    0    0  501    0 -0.00000000000E+00 -0.00000000000E+00 -0.68476160749E+03  0.68476160749E+03  0.00000000000E+00 0.  1.
          2    1    1    2  501    0 -0.54306387930E+02  0.80089474037E+01 -0.34930328211E+02  0.65065004707E+02  0.00000000000E+00 0.  1.
          1    1    1    2  502    0 -0.22726912244E+02  0.69099725684E+01 -0.55816896533E+03  0.55867419317E+03  0.00000000000E+00 0.  1.
         22    1    1    2    0    0 -0.22362385373E+02  0.22044396220E+02 -0.25448297679E+02  0.40418405944E+02  0.00000000000E+00 0.  1.
         22    1    1    2    0    0  0.99395685547E+02 -0.36963316192E+02  0.21357435156E+02  0.10817545510E+03  0.00000000000E+00 0.  1.
</event>
<event>
 6    1  0.3240171E-005  0.9792449E+02  0.7818608E-02  0.1290933E+00
          2   -1    0    0  502    0  0.00000000000E+00  0.00000000000E+00  0.17749684924E+03  0.17749684924E+03  0.00000000000E+00 0.  1.
          1   -1    0    0  501    0 -0.00000000000E+00 -0.00000000000E+00 -0.10171588778E+04  0.10171588778E+04  0.00000000000E+00 0.  1.
          2    1    1    2  501    0 -0.18999073295E+02  0.89528677233E+02 -0.93364273312E+02  0.13074110434E+03  0.00000000000E+00 0.  1.
          1    1    1    2  502    0  0.12856046331E+01 -0.35671171661E+02 -0.87313898800E+03  0.87386828392E+03  0.00000000000E+00 0.  1.
         22    1    1    2    0    0  0.89776497036E+01 -0.83652052324E+02  0.13396332497E+03  0.15819113910E+03  0.00000000000E+00 0.  1.
         22    1    1    2    0    0  0.87358189580E+01  0.29794546753E+02 -0.71220922065E+01  0.31855199677E+02  0.00000000000E+00 0.  1.
</event>
<event>
 6    1  0.3240171E-005  0.7280188E+02  0.7818608E-02  0.1353362E+00
          2   -1    0    0  502    0  0.00000000000E+00  0.00000000000E+00  0.33003743153E+03  0.33003743153E+03  0.00000000000E+00 0. -1.
          1   -1    0    0  501    0 -0.00000000000E+00 -0.00000000000E+00 -0.13957597049E+04  0.13957597049E+04  0.00000000000E+00 0.  1.
          2    1    1    2  501    0 -0.26774637421E+02  0.61662901299E+01  0.57367218589E+02  0.63607406107E+02  0.00000000000E+00 0. -1.
          1    1    1    2  502    0  0.18006688016E+02 -0.35689377242E+02 -0.13770990463E+04  0.13776791193E+04  0.00000000000E+00 0.  1.
         22    1    1    2    0    0  0.57681444925E+02  0.16496403204E+02  0.63364832963E+02  0.87260428968E+02  0.00000000000E+00 0.  1.
         22    1    1    2    0    0 -0.48913495520E+02  0.13026683908E+02  0.19064472136E+03  0.19725018206E+03  0.00000000000E+00 0. -1.
</event>
<event>
 6    1  0.3240171E-005  0.7444898E+02  0.7818608E-02  0.1346188E+00
          2   -1    0    0  502    0  0.00000000000E+00  0.00000000000E+00  0.10784431107E+03  0.10784431107E+03  0.00000000000E+00 0. -1.
          1   -1    0    0  501    0 -0.00000000000E+00 -0.00000000000E+00 -0.52505851532E+03  0.52505851532E+03  0.00000000000E+00 0.  1.
          2    1    1    2  501    0 -0.40884947608E+02  0.32328804784E+01 -0.71794747986E+02  0.82683228623E+02  0.00000000000E+00 0. -1.
          1    1    1    2  502    0 -0.87234227275E+01  0.45508072594E+02 -0.39638818708E+03  0.39908730577E+03  0.00000000000E+00 0.  1.
         22    1    1    2    0    0 -0.11864731056E+02 -0.12004066076E+01 -0.33973242662E+02  0.36005472306E+02  0.00000000000E+00 0. -1.
         22    1    1    2    0    0  0.61473101392E+02 -0.47540546465E+02  0.84941973478E+02  0.11512681969E+03  0.00000000000E+00 0. -1.
</event>
<event>
 6    1  0.3240171E-005  0.2399169E+03  0.7818608E-02  0.1183663E+00
          2   -1    0    0  502    0  0.00000000000E+00  0.00000000000E+00  0.93802149767E+02  0.93802149767E+02  0.00000000000E+00 0.  1.
          1   -1    0    0  501    0 -0.00000000000E+00 -0.00000000000E+00 -0.13814289208E+04  0.13814289208E+04  0.00000000000E+00 0.  1.
          2    1    1    2  501    0  0.39260864748E+01  0.95111791309E+02 -0.14729996063E+03  0.17538228360E+03  0.00000000000E+00 0.  1.
          1    1    1    2  502    0  0.50617490035E+02 -0.40405322582E+02 -0.11543275336E+04  0.11561430600E+04  0.00000000000E+00 0.  1.
         22    1    1    2    0    0 -0.53077889602E+02 -0.12504493491E+00 -0.40343220167E+02  0.66669733870E+02  0.00000000000E+00 0.  1.
         22    1    1    2    0    0 -0.14656869080E+01 -0.54581423793E+02  0.54343943317E+02  0.77035993124E+02  0.00000000000E+00 0.  1.
</event>
<event>
 6    1  0.3240171E-005  0.8154374E+02  0.7818608E-02  0.1328466E+00
          2   -1    0    0  502    0  0.00000000000E+00  0.00000000000E+00  0.68363619822E+02  0.68363619822E+02  0.00000000000E+00 0.  1.
          1   -1    0    0  501    0 -0.00000000000E+00 -0.00000000000E+00 -0.73227318297E+03  0.73227318297E+03  0.00000000000E+00 0.  1.
          2    1    1    2  501    0 -0.83323604419E+01 -0.31291709591E+02 -0.65177238749E+02  0.72778236929E+02  0.00000000000E+00 0.  1.
          1    1    1    2  502    0 -0.50917752856E+02  0.30940949437E+02 -0.58480691758E+03  0.58783423748E+03  0.00000000000E+00 0.  1.
         22    1    1    2    0    0 -0.87581684118E+01 -0.43709205754E+02 -0.34559271263E+02  0.56405171853E+02  0.00000000000E+00 0.  1.
         22    1    1    2    0    0  0.68008281709E+02  0.44059965907E+02  0.20633864440E+02  0.83619156529E+02  0.00000000000E+00 0.  1.
</event>
<event>
 6    1  0.3240171E-005  0.1489923E+03  0.7818608E-02  0.1311312E+00
          2   -1    0    0  502    0  0.00000000000E+00  0.00000000000E+00  0.23153813954E+03  0.23153813954E+03  0.00000000000E+00 0.  1.
          1   -1    0    0  501    0 -0.00000000000E+00 -0.00000000000E+00 -0.15156876615E+03  0.15156876615E+03  0.00000000000E+00 0.  1.
          2    1    1    2  501    0  0.36009372200E+02  0.84157455582E+02 -0.27386845900E+02  0.95546802901E+02  0.00000000000E+00 0.  1.
          1    1    1    2  502    0 -0.10417550670E+03 -0.66267797806E+02  0.43098663902E+02  0.13077252025E+03  0.00000000000E+00 0.  1.
         22    1    1    2    0    0  0.55786899332E+02 -0.62359296750E+01 -0.28172228237E+02  0.62807160419E+02  0.00000000000E+00 0.  1.
         22    1    1    2    0    0  0.12379235165E+02 -0.11653728101E+02  0.92429783618E+02  0.93980422119E+02  0.00000000000E+00 0.  1.
</event>
<event>
 6    1  0.3240171E-005  0.1976808E+03  0.7818608E-02  0.1190961E+00
          2   -1    0    0  502    0  0.00000000000E+00  0.00000000000E+00  0.29606448842E+02  0.29606448842E+02  0.00000000000E+00 0.  1.
          1   -1    0    0  501    0 -0.00000000000E+00 -0.00000000000E+00 -0.15440832054E+04  0.15440832054E+04  0.00000000000E+00 0.  1.
          2    1    1    2  501    0  0.53703021092E+02  0.20550234834E+02 -0.64775607385E+03  0.65030320454E+03  0.00000000000E+00 0.  1.
          1    1    1    2  502    0 -0.41277452062E+02 -0.63206664191E+02 -0.71633440009E+03  0.72030124476E+03  0.00000000000E+00 0.  1.
         22    1    1    2    0    0  0.19515294993E+02 -0.38720487819E+02 -0.24445104068E+02  0.49776360137E+02  0.00000000000E+00 0.  1.
         22    1    1    2    0    0 -0.31940864022E+02  0.81376917176E+02 -0.12594117859E+03  0.15330884485E+03  0.00000000000E+00 0.  1.
</event>
<event>
 6    1  0.3240171E-005  0.6091403E+03  0.7818608E-02  0.1107474E+00
          2   -1    0    0  502    0  0.00000000000E+00  0.00000000000E+00  0.48653765712E+03  0.48653765712E+03  0.00000000000E+00 0.  1.
          1   -1    0    0  501    0 -0.00000000000E+00 -0.00000000000E+00 -0.11655948410E+04  0.11655948410E+04  0.00000000000E+00 0.  1.
          2    1    1    2  501    0 -0.27211648747E+02  0.21673585598E+03  0.16801318760E+02  0.21908260864E+03  0.00000000000E+00 0.  1.
          1    1    1    2  502    0 -0.34632185772E+03 -0.24487951168E+03 -0.89534790918E+03  0.99073340655E+03  0.00000000000E+00 0.  1.
         22    1    1    2    0    0  0.51717393069E+00  0.20041124888E+02  0.19872724819E+02  0.28228342980E+02  0.00000000000E+00 0. -1.
         22    1    1    2    0    0  0.37301633254E+03  0.81025308115E+01  0.17961668169E+03  0.41408814000E+03  0.00000000000E+00 0.  1.
</event>
<event>
 6    1  0.3240171E-005  0.1679802E+03  0.7818608E-02  0.1307341E+00
          2   -1    0    0  502    0  0.00000000000E+00  0.00000000000E+00  0.98759125667E+02  0.98759125667E+02  0.00000000000E+00 0. -1.
          1   -1    0    0  501    0 -0.00000000000E+00 -0.00000000000E+00 -0.49479139267E+03  0.49479139267E+03  0.00000000000E+00 0. -1.
          2    1    1    2  501    0  0.28948348746E+02 -0.57328629740E+02 -0.67795073842E+02  0.93384959818E+02  0.00000000000E+00 0. -1.
          1    1    1    2  502    0  0.65788134657E+02  0.33164686859E+02 -0.33412205229E+03  0.34214839023E+03  0.00000000000E+00 0. -1.
         22    1    1    2    0    0 -0.89003789347E+02  0.35553351382E+02 -0.44769304378E+02  0.10578282435E+03  0.00000000000E+00 0. -1.
         22    1    1    2    0    0 -0.57326940555E+01 -0.11389408501E+02  0.50654163499E+02  0.52234343941E+02  0.00000000000E+00 0. -1.
</event>
<event>
 6    1  0.3240171E-005  0.2766271E+03  0.7818608E-02  0.1151515E+00
          2   -1    0    0  502    0  0.00000000000E+00  0.00000000000E+00  0.90168680453E+02  0.90168680453E+02  0.00000000000E+00 0.  1.
          1   -1    0    0  501    0 -0.00000000000E+00 -0.00000000000E+00 -0.16175642307E+04  0.16175642307E+04  0.00000000000E+00 0.  1.
          2    1    1    2  501    0  0.17313919819E+03  0.20128604470E+03 -0.32462198569E+03  0.41937177699E+03  0.00000000000E+00 0.  1.
          1    1    1    2  502    0 -0.18011505446E+03 -0.17791380739E+03 -0.10898671012E+04  0.11188856305E+04  0.00000000000E+00 0.  1.
         22    1    1    2    0    0 -0.32364056134E+01  0.48377823222E+02 -0.70322493674E+02  0.85417452652E+02  0.00000000000E+00 0. -1.
         22    1    1    2    0    0  0.10212261890E+02 -0.71750060533E+02 -0.42583969696E+02  0.84058051099E+02  0.00000000000E+00 0.  1.
</event>
<event>
 6    1  0.3240171E-005  0.1457920E+03  0.7818608E-02  0.1234102E+00
          2   -1    0    0  502    0  0.00000000000E+00  0.00000000000E+00  0.41650120013E+03  0.41650120013E+03  0.00000000000E+00 0.  1.
          1   -1    0    0  501    0 -0.00000000000E+00 -0.00000000000E+00 -0.13990747833E+04  0.13990747833E+04  0.00000000000E+00 0.  1.
          2    1    1    2  501    0  0.32364252547E+02  0.31400979914E+02 -0.17091046230E+01  0.45126349521E+02  0.00000000000E+00 0.  1.
          1    1    1    2  502    0 -0.28408990160E+02  0.33333566804E+02 -0.13629925816E+04  0.13636960713E+04  0.00000000000E+00 0.  1.
         22    1    1    2    0    0  0.57569550540E+02 -0.14121196261E+02  0.17907928506E+03  0.18863470431E+03  0.00000000000E+00 0.  1.
         22    1    1    2    0    0 -0.61524812927E+02 -0.50613350457E+02  0.20304881800E+03  0.21811885829E+03  0.00000000000E+00 0.  1.
</event>
<event>
 6    1  0.3240171E-005  0.5312631E+03  0.7818608E-02  0.1005926E+00
          2   -1    0    0  502    0  0.00000000000E+00  0.00000000000E+00  0.84423358823E+03  0.84423358823E+03  0.00000000000E+00 0.  1.
          1   -1    0    0  501    0 -0.00000000000E+00 -0.00000000000E+00 -0.95290148522E+03  0.95290148522E+03  0.00000000000E+00 0.  1.
          2    1    1    2  501    0  0.16693629092E+02 -0.13786567462E+02  0.98569610793E+01  0.23788786778E+02  0.00000000000E+00 0.  1.
          1    1    1    2  502    0 -0.37988790171E+03  0.34103483132E+03 -0.78542905478E+03  0.93675950709E+03  0.00000000000E+00 0.  1.
         22    1    1    2    0    0  0.40485139426E+02  0.43707418312E+01  0.74309463597E+02  0.84735153736E+02  0.00000000000E+00 0.  1.
         22    1    1    2    0    0  0.32270913319E+03 -0.33161900569E+03  0.59259473311E+03  0.75185162585E+03  0.00000000000E+00 0.  1.
</event>
<event>
 6    1  0.3240171E-005  0.1826754E+03  0.7818608E-02  0.1270574E+00
          2   -1    0    0  502    0  0.00000000000E+00  0.00000000000E+00  0.10428593624E+03  0.10428593624E+03  0.00000000000E+00 0.  1.
          1   -1    0    0  501    0 -0.00000000000E+00 -0.00000000000E+00 -0.46048849557E+03  0.46048849557E+03  0.00000000000E+00 0.  1.
          2    1    1    2  501    0 -0.40200966862E+02 -0.54306821515E+01 -0.13931656036E+03  0.14510242602E+03  0.00000000000E+00 0.  1.
          1    1    1    2  502    0  0.14918946620E+03  0.54976919623E+02 -0.24234818514E+02  0.16083309654E+03  0.00000000000E+00 0.  1.
         22    1    1    2    0    0  0.95354223488E+01  0.17313003051E+02  0.35334596281E+01  0.20078587873E+02  0.00000000000E+00 0. -1.
         22    1    1    2    0    0 -0.11852392168E+03 -0.66859240522E+02 -0.19618464008E+03  0.23876032137E+03  0.00000000000E+00 0.  1.
</event>
<event>
 6    1  0.3240171E-005  0.1067322E+03  0.7818608E-02  0.1298136E+00
          2   -1    0    0  502    0  0.00000000000E+00  0.00000000000E+00  0.30346776307E+03  0.30346776307E+03  0.00000000000E+00 0.  1.
          1   -1    0    0  501    0 -0.00000000000E+00 -0.00000000000E+00 -0.18108154609E+03  0.18108154609E+03  0.00000000000E+00 0.  1.
          2    1    1    2  501    0  0.14949457562E+02  0.15114611518E+02  0.66269893492E+01  0.22267796267E+02  0.00000000000E+00 0.  1.
          1    1    1    2  502    0 -0.87179982573E+02 -0.51009235610E+02 -0.13621374371E+03  0.16957734357E+03  0.00000000000E+00 0.  1.
         22    1    1    2    0    0  0.40050669195E+02 -0.43130782564E+02  0.14044429299E+03  0.15227908570E+03  0.00000000000E+00 0. -1.
         22    1    1    2    0    0  0.32179855816E+02  0.79025406655E+02  0.11152867834E+03  0.14042508362E+03  0.00000000000E+00 0.  1.
</event>
<event>
 6    1  0.3240171E-005  0.2190316E+03  0.7818608E-02  0.1166969E+00
          2   -1    0    0  502    0  0.00000000000E+00  0.00000000000E+00  0.20233792103E+03  0.20233792103E+03  0.00000000000E+00 0.  1.
          1   -1    0    0  501    0 -0.00000000000E+00 -0.00000000000E+00 -0.98808377009E+03  0.98808377009E+03  0.00000000000E+00 0.  1.
          2    1    1    2  501    0 -0.31178503965E+02  0.17129265153E+03 -0.43247059972E+00  0.17410760641E+03  0.00000000000E+00 0.  1.
          1    1    1    2  502    0  0.11359612846E+03 -0.65919290416E+02 -0.81822180093E+03  0.82869557062E+03  0.00000000000E+00 0.  1.
         22    1    1    2    0    0 -0.35321142799E+02 -0.15085546370E+02  0.69503459444E+02  0.79409619774E+02  0.00000000000E+00 0. -1.
         22    1    1    2    0    0 -0.47096481696E+02 -0.90287814745E+02 -0.36595036969E+02  0.10820889432E+03  0.00000000000E+00 0.  1.
</event>
<event>
 6    1  0.3240171E-005  0.8593334E+02  0.7818608E-02  0.1388034E+00
          2   -1    0    0  502    0  0.00000000000E+00  0.00000000000E+00  0.98972175448E+02  0.98972175448E+02  0.00000000000E+00 0. -1.
          1   -1    0    0  501    0 -0.00000000000E+00 -0.00000000000E+00 -0.56180982749E+03  0.56180982749E+03  0.00000000000E+00 0. -1.
          2    1    1    2  501    0 -0.28070194819E+02 -0.50960080627E+02 -0.86266250594E+02  0.10405158166E+03  0.00000000000E+00 0. -1.
          1    1    1    2  502    0  0.37373096987E+02  0.46483936315E+02 -0.42149604639E+03  0.42569522176E+03  0.00000000000E+00 0. -1.
         22    1    1    2    0    0  0.22298942587E+02 -0.85712872368E+01  0.79139195703E+02  0.82666329916E+02  0.00000000000E+00 0. -1.
         22    1    1    2    0    0 -0.31601844754E+02  0.13047431548E+02 -0.34214550763E+02  0.48368869594E+02  0.00000000000E+00 0.  1.
</event>
<event>
 6    1  0.3529614E-005  0.1784327E+03  0.7818608E-02  0.1264735E+00
          2   -1    0    0  502    0  0.00000000000E+00  0.00000000000E+00  0.15520879120E+03  0.15520879120E+03  0.00000000000E+00 0.  1.
          1   -1    0    0  501    0 -0.00000000000E+00 -0.00000000000E+00 -0.15453967932E+04  0.15453967932E+04  0.00000000000E+00 0.  1.
          2    1    1    2  501    0 -0.10194083637E+03 -0.11199270993E+03 -0.13396911976E+04  0.13482235742E+04  0.00000000000E+00 0.  1.
          1    1    1    2  502    0  0.89887392300E+02  0.10137659079E+03 -0.14310095843E+03  0.19706557477E+03  0.00000000000E+00 0.  1.
         22    1    1    2    0    0  0.71654285752E+01 -0.12630315123E+02 -0.28456350872E+02  0.31947333719E+02  0.00000000000E+00 0. -1.
         22    1    1    2    0    0  0.48880154953E+01  0.23246434262E+02  0.12106050490E+03  0.12336910167E+03  0.00000000000E+00 0.  1.
</event>
<event>
 6    1  0.3240171E-005  0.1181317E+03  0.7818608E-02  0.1253213E+00
          2   -1    0    0  502    0  0.00000000000E+00  0.00000000000E+00  0.55162380798E+03  0.55162380798E+03  0.00000000000E+00 0. -1.
          1   -1    0    0  501    0 -0.00000000000E+00 -0.00000000000E+00 -0.59806976531E+02  0.59806976531E+02  0.00000000000E+00 0. -1.
          2    1    1    2  501    0  0.64980175242E+02 -0.59473857042E+02  0.35818332786E+03  0.36885614974E+03  0.00000000000E+00 0. -1.
          1    1    1    2  502    0 -0.10753642388E+01  0.24195533431E+02 -0.17925428342E+02  0.30131399362E+02  0.00000000000E+00 0. -1.
         22    1    1    2    0    0  0.28970826944E+02  0.12183491716E+02  0.97687953081E+02  0.10261911353E+03  0.00000000000E+00 0. -1.
         22    1    1    2    0    0 -0.92875637948E+02  0.23094831895E+02  0.53870978855E+02  0.10982412188E+03  0.00000000000E+00 0. -1.
</event>
<event>
 6    1  0.3240171E-005  0.1772460E+03  0.7818608E-02  0.1177731E+00
          2   -1    0    0  502    0  0.00000000000E+00  0.00000000000E+00  0.10843325950E+04  0.10843325950E+04  0.00000000000E+00 0. -1.
          1   -1    0    0  501    0 -0.00000000000E+00 -0.00000000000E+00 -0.53364950066E+03  0.53364950066E+03  0.00000000000E+00 0.  1.
          2    1    1    2  501    0  0.21064292758E+03  0.47189149460E+02  0.50496143412E+03  0.54916601198E+03  0.00000000000E+00 0. -1.
          1    1    1    2  502    0 -0.14200807478E+03  0.81641947781E+02 -0.48123502478E+03  0.50834914185E+03  0.00000000000E+00 0.  1.
         22    1    1    2    0    0 -0.10242919068E+03 -0.11011423279E+03  0.44795640146E+03  0.47252705845E+03  0.00000000000E+00 0. -1.
         22    1    1    2    0    0  0.33794337872E+02 -0.18716864456E+02  0.79000283582E+02  0.87939883405E+02  0.00000000000E+00 0.  1.
</event>
<event>
 6    1  0.3240171E-005  0.2157242E+03  0.7818608E-02  0.1170241E+00
          2   -1    0    0  502    0  0.00000000000E+00  0.00000000000E+00  0.72535527220E+03  0.72535527220E+03  0.00000000000E+00 0. -1.
          1   -1    0    0  501    0 -0.00000000000E+00 -0.00000000000E+00 -0.21972427009E+03  0.21972427009E+03  0.00000000000E+00 0. -1.
          2    1    1    2  501    0  0.15900546978E+03  0.31740282416E+02  0.44872796581E+02  0.16823719214E+03  0.00000000000E+00 0. -1.
          1    1    1    2  502    0 -0.22401002276E+03 -0.11198603481E+03 -0.37657753058E+02  0.25325771193E+03  0.00000000000E+00 0. -1.
         22    1    1    2    0    0  0.17867404207E+02 -0.66809443893E+01  0.41470031554E+01  0.19521188135E+02  0.00000000000E+00 0.  1.
         22    1    1    2    0    0  0.47137148768E+02  0.86926696781E+02  0.49426895543E+03  0.50406345009E+03  0.00000000000E+00 0. -1.
</event>
<event>
 6    1  0.3240171E-005  0.4042273E+02  0.7818608E-02  0.1510321E+00
          2   -1    0    0  502    0  0.00000000000E+00  0.00000000000E+00  0.98446409285E+02  0.98446409285E+02  0.00000000000E+00 0.  1.
          1   -1    0    0  501    0 -0.00000000000E+00 -0.00000000000E+00 -0.29361082255E+03  0.29361082255E+03  0.00000000000E+00 0. -1.
          2    1    1    2  501    0  0.17458930852E+02  0.13547365216E+02 -0.86342111667E+01  0.23725407758E+02  0.00000000000E+00 0.  1.
          1    1    1    2  502    0 -0.34288575584E+02  0.76072654257E+01 -0.23247889602E+03  0.23511702192E+03  0.00000000000E+00 0. -1.
         22    1    1    2    0    0 -0.15327323783E+02 -0.33763562314E+02  0.77828935427E+02  0.86210487669E+02  0.00000000000E+00 0.  1.
         22    1    1    2    0    0  0.32156968514E+02  0.12608931672E+02 -0.31880241510E+02  0.47004314490E+02  0.00000000000E+00 0.  1.
</event>
<event>
 6    1  0.3240171E-005  0.6482987E+03  0.7818608E-02  0.1074373E+00
          2   -1    0    0  502    0  0.00000000000E+00  0.00000000000E+00  0.15438332774E+04  0.15438332774E+04  0.00000000000E+00 0.  1.
          1   -1    0    0  501    0 -0.00000000000E+00 -0.00000000000E+00 -0.10892065211E+04  0.10892065211E+04  0.00000000000E+00 0. -1.
          2    1    1    2  501    0  0.34961655949E+01 -0.14689969425E+03  0.55408925625E+02  0.15704105318E+03  0.00000000000E+00 0.  1.
          1    1    1    2  502    0  0.31699416277E+03  0.37755972120E+03 -0.94701212571E+03  0.10676462937E+04  0.00000000000E+00 0. -1.
         22    1    1    2    0    0 -0.39503436023E+02  0.51862757468E+01  0.22887733474E+03  0.23231929165E+03  0.00000000000E+00 0. -1.
         22    1    1    2    0    0 -0.28098689234E+03 -0.23584630270E+03  0.11173526217E+04  0.11760331600E+04  0.00000000000E+00 0.  1.
</event>
<event>
 6    1  0.3240171E-005  0.1090221E+03  0.7818608E-02  0.1276073E+00
          2   -1    0    0  502    0  0.00000000000E+00  0.00000000000E+00  0.32829116166E+03  0.32829116166E+03  0.00000000000E+00 0.  1.
          1   -1    0    0  501    0 -0.00000000000E+00 -0.00000000000E+00 -0.13166964231E+03  0.13166964231E+03  0.00000000000E+00 0. -1.
          2    1    1    2  501    0 -0.37922345658E+02  0.72260968212E+02  0.19089990256E+03  0.20761147518E+03  0.00000000000E+00 0.  1.
          1    1    1    2  502    0  0.45565700679E+02 -0.13536280450E+02 -0.78489484903E+02  0.91760902388E+02  0.00000000000E+00 0. -1.
         22    1    1    2    0    0  0.25980802975E+02 -0.47720619324E+02 -0.14075503754E+02  0.56128241001E+02  0.00000000000E+00 0. -1.
         22    1    1    2    0    0 -0.33624157996E+02 -0.11004068438E+02  0.98286605444E+02  0.10446018540E+03  0.00000000000E+00 0.  1.
</event>
<event>
 6    1  0.3240171E-005  0.8111496E+02  0.7818608E-02  0.1332807E+00
          2   -1    0    0  502    0  0.00000000000E+00  0.00000000000E+00  0.17962998004E+02  0.17962998004E+02  0.00000000000E+00 0. -1.
          1   -1    0    0  501    0 -0.00000000000E+00 -0.00000000000E+00 -0.17978355819E+04  0.17978355819E+04  0.00000000000E+00 0. -1.
          2    1    1    2  501    0 -0.24049069635E+02 -0.17970087553E+02 -0.33012089930E+02  0.44621518111E+02  0.00000000000E+00 0. -1.
          1    1    1    2  502    0 -0.14274917740E+02  0.16015462014E+02 -0.14098708238E+04  0.14100340450E+04  0.00000000000E+00 0. -1.
         22    1    1    2    0    0 -0.42970895408E+02  0.13616319613E+02 -0.86609372033E+02  0.97637520124E+02  0.00000000000E+00 0. -1.
         22    1    1    2    0    0  0.81294882782E+02 -0.11661694075E+02 -0.25038029817E+03  0.26350549670E+03  0.00000000000E+00 0. -1.
</event>
<event>
 6    1  0.3240171E-005  0.6687920E+02  0.7818608E-02  0.1379194E+00
          2   -1    0    0  502    0  0.00000000000E+00  0.00000000000E+00  0.21310660571E+02  0.21310660571E+02  0.00000000000E+00 0.  1.
          1   -1    0    0  501    0 -0.00000000000E+00 -0.00000000000E+00 -0.11154219255E+04  0.11154219255E+04  0.00000000000E+00 0. -1.
          2    1    1    2  501    0  0.44845681533E+02 -0.90822148288E+01 -0.18899759159E+03  0.19445747969E+03  0.00000000000E+00 0.  1.
          1    1    1    2  502    0 -0.34621793825E+02  0.29097783750E+02 -0.70200172409E+03  0.70345701379E+03  0.00000000000E+00 0. -1.
         22    1    1    2    0    0 -0.49759337428E+02  0.18334327129E+02 -0.39330184639E+02  0.66022743326E+02  0.00000000000E+00 0. -1.
         22    1    1    2    0    0  0.39535449720E+02 -0.38349896050E+02 -0.16378176466E+03  0.17279534932E+03  0.00000000000E+00 0.  1.
</event>
<event>
 6    1  0.3240171E-005  0.6045450E+02  0.7818608E-02  0.1418031E+00
          2   -1    0    0  502    0  0.00000000000E+00  0.00000000000E+00  0.34717249754E+03  0.34717249754E+03  0.00000000000E+00 0. -1.
          1   -1    0    0  501    0 -0.00000000000E+00 -0.00000000000E+00 -0.25651780170E+03  0.25651780170E+03  0.00000000000E+00 0.  1.
          2    1    1    2  501    0  0.97997019838E+01  0.40679016687E+02  0.50944006380E+02  0.65925020619E+02  0.00000000000E+00 0. -1.
          1    1    1    2  502    0 -0.43431757610E+02 -0.29534964364E+02 -0.23210601487E+03  0.23797443944E+03  0.00000000000E+00 0.  1.
         22    1    1    2    0    0  0.57937806840E+01 -0.42361678358E+02  0.24799919167E+03  0.25165786051E+03  0.00000000000E+00 0. -1.
         22    1    1    2    0    0  0.27838274942E+02  0.31217626035E+02  0.23817512655E+02  0.48132978675E+02  0.00000000000E+00 0. -1.
</event>
<event>
 6    1  0.3240171E-005  0.7087452E+02  0.7818608E-02  0.1358617E+00
          2   -1    0    0  502    0  0.00000000000E+00  0.00000000000E+00  0.62957562231E+03  0.62957562231E+03  0.00000000000E+00 0.  1.
          1   -1    0    0  501    0 -0.00000000000E+00 -0.00000000000E+00 -0.17661846091E+04  0.17661846091E+04  0.00000000000E+00 0. -1.
          2    1    1    2  501    0 -0.15453519559E+02  0.16221392585E+02  0.11343869415E+03  0.11562993632E+03  0.00000000000E+00 0.  1.
          1    1    1    2  502    0  0.37234571010E+02  0.15904440920E+02 -0.17570152778E+04  0.17574817356E+04  0.00000000000E+00 0. -1.
         22    1    1    2    0    0  0.30093213751E+02 -0.54135359448E+02  0.16851484089E+03  0.17953687715E+03  0.00000000000E+00 0.  1.
         22    1    1    2    0    0 -0.51874265203E+02  0.22009525944E+02  0.33845275590E+03  0.34311168240E+03  0.00000000000E+00 0.  1.
</event>
<event>
 6    1  0.3240171E-005  0.1832594E+03  0.7818608E-02  0.1242353E+00
          2   -1    0    0  502    0  0.00000000000E+00  0.00000000000E+00  0.27470317648E+02  0.27470317648E+02  0.00000000000E+00 0. -1.
          1   -1    0    0  501    0 -0.00000000000E+00 -0.00000000000E+00 -0.23620321644E+04  0.23620321644E+04  0.00000000000E+00 0.  1.
          2    1    1    2  501    0 -0.30824873445E+02  0.68720408165E+00 -0.10148198214E+04  0.10152880946E+04  0.00000000000E+00 0. -1.
          1    1    1    2  502    0 -0.32992066521E+02 -0.45572756223E+02 -0.11341926890E+04  0.11355872527E+04  0.00000000000E+00 0.  1.
         22    1    1    2    0    0  0.27948765730E+02 -0.19715556532E+02  0.47076393280E+01  0.34525331906E+02  0.00000000000E+00 0. -1.
         22    1    1    2    0    0  0.35868174237E+02  0.64601108674E+02 -0.19025697560E+03  0.20410180286E+03  0.00000000000E+00 0. -1.
</event>
<event>
 6    1  0.3240171E-005  0.7377620E+02  0.7818608E-02  0.1423844E+00
          2   -1    0    0  502    0  0.00000000000E+00  0.00000000000E+00  0.43413915056E+02  0.43413915056E+02  0.00000000000E+00 0. -1.
          1   -1    0    0  501    0 -0.00000000000E+00 -0.00000000000E+00 -0.42198998797E+03  0.42198998797E+03  0.00000000000E+00 0. -1.
          2    1    1    2  501    0  0.22639104067E+02  0.31756407845E+02 -0.12655288595E+03  0.13242594690E+03  0.00000000000E+00 0. -1.
          1    1    1    2  502    0  0.32733732682E+01 -0.52677776534E+02 -0.16993898234E+03  0.17794639876E+03  0.00000000000E+00 0. -1.
         22    1    1    2    0    0  0.26040983352E+01  0.21357586531E+02  0.31374515560E+02  0.38043239310E+02  0.00000000000E+00 0. -1.
         22    1    1    2    0    0 -0.28516575671E+02 -0.43621784293E+00 -0.11345872019E+03  0.11698831806E+03  0.00000000000E+00 0. -1.
</event>
<event>
 6    1  0.3240171E-005  0.1221505E+03  0.7818608E-02  0.1360119E+00
          2   -1    0    0  502    0  0.00000000000E+00  0.00000000000E+00  0.16076452426E+03  0.16076452426E+03  0.00000000000E+00 0. -1.
          1   -1    0    0  501    0 -0.00000000000E+00 -0.00000000000E+00 -0.91090032479E+02  0.91090032479E+02  0.00000000000E+00 0.  1.
          2    1    1    2  501    0  0.38567999215E+02  0.35852137391E+02  0.37894171203E+02  0.64875531058E+02  0.00000000000E+00 0. -1.
          1    1    1    2  502    0 -0.52003230128E+02 -0.16748135980E+02  0.14134372768E+01  0.54651933246E+02  0.00000000000E+00 0.  1.
         22    1    1    2    0    0  0.95339916263E+01 -0.31680675947E+02 -0.44980729713E+02  0.55837516692E+02  0.00000000000E+00 0.  1.
         22    1    1    2    0    0  0.39012392872E+01  0.12576674537E+02  0.75347613017E+02  0.76489575746E+02  0.00000000000E+00 0.  1.
</event>
<event>
 6    1  0.3240171E-005  0.1273993E+03  0.7818608E-02  0.1323408E+00
          2   -1    0    0  502    0  0.00000000000E+00  0.00000000000E+00  0.30008995273E+02  0.30008995273E+02  0.00000000000E+00 0.  1.
          1   -1    0    0  501    0 -0.00000000000E+00 -0.00000000000E+00 -0.18135336563E+04  0.18135336563E+04  0.00000000000E+00 0.  1.
          2    1    1    2  501    0 -0.19856128677E+02  0.43893835382E+01 -0.19316749613E+02  0.28047626451E+02  0.00000000000E+00 0.  1.
          1    1    1    2  502    0  0.11065168691E+03  0.43425390697E+02 -0.15012002559E+04  0.15058989902E+04  0.00000000000E+00 0.  1.
         22    1    1    2    0    0  0.95798656442E+01 -0.19681396081E+02  0.46303468233E+01  0.22373450542E+02  0.00000000000E+00 0.  1.
         22    1    1    2    0    0 -0.10037542387E+03 -0.28133378155E+02 -0.26763800236E+03  0.28722258440E+03  0.00000000000E+00 0.  1.
</event>
<event>
 6    1  0.3240171E-005  0.2037246E+03  0.7818608E-02  0.1212364E+00
          2   -1    0    0  502    0  0.00000000000E+00  0.00000000000E+00  0.86554960725E+02  0.86554960725E+02  0.00000000000E+00 0. -1.
          1   -1    0    0  501    0 -0.00000000000E+00 -0.00000000000E+00 -0.58824289278E+03  0.58824289278E+03  0.00000000000E+00 0. -1.
          2    1    1    2  501    0  0.88165078702E+02  0.37620313108E+02 -0.84643131586E+02  0.12787817947E+03  0.00000000000E+00 0. -1.
          1    1    1    2  502    0 -0.18919754509E+03 -0.28935014353E+02 -0.18324755073E+03  0.26497662344E+03  0.00000000000E+00 0. -1.
         22    1    1    2    0    0  0.95110061904E+02  0.37310806729E+02 -0.19991541078E+03  0.22450877854E+03  0.00000000000E+00 0.  1.
         22    1    1    2    0    0  0.59224044789E+01 -0.45996105484E+02 -0.33881838960E+02  0.57434272050E+02  0.00000000000E+00 0. -1.
</event>
<event>
 6    1  0.3240171E-005  0.7841404E+02  0.7818608E-02  0.1382565E+00
          2   -1    0    0  502    0  0.00000000000E+00  0.00000000000E+00  0.19442645496E+03  0.19442645496E+03  0.00000000000E+00 0. -1.
          1   -1    0    0  501    0 -0.00000000000E+00 -0.00000000000E+00 -0.40970121644E+03  0.40970121644E+03  0.00000000000E+00 0. -1.
          2    1    1    2  501    0  0.60113319836E+02  0.44685143517E+02 -0.10752636780E+03  0.13104309614E+03  0.00000000000E+00 0. -1.
          1    1    1    2  502    0 -0.36569191740E+02 -0.50699764386E+02 -0.26531927816E+03  0.27258409942E+03  0.00000000000E+00 0. -1.
         22    1    1    2    0    0 -0.29923352517E+02  0.16870822430E+02  0.17536720906E+03  0.17869999913E+03  0.00000000000E+00 0. -1.
         22    1    1    2    0    0  0.63792244208E+01 -0.10856201561E+02 -0.17796324583E+02  0.21800476720E+02  0.00000000000E+00 0. -1.
</event>
<event>
 6    1  0.3240171E-005  0.5984886E+02  0.7818608E-02  0.1411956E+00
          2   -1    0    0  502    0  0.00000000000E+00  0.00000000000E+00  0.86530453579E+02  0.86530453579E+02  0.00000000000E+00 0. -1.
          1   -1    0    0  501    0 -0.00000000000E+00 -0.00000000000E+00 -0.61037761276E+03  0.61037761276E+03  0.00000000000E+00 0. -1.
          2    1    1    2  501    0 -0.41427174508E+02 -0.19910557986E+02 -0.22297231291E+03  0.22766047841E+03  0.00000000000E+00 0. -1.
          1    1    1    2  502    0  0.18682806752E+02 -0.14212461114E+02 -0.32924618232E+03  0.33008194421E+03  0.00000000000E+00 0. -1.
         22    1    1    2    0    0  0.57644653124E+01 -0.11397910623E+02 -0.47436005334E+02  0.49125513015E+02  0.00000000000E+00 0. -1.
         22    1    1    2    0    0  0.16979902444E+02  0.45520929724E+02  0.75807341382E+02  0.90040130705E+02  0.00000000000E+00 0. -1.
</event>
<event>
 6    1  0.3240171E-005  0.1639861E+03  0.7818608E-02  0.1316304E+00
          2   -1    0    0  502    0  0.00000000000E+00  0.00000000000E+00  0.91027574876E+02  0.91027574876E+02  0.00000000000E+00 0. -1.
          1   -1    0    0  501    0 -0.00000000000E+00 -0.00000000000E+00 -0.10663630829E+04  0.10663630829E+04  0.00000000000E+00 0. -1.
          2    1    1    2  501    0 -0.90408498220E+02  0.63647112095E+02 -0.78706103832E+03  0.79478911006E+03  0.00000000000E+00 0. -1.
          1    1    1    2  502    0  0.14055394094E+03 -0.48888064527E+02 -0.21709251703E+02  0.15038864577E+03  0.00000000000E+00 0. -1.
         22    1    1    2    0    0 -0.88674603009E+01  0.75607475563E+01  0.18183840433E+02  0.21597425973E+02  0.00000000000E+00 0.  1.
         22    1    1    2    0    0 -0.41277982422E+02 -0.22319795125E+02 -0.18474905841E+03  0.19061547595E+03  0.00000000000E+00 0. -1.
</event>
<event>
 6    1  0.3240171E-005  0.1603687E+03  0.7818608E-02  0.1239725E+00
          2   -1    0    0  502    0  0.00000000000E+00  0.00000000000E+00  0.76541473226E+02  0.76541473226E+02  0.00000000000E+00 0. -1.
          1   -1    0    0  501    0 -0.00000000000E+00 -0.00000000000E+00 -0.98811665268E+03  0.98811665268E+03  0.00000000000E+00 0.  1.
          2    1    1    2  501    0 -0.73293338078E+02 -0.87138704170E+00 -0.21525055116E+03  0.22738837371E+03  0.00000000000E+00 0. -1.
          1    1    1    2  502    0  0.13057593754E+03  0.66227907354E+02 -0.66227055200E+03  0.67826137677E+03  0.00000000000E+00 0.  1.
         22    1    1    2    0    0 -0.45691750473E+01 -0.54437935809E+02 -0.73995591262E+02  0.91976702169E+02  0.00000000000E+00 0.  1.
         22    1    1    2    0    0 -0.52713424416E+02 -0.10918584503E+02  0.39941514970E+02  0.67031673254E+02  0.00000000000E+00 0. -1.
</event>
<event>
 6    1  0.3240171E-005  0.1115982E+03  0.7818608E-02  0.1272546E+00
          2   -1    0    0  502    0  0.00000000000E+00  0.00000000000E+00  0.60970918950E+02  0.60970918950E+02  0.00000000000E+00 0. -1.
          1   -1    0    0  501    0 -0.00000000000E+00 -0.00000000000E+00 -0.12710200816E+04  0.12710200816E+04  0.00000000000E+00 0.  1.
          2    1    1    2  501    0  0.82265380258E+00 -0.10924958433E+03 -0.12941090668E+03  0.16936153991E+03  0.00000000000E+00 0. -1.
          1    1    1    2  502    0 -0.36289938157E+02  0.89575418013E+02 -0.10121603917E+04  0.10167641682E+04  0.00000000000E+00 0.  1.
         22    1    1    2    0    0 -0.25490883468E+02 -0.37322825672E+02 -0.27341131875E+02  0.52823441277E+02  0.00000000000E+00 0.  1.
         22    1    1    2    0    0  0.60958167822E+02  0.56996991988E+02 -0.41136732371E+02  0.93041851175E+02  0.00000000000E+00 0.  1.
</event>
<event>
 6    1  0.3240171E-005  0.1019151E+03  0.7818608E-02  0.1284240E+00
          2   -1    0    0  502    0  0.00000000000E+00  0.00000000000E+00  0.25876163785E+03  0.25876163785E+03  0.00000000000E+00 0.  1.
          1   -1    0    0  501    0 -0.00000000000E+00 -0.00000000000E+00 -0.10838795935E+03  0.10838795935E+03  0.00000000000E+00 0.  1.
          2    1    1    2  501    0 -0.18737677562E+02  0.48000334629E+02  0.13168443198E+02  0.53184025620E+02  0.00000000000E+00 0.  1.
          1    1    1    2  502    0  0.55865613467E+02  0.20857504295E+02 -0.47199601078E+02  0.76051328690E+02  0.00000000000E+00 0.  1.
         22    1    1    2    0    0 -0.53609506726E+02  0.18548710562E+02  0.44370766436E+02  0.72019433412E+02  0.00000000000E+00 0.  1.
         22    1    1    2    0    0  0.16481570820E+02 -0.87406549485E+02  0.14003406994E+03  0.16589480948E+03  0.00000000000E+00 0.  1.
</event>
<event>
 6    1  0.3240171E-005  0.1227718E+03  0.7818608E-02  0.1292050E+00
          2   -1    0    0  502    0  0.00000000000E+00  0.00000000000E+00  0.12319425768E+03  0.12319425768E+03  0.00000000000E+00 0. -1.
          1   -1    0    0  501    0 -0.00000000000E+00 -0.00000000000E+00 -0.81079701735E+03  0.81079701735E+03  0.00000000000E+00 0. -1.
          2    1    1    2  501    0  0.76330796705E+02 -0.35225668029E+02 -0.62986008428E+03  0.63544548467E+03  0.00000000000E+00 0. -1.
          1    1    1    2  502    0 -0.14624855043E+03  0.34266585817E+02 -0.29662933374E+02  0.15311017936E+03  0.00000000000E+00 0. -1.
         22    1    1    2    0    0  0.26618232806E+02  0.14288418500E+01 -0.76183721905E+02  0.80712647027E+02  0.00000000000E+00 0. -1.
         22    1    1    2    0    0  0.43299520920E+02 -0.46975963767E+00  0.48103979882E+02  0.64722963981E+02  0.00000000000E+00 0. -1.
</event>
<event>
 6    1  0.3240171E-005  0.8153285E+02  0.7818608E-02  0.1333095E+00
          2   -1    0    0  502    0  0.00000000000E+00  0.00000000000E+00  0.98321979946E+02  0.98321979946E+02  0.00000000000E+00 0. -1.
          1   -1    0    0  501    0 -0.00000000000E+00 -0.00000000000E+00 -0.15680597278E+04  0.15680597278E+04  0.00000000000E+00 0.  1.
          2    1    1    2  501    0 -0.60002243447E+02  0.24429665686E+01 -0.51139247091E+01  0.60269308360E+02  0.00000000000E+00 0. -1.
          1    1    1    2  502    0  0.51077895183E+02  0.89937214366E+01 -0.14819322108E+04  0.14828394774E+04  0.00000000000E+00 0.  1.
         22    1    1    2    0    0 -0.45048610379E+02 -0.35670893417E+02 -0.96338793272E+01  0.58263209362E+02  0.00000000000E+00 0.  1.
         22    1    1    2    0    0  0.53972958642E+02  0.24234205412E+02  0.26942267013E+02  0.65009712569E+02  0.00000000000E+00 0. -1.
</event>
<event>
 6    1  0.3240171E-005  0.2159898E+03  0.7818608E-02  0.1268261E+00
          2   -1    0    0  502    0  0.00000000000E+00  0.00000000000E+00  0.10735684095E+03  0.10735684095E+03  0.00000000000E+00 0.  1.
          1   -1    0    0  501    0 -0.00000000000E+00 -0.00000000000E+00 -0.83482246691E+03  0.83482246691E+03  0.00000000000E+00 0.  1.
          2    1    1    2  501    0 -0.30824611559E+02  0.14332152620E+03 -0.55816857846E+02  0.15686535044E+03  0.00000000000E+00 0.  1.
          1    1    1    2  502    0 -0.11774506937E+02 -0.17870961796E+03 -0.61102695880E+03  0.63673362637E+03  0.00000000000E+00 0.  1.
         22    1    1    2    0    0  0.40866920331E+02  0.47772601124E+02 -0.93915724769E+02  0.11301544122E+03  0.00000000000E+00 0. -1.
         22    1    1    2    0    0  0.17321981653E+01 -0.12384509357E+02  0.33293915456E+02  0.35564889834E+02  0.00000000000E+00 0.  1.
</event>
<event>
 6    1  0.3240171E-005  0.2798712E+03  0.7818608E-02  0.1124847E+00
          2   -1    0    0  502    0  0.00000000000E+00  0.00000000000E+00  0.22499982649E+03  0.22499982649E+03  0.00000000000E+00 0. -1.
          1   -1    0    0  501    0 -0.00000000000E+00 -0.00000000000E+00 -0.82551163638E+03  0.82551163638E+03  0.00000000000E+00 0. -1.
          2    1    1    2  501    0 -0.17927947175E+03  0.74858066408E+02 -0.10207388726E+03  0.21946283867E+03  0.00000000000E+00 0. -1.
          1    1    1    2  502    0  0.30377472999E+03 -0.59389967912E+02 -0.56241752197E+03  0.64196551612E+03  0.00000000000E+00 0. -1.
         22    1    1    2    0    0  0.23083034741E+01  0.26106981096E+02 -0.18613518259E+02  0.32146007355E+02  0.00000000000E+00 0.  1.
         22    1    1    2    0    0 -0.12680356172E+03 -0.41575079592E+02  0.82593117598E+02  0.15693710072E+03  0.00000000000E+00 0. -1.
</event>
<event>
 6    1  0.3240171E-005  0.6473953E+02  0.7818608E-02  0.1396004E+00
          2   -1    0    0  502    0  0.00000000000E+00  0.00000000000E+00  0.17950977524E+03  0.17950977524E+03  0.00000000000E+00 0.  1.
          1   -1    0    0  501    0 -0.00000000000E+00 -0.00000000000E+00 -0.46100711429E+03  0.46100711429E+03  0.00000000000E+00 0.  1.
          2    1    1    2  501    0  0.68036236117E+02 -0.55000927316E+02 -0.14333716321E+03  0.16792728720E+03  0.00000000000E+00 0.  1.
          1    1    1    2  502    0 -0.31690096259E+02  0.47391114192E+02 -0.27767961797E+03  0.28347160377E+03  0.00000000000E+00 0.  1.
         22    1    1    2    0    0  0.11615765532E+02 -0.32341433889E+01 -0.19357454596E+02  0.22805629586E+02  0.00000000000E+00 0.  1.
         22    1    1    2    0    0 -0.47961905390E+02  0.10843956513E+02  0.15887689672E+03  0.16631236897E+03  0.00000000000E+00 0.  1.
</event>
<event>
 6    1  0.3240171E-005  0.5448768E+02  0.7818608E-02  0.1452131E+00
          2   -1    0    0  502    0  0.00000000000E+00  0.00000000000E+00  0.26485075442E+03  0.26485075442E+03  0.00000000000E+00 0.  1.
          1   -1    0    0  501    0 -0.00000000000E+00 -0.00000000000E+00 -0.56858450259E+03  0.56858450259E+03  0.00000000000E+00 0. -1.
          2    1    1    2  501    0  0.11717796630E+02  0.32041389791E+02  0.59242079737E+02  0.68363597252E+02  0.00000000000E+00 0.  1.
          1    1    1    2  502    0 -0.56313509210E+01 -0.41096496344E+02 -0.54355890843E+03  0.54513935930E+03  0.00000000000E+00 0. -1.
         22    1    1    2    0    0 -0.41480874808E+01 -0.34704330539E+02  0.87425970068E+00  0.34962287081E+02  0.00000000000E+00 0. -1.
         22    1    1    2    0    0 -0.19383582282E+01  0.43759437092E+02  0.17970882082E+03  0.18497001337E+03  0.00000000000E+00 0.  1.
</event>
<event>
 6    1  0.3240171E-005  0.4140870E+03  0.7818608E-02  0.1148956E+00
          2   -1    0    0  502    0  0.00000000000E+00  0.00000000000E+00  0.34813623791E+03  0.34813623791E+03  0.00000000000E+00 0.  1.
          1   -1    0    0  501    0 -0.00000000000E+00 -0.00000000000E+00 -0.79523945745E+03  0.79523945745E+03  0.00000000000E+00 0.  1.
          2    1    1    2  501    0 -0.18275605492E+03  0.26181970481E+03  0.43065771231E+02  0.32218627234E+03  0.00000000000E+00 0.  1.
          1    1    1    2  502    0  0.26442248415E+03 -0.28091195768E+03 -0.54237848278E+03  0.66558635553E+03  0.00000000000E+00 0.  1.
         22    1    1    2    0    0  0.22921003620E+02  0.12837569458E+01  0.43459283883E+02  0.49150074207E+02  0.00000000000E+00 0.  1.
         22    1    1    2    0    0 -0.10458743285E+03  0.17808495926E+02  0.87502081249E+01  0.10645299328E+03  0.00000000000E+00 0. -1.
</event>
<event>
 6    1  0.3240171E-005  0.1695742E+03  0.7818608E-02  0.1289794E+00
          2   -1    0    0  502    0  0.00000000000E+00  0.00000000000E+00  0.85067853595E+02  0.85067853595E+02  0.00000000000E+00 0.  1.
          1   -1    0    0  501    0 -0.00000000000E+00 -0.00000000000E+00 -0.16779905308E+04  0.16779905308E+04  0.00000000000E+00 0.  1.
          2    1    1    2  501    0  0.13542194016E+03  0.62320834440E+02 -0.80219938191E+03  0.81593310793E+03  0.00000000000E+00 0.  1.
          1    1    1    2  502    0 -0.14160054473E+03 -0.53238477081E+02 -0.80249712765E+03  0.81663130579E+03  0.00000000000E+00 0.  1.
         22    1    1    2    0    0 -0.16615991485E+02 -0.42120077525E+01  0.67736133667E+02  0.69871424678E+02  0.00000000000E+00 0.  1.
         22    1    1    2    0    0  0.22794596063E+02 -0.48703496075E+01 -0.55962301342E+02  0.60622546024E+02  0.00000000000E+00 0.  1.
</event>
<event>
 6    1  0.3240171E-005  0.9715891E+02  0.7818608E-02  0.1378632E+00
          2   -1    0    0  502    0  0.00000000000E+00  0.00000000000E+00  0.40028956139E+02  0.40028956139E+02  0.00000000000E+00 0.  1.
          1   -1    0    0  501    0 -0.00000000000E+00 -0.00000000000E+00 -0.13690476867E+04  0.13690476867E+04  0.00000000000E+00 0.  1.
          2    1    1    2  501    0 -0.28319008694E+02  0.61985027004E+02 -0.18448540439E+03  0.19666970854E+03  0.00000000000E+00 0.  1.
          1    1    1    2  502    0  0.38567672993E+02 -0.82150408356E+02 -0.10440407340E+04  0.10479776759E+04  0.00000000000E+00 0.  1.
         22    1    1    2    0    0  0.19203194854E+02  0.13944954994E+01  0.26480649344E+02  0.32740374157E+02  0.00000000000E+00 0.  1.
         22    1    1    2    0    0 -0.29451859153E+02  0.18770885853E+02 -0.12697324151E+03  0.13168888421E+03  0.00000000000E+00 0. -1.
</event>
<event>
 6    1  0.3240171E-005  0.1485440E+03  0.7818608E-02  0.1254845E+00
          2   -1    0    0  502    0  0.00000000000E+00  0.00000000000E+00  0.53279766755E+03  0.53279766755E+03  0.00000000000E+00 0. -1.
          1   -1    0    0  501    0 -0.00000000000E+00 -0.00000000000E+00 -0.59065291861E+02  0.59065291861E+02  0.00000000000E+00 0. -1.
          2    1    1    2  501    0  0.10260564250E+03  0.37714994275E+01  0.93274158238E+02  0.13871629564E+03  0.00000000000E+00 0. -1.
          1    1    1    2  502    0 -0.11656069964E+03 -0.37528808836E+01  0.13236130525E+03  0.17640860507E+03  0.00000000000E+00 0. -1.
         22    1    1    2    0    0  0.78412891233E+01 -0.49391471019E+02  0.20469953200E+03  0.21071996020E+03  0.00000000000E+00 0. -1.
         22    1    1    2    0    0  0.61137680165E+01  0.49372852475E+02  0.43397380197E+02  0.66018098495E+02  0.00000000000E+00 0. -1.
</event>
<event>
 6    1  0.3240171E-005  0.1949576E+03  0.7818608E-02  0.1154462E+00
          2   -1    0    0  502    0  0.00000000000E+00  0.00000000000E+00  0.36197655572E+03  0.36197655572E+03  0.00000000000E+00 0.  1.
          1   -1    0    0  501    0 -0.00000000000E+00 -0.00000000000E+00 -0.22488957653E+03  0.22488957653E+03  0.00000000000E+00 0.  1.
          2    1    1    2  501    0 -0.62354114432E+02  0.15165755323E+03 -0.56559630052E+02  0.17345616389E+03  0.00000000000E+00 0.  1.
          1    1    1    2  502    0 -0.43843739672E+02 -0.22135616351E+01 -0.61049056097E+02  0.75194152791E+02  0.00000000000E+00 0.  1.
         22    1    1    2    0    0  0.11731314613E+03 -0.15977586857E+03  0.25507118181E+03  0.32303561758E+03  0.00000000000E+00 0.  1.
         22    1    1    2    0    0 -0.11115292028E+02  0.10331876974E+02 -0.37551647562E+00  0.15180197999E+02  0.00000000000E+00 0. -1.
</event>
<event>
 6    1  0.3240171E-005  0.4073634E+03  0.7818608E-02  0.1119256E+00
          2   -1    0    0  502    0  0.00000000000E+00  0.00000000000E+00  0.34460081388E+03  0.34460081388E+03  0.00000000000E+00 0. -1.
          1   -1    0    0  501    0 -0.00000000000E+00 -0.00000000000E+00 -0.59067819897E+03  0.59067819897E+03  0.00000000000E+00 0.  1.
          2    1    1    2  501    0 -0.69064333414E+02 -0.57104204206E+02  0.28718902698E+03  0.30084598968E+03  0.00000000000E+00 0. -1.
          1    1    1    2  502    0 -0.30008967395E+02 -0.12435858346E+01 -0.43769545922E+03  0.43872474247E+03  0.00000000000E+00 0.  1.
         22    1    1    2    0    0  0.49206947662E+02  0.40823977400E+02 -0.12115159645E+03  0.13698770073E+03  0.00000000000E+00 0. -1.
         22    1    1    2    0    0  0.49866353147E+02  0.17523812640E+02  0.25580643594E+02  0.58720579973E+02  0.00000000000E+00 0. -1.
</event>
<event>
 6    1  0.3240171E-005  0.7616581E+02  0.7818608E-02  0.1349003E+00
          2   -1    0    0  502    0  0.00000000000E+00  0.00000000000E+00  0.46586485647E+02  0.46586485647E+02  0.00000000000E+00 0.  1.
          1   -1    0    0  501    0 -0.00000000000E+00 -0.00000000000E+00 -0.61450859231E+03  0.61450859231E+03  0.00000000000E+00 0.  1.
          2    1    1    2  501    0  0.36213309648E+02 -0.76761855617E+01 -0.16489062434E+03  0.16899480943E+03  0.00000000000E+00 0.  1.
          1    1    1    2  502    0 -0.61677134273E+01 -0.21819045626E+02 -0.35537045749E+03  0.35609306859E+03  0.00000000000E+00 0.  1.
         22    1    1    2    0    0 -0.37473391468E+02  0.55650299099E+02  0.14072795657E+02  0.68551108200E+02  0.00000000000E+00 0.  1.
         22    1    1    2    0    0  0.74277952470E+01 -0.26155067911E+02 -0.61733820497E+02  0.67456091740E+02  0.00000000000E+00 0. -1.
</event>
<event>
 6    1  0.3240171E-005  0.3746650E+03  0.7818608E-02  0.1060980E+00
          2   -1    0    0  502    0  0.00000000000E+00  0.00000000000E+00  0.16880649706E+04  0.16880649706E+04  0.00000000000E+00 0. -1.
          1   -1    0    0  501    0 -0.00000000000E+00 -0.00000000000E+00 -0.53935463028E+03  0.53935463028E+03  0.00000000000E+00 0. -1.
          2    1    1    2  501    0 -0.24202717118E+03  0.15857578633E+03  0.76506251356E+03  0.81795114845E+03  0.00000000000E+00 0. -1.
          1    1    1    2  502    0 -0.11461624698E+03 -0.69993409928E+01 -0.45895529379E+03  0.47310235314E+03  0.00000000000E+00 0. -1.
         22    1    1    2    0    0  0.30435650126E+03 -0.17408786668E+03  0.70254275201E+03  0.78517882268E+03  0.00000000000E+00 0. -1.
         22    1    1    2    0    0  0.52286916901E+02  0.22511421343E+02  0.14006036857E+03  0.15118727663E+03  0.00000000000E+00 0. -1.
</event>
<event>
 6    1  0.3240171E-005  0.8799007E+02  0.7818608E-02  0.1313502E+00
          2   -1    0    0  502    0  0.00000000000E+00  0.00000000000E+00  0.87679300515E+02  0.87679300515E+02  0.00000000000E+00 0. -1.
          1   -1    0    0  501    0 -0.00000000000E+00 -0.00000000000E+00 -0.24152004631E+03  0.24152004631E+03  0.00000000000E+00 0. -1.
          2    1    1    2  501    0 -0.23363557733E+02 -0.18180605079E+02 -0.11465689195E+03  0.11841703046E+03  0.00000000000E+00 0. -1.
          1    1    1    2  502    0  0.20803791590E+02  0.37120280129E+02 -0.68107278450E+02  0.80307623045E+02  0.00000000000E+00 0. -1.
         22    1    1    2    0    0  0.45204168258E+01  0.43819140234E+02 -0.22361928181E+02  0.49402500454E+02  0.00000000000E+00 0.  1.
         22    1    1    2    0    0 -0.19606506825E+01 -0.62758815284E+02  0.51285352782E+02  0.81072192871E+02  0.00000000000E+00 0. -1.
</event>
<event>
 6    1  0.3240171E-005  0.1339541E+03  0.7818608E-02  0.1278517E+00
          2   -1    0    0  502    0  0.00000000000E+00  0.00000000000E+00  0.70029382493E+02  0.70029382493E+02  0.00000000000E+00 0. -1.
          1   -1    0    0  501    0 -0.00000000000E+00 -0.00000000000E+00 -0.53677137425E+03  0.53677137425E+03  0.00000000000E+00 0. -1.
          2    1    1    2  501    0 -0.61052012223E+02 -0.20837140105E+01 -0.24136225132E+03  0.24897274232E+03  0.00000000000E+00 0. -1.
          1    1    1    2  502    0  0.99033136217E+02  0.29985856325E+01 -0.37171217246E+01  0.99148225293E+02  0.00000000000E+00 0. -1.
         22    1    1    2    0    0 -0.72321103639E+02  0.25027287612E+02 -0.19121489857E+03  0.20596078411E+03  0.00000000000E+00 0. -1.
         22    1    1    2    0    0  0.34339979644E+02 -0.25942159234E+02 -0.30447720148E+02  0.52719005016E+02  0.00000000000E+00 0. -1.
</event>
