<event>
 6    1  0.1293624E-005  0.9198610E+02  0.7818608E-02  0.1302003E+00
          2   -1    0    0  502    0  0.00000000000E+00  0.00000000000E+00  0.78240005535E+03  0.78240005535E+03  0.00000000000E+00 0.  1.
          1   -1    0    0  501    0 -0.00000000000E+00 -0.00000000000E+00 -0.33143715131E+02  0.33143715131E+02  0.00000000000E+00 0.  1.
          2    1    1    2  501    0  0.46147049345E+02 -0.94186472712E+01  0.13326179563E+03  0.14133989972E+03  0.00000000000E+00 0.  1.
          1    1    1    2  502    0 -0.14355058494E+02  0.51077098258E+02  0.10791053029E+02  0.54142261648E+02  0.00000000000E+00 0.  1.
         22    1    1    2    0    0  0.47026558571E+02 -0.13010780101E+02  0.27995535506E+03  0.28417561197E+03  0.00000000000E+00 0.  1.
         22    1    1    2    0    0 -0.78818549421E+02 -0.28647670886E+02  0.32524813650E+03  0.33588599714E+03  0.00000000000E+00 0.  1.
</event>
<event>
 6    1  0.1293624E-005  0.1865216E+03  0.7818608E-02  0.1161637E+00
          2   -1    0    0  502    0  0.00000000000E+00  0.00000000000E+00  0.14390889123E+03  0.14390889123E+03  0.00000000000E+00 0.  1.
          1   -1    0    0  501    0 -0.00000000000E+00 -0.00000000000E+00 -0.76034749409E+03  0.76034749409E+03  0.00000000000E+00 0.  1.
          2    1    1    2  501    0  0.26156304795E+02  0.34160370179E+02  0.25824880029E+02  0.50179752887E+02  0.00000000000E+00 0.  1.
          1    1    1    2  502    0  0.31806406860E+02 -0.10401707089E+02 -0.69934082871E+03  0.70014101274E+03  0.00000000000E+00 0.  1.
         22    1    1    2    0    0 -0.38868008714E+01  0.33735366536E+02  0.66279118824E+02  0.74472167743E+02  0.00000000000E+00 0.  1.
         22    1    1    2    0    0 -0.54075910783E+02 -0.57494029626E+02 -0.92017730050E+01  0.79463451952E+02  0.00000000000E+00 0.  1.
</event>
<event>
 6    1  0.1293624E-005  0.1873439E+03  0.7818608E-02  0.1160879E+00
          2   -1    0    0  502    0  0.00000000000E+00  0.00000000000E+00  0.16105416951E+02  0.16105416951E+02  0.00000000000E+00 0.  1.
          1   -1    0    0  501    0 -0.00000000000E+00 -0.00000000000E+00 -0.89251190620E+03  0.89251190620E+03  0.00000000000E+00 0.  1.
          2    1    1    2  501    0  0.64142141650E+00  0.44765097390E+02 -0.23756262937E+03  0.24174434479E+03  0.00000000000E+00 0.  1.
          1    1    1    2  502    0  0.32484598098E+02 -0.44710377306E+01 -0.31661994082E+03  0.31831340880E+03  0.00000000000E+00 0.  1.
         22    1    1    2    0    0 -0.69344379098E+02 -0.53620240930E+02 -0.16696852384E+03  0.18857958824E+03  0.00000000000E+00 0.  1.
         22    1    1    2    0    0  0.36218359584E+02  0.13326181271E+02 -0.15525539522E+03  0.15997998132E+03  0.00000000000E+00 0. -1.
</event>
<event>
 6    1  0.1293624E-005  0.3627060E+03  0.7818608E-02  0.1057517E+00
          2   -1    0    0  502    0  0.00000000000E+00  0.00000000000E+00  0.11994671648E+03  0.11994671648E+03  0.00000000000E+00 0. -1.
          1   -1    0    0  501    0 -0.00000000000E+00 -0.00000000000E+00 -0.37018387976E+03  0.37018387976E+03  0.00000000000E+00 0. -1.
          2    1    1    2  501    0 -0.44618214038E+02 -0.80915202791E-01 -0.25034489061E+03  0.25428990508E+03  0.00000000000E+00 0. -1.
          1    1    1    2  502    0  0.31324341324E+02  0.26594381501E+02 -0.78972173069E+02  0.89022916185E+02  0.00000000000E+00 0. -1.
         22    1    1    2    0    0 -0.59400951562E+01  0.12890230793E+02 -0.27843927898E+02  0.31252633507E+02  0.00000000000E+00 0. -1.
         22    1    1    2    0    0  0.19233967870E+02 -0.39403697091E+02  0.10692382829E+03  0.11556514146E+03  0.00000000000E+00 0. -1.
</event>
<event>
 6    1  0.1293624E-005  0.1347757E+03  0.7818608E-02  0.1222035E+00
          2   -1    0    0  502    0  0.00000000000E+00  0.00000000000E+00  0.91181713703E+02  0.91181713703E+02  0.00000000000E+00 0. -1.
          1   -1    0    0  501    0 -0.00000000000E+00 -0.00000000000E+00 -0.16841679913E+04  0.16841679913E+04  0.00000000000E+00 0. -1.
          2    1    1    2  501    0  0.63510118222E+02  0.10287020523E+03 -0.11965602393E+03  0.17009814315E+03  0.00000000000E+00 0. -1.
          1    1    1    2  502    0 -0.11942490850E+03  0.97683529277E+01 -0.14174580819E+04  0.14225136708E+04  0.00000000000E+00 0. -1.
         22    1    1    2    0    0 -0.90545031155E+00  0.19915568890E+02 -0.30298256386E+02  0.36268913197E+02  0.00000000000E+00 0.  1.
         22    1    1    2    0    0  0.56820240587E+02 -0.13255412705E+03 -0.25573915353E+02  0.14646897789E+03  0.00000000000E+00 0. -1.
</event>
<event>
 6    1  0.1293624E-005  0.1065306E+03  0.7818608E-02  0.1280646E+00
          2   -1    0    0  502    0  0.00000000000E+00  0.00000000000E+00  0.50760033756E+03  0.50760033756E+03  0.00000000000E+00 0. -1.
          1   -1    0    0  501    0 -0.00000000000E+00 -0.00000000000E+00 -0.68866312147E+02  0.68866312147E+02  0.00000000000E+00 0. -1.
          2    1    1    2  501    0  0.16311659627E+02 -0.16724652317E+02  0.52724161018E+00  0.23367974209E+02  0.00000000000E+00 0. -1.
          1    1    1    2  502    0 -0.10944134037E+03  0.85042337793E+02  0.30671371510E+03  0.33657526533E+03  0.00000000000E+00 0. -1.
         22    1    1    2    0    0  0.11571520687E+02 -0.78282180391E+02  0.27036046807E+02  0.83623846388E+02  0.00000000000E+00 0.  1.
         22    1    1    2    0    0  0.81558160055E+02  0.99644949155E+01  0.10445702189E+03  0.13289956378E+03  0.00000000000E+00 0. -1.
</event>
<event>
 6    1  0.1293624E-005  0.1748975E+03  0.7818608E-02  0.1172835E+00
          2   -1    0    0  502    0  0.00000000000E+00  0.00000000000E+00  0.13985857163E+03  0.13985857163E+03  0.00000000000E+00 0.  1.
          1   -1    0    0  501    0 -0.00000000000E+00 -0.00000000000E+00 -0.57200099546E+03  0.57200099546E+03  0.00000000000E+00 0. -1.
          2    1    1    2  501    0  0.10971206031E+02 -0.22124645599E+02 -0.52068027186E+01  0.25238425054E+02  0.00000000000E+00 0.  1.
          1    1    1    2  502    0  0.57249607951E+02  0.34090319456E+02 -0.51431995047E+03  0.51861804726E+03  0.00000000000E+00 0. -1.
         22    1    1    2    0    0  0.26732867600E+02 -0.20155476823E+02 -0.66303258543E+01  0.34129908834E+02  0.00000000000E+00 0. -1.
         22    1    1    2    0    0 -0.94953681582E+02  0.81898029662E+01  0.94014655211E+02  0.13387318594E+03  0.00000000000E+00 0.  1.
</event>
<event>
 6    1  0.1293624E-005  0.7734248E+02  0.7818608E-02  0.1386474E+00
          2   -1    0    0  502    0  0.00000000000E+00  0.00000000000E+00  0.80345867178E+02  0.80345867178E+02  0.00000000000E+00 0.  1.
          1   -1    0    0  501    0 -0.00000000000E+00 -0.00000000000E+00 -0.70716581285E+03  0.70716581285E+03  0.00000000000E+00 0. -1.
          2    1    1    2  501    0  0.29803520778E+02 -0.44319927387E+02 -0.11845656465E+03  0.12994023058E+03  0.00000000000E+00 0.  1.
          1    1    1    2  502    0 -0.19522468996E+02  0.68737216681E+02 -0.52422078264E+03  0.52906838944E+03  0.00000000000E+00 0. -1.
         22    1    1    2    0    0 -0.33279068815E+02  0.46480939335E+01  0.61273811039E+02  0.69882623861E+02  0.00000000000E+00 0.  1.
         22    1    1    2    0    0  0.22998017034E+02 -0.29065383228E+02 -0.45416409425E+02  0.58620436153E+02  0.00000000000E+00 0.  1.
</event>
<event>
 6    1  0.1293624E-005  0.2639160E+03  0.7818608E-02  0.1104813E+00
          2   -1    0    0  502    0  0.00000000000E+00  0.00000000000E+00  0.81460201140E+03  0.81460201140E+03  0.00000000000E+00 0.  1.
          1   -1    0    0  501    0 -0.00000000000E+00 -0.00000000000E+00 -0.71336400217E+02  0.71336400217E+02  0.00000000000E+00 0.  1.
          2    1    1    2  501    0  0.12070736702E+02  0.73709961673E+02  0.73955110641E+02  0.10511051101E+03  0.00000000000E+00 0.  1.
          1    1    1    2  502    0 -0.61107805278E+02 -0.14460545968E+03  0.89025678095E+02  0.18047291818E+03  0.00000000000E+00 0.  1.
         22    1    1    2    0    0  0.41209953276E+02 -0.31029677469E+02  0.18345388336E+03  0.19056869746E+03  0.00000000000E+00 0. -1.
         22    1    1    2    0    0  0.78271153000E+01  0.10192517548E+03  0.39683093909E+03  0.40978628497E+03  0.00000000000E+00 0.  1.
</event>
<event>
 6    1  0.1293624E-005  0.4384287E+03  0.7818608E-02  0.1031230E+00
          2   -1    0    0  502    0  0.00000000000E+00  0.00000000000E+00  0.34952699897E+03  0.34952699897E+03  0.00000000000E+00 0. -1.
          1   -1    0    0  501    0 -0.00000000000E+00 -0.00000000000E+00 -0.28270582533E+04  0.28270582533E+04  0.00000000000E+00 0.  1.
          2    1    1    2  501    0  0.13266916701E+03 -0.12526613843E+03  0.93724043811E+02  0.20512656995E+03  0.00000000000E+00 0. -1.
          1    1    1    2  502    0  0.59104648872E+02  0.15034990188E+02 -0.26890907765E+04  0.26897822616E+04  0.00000000000E+00 0.  1.
         22    1    1    2    0    0 -0.18271526369E+03  0.13154036576E+03  0.12490506373E+03  0.25746652278E+03  0.00000000000E+00 0. -1.
         22    1    1    2    0    0 -0.90585521939E+01 -0.21309217515E+02 -0.70695852879E+01  0.24209897875E+02  0.00000000000E+00 0. -1.
</event>
<event>
 6    1  0.1515792E-005  0.7977399E+02  0.7818608E-02  0.1331522E+00
          2   -1    0    0  502    0  0.00000000000E+00  0.00000000000E+00  0.46334333629E+03  0.46334333629E+03  0.00000000000E+00 0.  1.
          1   -1    0    0  501    0 -0.00000000000E+00 -0.00000000000E+00 -0.71442798306E+03  0.71442798306E+03  0.00000000000E+00 0.  1.
          2    1    1    2  501    0 -0.95734560534E+01 -0.98801558258E+02  0.22730670137E+01  0.99290310749E+02  0.00000000000E+00 0.  1.
          1    1    1    2  502    0  0.34320788770E+02  0.49414230806E+02 -0.65278833074E+03  0.65555494621E+03  0.00000000000E+00 0.  1.
         22    1    1    2    0    0 -0.65093681595E+01 -0.23223214169E+02  0.95787550106E+01  0.25950762951E+02  0.00000000000E+00 0. -1.
         22    1    1    2    0    0 -0.18237964557E+02  0.72610541621E+02  0.38985186194E+03  0.39697529944E+03  0.00000000000E+00 0.  1.
</event>
<event>
 6    1  0.1293624E-005  0.5421995E+02  0.7818608E-02  0.1436971E+00
          2   -1    0    0  502    0  0.00000000000E+00  0.00000000000E+00  0.19173736874E+03  0.19173736874E+03  0.00000000000E+00 0.  1.
          1   -1    0    0  501    0 -0.00000000000E+00 -0.00000000000E+00 -0.63081383452E+03  0.63081383452E+03  0.00000000000E+00 0. -1.
          2    1    1    2  501    0 -0.19867978027E+02 -0.10802438435E+02 -0.15266369638E+02  0.27285367304E+02  0.00000000000E+00 0.  1.
          1    1    1    2  502    0  0.31365155485E+01  0.34900932508E+02 -0.58513899010E+03  0.58618729989E+03  0.00000000000E+00 0. -1.
         22    1    1    2    0    0 -0.23014848762E+02 -0.41245938309E+02  0.57397696314E+01  0.47579992076E+02  0.00000000000E+00 0.  1.
         22    1    1    2    0    0  0.39746311240E+02  0.17147444235E+02  0.15558912433E+03  0.16149854399E+03  0.00000000000E+00 0.  1.
</event>
<event>
 6    1  0.1293624E-005  0.9054147E+02  0.7818608E-02  0.1305666E+00
          2   -1    0    0  502    0  0.00000000000E+00  0.00000000000E+00  0.15114440749E+03  0.15114440749E+03  0.00000000000E+00 0.  1.
          1   -1    0    0  501    0 -0.00000000000E+00 -0.00000000000E+00 -0.31268176193E+03  0.31268176193E+03  0.00000000000E+00 0. -1.
          2    1    1    2  501    0 -0.36981981242E+02  0.20079463227E+02  0.10146823312E+02  0.43287524801E+02  0.00000000000E+00 0.  1.
          1    1    1    2  502    0 -0.25774266643E+02 -0.42186714476E+02 -0.25455502152E+03  0.25931118503E+03  0.00000000000E+00 0. -1.
         22    1    1    2    0    0  0.82848990430E+02 -0.25428134176E+02  0.53519310885E+02  0.10185706584E+03  0.00000000000E+00 0.  1.
         22    1    1    2    0    0 -0.20092742544E+02  0.47535385426E+02  0.29351532887E+02  0.59370393744E+02  0.00000000000E+00 0.  1.
</event>
<event>
 6    1  0.1293624E-005  0.1347831E+03  0.7818608E-02  0.1224029E+00
          2   -1    0    0  502    0  0.00000000000E+00  0.00000000000E+00  0.52029031738E+03  0.52029031738E+03  0.00000000000E+00 0. -1.
          1   -1    0    0  501    0 -0.00000000000E+00 -0.00000000000E+00 -0.38704142181E+03  0.38704142181E+03  0.00000000000E+00 0. -1.
          2    1    1    2  501    0 -0.98650381416E+01  0.11455546640E+03  0.28030703444E+03  0.30297245323E+03  0.00000000000E+00 0. -1.
          1    1    1    2  502    0 -0.86386555854E+01 -0.28206295528E+02 -0.34864945446E+03  0.34989521799E+03  0.00000000000E+00 0. -1.
         22    1    1    2    0    0  0.14960080471E+02  0.20178041789E+02  0.11332349936E+03  0.11607399746E+03  0.00000000000E+00 0. -1.
         22    1    1    2    0    0  0.35436132557E+01 -0.10652721266E+03  0.88267816228E+02  0.13839007050E+03  0.00000000000E+00 0. -1.
</event>
<event>
 6    1  0.1293624E-005  0.3578148E+03  0.7818608E-02  0.1059452E+00
          2   -1    0    0  502    0  0.00000000000E+00  0.00000000000E+00  0.24782016569E+03  0.24782016569E+03  0.00000000000E+00 0. -1.
          1   -1    0    0  501    0 -0.00000000000E+00 -0.00000000000E+00 -0.10920587828E+04  0.10920587828E+04  0.00000000000E+00 0. -1.
          2    1    1    2  501    0 -0.11289954544E+02 -0.33037380040E+02 -0.56848513472E+02  0.66713454696E+02  0.00000000000E+00 0. -1.
          1    1    1    2  502    0  0.12146404070E+03  0.30754944408E+03  0.87289117080E+02  0.34199351411E+03  0.00000000000E+00 0. -1.
         22    1    1    2    0    0 -0.42856691789E+02 -0.34316201789E+02 -0.71500532270E+02  0.90147788943E+02  0.00000000000E+00 0.  1.
         22    1    1    2    0    0 -0.67317394364E+02 -0.24019586225E+03 -0.80317868840E+03  0.84102419069E+03  0.00000000000E+00 0. -1.
</event>
<event>
 6    1  0.1293624E-005  0.1289433E+03  0.7818608E-02  0.1229731E+00
          2   -1    0    0  502    0  0.00000000000E+00  0.00000000000E+00  0.83257182069E+03  0.83257182069E+03  0.00000000000E+00 0.  1.
          1   -1    0    0  501    0 -0.00000000000E+00 -0.00000000000E+00 -0.62921745714E+03  0.62921745714E+03  0.00000000000E+00 0. -1.
          2    1    1    2  501    0  0.32864510733E+02  0.79402732542E+02  0.90240204305E+02  0.12461205589E+03  0.00000000000E+00 0.  1.
          1    1    1    2  502    0  0.59326755578E+02  0.99144674754E+01 -0.59942740958E+03  0.60243769798E+03  0.00000000000E+00 0. -1.
         22    1    1    2    0    0 -0.94153254631E+02 -0.10092876581E+03  0.70918819126E+03  0.72249521919E+03  0.00000000000E+00 0.  1.
         22    1    1    2    0    0  0.19619883197E+01  0.11611565792E+02  0.33533775653E+01  0.12244304774E+02  0.00000000000E+00 0. -1.
</event>
<event>
 6    1  0.1293624E-005  0.3781109E+03  0.7818608E-02  0.1051634E+00
          2   -1    0    0  502    0  0.00000000000E+00  0.00000000000E+00  0.95901360882E+03  0.95901360882E+03  0.00000000000E+00 0.  1.
          1   -1    0    0  501    0 -0.00000000000E+00 -0.00000000000E+00 -0.10971513635E+03  0.10971513635E+03  0.00000000000E+00 0.  1.
          2    1    1    2  501    0  0.37636420260E+02 -0.21766820736E+03  0.18593962892E+03  0.28873776031E+03  0.00000000000E+00 0.  1.
          1    1    1    2  502    0  0.43680284613E+02  0.24982331790E+03  0.46464506381E+03  0.52935308893E+03  0.00000000000E+00 0.  1.
         22    1    1    2    0    0  0.72383230598E+01 -0.58874899699E+02  0.91400671808E+02  0.10896205735E+03  0.00000000000E+00 0.  1.
         22    1    1    2    0    0 -0.88555027933E+02  0.26719789162E+02  0.10731310792E+03  0.14167583858E+03  0.00000000000E+00 0.  1.
</event>
<event>
 6    1  0.1293624E-005  0.2011372E+03  0.7818608E-02  0.1148783E+00
          2   -1    0    0  502    0  0.00000000000E+00  0.00000000000E+00  0.12537325271E+03  0.12537325271E+03  0.00000000000E+00 0. -1.
          1   -1    0    0  501    0 -0.00000000000E+00 -0.00000000000E+00 -0.42396510116E+03  0.42396510116E+03  0.00000000000E+00 0.  1.
          2    1    1    2  501    0  0.14128694977E+02 -0.25158678259E+02 -0.35729836146E+02  0.45926030794E+02  0.00000000000E+00 0. -1.
          1    1    1    2  502    0 -0.59992933730E+02  0.78248457204E+02 -0.33120868233E+03  0.34557367435E+03  0.00000000000E+00 0.  1.
         22    1    1    2    0    0  0.34142393046E+02 -0.38449302704E+02  0.10486071450E+03  0.11678964563E+03  0.00000000000E+00 0. -1.
         22    1    1    2    0    0  0.11721845708E+02 -0.14640476241E+02 -0.36514044474E+02  0.41049003096E+02  0.00000000000E+00 0. -1.
</event>
<event>
 6    1  0.1293624E-005  0.1594512E+03  0.7818608E-02  0.1250454E+00
          2   -1    0    0  502    0  0.00000000000E+00  0.00000000000E+00  0.35747827246E+03  0.35747827246E+03  0.00000000000E+00 0.  1.
          1   -1    0    0  501    0 -0.00000000000E+00 -0.00000000000E+00 -0.27675531297E+03  0.27675531297E+03  0.00000000000E+00 0.  1.
          2    1    1    2  501    0  0.82896014932E+02 -0.25735319475E+01  0.52226378005E+02  0.98010034781E+02  0.00000000000E+00 0.  1.
          1    1    1    2  502    0 -0.15740796793E+03  0.76303320155E+01 -0.20642778410E+03  0.25970737452E+03  0.00000000000E+00 0.  1.
         22    1    1    2    0    0  0.21590387221E+02 -0.38480267575E+02  0.20006175415E+03  0.20486966902E+03  0.00000000000E+00 0. -1.
         22    1    1    2    0    0  0.52921565781E+02  0.33423467507E+02  0.34862611427E+02  0.71646507105E+02  0.00000000000E+00 0.  1.
</event>
<event>
 6    1  0.1293624E-005  0.2343363E+03  0.7818608E-02  0.1123624E+00
          2   -1    0    0  502    0  0.00000000000E+00  0.00000000000E+00  0.47883456393E+02  0.47883456393E+02  0.00000000000E+00 0. -1.
          1   -1    0    0  501    0 -0.00000000000E+00 -0.00000000000E+00 -0.81289526995E+03  0.81289526995E+03  0.00000000000E+00 0. -1.
          2    1    1    2  501    0  0.28766235816E+02  0.44831111928E+02 -0.19736594397E+03  0.20442759295E+03  0.00000000000E+00 0. -1.
          1    1    1    2  502    0 -0.42254572124E+01 -0.74815488893E+02 -0.50589626995E+03  0.51141592448E+03  0.00000000000E+00 0. -1.
         22    1    1    2    0    0 -0.24453312163E+02  0.60474274572E+02 -0.84603418143E+02  0.10683089779E+03  0.00000000000E+00 0. -1.
         22    1    1    2    0    0 -0.87466441414E-01 -0.30489897607E+02  0.22853818500E+02  0.38104311128E+02  0.00000000000E+00 0. -1.
</event>
<event>
 6    1  0.1293624E-005  0.1239617E+03  0.7818608E-02  0.1253852E+00
          2   -1    0    0  502    0  0.00000000000E+00  0.00000000000E+00  0.20685266250E+03  0.20685266250E+03  0.00000000000E+00 0.  1.
          1   -1    0    0  501    0 -0.00000000000E+00 -0.00000000000E+00 -0.19273405608E+03  0.19273405608E+03  0.00000000000E+00 0.  1.
          2    1    1    2  501    0 -0.28050997378E+02  0.30397401753E+02  0.36228374041E+02  0.54985048630E+02  0.00000000000E+00 0.  1.
          1    1    1    2  502    0  0.43622259675E+02 -0.12118644346E+03 -0.10409902874E+03  0.16560695457E+03  0.00000000000E+00 0.  1.
         22    1    1    2    0    0  0.50246049065E+02  0.71956639373E+02  0.62734824479E+02  0.10787994067E+03  0.00000000000E+00 0.  1.
         22    1    1    2    0    0 -0.65817311363E+02  0.18832402331E+02  0.19254436637E+02  0.71114774715E+02  0.00000000000E+00 0.  1.
</event>
<event>
 6    1  0.1293624E-005  0.1546664E+03  0.7818608E-02  0.1194853E+00
          2   -1    0    0  502    0  0.00000000000E+00  0.00000000000E+00  0.33710486333E+03  0.33710486333E+03  0.00000000000E+00 0.  1.
          1   -1    0    0  501    0 -0.00000000000E+00 -0.00000000000E+00 -0.88990909217E+02  0.88990909217E+02  0.00000000000E+00 0.  1.
          2    1    1    2  501    0 -0.75059642980E+01  0.20785867423E+02  0.85216953938E+02  0.88035907578E+02  0.00000000000E+00 0.  1.
          1    1    1    2  502    0  0.24525533892E+02 -0.27669192658E+02 -0.66179200237E+02  0.75807470470E+02  0.00000000000E+00 0.  1.
         22    1    1    2    0    0  0.23538123493E+02  0.88911471744E+01 -0.41640609584E+01  0.25503630317E+02  0.00000000000E+00 0.  1.
         22    1    1    2    0    0 -0.40557693087E+02 -0.20078219399E+01  0.23324026137E+03  0.23674876418E+03  0.00000000000E+00 0.  1.
</event>
<event>
 6    1  0.1293624E-005  0.1630657E+03  0.7818608E-02  0.1186798E+00
          2   -1    0    0  502    0  0.00000000000E+00  0.00000000000E+00  0.69247746560E+03  0.69247746560E+03  0.00000000000E+00 0.  1.
          1   -1    0    0  501    0 -0.00000000000E+00 -0.00000000000E+00 -0.22919008824E+03  0.22919008824E+03  0.00000000000E+00 0. -1.
          2    1    1    2  501    0 -0.15108659835E+03 -0.83825421701E+01  0.52945424167E+03  0.55065344931E+03  0.00000000000E+00 0.  1.
          1    1    1    2  502    0  0.81131860379E+02 -0.52696831418E+02 -0.16350189227E+03  0.18997948201E+03  0.00000000000E+00 0. -1.
         22    1    1    2    0    0 -0.27531597166E+02  0.68597237011E+01  0.54688454133E+02  0.61610645730E+02  0.00000000000E+00 0.  1.
         22    1    1    2    0    0  0.97486335137E+02  0.54219649887E+02  0.42646573827E+02  0.11942397679E+03  0.00000000000E+00 0. -1.
</event>
<event>
 6    1  0.1293624E-005  0.1062354E+03  0.7818608E-02  0.1270687E+00
          2   -1    0    0  502    0  0.00000000000E+00  0.00000000000E+00  0.37057133207E+03  0.37057133207E+03  0.00000000000E+00 0.  1.
          1   -1    0    0  501    0 -0.00000000000E+00 -0.00000000000E+00 -0.63884673834E+02  0.63884673834E+02  0.00000000000E+00 0.  1.
          2    1    1    2  501    0 -0.43601118744E+02 -0.30928078876E+02  0.16058831598E+02  0.55816571831E+02  0.00000000000E+00 0.  1.
          1    1    1    2  502    0 -0.67763831795E+01 -0.23295304689E+02 -0.23220721720E+02  0.33582622094E+02  0.00000000000E+00 0.  1.
         22    1    1    2    0    0  0.79839330658E+02  0.69704166177E+02  0.26963411961E+03  0.28971632326E+03  0.00000000000E+00 0.  1.
         22    1    1    2    0    0 -0.29461828735E+02 -0.15480782612E+02  0.44214428744E+02  0.55340488720E+02  0.00000000000E+00 0.  1.
</event>
<event>
 6    1  0.1293624E-005  0.1078685E+03  0.7818608E-02  0.1266017E+00
          2   -1    0    0  502    0  0.00000000000E+00  0.00000000000E+00  0.37891621894E+02  0.37891621894E+02  0.00000000000E+00 0.  1.
          1   -1    0    0  501    0 -0.00000000000E+00 -0.00000000000E+00 -0.71663463045E+03  0.71663463045E+03  0.00000000000E+00 0.  1.
          2    1    1    2  501    0 -0.16566627052E+02  0.59646517420E+02 -0.98639793074E+02  0.11645586696E+03  0.00000000000E+00 0.  1.
          1    1    1    2  502    0 -0.14407003352E+02  0.28565000874E+02 -0.40086055599E+03  0.40213518420E+03  0.00000000000E+00 0.  1.
         22    1    1    2    0    0  0.54500819790E+01  0.27207903174E+02 -0.68704589767E+02  0.74096518432E+02  0.00000000000E+00 0. -1.
         22    1    1    2    0    0  0.25523548425E+02 -0.11541942147E+03 -0.11053806972E+03  0.16183868275E+03  0.00000000000E+00 0.  1.
</event>
<event>
 6    1  0.1293624E-005  0.6219431E+03  0.7818608E-02  0.9860899E-01
          2   -1    0    0  502    0  0.00000000000E+00  0.00000000000E+00  0.85008269481E+03  0.85008269481E+03  0.00000000000E+00 0. -1.
          1   -1    0    0  501    0 -0.00000000000E+00 -0.00000000000E+00 -0.45944744571E+03  0.45944744571E+03  0.00000000000E+00 0. -1.
          2    1    1    2  501    0 -0.37882436343E+03 -0.52609573460E+01 -0.78988817580E+01  0.37894322574E+03  0.00000000000E+00 0. -1.
          1    1    1    2  502    0  0.29403698279E+03  0.14584512305E+03  0.57391781663E+03  0.66114310660E+03  0.00000000000E+00 0. -1.
         22    1    1    2    0    0  0.10829503396E+03 -0.12967738959E+03 -0.17539220353E+03  0.24352918677E+03  0.00000000000E+00 0. -1.
         22    1    1    2    0    0 -0.23507653319E+02 -0.10906776121E+02  0.85177489555E-02  0.25914621403E+02  0.00000000000E+00 0.  1.
</event>
<event>
 6    1  0.1293624E-005  0.3094362E+03  0.7818608E-02  0.1080616E+00
          2   -1    0    0  502    0  0.00000000000E+00  0.00000000000E+00  0.61008804807E+03  0.61008804807E+03  0.00000000000E+00 0.  1.
          1   -1    0    0  501    0 -0.00000000000E+00 -0.00000000000E+00 -0.68694693371E+03  0.68694693371E+03  0.00000000000E+00 0.  1.
          2    1    1    2  501    0  0.73618388135E+01  0.94771396293E+02  0.41543857721E+03  0.42617487685E+03  0.00000000000E+00 0.  1.
          1    1    1    2  502    0 -0.46298209304E+02  0.51525154776E+00 -0.64682968011E+03  0.64848471435E+03  0.00000000000E+00 0.  1.
         22    1    1    2    0    0  0.24835574114E+02  0.11823793619E+02  0.95254784573E+02  0.99146769091E+02  0.00000000000E+00 0.  1.
         22    1    1    2    0    0  0.14100796377E+02 -0.10711044146E+03  0.59277432695E+02  0.12322862149E+03  0.00000000000E+00 0.  1.
</event>
<event>
 6    1  0.1293624E-005  0.7319089E+02  0.7818608E-02  0.1354275E+00
          2   -1    0    0  502    0  0.00000000000E+00  0.00000000000E+00  0.44298972033E+03  0.44298972033E+03  0.00000000000E+00 0.  1.
          1   -1    0    0  501    0 -0.00000000000E+00 -0.00000000000E+00 -0.27417225645E+02  0.27417225645E+02  0.00000000000E+00 0.  1.
          2    1    1    2  501    0 -0.15069345563E+02  0.14420837566E+02  0.31272871972E+02  0.37590401078E+02  0.00000000000E+00 0.  1.
          1    1    1    2  502    0  0.62809120520E+02  0.63185538779E+01  0.11206803584E+03  0.12862408173E+03  0.00000000000E+00 0.  1.
         22    1    1    2    0    0 -0.45064205486E+02 -0.70742954454E+02  0.14579559080E+03  0.16820137490E+03  0.00000000000E+00 0.  1.
         22    1    1    2    0    0 -0.26755694715E+01  0.50003563010E+02  0.12643599607E+03  0.13599108827E+03  0.00000000000E+00 0.  1.
</event>
<event>
 6    1  0.1293624E-005  0.9657735E+02  0.7818608E-02  0.1312752E+00
          2   -1    0    0  502    0  0.00000000000E+00  0.00000000000E+00  0.10794087160E+04  0.10794087160E+04  0.00000000000E+00 0.  1.
          1   -1    0    0  501    0 -0.00000000000E+00 -0.00000000000E+00 -0.70240265873E+02  0.70240265873E+02  0.00000000000E+00 0.  1.
          2    1    1    2  501    0 -0.60560559887E+02  0.34866470536E+01  0.45881025562E+03  0.46280296972E+03  0.00000000000E+00 0.  1.
          1    1    1    2  502    0  0.80387637486E+02  0.72335206964E+01 -0.35483176613E+02  0.88167748666E+02  0.00000000000E+00 0.  1.
         22    1    1    2    0    0 -0.37652561192E+02  0.47428673889E+02  0.34511110664E+03  0.35038389003E+03  0.00000000000E+00 0.  1.
         22    1    1    2    0    0  0.17825483593E+02 -0.58148841639E+02  0.24073026449E+03  0.24829437346E+03  0.00000000000E+00 0.  1.
</event>
<event>
 6    1  0.1293624E-005  0.3382018E+03  0.7818608E-02  0.1067564E+00
          2   -1    0    0  502    0  0.00000000000E+00  0.00000000000E+00  0.81701850370E+02  0.81701850370E+02  0.00000000000E+00 0. -1.
          1   -1    0    0  501    0 -0.00000000000E+00 -0.00000000000E+00 -0.13676924717E+04  0.13676924717E+04  0.00000000000E+00 0. -1.
          2    1    1    2  501    0  0.31755011606E+02 -0.33509130543E+02 -0.94079840946E+03  0.94193040605E+03  0.00000000000E+00 0. -1.
          1    1    1    2  502    0 -0.80854320417E+02 -0.79361324339E+02  0.64095634375E+01  0.11347565128E+03  0.00000000000E+00 0. -1.
         22    1    1    2    0    0  0.76518236081E+01  0.94114758882E+02 -0.97061527340E+02  0.13541446870E+03  0.00000000000E+00 0.  1.
         22    1    1    2    0    0  0.41447485203E+02  0.18755696000E+02 -0.25454024795E+03  0.25857379602E+03  0.00000000000E+00 0.  1.
</event>
<event>
 6    1  0.1293624E-005  0.8549055E+02  0.7818608E-02  0.1316545E+00
          2   -1    0    0  502    0  0.00000000000E+00  0.00000000000E+00  0.40938158153E+02  0.40938158153E+02  0.00000000000E+00 0. -1.
          1   -1    0    0  501    0 -0.00000000000E+00 -0.00000000000E+00 -0.12026318861E+04  0.12026318861E+04  0.00000000000E+00 0. -1.
          2    1    1    2  501    0  0.34439793368E+02 -0.22263255423E+02 -0.22232060173E+02  0.46647791039E+02  0.00000000000E+00 0. -1.
          1    1    1    2  502    0 -0.25898744072E+02 -0.10660133749E+02 -0.10221019565E+04  0.10224855954E+04  0.00000000000E+00 0. -1.
         22    1    1    2    0    0 -0.55394949728E+02  0.52642322803E+02 -0.55919755157E+02  0.94693366305E+02  0.00000000000E+00 0. -1.
         22    1    1    2    0    0  0.46853900432E+02 -0.19718933631E+02 -0.61439956181E+02  0.79743291535E+02  0.00000000000E+00 0. -1.
</event>
<event>
 6    1  0.1293624E-005  0.2238690E+03  0.7818608E-02  0.1131031E+00
          2   -1    0    0  502    0  0.00000000000E+00  0.00000000000E+00  0.26837863897E+02  0.26837863897E+02  0.00000000000E+00 0.  1.
          1   -1    0    0  501    0 -0.00000000000E+00 -0.00000000000E+00 -0.14133139285E+04  0.14133139285E+04  0.00000000000E+00 0.  1.
          2    1    1    2  501    0 -0.32874790861E+02  0.29119162803E+02 -0.28577144977E+03  0.28912626830E+03  0.00000000000E+00 0.  1.
          1    1    1    2  502    0 -0.69724561045E+01 -0.37984822693E+02 -0.93905645333E+03  0.93985024575E+03  0.00000000000E+00 0.  1.
         22    1    1    2    0    0  0.33416766679E+02 -0.27552102997E+02 -0.16814013504E+03  0.17362863729E+03  0.00000000000E+00 0.  1.
         22    1    1    2    0    0  0.64304802870E+01  0.36417762887E+02  0.64919735831E+01  0.37546641014E+02  0.00000000000E+00 0.  1.
</event>
<event>
 6    1  0.1293624E-005  0.1459019E+03  0.7818608E-02  0.1206745E+00
          2   -1    0    0  502    0  0.00000000000E+00  0.00000000000E+00  0.10665841376E+04  0.10665841376E+04  0.00000000000E+00 0. -1.
          1   -1    0    0  501    0 -0.00000000000E+00 -0.00000000000E+00 -0.51788799543E+02  0.51788799543E+02  0.00000000000E+00 0. -1.
          2    1    1    2  501    0  0.18380234893E+02  0.14872935902E+03  0.47761451584E+03  0.50057355205E+03  0.00000000000E+00 0. -1.
          1    1    1    2  502    0  0.51313527592E+02 -0.80813853222E+02  0.53089567424E+02  0.10946441959E+03  0.00000000000E+00 0. -1.
         22    1    1    2    0    0 -0.83295525783E+02 -0.92845415550E+02  0.35871724637E+03  0.37978477938E+03  0.00000000000E+00 0.  1.
         22    1    1    2    0    0  0.13601763299E+02  0.24929909748E+02  0.12537400839E+03  0.12855018610E+03  0.00000000000E+00 0.  1.
</event>
<event>
 6    1  0.1293624E-005  0.4916202E+02  0.7818608E-02  0.1453270E+00
          2   -1    0    0  502    0  0.00000000000E+00  0.00000000000E+00  0.20189948226E+03  0.20189948226E+03  0.00000000000E+00 0.  1.
          1   -1    0    0  501    0 -0.00000000000E+00 -0.00000000000E+00 -0.25837813263E+03  0.25837813263E+03  0.00000000000E+00 0. -1.
          2    1    1    2  501    0  0.14406486729E+02 -0.18095615247E+02  0.62455831477E+02  0.66601269031E+02  0.00000000000E+00 0.  1.
          1    1    1    2  502    0  0.16806307619E+02  0.14711112726E+02 -0.22471086935E+03  0.22581816494E+03  0.00000000000E+00 0. -1.
         22    1    1    2    0    0 -0.39613362697E+02  0.26645425241E+02 -0.10582764635E+02  0.48899816950E+02  0.00000000000E+00 0.  1.
         22    1    1    2    0    0  0.84005683484E+01 -0.23260922721E+02  0.11635915213E+03  0.11895836397E+03  0.00000000000E+00 0.  1.
</event>
<event>
 6    1  0.1293624E-005  0.1405178E+03  0.7818608E-02  0.1213067E+00
          2   -1    0    0  502    0  0.00000000000E+00  0.00000000000E+00  0.71364255290E+03  0.71364255290E+03  0.00000000000E+00 0. -1.
          1   -1    0    0  501    0 -0.00000000000E+00 -0.00000000000E+00 -0.41285555089E+03  0.41285555089E+03  0.00000000000E+00 0.  1.
          2    1    1    2  501    0  0.13282423799E+03 -0.37960953090E+02  0.71019611384E+02  0.15532899715E+03  0.00000000000E+00 0. -1.
          1    1    1    2  502    0 -0.51995893461E+01  0.25537386526E+02 -0.35716403271E+03  0.35811358547E+03  0.00000000000E+00 0.  1.
         22    1    1    2    0    0  0.93893975921E+01 -0.40062394859E+01  0.91229332009E-01  0.10208773910E+02  0.00000000000E+00 0. -1.
         22    1    1    2    0    0 -0.13701404623E+03  0.16429806050E+02  0.58684019400E+03  0.60284674726E+03  0.00000000000E+00 0. -1.
</event>
<event>
 6    1  0.1293624E-005  0.1583704E+03  0.7818608E-02  0.1190549E+00
          2   -1    0    0  502    0  0.00000000000E+00  0.00000000000E+00  0.30777791269E+03  0.30777791269E+03  0.00000000000E+00 0. -1.
          1   -1    0    0  501    0 -0.00000000000E+00 -0.00000000000E+00 -0.41514792632E+02  0.41514792632E+02  0.00000000000E+00 0. -1.
          2    1    1    2  501    0 -0.68782015741E+01 -0.18821400913E+02  0.20039889863E+01  0.20138787478E+02  0.00000000000E+00 0. -1.
          1    1    1    2  502    0  0.23944357332E+02 -0.14704500060E+02  0.15055866028E+03  0.15315829966E+03  0.00000000000E+00 0. -1.
         22    1    1    2    0    0  0.38455348282E+01 -0.41629986996E+02  0.81505515236E+02  0.91602363338E+02  0.00000000000E+00 0. -1.
         22    1    1    2    0    0 -0.20911690586E+02  0.75155887969E+02  0.32194955552E+02  0.84393254840E+02  0.00000000000E+00 0. -1.
</event>
<event>
 6    1  0.1293624E-005  0.1048738E+03  0.7818608E-02  0.1272432E+00
          2   -1    0    0  502    0  0.00000000000E+00  0.00000000000E+00  0.67242358895E+03  0.67242358895E+03  0.00000000000E+00 0. -1.
          1   -1    0    0  501    0 -0.00000000000E+00 -0.00000000000E+00 -0.34444346294E+03  0.34444346294E+03  0.00000000000E+00 0. -1.
          2    1    1    2  501    0  0.69066504496E+02 -0.76467821593E+01 -0.31862138206E+00  0.69489257013E+02  0.00000000000E+00 0. -1.
          1    1    1    2  502    0  0.96752928258E+01 -0.31828134089E+02 -0.29984904530E+03  0.30168873260E+03  0.00000000000E+00 0. -1.
         22    1    1    2    0    0  0.17801045097E+02  0.44688213247E+01  0.14182521362E+02  0.23194643407E+02  0.00000000000E+00 0.  1.
         22    1    1    2    0    0 -0.96542842419E+02  0.35006094924E+02  0.61396527134E+03  0.62249441886E+03  0.00000000000E+00 0. -1.
</event>
<event>
 6    1  0.1293624E-005  0.3028958E+03  0.7818608E-02  0.1111803E+00
          2   -1    0    0  502    0  0.00000000000E+00  0.00000000000E+00  0.92539824555E+03  0.92539824555E+03  0.00000000000E+00 0. -1.
          1   -1    0    0  501    0 -0.00000000000E+00 -0.00000000000E+00 -0.26908170849E+03  0.26908170849E+03  0.00000000000E+00 0. -1.
          2    1    1    2  501    0  0.15422345269E+03 -0.10690709548E+03  0.15624136425E+03  0.24418305496E+03  0.00000000000E+00 0. -1.
          1    1    1    2  502    0 -0.33023519344E+03  0.13830587878E+03 -0.46411046842E+02  0.36102324629E+03  0.00000000000E+00 0. -1.
         22    1    1    2    0    0  0.14394412718E+03 -0.24532265417E+02  0.53493180896E+03  0.55450318668E+03  0.00000000000E+00 0.  1.
         22    1    1    2    0    0  0.32067613572E+02 -0.68665178797E+01  0.11554410685E+02  0.34770466121E+02  0.00000000000E+00 0.  1.
</event>
<event>
 6    1  0.1293624E-005  0.1896166E+03  0.7818608E-02  0.1159887E+00
          2   -1    0    0  502    0  0.00000000000E+00  0.00000000000E+00  0.48602382771E+03  0.48602382771E+03  0.00000000000E+00 0. -1.
          1   -1    0    0  501    0 -0.00000000000E+00 -0.00000000000E+00 -0.15689843861E+03  0.15689843861E+03  0.00000000000E+00 0. -1.
          2    1    1    2  501    0  0.13040452932E+03  0.15079932467E+02  0.13804276377E+02  0.13199736239E+03  0.00000000000E+00 0. -1.
          1    1    1    2  502    0  0.57393859840E+02 -0.39366408933E+02 -0.46274085543E+02  0.83576673135E+02  0.00000000000E+00 0. -1.
         22    1    1    2    0    0  0.12391215335E+02 -0.11672127290E+02  0.66857341065E+01  0.18288789285E+02  0.00000000000E+00 0. -1.
         22    1    1    2    0    0 -0.20018960450E+03  0.35958603757E+02  0.35490946416E+03  0.40905944151E+03  0.00000000000E+00 0. -1.
</event>
<event>
 6    1  0.1293624E-005  0.7087404E+02  0.7818608E-02  0.1359922E+00
          2   -1    0    0  502    0  0.00000000000E+00  0.00000000000E+00  0.32416940642E+03  0.32416940642E+03  0.00000000000E+00 0. -1.
          1   -1    0    0  501    0 -0.00000000000E+00 -0.00000000000E+00 -0.62968109731E+02  0.62968109731E+02  0.00000000000E+00 0. -1.
          2    1    1    2  501    0 -0.32679623017E+02 -0.26518545419E+02  0.16726721147E+02  0.45287682785E+02  0.00000000000E+00 0. -1.
          1    1    1    2  502    0  0.15330144034E+02 -0.14638132314E+02 -0.29965501487E+02  0.36704489005E+02  0.00000000000E+00 0. -1.
         22    1    1    2    0    0  0.24235036752E+02  0.64363561437E+02  0.27229215344E+03  0.28084341166E+03  0.00000000000E+00 0. -1.
         22    1    1    2    0    0 -0.68855577692E+01 -0.23206883704E+02  0.21479235834E+01  0.24301932696E+02  0.00000000000E+00 0. -1.
</event>
<event>
 6    1  0.1293624E-005  0.6556944E+02  0.7818608E-02  0.1377515E+00
          2   -1    0    0  502    0  0.00000000000E+00  0.00000000000E+00  0.12016906138E+03  0.12016906138E+03  0.00000000000E+00 0.  1.
          1   -1    0    0  501    0 -0.00000000000E+00 -0.00000000000E+00 -0.83873560457E+02  0.83873560457E+02  0.00000000000E+00 0.  1.
          2    1    1    2  501    0 -0.28161823302E+02 -0.42002113122E+01  0.33542828748E+01  0.28670215911E+02  0.00000000000E+00 0.  1.
          1    1    1    2  502    0  0.19077545182E+02  0.98090468762E+01 -0.28968413867E+02  0.36046347010E+02  0.00000000000E+00 0.  1.
         22    1    1    2    0    0 -0.48944471202E+02  0.10094147941E+02 -0.39805604277E+01  0.50132803085E+02  0.00000000000E+00 0.  1.
         22    1    1    2    0    0  0.58028749322E+02 -0.15702983505E+02  0.65890192342E+02  0.89193255831E+02  0.00000000000E+00 0.  1.
</event>
<event>
 6    1  0.1293624E-005  0.1012852E+03  0.7818608E-02  0.1299389E+00
          2   -1    0    0  502    0  0.00000000000E+00  0.00000000000E+00  0.49737896159E+03  0.49737896159E+03  0.00000000000E+00 0.  1.
          1   -1    0    0  501    0 -0.00000000000E+00 -0.00000000000E+00 -0.66618439291E+03  0.66618439291E+03  0.00000000000E+00 0.  1.
          2    1    1    2  501    0  0.80447440637E+02 -0.29057052940E+02  0.12695769965E+03  0.15308285512E+03  0.00000000000E+00 0.  1.
          1    1    1    2  502    0 -0.73811835305E+02  0.42866397819E+02 -0.63904078819E+03  0.64471609571E+03  0.00000000000E+00 0.  1.
         22    1    1    2    0    0  0.50200988703E+02  0.22229445746E+02  0.10950658986E+03  0.12249890100E+03  0.00000000000E+00 0.  1.
         22    1    1    2    0    0 -0.56836594034E+02 -0.36038790625E+02  0.23377106737E+03  0.24326550267E+03  0.00000000000E+00 0. -1.
</event>
<event>
 6    1  0.1293624E-005  0.1983941E+03  0.7818608E-02  0.1151101E+00
          2   -1    0    0  502    0  0.00000000000E+00  0.00000000000E+00  0.40192654986E+03  0.40192654986E+03  0.00000000000E+00 0. -1.
          1   -1    0    0  501    0 -0.00000000000E+00 -0.00000000000E+00 -0.29116081558E+03  0.29116081558E+03  0.00000000000E+00 0.  1.
          2    1    1    2  501    0 -0.48681140705E+02  0.96643029085E+01  0.21566025507E+03  0.22129753236E+03  0.00000000000E+00 0. -1.
          1    1    1    2  502    0  0.22522527958E+02  0.10852849087E+02 -0.26605681387E+03  0.26722888468E+03  0.00000000000E+00 0.  1.
         22    1    1    2    0    0  0.91639583012E+01  0.59094809968E+01 -0.18877327696E+02  0.21800311886E+02  0.00000000000E+00 0.  1.
         22    1    1    2    0    0  0.16994654445E+02 -0.26426632992E+02  0.18003962078E+03  0.18276063652E+03  0.00000000000E+00 0. -1.
</event>
<event>
 6    1  0.1293624E-005  0.1829511E+03  0.7818608E-02  0.1209857E+00
          2   -1    0    0  502    0  0.00000000000E+00  0.00000000000E+00  0.68730529971E+03  0.68730529971E+03  0.00000000000E+00 0. -1.
          1   -1    0    0  501    0 -0.00000000000E+00 -0.00000000000E+00 -0.91315667369E+02  0.91315667369E+02  0.00000000000E+00 0. -1.
          2    1    1    2  501    0  0.14671141733E+03  0.67828994491E+01  0.20335216507E+03  0.25084327923E+03  0.00000000000E+00 0. -1.
          1    1    1    2  502    0 -0.15961299749E+03 -0.54915124651E+02  0.75852940212E+02  0.18505579813E+03  0.00000000000E+00 0. -1.
         22    1    1    2    0    0  0.63049428840E+02  0.28762036232E+01  0.14554082116E+03  0.15863679790E+03  0.00000000000E+00 0.  1.
         22    1    1    2    0    0 -0.50147848684E+02  0.45256021579E+02  0.17124370591E+03  0.18408509182E+03  0.00000000000E+00 0. -1.
</event>
<event>
 6    1  0.1293624E-005  0.8045798E+02  0.7818608E-02  0.1330874E+00
          2   -1    0    0  502    0  0.00000000000E+00  0.00000000000E+00  0.77922331974E+02  0.77922331974E+02  0.00000000000E+00 0. -1.
          1   -1    0    0  501    0 -0.00000000000E+00 -0.00000000000E+00 -0.41122607974E+03  0.41122607974E+03  0.00000000000E+00 0. -1.
          2    1    1    2  501    0  0.47976799961E+02  0.37203651306E+02 -0.85001756396E+02  0.10445661107E+03  0.00000000000E+00 0. -1.
          1    1    1    2  502    0  0.15365127419E+02 -0.24233057698E+02 -0.24137489904E+03  0.24307441271E+03  0.00000000000E+00 0. -1.
         22    1    1    2    0    0 -0.70814302253E+02 -0.29496606998E+02  0.43388927637E+02  0.88132367888E+02  0.00000000000E+00 0. -1.
         22    1    1    2    0    0  0.74723748733E+01  0.16526013389E+02 -0.50316019959E+02  0.53485020046E+02  0.00000000000E+00 0. -1.
</event>
<event>
 6    1  0.1293624E-005  0.1214621E+03  0.7818608E-02  0.1241672E+00
          2   -1    0    0  502    0  0.00000000000E+00  0.00000000000E+00  0.83677062884E+02  0.83677062884E+02  0.00000000000E+00 0.  1.
          1   -1    0    0  501    0 -0.00000000000E+00 -0.00000000000E+00 -0.10166304654E+04  0.10166304654E+04  0.00000000000E+00 0.  1.
          2    1    1    2  501    0  0.85950345173E+02  0.24407347027E+02 -0.37683473023E+02  0.96970225138E+02  0.00000000000E+00 0.  1.
          1    1    1    2  502    0  0.34053366583E+01 -0.30814732058E+02 -0.83935086702E+03  0.83992322387E+03  0.00000000000E+00 0.  1.
         22    1    1    2    0    0 -0.11821496236E+03 -0.89247304164E+01 -0.55085327837E+02  0.13072421919E+03  0.00000000000E+00 0.  1.
         22    1    1    2    0    0  0.28859280532E+02  0.15332115448E+02 -0.83373460249E+00  0.32689860053E+02  0.00000000000E+00 0.  1.
</event>
<event>
 6    1  0.1293624E-005  0.6302681E+02  0.7818608E-02  0.1386409E+00
          2   -1    0    0  502    0  0.00000000000E+00  0.00000000000E+00  0.38137273424E+03  0.38137273424E+03  0.00000000000E+00 0. -1.
          1   -1    0    0  501    0 -0.00000000000E+00 -0.00000000000E+00 -0.72581240350E+02  0.72581240350E+02  0.00000000000E+00 0. -1.
          2    1    1    2  501    0 -0.35188044494E+02 -0.56550664716E+01 -0.89605263234E+01  0.36748731735E+02  0.00000000000E+00 0. -1.
          1    1    1    2  502    0 -0.58644402032E+00 -0.23796968578E+02 -0.34235443661E+02  0.41697784507E+02  0.00000000000E+00 0. -1.
         22    1    1    2    0    0  0.50612699509E+02  0.38091742788E+02  0.35267965988E+03  0.35832327403E+03  0.00000000000E+00 0. -1.
         22    1    1    2    0    0 -0.14838210994E+02 -0.86397077379E+01 -0.69219600563E+00  0.17184184316E+02  0.00000000000E+00 0.  1.
</event>
<event>
 6    1  0.1293624E-005  0.1777682E+03  0.7818608E-02  0.1169981E+00
          2   -1    0    0  502    0  0.00000000000E+00  0.00000000000E+00  0.27575950220E+02  0.27575950220E+02  0.00000000000E+00 0. -1.
          1   -1    0    0  501    0 -0.00000000000E+00 -0.00000000000E+00 -0.49983889754E+03  0.49983889754E+03  0.00000000000E+00 0. -1.
          2    1    1    2  501    0  0.15204621502E+02  0.40856269174E+02 -0.85125927453E+02  0.95639106910E+02  0.00000000000E+00 0. -1.
          1    1    1    2  502    0 -0.55888586093E+02 -0.83225875435E+01 -0.12967465457E+03  0.14145075312E+03  0.00000000000E+00 0. -1.
         22    1    1    2    0    0 -0.18944159717E+02  0.31606473169E+02 -0.13387998988E+03  0.13885856842E+03  0.00000000000E+00 0.  1.
         22    1    1    2    0    0  0.59628124308E+02 -0.64140154800E+02 -0.12358237542E+03  0.15146641931E+03  0.00000000000E+00 0. -1.
</event>
<event>
 6    1  0.1293624E-005  0.7693525E+02  0.7818608E-02  0.1342727E+00
          2   -1    0    0  502    0  0.00000000000E+00  0.00000000000E+00  0.51297215986E+03  0.51297215986E+03  0.00000000000E+00 0. -1.
          1   -1    0    0  501    0 -0.00000000000E+00 -0.00000000000E+00 -0.60797930328E+02  0.60797930328E+02  0.00000000000E+00 0.  1.
          2    1    1    2  501    0  0.21347416243E+02  0.20998282494E+02  0.23098345376E+03  0.23291628530E+03  0.00000000000E+00 0. -1.
          1    1    1    2  502    0  0.11585939192E+02  0.17137561389E+02 -0.40803422624E+02  0.45747669833E+02  0.00000000000E+00 0.  1.
         22    1    1    2    0    0 -0.70064339665E+02 -0.49982677934E+02  0.11878007702E+03  0.14668328631E+03  0.00000000000E+00 0. -1.
         22    1    1    2    0    0  0.37130984230E+02  0.11846834052E+02  0.14321412138E+03  0.14842284875E+03  0.00000000000E+00 0. -1.
</event>
<event>
 6    1  0.1293624E-005  0.7409739E+02  0.7818608E-02  0.1353368E+00
          2   -1    0    0  502    0  0.00000000000E+00  0.00000000000E+00  0.88602956350E+02  0.88602956350E+02  0.00000000000E+00 0. -1.
          1   -1    0    0  501    0 -0.00000000000E+00 -0.00000000000E+00 -0.13912418259E+03  0.13912418259E+03  0.00000000000E+00 0. -1.
          2    1    1    2  501    0 -0.27877259920E+02  0.20861056863E+01 -0.76344978523E+01  0.28978940889E+02  0.00000000000E+00 0. -1.
          1    1    1    2  502    0 -0.23801041028E+02  0.51907271869E+01  0.37137403468E+02  0.44414186237E+02  0.00000000000E+00 0. -1.
         22    1    1    2    0    0  0.70394728509E+02 -0.42695704378E+02 -0.79236652887E+02  0.11426630359E+03  0.00000000000E+00 0. -1.
         22    1    1    2    0    0 -0.18716427561E+02  0.35418871505E+02 -0.78747896529E+00  0.40067708225E+02  0.00000000000E+00 0. -1.
</event>
<event>
 6    1  0.1293624E-005  0.7900301E+02  0.7818608E-02  0.1376943E+00
          2   -1    0    0  502    0  0.00000000000E+00  0.00000000000E+00  0.17020350144E+03  0.17020350144E+03  0.00000000000E+00 0. -1.
          1   -1    0    0  501    0 -0.00000000000E+00 -0.00000000000E+00 -0.30732359729E+03  0.30732359729E+03  0.00000000000E+00 0. -1.
          2    1    1    2  501    0 -0.74235057783E+01  0.25143096183E+02  0.89829971242E+01  0.27712415287E+02  0.00000000000E+00 0. -1.
          1    1    1    2  502    0  0.64986580367E+02 -0.14273242347E+02 -0.26302108601E+03  0.27130623428E+03  0.00000000000E+00 0. -1.
         22    1    1    2    0    0  0.12795252036E+02 -0.34520888368E+02  0.93797282044E+02  0.10076378480E+03  0.00000000000E+00 0. -1.
         22    1    1    2    0    0 -0.70358326625E+02  0.23651034532E+02  0.23120710996E+02  0.77744664362E+02  0.00000000000E+00 0. -1.
</event>
<event>
 6    1  0.1293624E-005  0.1849434E+03  0.7818608E-02  0.1163103E+00
          2   -1    0    0  502    0  0.00000000000E+00  0.00000000000E+00  0.26633033068E+03  0.26633033068E+03  0.00000000000E+00 0. -1.
          1   -1    0    0  501    0 -0.00000000000E+00 -0.00000000000E+00 -0.11244083926E+04  0.11244083926E+04  0.00000000000E+00 0.  1.
          2    1    1    2  501    0 -0.14833312301E+02 -0.42874746402E+02  0.21765681475E+02  0.50319140721E+02  0.00000000000E+00 0. -1.
          1    1    1    2  502    0 -0.15446318526E+02  0.18064616352E+02 -0.10921566997E+04  0.10924152945E+04  0.00000000000E+00 0.  1.
         22    1    1    2    0    0  0.21513361686E+02  0.70016225193E+02  0.82798268450E+02  0.11054704781E+03  0.00000000000E+00 0. -1.
         22    1    1    2    0    0  0.87662691416E+01 -0.45206095143E+02  0.12951468784E+03  0.13745724018E+03  0.00000000000E+00 0. -1.
</event>
<event>
 6    1  0.1293624E-005  0.7580074E+02  0.7818608E-02  0.1343121E+00
          2   -1    0    0  502    0  0.00000000000E+00  0.00000000000E+00  0.60186240193E+03  0.60186240193E+03  0.00000000000E+00 0.  1.
          1   -1    0    0  501    0 -0.00000000000E+00 -0.00000000000E+00 -0.15641033267E+03  0.15641033267E+03  0.00000000000E+00 0.  1.
          2    1    1    2  501    0  0.25415740609E+00 -0.25616187936E+02  0.88147748844E+02  0.91794767316E+02  0.00000000000E+00 0.  1.
          1    1    1    2  502    0  0.43713503326E+02  0.12904393669E+02 -0.14262173875E+03  0.14972759971E+03  0.00000000000E+00 0.  1.
         22    1    1    2    0    0 -0.66492166760E+02  0.51180649893E+02  0.36981018209E+03  0.37921001825E+03  0.00000000000E+00 0.  1.
         22    1    1    2    0    0  0.22524506027E+02 -0.38468855625E+02  0.13011587708E+03  0.13754034932E+03  0.00000000000E+00 0.  1.
</event>
<event>
 6    1  0.1293624E-005  0.5890567E+02  0.7818608E-02  0.1405524E+00
          2   -1    0    0  502    0  0.00000000000E+00  0.00000000000E+00  0.64867996715E+03  0.64867996715E+03  0.00000000000E+00 0.  1.
          1   -1    0    0  501    0 -0.00000000000E+00 -0.00000000000E+00 -0.22203264386E+02  0.22203264386E+02  0.00000000000E+00 0.  1.
          2    1    1    2  501    0  0.22028170559E+02  0.78492685844E+00  0.15905310383E+02  0.27181525099E+02  0.00000000000E+00 0.  1.
          1    1    1    2  502    0 -0.18297752953E+02  0.52735738703E+02  0.30870599312E+03  0.31371205920E+03  0.00000000000E+00 0.  1.
         22    1    1    2    0    0  0.45000529722E+02 -0.23044602419E+02  0.48053265216E+02  0.69751112348E+02  0.00000000000E+00 0.  1.
         22    1    1    2    0    0 -0.48730947328E+02 -0.30476063142E+02  0.25381213405E+03  0.26023853489E+03  0.00000000000E+00 0. -1.
</event>
<event>
 6    1  0.1293624E-005  0.1890608E+03  0.7818608E-02  0.1159311E+00
          2   -1    0    0  502    0  0.00000000000E+00  0.00000000000E+00  0.18486968689E+02  0.18486968689E+02  0.00000000000E+00 0.  1.
          1   -1    0    0  501    0 -0.00000000000E+00 -0.00000000000E+00 -0.11544900755E+04  0.11544900755E+04  0.00000000000E+00 0.  1.
          2    1    1    2  501    0 -0.24492641397E+02 -0.39169619658E+01 -0.24324129010E+03  0.24450267337E+03  0.00000000000E+00 0.  1.
          1    1    1    2  502    0  0.13419071675E+02 -0.15668093073E+02 -0.66675587041E+03  0.66707492184E+03  0.00000000000E+00 0.  1.
         22    1    1    2    0    0  0.63635050862E+02  0.23290215592E+02 -0.73135729451E+02  0.99703002778E+02  0.00000000000E+00 0.  1.
         22    1    1    2    0    0 -0.52561481140E+02 -0.37051605534E+01 -0.15287021683E+03  0.16169644618E+03  0.00000000000E+00 0. -1.
</event>
<event>
 6    1  0.1293624E-005  0.1827237E+03  0.7818608E-02  0.1165193E+00
          2   -1    0    0  502    0  0.00000000000E+00  0.00000000000E+00  0.10396716882E+03  0.10396716882E+03  0.00000000000E+00 0.  1.
          1   -1    0    0  501    0 -0.00000000000E+00 -0.00000000000E+00 -0.33088599429E+03  0.33088599429E+03  0.00000000000E+00 0.  1.
          2    1    1    2  501    0  0.37726384926E+02 -0.34238217782E+02 -0.42033204826E+00  0.50948133975E+02  0.00000000000E+00 0.  1.
          1    1    1    2  502    0 -0.49058063031E+02 -0.17592996638E+02 -0.24570014700E+03  0.25116681571E+03  0.00000000000E+00 0.  1.
         22    1    1    2    0    0  0.38331212155E+02  0.10818652598E+02  0.57860865866E+02  0.70243895593E+02  0.00000000000E+00 0.  1.
         22    1    1    2    0    0 -0.26999534050E+02  0.41012561822E+02 -0.38659212284E+02  0.62494317826E+02  0.00000000000E+00 0.  1.
</event>
<event>
 6    1  0.1293624E-005  0.1877226E+03  0.7818608E-02  0.1160532E+00
          2   -1    0    0  502    0  0.00000000000E+00  0.00000000000E+00  0.26039323785E+02  0.26039323785E+02  0.00000000000E+00 0.  1.
          1   -1    0    0  501    0 -0.00000000000E+00 -0.00000000000E+00 -0.14846813106E+04  0.14846813106E+04  0.00000000000E+00 0.  1.
          2    1    1    2  501    0 -0.13926693559E+02 -0.20980235650E+02 -0.12289883479E+02  0.28020783667E+02  0.00000000000E+00 0.  1.
          1    1    1    2  502    0  0.88668140431E+02  0.37627628059E+02 -0.11149549620E+04  0.11191078790E+04  0.00000000000E+00 0.  1.
         22    1    1    2    0    0 -0.43058105371E+01 -0.36508340779E+02 -0.16485233780E+02  0.40288483263E+02  0.00000000000E+00 0.  1.
         22    1    1    2    0    0 -0.70435636335E+02  0.19860948370E+02 -0.31491190760E+03  0.32330348851E+03  0.00000000000E+00 0.  1.
</event>
<event>
 6    1  0.1293624E-005  0.1952959E+03  0.7818608E-02  0.1222096E+00
          2   -1    0    0  502    0  0.00000000000E+00  0.00000000000E+00  0.16685108097E+03  0.16685108097E+03  0.00000000000E+00 0. -1.
          1   -1    0    0  501    0 -0.00000000000E+00 -0.00000000000E+00 -0.87890052786E+03  0.87890052786E+03  0.00000000000E+00 0. -1.
          2    1    1    2  501    0 -0.36435857513E+02 -0.39987910139E+02 -0.15644880007E+02  0.56314890929E+02  0.00000000000E+00 0. -1.
          1    1    1    2  502    0  0.18524455998E+03  0.65095413677E+02 -0.76020317029E+03  0.78515082627E+03  0.00000000000E+00 0. -1.
         22    1    1    2    0    0 -0.10696909986E+03 -0.34461084968E+02 -0.16179278496E+02  0.11354172693E+03  0.00000000000E+00 0. -1.
         22    1    1    2    0    0 -0.41839602604E+02  0.93535814297E+01  0.79977881904E+02  0.90744164691E+02  0.00000000000E+00 0. -1.
</event>
<event>
 6    1  0.1293624E-005  0.8899862E+02  0.7818608E-02  0.1306772E+00
          2   -1    0    0  502    0  0.00000000000E+00  0.00000000000E+00  0.20436300850E+03  0.20436300850E+03  0.00000000000E+00 0. -1.
          1   -1    0    0  501    0 -0.00000000000E+00 -0.00000000000E+00 -0.35233388551E+03  0.35233388551E+03  0.00000000000E+00 0. -1.
          2    1    1    2  501    0 -0.35187888381E+02 -0.31312593159E+02 -0.25929945434E+02  0.53768281070E+02  0.00000000000E+00 0. -1.
          1    1    1    2  502    0  0.19374985623E+01 -0.19914345764E+02 -0.28598817028E+03  0.28668723133E+03  0.00000000000E+00 0. -1.
         22    1    1    2    0    0  0.57960909627E+02  0.67488732247E+02  0.16409641818E+03  0.18665966486E+03  0.00000000000E+00 0. -1.
         22    1    1    2    0    0 -0.24710519808E+02 -0.16261793324E+02 -0.14917948075E+00  0.29581716749E+02  0.00000000000E+00 0. -1.
</event>
<event>
 6    1  0.1293624E-005  0.1713886E+03  0.7818608E-02  0.1176407E+00
          2   -1    0    0  502    0  0.00000000000E+00  0.00000000000E+00  0.10899492773E+03  0.10899492773E+03  0.00000000000E+00 0. -1.
          1   -1    0    0  501    0 -0.00000000000E+00 -0.00000000000E+00 -0.22175414372E+03  0.22175414372E+03  0.00000000000E+00 0. -1.
          2    1    1    2  501    0 -0.19143059504E+02  0.15905986746E+02 -0.14198816506E+02  0.28654206179E+02  0.00000000000E+00 0. -1.
          1    1    1    2  502    0 -0.15406718333E+02  0.17211038252E+02 -0.15297191486E+03  0.15470615225E+03  0.00000000000E+00 0. -1.
         22    1    1    2    0    0  0.26252260232E+02 -0.58634376468E+02 -0.20806196423E+02  0.67528283562E+02  0.00000000000E+00 0. -1.
         22    1    1    2    0    0  0.82975176049E+01  0.25517351470E+02  0.75217711801E+02  0.79860429457E+02  0.00000000000E+00 0. -1.
</event>
<event>
 6    1  0.1293624E-005  0.2066794E+03  0.7818608E-02  0.1144223E+00
          2   -1    0    0  502    0  0.00000000000E+00  0.00000000000E+00  0.57064456173E+02  0.57064456173E+02  0.00000000000E+00 0. -1.
          1   -1    0    0  501    0 -0.00000000000E+00 -0.00000000000E+00 -0.47609485676E+03  0.47609485676E+03  0.00000000000E+00 0.  1.
          2    1    1    2  501    0  0.31277452697E+02  0.44382032570E+02 -0.32795090955E+02  0.63431552503E+02  0.00000000000E+00 0. -1.
          1    1    1    2  502    0 -0.15506201588E+02  0.45206600570E+02 -0.28004653108E+03  0.28409529844E+03  0.00000000000E+00 0.  1.
         22    1    1    2    0    0 -0.44550839167E+02 -0.95192948224E+02 -0.11423405613E+03  0.15522852265E+03  0.00000000000E+00 0. -1.
         22    1    1    2    0    0  0.28779588058E+02  0.56043150838E+01  0.80452775840E+01  0.30403939346E+02  0.00000000000E+00 0. -1.
</event>
<event>
 6    1  0.1293624E-005  0.8214672E+02  0.7818608E-02  0.1324825E+00
          2   -1    0    0  502    0  0.00000000000E+00  0.00000000000E+00  0.59785067433E+03  0.59785067433E+03  0.00000000000E+00 0.  1.
          1   -1    0    0  501    0 -0.00000000000E+00 -0.00000000000E+00 -0.35207799150E+03  0.35207799150E+03  0.00000000000E+00 0. -1.
          2    1    1    2  501    0  0.30763813337E+02 -0.15743706216E+02  0.15245311641E+03  0.15632091735E+03  0.00000000000E+00 0.  1.
          1    1    1    2  502    0 -0.30680451655E+02 -0.23243766789E+02 -0.33930425140E+03  0.34148050870E+03  0.00000000000E+00 0. -1.
         22    1    1    2    0    0  0.57997378595E+02 -0.12532282540E+01  0.24122278488E+03  0.24810017825E+03  0.00000000000E+00 0.  1.
         22    1    1    2    0    0 -0.58080740276E+02  0.40240701259E+02  0.19140103293E+03  0.20402706153E+03  0.00000000000E+00 0.  1.
</event>
<event>
 6    1  0.1293624E-005  0.2127291E+03  0.7818608E-02  0.1139423E+00
          2   -1    0    0  502    0  0.00000000000E+00  0.00000000000E+00  0.43880359495E+03  0.43880359495E+03  0.00000000000E+00 0.  1.
          1   -1    0    0  501    0 -0.00000000000E+00 -0.00000000000E+00 -0.36470084198E+03  0.36470084198E+03  0.00000000000E+00 0.  1.
          2    1    1    2  501    0  0.46095450477E+02 -0.20293301806E+02  0.24919302159E+03  0.25423172631E+03  0.00000000000E+00 0.  1.
          1    1    1    2  502    0 -0.75850984218E+02  0.58223292146E+02 -0.33176294461E+03  0.34526797559E+03  0.00000000000E+00 0.  1.
         22    1    1    2    0    0  0.44016417861E+01 -0.45752188036E+02  0.88318705172E+00  0.45971917296E+02  0.00000000000E+00 0.  1.
         22    1    1    2    0    0  0.25353891954E+02  0.78221976965E+01  0.15578948894E+03  0.15803281773E+03  0.00000000000E+00 0. -1.
</event>
<event>
 6    1  0.1293624E-005  0.7777141E+02  0.7818608E-02  0.1337229E+00
          2   -1    0    0  502    0  0.00000000000E+00  0.00000000000E+00  0.93186960632E+02  0.93186960632E+02  0.00000000000E+00 0.  1.
          1   -1    0    0  501    0 -0.00000000000E+00 -0.00000000000E+00 -0.53958417658E+03  0.53958417658E+03  0.00000000000E+00 0.  1.
          2    1    1    2  501    0  0.13587158526E+02  0.23413792468E+02 -0.42821721384E+01  0.27407180679E+02  0.00000000000E+00 0.  1.
          1    1    1    2  502    0 -0.29350300658E+02  0.70727770388E+01 -0.47230521771E+03  0.47326914436E+03  0.00000000000E+00 0.  1.
         22    1    1    2    0    0 -0.25037141347E+02 -0.68437499397E+02  0.17562728654E+02  0.74959984047E+02  0.00000000000E+00 0.  1.
         22    1    1    2    0    0  0.40800283479E+02  0.37950929891E+02  0.12627445250E+02  0.57134828127E+02  0.00000000000E+00 0.  1.
</event>
<event>
 6    1  0.1293624E-005  0.3116912E+03  0.7818608E-02  0.1121354E+00
          2   -1    0    0  502    0  0.00000000000E+00  0.00000000000E+00  0.24833716954E+03  0.24833716954E+03  0.00000000000E+00 0. -1.
          1   -1    0    0  501    0 -0.00000000000E+00 -0.00000000000E+00 -0.92857988118E+03  0.92857988118E+03  0.00000000000E+00 0. -1.
          2    1    1    2  501    0  0.21761990875E+03  0.15929225367E+03 -0.64429502206E+03  0.69846153954E+03  0.00000000000E+00 0. -1.
          1    1    1    2  502    0 -0.13947980109E+03 -0.20751293784E+03  0.10089832560E+03  0.26962326753E+03  0.00000000000E+00 0. -1.
         22    1    1    2    0    0 -0.10508308878E+03  0.78263949094E+01 -0.71172501080E+02  0.12715829865E+03  0.00000000000E+00 0. -1.
         22    1    1    2    0    0  0.26942981124E+02  0.40394289262E+02 -0.65673514101E+02  0.81673944996E+02  0.00000000000E+00 0. -1.
</event>
<event>
 6    1  0.1293624E-005  0.2365316E+03  0.7818608E-02  0.1122125E+00
          2   -1    0    0  502    0  0.00000000000E+00  0.00000000000E+00  0.16367508876E+03  0.16367508876E+03  0.00000000000E+00 0. -1.
          1   -1    0    0  501    0 -0.00000000000E+00 -0.00000000000E+00 -0.13556394410E+04  0.13556394410E+04  0.00000000000E+00 0.  1.
          2    1    1    2  501    0  0.37772548047E+01  0.23230161274E+02 -0.46114166264E+02  0.51772815038E+02  0.00000000000E+00 0. -1.
          1    1    1    2  502    0  0.64264316276E+02  0.26598019184E+02 -0.12687321321E+04  0.12706370765E+04  0.00000000000E+00 0.  1.
         22    1    1    2    0    0 -0.15519465690E+02  0.18437463189E+02 -0.19160125074E+02  0.30788053803E+02  0.00000000000E+00 0.  1.
         22    1    1    2    0    0 -0.52522105390E+02 -0.68265643647E+02  0.14204207120E+03  0.16611658450E+03  0.00000000000E+00 0. -1.
</event>
<event>
 6    1  0.1293624E-005  0.8365353E+02  0.7818608E-02  0.1322435E+00
          2   -1    0    0  502    0  0.00000000000E+00  0.00000000000E+00  0.10288328156E+03  0.10288328156E+03  0.00000000000E+00 0. -1.
          1   -1    0    0  501    0 -0.00000000000E+00 -0.00000000000E+00 -0.23509457921E+03  0.23509457921E+03  0.00000000000E+00 0. -1.
          2    1    1    2  501    0  0.49094085558E+02  0.97785527609E+00 -0.68458082880E+01  0.49578730609E+02  0.00000000000E+00 0. -1.
          1    1    1    2  502    0 -0.29887947515E+01  0.24741979690E+02 -0.14993335219E+03  0.15199048836E+03  0.00000000000E+00 0. -1.
         22    1    1    2    0    0  0.31456128911E+02 -0.12059238931E+02 -0.26226767636E+02  0.42693753996E+02  0.00000000000E+00 0. -1.
         22    1    1    2    0    0 -0.77561419717E+02 -0.13660596035E+02  0.50794630462E+02  0.93714887805E+02  0.00000000000E+00 0. -1.
</event>
<event>
 6    1  0.1293624E-005  0.2305173E+03  0.7818608E-02  0.1126276E+00
          2   -1    0    0  502    0  0.00000000000E+00  0.00000000000E+00  0.43129274136E+02  0.43129274136E+02  0.00000000000E+00 0. -1.
          1   -1    0    0  501    0 -0.00000000000E+00 -0.00000000000E+00 -0.92650009508E+03  0.92650009508E+03  0.00000000000E+00 0. -1.
          2    1    1    2  501    0  0.30809410952E+02 -0.26951713584E+02 -0.20777777187E+03  0.21177161554E+03  0.00000000000E+00 0. -1.
          1    1    1    2  502    0 -0.25134588090E+02 -0.11130055092E+02 -0.61597163678E+03  0.61658469245E+03  0.00000000000E+00 0. -1.
         22    1    1    2    0    0  0.50781775126E+02  0.26072554946E+02 -0.60990789787E+02  0.83537077069E+02  0.00000000000E+00 0.  1.
         22    1    1    2    0    0 -0.56456597988E+02  0.12009213730E+02  0.13693774959E+01  0.57735984148E+02  0.00000000000E+00 0. -1.
</event>
<event>
 6    1  0.1293624E-005  0.5481638E+03  0.7818608E-02  0.1001920E+00
          2   -1    0    0  502    0  0.00000000000E+00  0.00000000000E+00  0.79887221529E+03  0.79887221529E+03  0.00000000000E+00 0.  1.
          1   -1    0    0  501    0 -0.00000000000E+00 -0.00000000000E+00 -0.21584292497E+04  0.21584292497E+04  0.00000000000E+00 0. -1.
          2    1    1    2  501    0 -0.17679888529E+03  0.82349821816E+02  0.20976403669E+03  0.28642676216E+03  0.00000000000E+00 0.  1.
          1    1    1    2  502    0  0.10420182247E+03  0.23561916318E+03 -0.20553976695E+04  0.20714811101E+04  0.00000000000E+00 0. -1.
         22    1    1    2    0    0 -0.28070120788E+02 -0.42557724790E+02  0.11981611978E+03  0.13021134428E+03  0.00000000000E+00 0.  1.
         22    1    1    2    0    0  0.10066718360E+03 -0.27541126020E+03  0.36626047857E+03  0.46918224846E+03  0.00000000000E+00 0.  1.
</event>
<event>
 6    1  0.1293624E-005  0.2742106E+03  0.7818608E-02  0.1098894E+00
          2   -1    0    0  502    0  0.00000000000E+00  0.00000000000E+00  0.55906938490E+03  0.55906938490E+03  0.00000000000E+00 0. -1.
          1   -1    0    0  501    0 -0.00000000000E+00 -0.00000000000E+00 -0.10948354292E+03  0.10948354292E+03  0.00000000000E+00 0. -1.
          2    1    1    2  501    0 -0.36782893078E+02 -0.40322461680E+02  0.32434091070E+02  0.63488994342E+02  0.00000000000E+00 0. -1.
          1    1    1    2  502    0  0.21548556657E+03  0.19761586576E+02  0.24195358417E+03  0.32460142729E+03  0.00000000000E+00 0. -1.
         22    1    1    2    0    0 -0.12911522205E+03  0.67259549774E+02  0.89125945035E+02  0.17069862823E+03  0.00000000000E+00 0. -1.
         22    1    1    2    0    0 -0.49587451443E+02 -0.46698674671E+02  0.86072221706E+02  0.10976387797E+03  0.00000000000E+00 0. -1.
</event>
<event>
 6    1  0.1293624E-005  0.7497545E+02  0.7818608E-02  0.1346567E+00
          2   -1    0    0  502    0  0.00000000000E+00  0.00000000000E+00  0.11459848215E+03  0.11459848215E+03  0.00000000000E+00 0. -1.
          1   -1    0    0  501    0 -0.00000000000E+00 -0.00000000000E+00 -0.44345349249E+03  0.44345349249E+03  0.00000000000E+00 0.  1.
          2    1    1    2  501    0  0.10658596190E+02  0.23637106516E+02  0.34995923772E+02  0.43554944126E+02  0.00000000000E+00 0. -1.
          1    1    1    2  502    0 -0.51929064316E+01  0.21951808884E+02 -0.38037140794E+03  0.38103970419E+03  0.00000000000E+00 0.  1.
         22    1    1    2    0    0 -0.34705707520E+02 -0.76568888381E+02 -0.77589231905E+01  0.84424414073E+02  0.00000000000E+00 0. -1.
         22    1    1    2    0    0  0.29240017762E+02  0.30979972980E+02  0.24279397023E+02  0.49032912257E+02  0.00000000000E+00 0. -1.
</event>
<event>
 6    1  0.1293624E-005  0.4712196E+03  0.7818608E-02  0.1021577E+00
          2   -1    0    0  502    0  0.00000000000E+00  0.00000000000E+00  0.79032650490E+03  0.79032650490E+03  0.00000000000E+00 0.  1.
          1   -1    0    0  501    0 -0.00000000000E+00 -0.00000000000E+00 -0.26156612274E+03  0.26156612274E+03  0.00000000000E+00 0.  1.
          2    1    1    2  501    0  0.18841401505E+02 -0.79661578431E+02  0.96309107162E+02  0.12639782281E+03  0.00000000000E+00 0.  1.
          1    1    1    2  502    0 -0.12653824597E+03  0.41750915689E+03  0.28776444875E+03  0.52262242752E+03  0.00000000000E+00 0.  1.
         22    1    1    2    0    0  0.43775306409E+02 -0.28472661508E+03  0.13819825967E+03  0.31950630942E+03  0.00000000000E+00 0.  1.
         22    1    1    2    0    0  0.63921538058E+02 -0.53120963383E+02  0.64885665722E+01  0.83366067885E+02  0.00000000000E+00 0. -1.
</event>
<event>
 6    1  0.1293624E-005  0.1844993E+03  0.7818608E-02  0.1163518E+00
          2   -1    0    0  502    0  0.00000000000E+00  0.00000000000E+00  0.12722062184E+03  0.12722062184E+03  0.00000000000E+00 0.  1.
          1   -1    0    0  501    0 -0.00000000000E+00 -0.00000000000E+00 -0.35399596155E+03  0.35399596155E+03  0.00000000000E+00 0.  1.
          2    1    1    2  501    0 -0.16419959573E+02  0.19448267657E+02 -0.18194596016E+02  0.31287273953E+02  0.00000000000E+00 0.  1.
          1    1    1    2  502    0 -0.39255892103E+02 -0.53982578614E+02 -0.28107601666E+03  0.28889249039E+03  0.00000000000E+00 0.  1.
         22    1    1    2    0    0  0.56885998108E+02  0.58994811775E+01 -0.22767337817E+02  0.61556253380E+02  0.00000000000E+00 0. -1.
         22    1    1    2    0    0 -0.12101464321E+01  0.28634829780E+02  0.95262610786E+02  0.99480565663E+02  0.00000000000E+00 0.  1.
</event>
<event>
 6    1  0.1293624E-005  0.1596846E+03  0.7818608E-02  0.1189053E+00
          2   -1    0    0  502    0  0.00000000000E+00  0.00000000000E+00  0.17331796253E+03  0.17331796253E+03  0.00000000000E+00 0.  1.
          1   -1    0    0  501    0 -0.00000000000E+00 -0.00000000000E+00 -0.66205416730E+03  0.66205416730E+03  0.00000000000E+00 0.  1.
          2    1    1    2  501    0 -0.19471681729E+02 -0.73171772750E+01  0.59296409459E+01  0.21629796910E+02  0.00000000000E+00 0.  1.
          1    1    1    2  502    0  0.32139578068E+01 -0.35412292109E+02 -0.62466003775E+03  0.62567125770E+03  0.00000000000E+00 0.  1.
         22    1    1    2    0    0  0.34150691250E+02  0.71322701246E+02  0.33552412316E+02  0.85900883570E+02  0.00000000000E+00 0.  1.
         22    1    1    2    0    0 -0.17892967328E+02 -0.28593231862E+02  0.96441779712E+02  0.10217019165E+03  0.00000000000E+00 0.  1.
</event>
<event>
 6    1  0.1293624E-005  0.1062599E+03  0.7818608E-02  0.1271135E+00
          2   -1    0    0  502    0  0.00000000000E+00  0.00000000000E+00  0.82818485012E+03  0.82818485012E+03  0.00000000000E+00 0.  1.
          1   -1    0    0  501    0 -0.00000000000E+00 -0.00000000000E+00 -0.20517718621E+03  0.20517718621E+03  0.00000000000E+00 0. -1.
          2    1    1    2  501    0  0.34937856834E+01 -0.12043381084E+03  0.17953593997E+03  0.21621670396E+03  0.00000000000E+00 0.  1.
          1    1    1    2  502    0 -0.18594370944E+02  0.70158303128E+02 -0.17204290755E+03  0.18672627069E+03  0.00000000000E+00 0. -1.
         22    1    1    2    0    0 -0.10720771717E+02 -0.35888850400E+02  0.93711394040E+02  0.10091962100E+03  0.00000000000E+00 0.  1.
         22    1    1    2    0    0  0.25821356977E+02  0.86164358110E+02  0.52180323744E+03  0.52949944068E+03  0.00000000000E+00 0.  1.
</event>
<event>
 6    1  0.2406760E-005  0.2117491E+03  0.7818608E-02  0.1140188E+00
          2   -1    0    0  502    0  0.00000000000E+00  0.00000000000E+00  0.29672157278E+03  0.29672157278E+03  0.00000000000E+00 0.  1.
          1   -1    0    0  501    0 -0.00000000000E+00 -0.00000000000E+00 -0.76338949695E+03  0.76338949695E+03  0.00000000000E+00 0.  1.
          2    1    1    2  501    0 -0.21784041953E+02  0.43002606126E+02  0.64515747450E+01  0.48635290008E+02  0.00000000000E+00 0.  1.
          1    1    1    2  502    0  0.60021766884E+02 -0.37038531112E+02 -0.72367799762E+03  0.72710680751E+03  0.00000000000E+00 0.  1.
         22    1    1    2    0    0 -0.35309599722E+02  0.36824180478E+02  0.23216231540E+03  0.23770176438E+03  0.00000000000E+00 0.  1.
         22    1    1    2    0    0 -0.29281252084E+01 -0.42788255493E+02  0.18396183308E+02  0.46667207820E+02  0.00000000000E+00 0.  1.
</event>
<event>
 6    1  0.1293624E-005  0.1509893E+03  0.7818608E-02  0.1199263E+00
          2   -1    0    0  502    0  0.00000000000E+00  0.00000000000E+00  0.13212041703E+03  0.13212041703E+03  0.00000000000E+00 0.  1.
          1   -1    0    0  501    0 -0.00000000000E+00 -0.00000000000E+00 -0.50558468499E+03  0.50558468499E+03  0.00000000000E+00 0.  1.
          2    1    1    2  501    0  0.97800567369E+01 -0.25850564251E+02  0.17365444648E+02  0.32641382472E+02  0.00000000000E+00 0.  1.
          1    1    1    2  502    0 -0.16097345402E+02  0.35342867117E+02 -0.46136260826E+03  0.46299427543E+03  0.00000000000E+00 0.  1.
         22    1    1    2    0    0  0.87675944467E+01 -0.34985983520E+02 -0.24528732774E+02  0.43618212787E+02  0.00000000000E+00 0.  1.
         22    1    1    2    0    0 -0.24503057816E+01  0.25493680654E+02  0.95061628418E+02  0.98451231324E+02  0.00000000000E+00 0.  1.
</event>
<event>
 6    1  0.1293624E-005  0.4796381E+03  0.7818608E-02  0.1019235E+00
          2   -1    0    0  502    0  0.00000000000E+00  0.00000000000E+00  0.85211375502E+03  0.85211375502E+03  0.00000000000E+00 0.  1.
          1   -1    0    0  501    0 -0.00000000000E+00 -0.00000000000E+00 -0.73189564368E+03  0.73189564368E+03  0.00000000000E+00 0.  1.
          2    1    1    2  501    0  0.25598709329E+03 -0.65225434187E+02  0.41995386724E+03  0.49613002308E+03  0.00000000000E+00 0.  1.
          1    1    1    2  502    0 -0.19982206339E+03 -0.10421301126E+03 -0.64369307546E+03  0.68200438717E+03  0.00000000000E+00 0.  1.
         22    1    1    2    0    0 -0.35672372871E+02  0.17434194276E+03  0.23433367152E+03  0.29424462748E+03  0.00000000000E+00 0. -1.
         22    1    1    2    0    0 -0.20492657030E+02 -0.49034973144E+01  0.10962364804E+03  0.11163036096E+03  0.00000000000E+00 0.  1.
</event>
<event>
 6    1  0.1293624E-005  0.1064378E+03  0.7818608E-02  0.1269489E+00
          2   -1    0    0  502    0  0.00000000000E+00  0.00000000000E+00  0.10647404746E+03  0.10647404746E+03  0.00000000000E+00 0. -1.
          1   -1    0    0  501    0 -0.00000000000E+00 -0.00000000000E+00 -0.24454684607E+03  0.24454684607E+03  0.00000000000E+00 0. -1.
          2    1    1    2  501    0  0.12238729428E+02 -0.67615731410E+02 -0.22376821866E+02  0.72266145524E+02  0.00000000000E+00 0. -1.
          1    1    1    2  502    0 -0.35322063038E+02  0.84317798336E+01 -0.13231240059E+03  0.13720537307E+03  0.00000000000E+00 0. -1.
         22    1    1    2    0    0  0.10004697414E+02  0.98399533033E+02  0.73156723197E+01  0.99177019177E+02  0.00000000000E+00 0. -1.
         22    1    1    2    0    0  0.13078636197E+02 -0.39215581457E+02  0.93007515246E+01  0.42372355760E+02  0.00000000000E+00 0. -1.
</event>
<event>
 6    1  0.1293624E-005  0.2406489E+03  0.7818608E-02  0.1119361E+00
          2   -1    0    0  502    0  0.00000000000E+00  0.00000000000E+00  0.27484417399E+03  0.27484417399E+03  0.00000000000E+00 0. -1.
          1   -1    0    0  501    0 -0.00000000000E+00 -0.00000000000E+00 -0.27036766636E+03  0.27036766636E+03  0.00000000000E+00 0.  1.
          2    1    1    2  501    0 -0.62768913495E+02 -0.67046586823E+02  0.14145496406E+03  0.16865553108E+03  0.00000000000E+00 0. -1.
          1    1    1    2  502    0  0.27925455313E+02  0.31767581274E+02 -0.21523486633E+03  0.21935144850E+03  0.00000000000E+00 0.  1.
         22    1    1    2    0    0 -0.29355100990E+02 -0.29469760261E+02  0.86322899845E+01  0.42481821457E+02  0.00000000000E+00 0.  1.
         22    1    1    2    0    0  0.64198559172E+02  0.64748765810E+02  0.69624119928E+02  0.11472303931E+03  0.00000000000E+00 0.  1.
</event>
<event>
 6    1  0.1293624E-005  0.4036375E+02  0.7818608E-02  0.1508928E+00
          2   -1    0    0  502    0  0.00000000000E+00  0.00000000000E+00  0.17601642026E+03  0.17601642026E+03  0.00000000000E+00 0. -1.
          1   -1    0    0  501    0 -0.00000000000E+00 -0.00000000000E+00 -0.31102659103E+03  0.31102659103E+03  0.00000000000E+00 0. -1.
          2    1    1    2  501    0  0.21387205425E+01 -0.26591076101E+02 -0.15852286619E+02  0.31031507292E+02  0.00000000000E+00 0. -1.
          1    1    1    2  502    0 -0.35497075709E+01  0.20299833208E+02 -0.26491593903E+03  0.26571627425E+03  0.00000000000E+00 0. -1.
         22    1    1    2    0    0 -0.58978145717E+01 -0.30587927676E+02 -0.78729670812E+01  0.32130813044E+02  0.00000000000E+00 0.  1.
         22    1    1    2    0    0  0.73088016001E+01  0.36879170569E+02  0.15363102196E+03  0.15816441670E+03  0.00000000000E+00 0. -1.
</event>
<event>
 6    1  0.1293624E-005  0.2255837E+03  0.7818608E-02  0.1160940E+00
          2   -1    0    0  502    0  0.00000000000E+00  0.00000000000E+00  0.24869959121E+03  0.24869959121E+03  0.00000000000E+00 0.  1.
          1   -1    0    0  501    0 -0.00000000000E+00 -0.00000000000E+00 -0.86542853614E+03  0.86542853614E+03  0.00000000000E+00 0. -1.
          2    1    1    2  501    0  0.70647845833E+02 -0.20537317669E+03 -0.25009261101E+03  0.33123341303E+03  0.00000000000E+00 0.  1.
          1    1    1    2  502    0 -0.16997834603E+03  0.14666054740E+03 -0.51044696889E+03  0.55763613793E+03  0.00000000000E+00 0. -1.
         22    1    1    2    0    0  0.83373806326E+02  0.67314029124E+02  0.16539418416E+03  0.19707259132E+03  0.00000000000E+00 0.  1.
         22    1    1    2    0    0  0.15956693876E+02 -0.86013998279E+01 -0.21583549183E+02  0.28185985060E+02  0.00000000000E+00 0.  1.
</event>
<event>
 6    1  0.1293624E-005  0.2122791E+03  0.7818608E-02  0.1139774E+00
          2   -1    0    0  502    0  0.00000000000E+00  0.00000000000E+00  0.23653070007E+03  0.23653070007E+03  0.00000000000E+00 0. -1.
          1   -1    0    0  501    0 -0.00000000000E+00 -0.00000000000E+00 -0.69253330791E+03  0.69253330791E+03  0.00000000000E+00 0.  1.
          2    1    1    2  501    0 -0.24050702353E+02 -0.97670449371E+01 -0.22512245812E+02  0.34360335592E+02  0.00000000000E+00 0. -1.
          1    1    1    2  502    0 -0.23300925065E+01  0.21135377398E+02 -0.64469418017E+03  0.64504474221E+03  0.00000000000E+00 0.  1.
         22    1    1    2    0    0 -0.27204288864E+02  0.33275472701E+02  0.22574336555E+02  0.48548234643E+02  0.00000000000E+00 0. -1.
         22    1    1    2    0    0  0.53585083723E+02 -0.44643805162E+02  0.18862948159E+03  0.20111069554E+03  0.00000000000E+00 0. -1.
</event>
<event>
 6    1  0.1293624E-005  0.2449601E+03  0.7818608E-02  0.1116532E+00
          2   -1    0    0  502    0  0.00000000000E+00  0.00000000000E+00  0.14562424586E+03  0.14562424586E+03  0.00000000000E+00 0. -1.
          1   -1    0    0  501    0 -0.00000000000E+00 -0.00000000000E+00 -0.10324481024E+04  0.10324481024E+04  0.00000000000E+00 0.  1.
          2    1    1    2  501    0 -0.53375317423E+02  0.10146743894E+02  0.54424493316E+02  0.76901927118E+02  0.00000000000E+00 0. -1.
          1    1    1    2  502    0 -0.54540397162E+01 -0.10421431782E+03 -0.92437828209E+03  0.93025027761E+03  0.00000000000E+00 0.  1.
         22    1    1    2    0    0 -0.17785018300E+02  0.15741803535E+02  0.40720266754E+02  0.47140761333E+02  0.00000000000E+00 0. -1.
         22    1    1    2    0    0  0.76614375439E+02  0.78325770393E+02 -0.57590334529E+02  0.12377938222E+03  0.00000000000E+00 0. -1.
</event>
<event>
 6    1  0.1293624E-005  0.1032424E+03  0.7818608E-02  0.1285606E+00
          2   -1    0    0  502    0  0.00000000000E+00  0.00000000000E+00  0.14775846062E+03  0.14775846062E+03  0.00000000000E+00 0. -1.
          1   -1    0    0  501    0 -0.00000000000E+00 -0.00000000000E+00 -0.39260221718E+03  0.39260221718E+03  0.00000000000E+00 0. -1.
          2    1    1    2  501    0  0.51617425914E+02 -0.29743698927E+02 -0.93527850012E+02  0.11088960732E+03  0.00000000000E+00 0. -1.
          1    1    1    2  502    0 -0.10030646970E+03 -0.24248010016E+02 -0.23999311761E+03  0.26123945023E+03  0.00000000000E+00 0. -1.
         22    1    1    2    0    0  0.22478084932E+02  0.79041764077E+02  0.10075452418E+03  0.13001668706E+03  0.00000000000E+00 0. -1.
         22    1    1    2    0    0  0.26210958853E+02 -0.25050055134E+02 -0.12077313120E+02  0.38214933186E+02  0.00000000000E+00 0.  1.
</event>
<event>
 6    1  0.1293624E-005  0.1187073E+03  0.7818608E-02  0.1246604E+00
          2   -1    0    0  502    0  0.00000000000E+00  0.00000000000E+00  0.23008306075E+03  0.23008306075E+03  0.00000000000E+00 0. -1.
          1   -1    0    0  501    0 -0.00000000000E+00 -0.00000000000E+00 -0.19444115131E+03  0.19444115131E+03  0.00000000000E+00 0.  1.
          2    1    1    2  501    0 -0.22441587964E+02  0.90940328623E+02  0.14720174514E+03  0.17447670909E+03  0.00000000000E+00 0. -1.
          1    1    1    2  502    0 -0.26607485958E+02  0.33895626463E+02 -0.22459827221E+02  0.48593370341E+02  0.00000000000E+00 0.  1.
         22    1    1    2    0    0 -0.18363185621E+01  0.17326409513E+02  0.10710785308E+02  0.20452321492E+02  0.00000000000E+00 0.  1.
         22    1    1    2    0    0  0.50885392484E+02 -0.14216236460E+03 -0.99810793789E+02  0.18100181113E+03  0.00000000000E+00 0.  1.
</event>
<event>
 6    1  0.1293624E-005  0.1768791E+03  0.7818608E-02  0.1172637E+00
          2   -1    0    0  502    0  0.00000000000E+00  0.00000000000E+00  0.65691316579E+02  0.65691316579E+02  0.00000000000E+00 0.  1.
          1   -1    0    0  501    0 -0.00000000000E+00 -0.00000000000E+00 -0.80896963881E+03  0.80896963881E+03  0.00000000000E+00 0.  1.
          2    1    1    2  501    0 -0.19690355196E+02 -0.13677028435E+03 -0.13394411596E+03  0.19244439968E+03  0.00000000000E+00 0.  1.
          1    1    1    2  502    0 -0.56010651024E+02 -0.37557738113E+02 -0.22009159418E+03  0.23019141285E+03  0.00000000000E+00 0.  1.
         22    1    1    2    0    0  0.16640984400E+02 -0.19150796966E+02 -0.26487650138E+02  0.36677936094E+02  0.00000000000E+00 0. -1.
         22    1    1    2    0    0  0.59060021820E+02  0.19347881943E+03 -0.36275496195E+03  0.41534720677E+03  0.00000000000E+00 0.  1.
</event>
<event>
 6    1  0.1293624E-005  0.3186988E+03  0.7818608E-02  0.1185234E+00
          2   -1    0    0  502    0  0.00000000000E+00  0.00000000000E+00  0.74545800128E+03  0.74545800128E+03  0.00000000000E+00 0. -1.
          1   -1    0    0  501    0 -0.00000000000E+00 -0.00000000000E+00 -0.36576376324E+04  0.36576376324E+04  0.00000000000E+00 0. -1.
          2    1    1    2  501    0 -0.80085129888E+02 -0.23081907699E+02  0.93594483416E+02  0.12532489704E+03  0.00000000000E+00 0. -1.
          1    1    1    2  502    0  0.29453226079E+03  0.78066784735E+02 -0.36094410184E+04  0.36222794124E+04  0.00000000000E+00 0. -1.
         22    1    1    2    0    0  0.15359634238E+02 -0.15561015699E+02  0.41994569501E+02  0.47345616915E+02  0.00000000000E+00 0. -1.
         22    1    1    2    0    0 -0.22980676514E+03 -0.39423861336E+02  0.56167233442E+03  0.60814570737E+03  0.00000000000E+00 0. -1.
</event>
<event>
 6    1  0.1293624E-005  0.1214583E+03  0.7818608E-02  0.1245255E+00
          2   -1    0    0  502    0  0.00000000000E+00  0.00000000000E+00  0.13184945390E+03  0.13184945390E+03  0.00000000000E+00 0. -1.
          1   -1    0    0  501    0 -0.00000000000E+00 -0.00000000000E+00 -0.38586428769E+03  0.38586428769E+03  0.00000000000E+00 0. -1.
          2    1    1    2  501    0 -0.51971855236E+02  0.59623098966E+02  0.50333688947E+02  0.93752162162E+02  0.00000000000E+00 0. -1.
          1    1    1    2  502    0 -0.22974700591E+02 -0.26956802740E+02 -0.26981816286E+03  0.27213295848E+03  0.00000000000E+00 0. -1.
         22    1    1    2    0    0 -0.68025676095E+01  0.38457177933E+02 -0.40404953409E+01  0.39262642082E+02  0.00000000000E+00 0.  1.
         22    1    1    2    0    0  0.81749123437E+02 -0.71123474158E+02 -0.30489864530E+02  0.11256597887E+03  0.00000000000E+00 0. -1.
</event>
<event>
 6    1  0.1293624E-005  0.2346982E+03  0.7818608E-02  0.1123376E+00
          2   -1    0    0  502    0  0.00000000000E+00  0.00000000000E+00  0.15837029764E+03  0.15837029764E+03  0.00000000000E+00 0.  1.
          1   -1    0    0  501    0 -0.00000000000E+00 -0.00000000000E+00 -0.59348442512E+03  0.59348442512E+03  0.00000000000E+00 0. -1.
          2    1    1    2  501    0  0.48522906578E+02  0.14235540464E+01 -0.39558399020E+02  0.62620810454E+02  0.00000000000E+00 0.  1.
          1    1    1    2  502    0 -0.12955708009E+03 -0.13518812568E+02 -0.49316991595E+03  0.51008270045E+03  0.00000000000E+00 0. -1.
         22    1    1    2    0    0  0.24733944470E+02 -0.55939300950E+02  0.31240331183E+02  0.68679922046E+02  0.00000000000E+00 0. -1.
         22    1    1    2    0    0  0.56300229042E+02  0.68034559471E+02  0.66373856309E+02  0.11047128982E+03  0.00000000000E+00 0.  1.
</event>
<event>
 6    1  0.1293624E-005  0.4164103E+03  0.7818608E-02  0.1038241E+00
          2   -1    0    0  502    0  0.00000000000E+00  0.00000000000E+00  0.10275525705E+03  0.10275525705E+03  0.00000000000E+00 0. -1.
          1   -1    0    0  501    0 -0.00000000000E+00 -0.00000000000E+00 -0.19433843764E+04  0.19433843764E+04  0.00000000000E+00 0. -1.
          2    1    1    2  501    0 -0.13319214106E+03  0.11154023712E+03 -0.20485924420E+03  0.26860506486E+03  0.00000000000E+00 0. -1.
          1    1    1    2  502    0  0.29912802995E+03 -0.23573940765E+03 -0.13496413097E+04  0.14023488552E+04  0.00000000000E+00 0. -1.
         22    1    1    2    0    0 -0.51980875099E+02  0.11615635201E+03 -0.16920648391E+03  0.21171949292E+03  0.00000000000E+00 0. -1.
         22    1    1    2    0    0 -0.11395501379E+03  0.80428185185E+01 -0.11692208150E+03  0.16346622048E+03  0.00000000000E+00 0.  1.
</event>
<event>
 6    1  0.1293624E-005  0.1042224E+03  0.7818608E-02  0.1273856E+00
          2   -1    0    0  502    0  0.00000000000E+00  0.00000000000E+00  0.71504548680E+03  0.71504548680E+03  0.00000000000E+00 0.  1.
          1   -1    0    0  501    0 -0.00000000000E+00 -0.00000000000E+00 -0.26999870527E+03  0.26999870527E+03  0.00000000000E+00 0. -1.
          2    1    1    2  501    0  0.32111314325E+02  0.35648162842E+02  0.75129986768E+02  0.89142823230E+02  0.00000000000E+00 0.  1.
          1    1    1    2  502    0  0.71421099773E+02 -0.42003398056E+02 -0.24581751964E+03  0.25940607530E+03  0.00000000000E+00 0. -1.
         22    1    1    2    0    0  0.15403158217E+02  0.34640889717E+02  0.11664924280E+03  0.12265518484E+03  0.00000000000E+00 0.  1.
         22    1    1    2    0    0 -0.11893557232E+03 -0.28285654504E+02  0.49908507161E+03  0.51384010870E+03  0.00000000000E+00 0.  1.
</event>
<event>
 6    1  0.1293624E-005  0.1572649E+03  0.7818608E-02  0.1191820E+00
          2   -1    0    0  502    0  0.00000000000E+00  0.00000000000E+00  0.15224681218E+03  0.15224681218E+03  0.00000000000E+00 0. -1.
          1   -1    0    0  501    0 -0.00000000000E+00 -0.00000000000E+00 -0.33228414316E+03  0.33228414316E+03  0.00000000000E+00 0.  1.
          2    1    1    2  501    0 -0.88628190532E+01 -0.23221999065E+02  0.12702295656E+02  0.27913421809E+02  0.00000000000E+00 0. -1.
          1    1    1    2  502    0 -0.27071034684E+02  0.57885660751E+02 -0.28720147135E+03  0.29422487281E+03  0.00000000000E+00 0.  1.
         22    1    1    2    0    0  0.48784826530E+01 -0.43052529166E+02  0.11590069305E+03  0.12373475870E+03  0.00000000000E+00 0. -1.
         22    1    1    2    0    0  0.31055371084E+02  0.83888674796E+01 -0.21438848342E+02  0.38657902025E+02  0.00000000000E+00 0.  1.
</event>
<event>
 6    1  0.1293624E-005  0.7295877E+02  0.7818608E-02  0.1351853E+00
          2   -1    0    0  502    0  0.00000000000E+00  0.00000000000E+00  0.18453835909E+03  0.18453835909E+03  0.00000000000E+00 0. -1.
          1   -1    0    0  501    0 -0.00000000000E+00 -0.00000000000E+00 -0.15662544663E+03  0.15662544663E+03  0.00000000000E+00 0. -1.
          2    1    1    2  501    0 -0.25152267468E+02 -0.18002144894E+02 -0.12634208661E+01  0.30956582690E+02  0.00000000000E+00 0. -1.
          1    1    1    2  502    0 -0.20724454985E+02 -0.13035015756E+02 -0.11060086310E+03  0.11327826617E+03  0.00000000000E+00 0. -1.
         22    1    1    2    0    0 -0.19328054655E+02 -0.78376327697E+01 -0.14216027772E+02  0.25240792971E+02  0.00000000000E+00 0. -1.
         22    1    1    2    0    0  0.65204777108E+02  0.38874793420E+02  0.15399322420E+03  0.17168816389E+03  0.00000000000E+00 0. -1.
</event>
<event>
 6    1  0.1293624E-005  0.7799552E+02  0.7818608E-02  0.1336351E+00
          2   -1    0    0  502    0  0.00000000000E+00  0.00000000000E+00  0.35946341905E+03  0.35946341905E+03  0.00000000000E+00 0.  1.
          1   -1    0    0  501    0 -0.00000000000E+00 -0.00000000000E+00 -0.11505410704E+04  0.11505410704E+04  0.00000000000E+00 0.  1.
          2    1    1    2  501    0 -0.10859658620E+02 -0.31921354981E+02  0.31240933216E+02  0.45966302846E+02  0.00000000000E+00 0.  1.
          1    1    1    2  502    0  0.12275809109E+01 -0.26422724346E+02 -0.11281818269E+04  0.11284918705E+04  0.00000000000E+00 0.  1.
         22    1    1    2    0    0 -0.13753633804E+02 -0.20429648280E+02  0.70158963091E+01  0.25607728768E+02  0.00000000000E+00 0.  1.
         22    1    1    2    0    0  0.23385711513E+02  0.78773727607E+02  0.29884734603E+03  0.30993858729E+03  0.00000000000E+00 0.  1.
</event>
<event>
 6    1  0.1293624E-005  0.7554387E+02  0.7818608E-02  0.1343906E+00
          2   -1    0    0  502    0  0.00000000000E+00  0.00000000000E+00  0.28776213183E+03  0.28776213183E+03  0.00000000000E+00 0. -1.
          1   -1    0    0  501    0 -0.00000000000E+00 -0.00000000000E+00 -0.19309016399E+03  0.19309016399E+03  0.00000000000E+00 0. -1.
          2    1    1    2  501    0  0.51664266034E+02  0.93075772940E+02 -0.76536721389E+02  0.13111127188E+03  0.00000000000E+00 0. -1.
          1    1    1    2  502    0 -0.48249160868E+02 -0.38662658949E+02 -0.57337985857E+02  0.84323349932E+02  0.00000000000E+00 0. -1.
         22    1    1    2    0    0 -0.59501356140E+01 -0.71233023647E+02  0.23618985021E+03  0.24676951415E+03  0.00000000000E+00 0. -1.
         22    1    1    2    0    0  0.25350304487E+01  0.16819909656E+02 -0.76431751222E+01  0.18648159860E+02  0.00000000000E+00 0. -1.
</event>
<event>
 6    1  0.1293624E-005  0.8269059E+02  0.7818608E-02  0.1328207E+00
          2   -1    0    0  502    0  0.00000000000E+00  0.00000000000E+00  0.64741539311E+03  0.64741539311E+03  0.00000000000E+00 0.  1.
          1   -1    0    0  501    0 -0.00000000000E+00 -0.00000000000E+00 -0.25061822479E+03  0.25061822479E+03  0.00000000000E+00 0.  1.
          2    1    1    2  501    0  0.22116183950E+02 -0.26323342269E+02  0.15246605411E+03  0.15629440679E+03  0.00000000000E+00 0.  1.
          1    1    1    2  502    0 -0.34061682718E+02  0.22274677990E+02 -0.23880247826E+03  0.24224570818E+03  0.00000000000E+00 0.  1.
         22    1    1    2    0    0  0.21702942825E+02  0.62627912320E+02  0.22148766152E+03  0.23119268443E+03  0.00000000000E+00 0. -1.
         22    1    1    2    0    0 -0.97574440567E+01 -0.58579248041E+02  0.26164593096E+03  0.26830081849E+03  0.00000000000E+00 0.  1.
</event>
<event>
 6    1  0.1293624E-005  0.1077591E+03  0.7818608E-02  0.1266667E+00
          2   -1    0    0  502    0  0.00000000000E+00  0.00000000000E+00  0.43420061802E+02  0.43420061802E+02  0.00000000000E+00 0.  1.
          1   -1    0    0  501    0 -0.00000000000E+00 -0.00000000000E+00 -0.45317318824E+03  0.45317318824E+03  0.00000000000E+00 0.  1.
          2    1    1    2  501    0 -0.14841349698E+02 -0.14136157365E+02 -0.66179747607E+02  0.69280990172E+02  0.00000000000E+00 0.  1.
          1    1    1    2  502    0 -0.79387067996E+02 -0.15754422400E+01 -0.19088328189E+03  0.20673948798E+03  0.00000000000E+00 0.  1.
         22    1    1    2    0    0 -0.20723460235E+02  0.12925366023E+02 -0.82082097530E+02  0.85638762403E+02  0.00000000000E+00 0.  1.
         22    1    1    2    0    0  0.11495187793E+03  0.27862335822E+01 -0.70607999411E+02  0.13493400949E+03  0.00000000000E+00 0.  1.
</event>
<event>
 6    1  0.1293624E-005  0.8721337E+02  0.7818608E-02  0.1315797E+00
          2   -1    0    0  502    0  0.00000000000E+00  0.00000000000E+00  0.27930320598E+03  0.27930320598E+03  0.00000000000E+00 0. -1.
          1   -1    0    0  501    0 -0.00000000000E+00 -0.00000000000E+00 -0.19023096401E+03  0.19023096401E+03  0.00000000000E+00 0. -1.
          2    1    1    2  501    0 -0.20474223789E+02 -0.36747926912E+02  0.53147279427E+02  0.67780803201E+02  0.00000000000E+00 0. -1.
          1    1    1    2  502    0  0.33945971065E+02 -0.19488860234E+00 -0.16129950601E+03  0.16483293837E+03  0.00000000000E+00 0. -1.
         22    1    1    2    0    0 -0.36248733123E+02 -0.28515784372E+02  0.13883477149E+03  0.14629495681E+03  0.00000000000E+00 0. -1.
         22    1    1    2    0    0  0.22776985847E+02  0.65458599887E+02  0.58389697055E+02  0.90625471616E+02  0.00000000000E+00 0. -1.
</event>
<event>
 6    1  0.1293624E-005  0.7888830E+02  0.7818608E-02  0.1333403E+00
          2   -1    0    0  502    0  0.00000000000E+00  0.00000000000E+00  0.54437461996E+02  0.54437461996E+02  0.00000000000E+00 0.  1.
          1   -1    0    0  501    0 -0.00000000000E+00 -0.00000000000E+00 -0.19520294799E+04  0.19520294799E+04  0.00000000000E+00 0.  1.
          2    1    1    2  501    0 -0.24764515228E+02 -0.19120002651E+02 -0.83483272001E+01  0.32381326145E+02  0.00000000000E+00 0.  1.
          1    1    1    2  502    0 -0.11138176888E+02  0.30974221765E+02 -0.18258451006E+04  0.18261417778E+04  0.00000000000E+00 0.  1.
         22    1    1    2    0    0 -0.45600144049E+02 -0.12974772001E+02 -0.50013415756E+01  0.47673171316E+02  0.00000000000E+00 0.  1.
         22    1    1    2    0    0  0.81502836165E+02  0.11205528874E+01 -0.58397248512E+02  0.10027066658E+03  0.00000000000E+00 0.  1.
</event>
<event>
 6    1  0.1293624E-005  0.1269887E+03  0.7818608E-02  0.1236456E+00
          2   -1    0    0  502    0  0.00000000000E+00  0.00000000000E+00  0.16282842311E+02  0.16282842311E+02  0.00000000000E+00 0.  1.
          1   -1    0    0  501    0 -0.00000000000E+00 -0.00000000000E+00 -0.12158736920E+04  0.12158736920E+04  0.00000000000E+00 0.  1.
          2    1    1    2  501    0  0.56608103452E+02  0.66194997278E+02 -0.44035653801E+03  0.44888766480E+03  0.00000000000E+00 0.  1.
          1    1    1    2  502    0  0.95995525724E+01 -0.17674069691E+02 -0.27984793967E+03  0.28056976581E+03  0.00000000000E+00 0.  1.
         22    1    1    2    0    0 -0.95746433829E+02 -0.63263624582E+02 -0.41163445505E+03  0.42733194401E+03  0.00000000000E+00 0.  1.
         22    1    1    2    0    0  0.29538777804E+02  0.14742696995E+02 -0.67751916989E+02  0.75367159722E+02  0.00000000000E+00 0.  1.
</event>
<event>
 6    1  0.1293624E-005  0.4289015E+03  0.7818608E-02  0.1034208E+00
          2   -1    0    0  502    0  0.00000000000E+00  0.00000000000E+00  0.16140971713E+03  0.16140971713E+03  0.00000000000E+00 0.  1.
          1   -1    0    0  501    0 -0.00000000000E+00 -0.00000000000E+00 -0.91814702971E+03  0.91814702971E+03  0.00000000000E+00 0.  1.
          2    1    1    2  501    0 -0.22948381585E+03  0.10894478454E+03 -0.18885927165E+03  0.31654322343E+03  0.00000000000E+00 0.  1.
          1    1    1    2  502    0  0.20434283493E+03 -0.23049026757E+03 -0.47590895975E+03  0.56689601834E+03  0.00000000000E+00 0.  1.
         22    1    1    2    0    0  0.46659128413E+02  0.13709319687E+03 -0.66595268190E+02  0.15939431808E+03  0.00000000000E+00 0. -1.
         22    1    1    2    0    0 -0.21518147498E+02 -0.15547713837E+02 -0.25373812985E+02  0.36723186990E+02  0.00000000000E+00 0. -1.
</event>
<event>
 6    1  0.1293624E-005  0.3417193E+03  0.7818608E-02  0.1066066E+00
          2   -1    0    0  502    0  0.00000000000E+00  0.00000000000E+00  0.45948083275E+03  0.45948083275E+03  0.00000000000E+00 0. -1.
          1   -1    0    0  501    0 -0.00000000000E+00 -0.00000000000E+00 -0.19147268822E+03  0.19147268822E+03  0.00000000000E+00 0. -1.
          2    1    1    2  501    0 -0.16683056327E+03 -0.79428912425E+02  0.37688395930E+02  0.18857837670E+03  0.00000000000E+00 0. -1.
          1    1    1    2  502    0  0.23059343538E+03  0.96893456813E+02  0.91446202233E+02  0.26631575679E+03  0.00000000000E+00 0. -1.
         22    1    1    2    0    0 -0.51208353581E+02 -0.53075703139E+02  0.14004918745E+03  0.15828171293E+03  0.00000000000E+00 0. -1.
         22    1    1    2    0    0 -0.12554518526E+02  0.35611158750E+02 -0.11756410896E+01  0.37777674557E+02  0.00000000000E+00 0.  1.
</event>
<event>
 6    1  0.1293624E-005  0.7867384E+02  0.7818608E-02  0.1338329E+00
          2   -1    0    0  502    0  0.00000000000E+00  0.00000000000E+00  0.12007413001E+03  0.12007413001E+03  0.00000000000E+00 0.  1.
          1   -1    0    0  501    0 -0.00000000000E+00 -0.00000000000E+00 -0.20210149645E+03  0.20210149645E+03  0.00000000000E+00 0. -1.
          2    1    1    2  501    0 -0.39273842472E+02 -0.38278395761E+02  0.43533848910E+02  0.70020470474E+02  0.00000000000E+00 0.  1.
          1    1    1    2  502    0  0.14083536915E+02  0.27045898057E+02 -0.12284776380E+03  0.12657566782E+03  0.00000000000E+00 0. -1.
         22    1    1    2    0    0  0.50010069416E+02  0.15843347662E+02 -0.49685103868E+02  0.72253915150E+02  0.00000000000E+00 0.  1.
         22    1    1    2    0    0 -0.24819763860E+02 -0.46108499578E+01  0.46971652324E+02  0.53325573016E+02  0.00000000000E+00 0.  1.
</event>
<event>
 6    1  0.1293624E-005  0.1873068E+03  0.7818608E-02  0.1160913E+00
          2   -1    0    0  502    0  0.00000000000E+00  0.00000000000E+00  0.30256068590E+02  0.30256068590E+02  0.00000000000E+00 0. -1.
          1   -1    0    0  501    0 -0.00000000000E+00 -0.00000000000E+00 -0.75084289126E+03  0.75084289126E+03  0.00000000000E+00 0. -1.
          2    1    1    2  501    0  0.18426479120E+02  0.12952173120E+02 -0.54603298767E+02  0.59066184552E+02  0.00000000000E+00 0. -1.
          1    1    1    2  502    0 -0.98180100837E+02  0.58195379535E+02 -0.27001176953E+03  0.29314226936E+03  0.00000000000E+00 0. -1.
         22    1    1    2    0    0  0.72669780221E+02 -0.10616055068E+03 -0.32184616086E+03  0.34660627625E+03  0.00000000000E+00 0. -1.
         22    1    1    2    0    0  0.70838414973E+01  0.35012998030E+02 -0.74125593517E+02  0.82284229690E+02  0.00000000000E+00 0.  1.
</event>
<event>
 6    1  0.1293624E-005  0.7685436E+02  0.7818608E-02  0.1343996E+00
          2   -1    0    0  502    0  0.00000000000E+00  0.00000000000E+00  0.30156500216E+03  0.30156500216E+03  0.00000000000E+00 0.  1.
          1   -1    0    0  501    0 -0.00000000000E+00 -0.00000000000E+00 -0.36609231251E+02  0.36609231251E+02  0.00000000000E+00 0.  1.
          2    1    1    2  501    0  0.47163412073E+01  0.25992142754E+02  0.40528530799E+02  0.48377651535E+02  0.00000000000E+00 0.  1.
          1    1    1    2  502    0  0.16723255699E+02 -0.19836721808E+02 -0.78729228377E+01  0.27113570906E+02  0.00000000000E+00 0.  1.
         22    1    1    2    0    0  0.44755203813E+02  0.22107003536E+02  0.81208422858E+02  0.95323427429E+02  0.00000000000E+00 0.  1.
         22    1    1    2    0    0 -0.66194800719E+02 -0.28262424482E+02  0.15109174009E+03  0.16735958354E+03  0.00000000000E+00 0.  1.
</event>
<event>
 6    1  0.1293624E-005  0.1771606E+03  0.7818608E-02  0.1170580E+00
          2   -1    0    0  502    0  0.00000000000E+00  0.00000000000E+00  0.85183303635E+02  0.85183303635E+02  0.00000000000E+00 0. -1.
          1   -1    0    0  501    0 -0.00000000000E+00 -0.00000000000E+00 -0.80415346044E+03  0.80415346044E+03  0.00000000000E+00 0.  1.
          2    1    1    2  501    0  0.19990047216E+01  0.35676048843E+02  0.17742426030E+02  0.39894487870E+02  0.00000000000E+00 0. -1.
          1    1    1    2  502    0 -0.37169190323E+02  0.33313603632E+01 -0.71101919364E+03  0.71199785140E+03  0.00000000000E+00 0.  1.
         22    1    1    2    0    0  0.15302044147E+02  0.15613582304E+02  0.42529793925E+02  0.47819659961E+02  0.00000000000E+00 0. -1.
         22    1    1    2    0    0  0.19868141454E+02 -0.54620991510E+02 -0.68223183117E+02  0.89624764843E+02  0.00000000000E+00 0. -1.
</event>
<event>
 6    1  0.1293624E-005  0.2266148E+03  0.7818608E-02  0.1129045E+00
          2   -1    0    0  502    0  0.00000000000E+00  0.00000000000E+00  0.29518541979E+03  0.29518541979E+03  0.00000000000E+00 0.  1.
          1   -1    0    0  501    0 -0.00000000000E+00 -0.00000000000E+00 -0.70863116325E+02  0.70863116325E+02  0.00000000000E+00 0.  1.
          2    1    1    2  501    0  0.21295278772E+02  0.46958843926E+02  0.16430456702E+03  0.17220514703E+03  0.00000000000E+00 0.  1.
          1    1    1    2  502    0 -0.41883879456E+02 -0.43425765681E+01 -0.64662884390E+01  0.42601997790E+02  0.00000000000E+00 0.  1.
         22    1    1    2    0    0 -0.21395783826E+02 -0.62904626036E+02 -0.41844115673E+01  0.66575377149E+02  0.00000000000E+00 0.  1.
         22    1    1    2    0    0  0.41984384509E+02  0.20288358678E+02  0.70668436453E+02  0.84666014145E+02  0.00000000000E+00 0. -1.
</event>
<event>
 6    1  0.1293624E-005  0.1044197E+03  0.7818608E-02  0.1286586E+00
          2   -1    0    0  502    0  0.00000000000E+00  0.00000000000E+00  0.30803387384E+03  0.30803387384E+03  0.00000000000E+00 0.  1.
          1   -1    0    0  501    0 -0.00000000000E+00 -0.00000000000E+00 -0.12894982545E+04  0.12894982545E+04  0.00000000000E+00 0.  1.
          2    1    1    2  501    0 -0.93652117117E+01 -0.19922817857E+02  0.36229565342E+02  0.42393481417E+02  0.00000000000E+00 0.  1.
          1    1    1    2  502    0  0.93343553301E+02  0.41902972564E+02 -0.12621256484E+04  0.12662661768E+04  0.00000000000E+00 0.  1.
         22    1    1    2    0    0 -0.71317311839E+02  0.31523630254E+02  0.65981666335E+02  0.10214440036E+03  0.00000000000E+00 0.  1.
         22    1    1    2    0    0 -0.12661029751E+02 -0.53503784960E+02  0.17845003607E+03  0.18672806980E+03  0.00000000000E+00 0.  1.
</event>
<event>
 6    1  0.1293624E-005  0.2586782E+03  0.7818608E-02  0.1107940E+00
          2   -1    0    0  502    0  0.00000000000E+00  0.00000000000E+00  0.11185715542E+03  0.11185715542E+03  0.00000000000E+00 0. -1.
          1   -1    0    0  501    0 -0.00000000000E+00 -0.00000000000E+00 -0.42529187251E+03  0.42529187251E+03  0.00000000000E+00 0.  1.
          2    1    1    2  501    0 -0.56845132406E+02 -0.74875384217E+02 -0.51804144108E+01  0.94151627354E+02  0.00000000000E+00 0. -1.
          1    1    1    2  502    0  0.13508223587E+03  0.17529673265E+02 -0.22640533385E+03  0.26422315395E+03  0.00000000000E+00 0.  1.
         22    1    1    2    0    0 -0.19496995025E+02  0.69207673912E+02 -0.93272559457E+02  0.11776928840E+03  0.00000000000E+00 0.  1.
         22    1    1    2    0    0 -0.58740108436E+02 -0.11861962960E+02  0.11423590618E+02  0.61004958217E+02  0.00000000000E+00 0. -1.
</event>
<event>
 6    1  0.1293624E-005  0.1059102E+03  0.7818608E-02  0.1270536E+00
          2   -1    0    0  502    0  0.00000000000E+00  0.00000000000E+00  0.34086353159E+02  0.34086353159E+02  0.00000000000E+00 0.  1.
          1   -1    0    0  501    0 -0.00000000000E+00 -0.00000000000E+00 -0.15904768977E+04  0.15904768977E+04  0.00000000000E+00 0.  1.
          2    1    1    2  501    0  0.61580753493E+02  0.16516760266E+02 -0.16711804035E+03  0.17886707908E+03  0.00000000000E+00 0.  1.
          1    1    1    2  502    0  0.17321431963E+02  0.12345323825E+02 -0.12101844749E+04  0.12103713902E+04  0.00000000000E+00 0.  1.
         22    1    1    2    0    0  0.15857871453E+02  0.22171856860E+02 -0.94735990351E+02  0.98579770701E+02  0.00000000000E+00 0.  1.
         22    1    1    2    0    0 -0.94760056909E+02 -0.51033940951E+02 -0.84352038947E+02  0.13674501084E+03  0.00000000000E+00 0.  1.
</event>
<event>
 6    1  0.1293624E-005  0.2960663E+03  0.7818608E-02  0.1087224E+00
          2   -1    0    0  502    0  0.00000000000E+00  0.00000000000E+00  0.65834196024E+03  0.65834196024E+03  0.00000000000E+00 0.  1.
          1   -1    0    0  501    0 -0.00000000000E+00 -0.00000000000E+00 -0.96631341818E+03  0.96631341818E+03  0.00000000000E+00 0. -1.
          2    1    1    2  501    0 -0.10771053708E+02  0.11271477165E+03  0.25512144477E+03  0.27911930591E+03  0.00000000000E+00 0.  1.
          1    1    1    2  502    0 -0.10268947781E+03 -0.18780389066E+03 -0.92010978864E+03  0.94467849205E+03  0.00000000000E+00 0. -1.
         22    1    1    2    0    0  0.12642262987E+03  0.90059679784E+02  0.34332382123E+03  0.37678199730E+03  0.00000000000E+00 0.  1.
         22    1    1    2    0    0 -0.12962098350E+02 -0.14970560778E+02  0.13693064698E+02  0.24075583160E+02  0.00000000000E+00 0.  1.
</event>
<event>
 6    1  0.1491406E-005  0.2011055E+03  0.7818608E-02  0.1185350E+00
          2   -1    0    0  502    0  0.00000000000E+00  0.00000000000E+00  0.55588842793E+03  0.55588842793E+03  0.00000000000E+00 0. -1.
          1   -1    0    0  501    0 -0.00000000000E+00 -0.00000000000E+00 -0.11165325101E+04  0.11165325101E+04  0.00000000000E+00 0.  1.
          2    1    1    2  501    0 -0.74754828956E+02 -0.11898274475E+03  0.16635445067E+03  0.21775899811E+03  0.00000000000E+00 0. -1.
          1    1    1    2  502    0  0.50513065218E+02  0.18508435674E+03 -0.10675610815E+04  0.10846632895E+04  0.00000000000E+00 0.  1.
         22    1    1    2    0    0  0.75361731309E+02 -0.43054346149E+02  0.23409307870E+03  0.24966504914E+03  0.00000000000E+00 0. -1.
         22    1    1    2    0    0 -0.51119967571E+02 -0.23047265833E+02  0.10646946999E+03  0.12033360124E+03  0.00000000000E+00 0. -1.
</event>
<event>
 6    1  0.1293624E-005  0.2752177E+03  0.7818608E-02  0.1098330E+00
          2   -1    0    0  502    0  0.00000000000E+00  0.00000000000E+00  0.10506564281E+03  0.10506564281E+03  0.00000000000E+00 0.  1.
          1   -1    0    0  501    0 -0.00000000000E+00 -0.00000000000E+00 -0.36664951968E+03  0.36664951968E+03  0.00000000000E+00 0. -1.
          2    1    1    2  501    0  0.61231843052E+02  0.33828557756E+02 -0.99035689087E+02  0.12125088716E+03  0.00000000000E+00 0.  1.
          1    1    1    2  502    0 -0.54510036055E+01  0.64022923367E+02 -0.16987323330E+03  0.18161928188E+03  0.00000000000E+00 0. -1.
         22    1    1    2    0    0 -0.35880459776E+02 -0.58444374884E+02  0.66158872557E+02  0.95289814604E+02  0.00000000000E+00 0.  1.
         22    1    1    2    0    0 -0.19900379671E+02 -0.39407106239E+02 -0.58833827039E+02  0.73555178860E+02  0.00000000000E+00 0.  1.
</event>
<event>
 6    1  0.1293624E-005  0.2564587E+03  0.7818608E-02  0.1109290E+00
          2   -1    0    0  502    0  0.00000000000E+00  0.00000000000E+00  0.13981354515E+04  0.13981354515E+04  0.00000000000E+00 0.  1.
          1   -1    0    0  501    0 -0.00000000000E+00 -0.00000000000E+00 -0.38698202230E+02  0.38698202230E+02  0.00000000000E+00 0.  1.
          2    1    1    2  501    0  0.96617481719E+02 -0.44429295099E+02  0.14712808540E+03  0.18153670028E+03  0.00000000000E+00 0.  1.
          1    1    1    2  502    0 -0.14900827703E+03 -0.10734921955E+01  0.88556642533E+03  0.89801587551E+03  0.00000000000E+00 0.  1.
         22    1    1    2    0    0 -0.18756016698E+02 -0.32670714554E+02  0.10698269033E+03  0.11342160192E+03  0.00000000000E+00 0.  1.
         22    1    1    2    0    0  0.71146812006E+02  0.78173501848E+02  0.21976004822E+03  0.24385947601E+03  0.00000000000E+00 0.  1.
</event>
<event>
 6    1  0.1293624E-005  0.7748896E+02  0.7818608E-02  0.1340704E+00
          2   -1    0    0  502    0  0.00000000000E+00  0.00000000000E+00  0.22339571641E+03  0.22339571641E+03  0.00000000000E+00 0.  1.
          1   -1    0    0  501    0 -0.00000000000E+00 -0.00000000000E+00 -0.61470506685E+03  0.61470506685E+03  0.00000000000E+00 0. -1.
          2    1    1    2  501    0 -0.15967945540E+02 -0.33171791849E+02  0.42962847952E+02  0.56578700616E+02  0.00000000000E+00 0.  1.
          1    1    1    2  502    0  0.70533344431E+01 -0.20024450534E+02 -0.58269336103E+03  0.58307999548E+03  0.00000000000E+00 0. -1.
         22    1    1    2    0    0  0.20597147609E+02  0.81318279837E+02  0.55314119036E+02  0.10048162464E+03  0.00000000000E+00 0. -1.
         22    1    1    2    0    0 -0.11682536512E+02 -0.28122037454E+02  0.93107043602E+02  0.97960462526E+02  0.00000000000E+00 0.  1.
</event>
<event>
 6    1  0.1293624E-005  0.1922227E+03  0.7818608E-02  0.1156472E+00
          2   -1    0    0  502    0  0.00000000000E+00  0.00000000000E+00  0.17925945345E+03  0.17925945345E+03  0.00000000000E+00 0.  1.
          1   -1    0    0  501    0 -0.00000000000E+00 -0.00000000000E+00 -0.94056378732E+02  0.94056378732E+02  0.00000000000E+00 0.  1.
          2    1    1    2  501    0 -0.32146982604E+02 -0.14938719267E+01 -0.15313903574E+02  0.35639525622E+02  0.00000000000E+00 0.  1.
          1    1    1    2  502    0 -0.11683710196E+02  0.20477518967E+02 -0.38200997937E+02  0.44890467923E+02  0.00000000000E+00 0.  1.
         22    1    1    2    0    0  0.41198847625E+02  0.20521466125E+02  0.14550895558E+03  0.15261497886E+03  0.00000000000E+00 0.  1.
         22    1    1    2    0    0  0.26318451747E+01 -0.39505113165E+02 -0.67909793489E+01  0.40170859783E+02  0.00000000000E+00 0.  1.
</event>
<event>
 6    1  0.1293624E-005  0.1003553E+03  0.7818608E-02  0.1280701E+00
          2   -1    0    0  502    0  0.00000000000E+00  0.00000000000E+00  0.23701766449E+03  0.23701766449E+03  0.00000000000E+00 0. -1.
          1   -1    0    0  501    0 -0.00000000000E+00 -0.00000000000E+00 -0.24696581556E+04  0.24696581556E+04  0.00000000000E+00 0. -1.
          2    1    1    2  501    0  0.53960352306E+02 -0.37032141013E+02  0.63700876114E+02  0.91328531723E+02  0.00000000000E+00 0. -1.
          1    1    1    2  502    0  0.54369028078E+02  0.53059295583E+02 -0.24134987634E+04  0.24146940927E+04  0.00000000000E+00 0. -1.
         22    1    1    2    0    0 -0.13040443250E+03 -0.44279156049E+01  0.71894755238E+02  0.14897576408E+03  0.00000000000E+00 0.  1.
         22    1    1    2    0    0  0.22075052113E+02 -0.11599238965E+02  0.45262640975E+02  0.51677431616E+02  0.00000000000E+00 0. -1.
</event>
<event>
 6    1  0.1293624E-005  0.7487592E+02  0.7818608E-02  0.1371849E+00
          2   -1    0    0  502    0  0.00000000000E+00  0.00000000000E+00  0.12248484057E+03  0.12248484057E+03  0.00000000000E+00 0.  1.
          1   -1    0    0  501    0 -0.00000000000E+00 -0.00000000000E+00 -0.95525055565E+03  0.95525055565E+03  0.00000000000E+00 0.  1.
          2    1    1    2  501    0  0.78388609757E+01  0.63914713580E+02  0.46158898718E+01  0.64558847517E+02  0.00000000000E+00 0.  1.
          1    1    1    2  502    0 -0.16905179714E+02 -0.61902150213E+02 -0.88138943886E+03  0.88372224383E+03  0.00000000000E+00 0.  1.
         22    1    1    2    0    0  0.29852181039E+02  0.40168765306E+02 -0.16613559729E+02  0.52732274613E+02  0.00000000000E+00 0.  1.
         22    1    1    2    0    0 -0.20785862302E+02 -0.42181328674E+02  0.60621393639E+02  0.76722030259E+02  0.00000000000E+00 0. -1.
</event>
<event>
 6    1  0.1293624E-005  0.1547790E+03  0.7818608E-02  0.1194721E+00
          2   -1    0    0  502    0  0.00000000000E+00  0.00000000000E+00  0.47812950678E+02  0.47812950678E+02  0.00000000000E+00 0. -1.
          1   -1    0    0  501    0 -0.00000000000E+00 -0.00000000000E+00 -0.29635409607E+03  0.29635409607E+03  0.00000000000E+00 0.  1.
          2    1    1    2  501    0  0.15895965444E+02 -0.16980062251E+02 -0.25060244674E+02  0.34190935854E+02  0.00000000000E+00 0. -1.
          1    1    1    2  502    0 -0.53379476439E+02  0.80099304074E+01 -0.15307902670E+03  0.16231671481E+03  0.00000000000E+00 0.  1.
         22    1    1    2    0    0 -0.88484989546E+01 -0.43640380806E+02  0.48753724152E+01  0.44794508892E+02  0.00000000000E+00 0. -1.
         22    1    1    2    0    0  0.46332009950E+02  0.52610512650E+02 -0.75277246430E+02  0.10286488719E+03  0.00000000000E+00 0.  1.
</event>
<event>
 6    1  0.1293624E-005  0.2576986E+03  0.7818608E-02  0.1108534E+00
          2   -1    0    0  502    0  0.00000000000E+00  0.00000000000E+00  0.17112423370E+03  0.17112423370E+03  0.00000000000E+00 0.  1.
          1   -1    0    0  501    0 -0.00000000000E+00 -0.00000000000E+00 -0.56596613831E+03  0.56596613831E+03  0.00000000000E+00 0.  1.
          2    1    1    2  501    0  0.39754451149E+02 -0.14314722585E+02  0.66758032624E+01  0.42777260525E+02  0.00000000000E+00 0.  1.
          1    1    1    2  502    0 -0.20536613685E+03 -0.50939828511E+02 -0.42782597705E+03  0.47728941213E+03  0.00000000000E+00 0.  1.
         22    1    1    2    0    0  0.13263268873E+03  0.95799820852E+02 -0.25029865412E+01  0.16363160066E+03  0.00000000000E+00 0.  1.
         22    1    1    2    0    0  0.32978996977E+02 -0.30545269756E+02  0.28811255717E+02  0.53392098686E+02  0.00000000000E+00 0.  1.
</event>
<event>
 6    1  0.3108649E-005  0.3013879E+03  0.7818608E-02  0.1117345E+00
          2   -1    0    0  502    0  0.00000000000E+00  0.00000000000E+00  0.10281347745E+04  0.10281347745E+04  0.00000000000E+00 0.  1.
          1   -1    0    0  501    0 -0.00000000000E+00 -0.00000000000E+00 -0.12750088349E+04  0.12750088349E+04  0.00000000000E+00 0. -1.
          2    1    1    2  501    0  0.13349160672E+02  0.39345930042E+03  0.71681201250E+03  0.81780675128E+03  0.00000000000E+00 0.  1.
          1    1    1    2  502    0 -0.36128175249E+02 -0.29096646649E+03 -0.11793345963E+04  0.12152352939E+04  0.00000000000E+00 0. -1.
         22    1    1    2    0    0 -0.51757276427E+01  0.23301450624E+02  0.77896495518E+02  0.81471527369E+02  0.00000000000E+00 0.  1.
         22    1    1    2    0    0  0.27954742220E+02 -0.12579428455E+03  0.13775202777E+03  0.18863003683E+03  0.00000000000E+00 0.  1.
</event>
<event>
 6    1  0.1326767E-005  0.4921273E+03  0.7818608E-02  0.1015854E+00
          2   -1    0    0  502    0  0.00000000000E+00  0.00000000000E+00  0.15723665268E+04  0.15723665268E+04  0.00000000000E+00 0.  1.
          1   -1    0    0  501    0 -0.00000000000E+00 -0.00000000000E+00 -0.65857830110E+03  0.65857830110E+03  0.00000000000E+00 0.  1.
          2    1    1    2  501    0  0.12710514721E+03 -0.12358962280E+03  0.32900214407E+03  0.37372787441E+03  0.00000000000E+00 0.  1.
          1    1    1    2  502    0  0.14468450965E+02 -0.86906938682E+02 -0.61686444153E+03  0.62312429842E+03  0.00000000000E+00 0.  1.
         22    1    1    2    0    0  0.52242770523E+01 -0.12665590259E+02  0.71859361171E+02  0.73153797134E+02  0.00000000000E+00 0.  1.
         22    1    1    2    0    0 -0.14679787523E+03  0.22316215174E+03  0.11297911620E+04  0.11609388580E+04  0.00000000000E+00 0.  1.
</event>
<event>
 6    1  0.1293624E-005  0.1348005E+03  0.7818608E-02  0.1221564E+00
          2   -1    0    0  502    0  0.00000000000E+00  0.00000000000E+00  0.53982862606E+03  0.53982862606E+03  0.00000000000E+00 0. -1.
          1   -1    0    0  501    0 -0.00000000000E+00 -0.00000000000E+00 -0.16056190926E+04  0.16056190926E+04  0.00000000000E+00 0.  1.
          2    1    1    2  501    0 -0.75255168557E+02 -0.71040032094E+02  0.90950391453E+02  0.13777518013E+03  0.00000000000E+00 0. -1.
          1    1    1    2  502    0  0.29118033927E+02 -0.34177546214E+02 -0.15656187567E+04  0.15662624480E+04  0.00000000000E+00 0.  1.
         22    1    1    2    0    0  0.71497194642E+02  0.11488004845E+03  0.37025863399E+03  0.39420899332E+03  0.00000000000E+00 0. -1.
         22    1    1    2    0    0 -0.25360060012E+02 -0.96624701422E+01  0.38619264723E+02  0.47201097242E+02  0.00000000000E+00 0. -1.
</event>
<event>
 6    1  0.1293624E-005  0.8847952E+02  0.7818608E-02  0.1310112E+00
          2   -1    0    0  502    0  0.00000000000E+00  0.00000000000E+00  0.49818786183E+02  0.49818786183E+02  0.00000000000E+00 0.  1.
          1   -1    0    0  501    0 -0.00000000000E+00 -0.00000000000E+00 -0.36380851814E+03  0.36380851814E+03  0.00000000000E+00 0.  1.
          2    1    1    2  501    0 -0.42631211080E+02 -0.14418459797E+02 -0.64573327937E+02  0.78708492692E+02  0.00000000000E+00 0.  1.
          1    1    1    2  502    0  0.10875535128E+02 -0.34223499882E+02 -0.17861190801E+03  0.18218600081E+03  0.00000000000E+00 0.  1.
         22    1    1    2    0    0  0.75950187041E+02  0.34938618270E+02 -0.24137939234E+02  0.87015964447E+02  0.00000000000E+00 0.  1.
         22    1    1    2    0    0 -0.44194511090E+02  0.13703341409E+02 -0.46666556784E+02  0.65716846382E+02  0.00000000000E+00 0.  1.
</event>
<event>
 6    1  0.1293624E-005  0.2569260E+03  0.7818608E-02  0.1109004E+00
          2   -1    0    0  502    0  0.00000000000E+00  0.00000000000E+00  0.46579773477E+03  0.46579773477E+03  0.00000000000E+00 0.  1.
          1   -1    0    0  501    0 -0.00000000000E+00 -0.00000000000E+00 -0.92676694743E+02  0.92676694743E+02  0.00000000000E+00 0.  1.
          2    1    1    2  501    0  0.42582050760E+02 -0.67585238241E+02  0.73654677685E+02  0.10865545094E+03  0.00000000000E+00 0.  1.
          1    1    1    2  502    0  0.49944596961E+02  0.14914257488E+03  0.12027998797E+03  0.19800314622E+03  0.00000000000E+00 0.  1.
         22    1    1    2    0    0 -0.11028746903E+03 -0.72419652113E+02  0.88299214673E+02  0.15875982851E+03  0.00000000000E+00 0.  1.
         22    1    1    2    0    0  0.17760821306E+02 -0.91376845248E+01  0.90887159698E+02  0.93056003836E+02  0.00000000000E+00 0. -1.
</event>
<event>
 6    1  0.1293624E-005  0.6470845E+02  0.7818608E-02  0.1385574E+00
          2   -1    0    0  502    0  0.00000000000E+00  0.00000000000E+00  0.25356669161E+02  0.25356669161E+02  0.00000000000E+00 0. -1.
          1   -1    0    0  501    0 -0.00000000000E+00 -0.00000000000E+00 -0.91822591507E+03  0.91822591507E+03  0.00000000000E+00 0.  1.
          2    1    1    2  501    0 -0.11867255559E+02  0.19546983391E+02 -0.79396250265E+02  0.82623730673E+02  0.00000000000E+00 0. -1.
          1    1    1    2  502    0  0.12868979690E+02 -0.36369363688E+02 -0.67711618318E+03  0.67821432216E+03  0.00000000000E+00 0.  1.
         22    1    1    2    0    0 -0.40396693076E+02  0.50023357383E+02 -0.10282669985E+03  0.12127472654E+03  0.00000000000E+00 0. -1.
         22    1    1    2    0    0  0.39394968945E+02 -0.33200977086E+02 -0.33530112609E+02  0.61469804857E+02  0.00000000000E+00 0. -1.
</event>
<event>
 6    1  0.1293624E-005  0.2172502E+03  0.7818608E-02  0.1135950E+00
          2   -1    0    0  502    0  0.00000000000E+00  0.00000000000E+00  0.14372943501E+03  0.14372943501E+03  0.00000000000E+00 0. -1.
          1   -1    0    0  501    0 -0.00000000000E+00 -0.00000000000E+00 -0.18273596665E+03  0.18273596665E+03  0.00000000000E+00 0.  1.
          2    1    1    2  501    0  0.19774934166E+01  0.38163785330E+02 -0.26951972405E+02  0.46763167209E+02  0.00000000000E+00 0. -1.
          1    1    1    2  502    0  0.88669104534E+02  0.82051250664E+01 -0.61250504344E+02  0.10807940812E+03  0.00000000000E+00 0.  1.
         22    1    1    2    0    0 -0.83517174546E+02 -0.85464778576E+02  0.54847639238E+02  0.13148235757E+03  0.00000000000E+00 0. -1.
         22    1    1    2    0    0 -0.71294234048E+01  0.39095868179E+02 -0.56516941287E+01  0.40140468773E+02  0.00000000000E+00 0. -1.
</event>
<event>
 6    1  0.1293624E-005  0.7522562E+02  0.7818608E-02  0.1348821E+00
          2   -1    0    0  502    0  0.00000000000E+00  0.00000000000E+00  0.16557155797E+03  0.16557155797E+03  0.00000000000E+00 0.  1.
          1   -1    0    0  501    0 -0.00000000000E+00 -0.00000000000E+00 -0.60642296552E+03  0.60642296552E+03  0.00000000000E+00 0.  1.
          2    1    1    2  501    0 -0.34798671662E+02 -0.35368829111E+02 -0.40422031879E+01  0.49781934763E+02  0.00000000000E+00 0.  1.
          1    1    1    2  502    0  0.22961771733E+02  0.27168281659E+02 -0.55062794745E+03  0.55177576514E+03  0.00000000000E+00 0.  1.
         22    1    1    2    0    0  0.24963318895E+02  0.57477780442E+02  0.99291555664E+02  0.11741241655E+03  0.00000000000E+00 0.  1.
         22    1    1    2    0    0 -0.13126418967E+02 -0.49277232989E+02  0.14527187425E+02  0.53024407026E+02  0.00000000000E+00 0.  1.
</event>
<event>
 6    1  0.1293624E-005  0.6256115E+03  0.7818608E-02  0.9853650E-01
          2   -1    0    0  502    0  0.00000000000E+00  0.00000000000E+00  0.11371309949E+03  0.11371309949E+03  0.00000000000E+00 0. -1.
          1   -1    0    0  501    0 -0.00000000000E+00 -0.00000000000E+00 -0.22937395358E+04  0.22937395358E+04  0.00000000000E+00 0. -1.
          2    1    1    2  501    0 -0.16467723470E+02 -0.14389148991E+02 -0.82236543793E+03  0.82265615359E+03  0.00000000000E+00 0. -1.
          1    1    1    2  502    0 -0.43059848332E+01  0.57206035482E+02 -0.14283079143E+04  0.14294595378E+04  0.00000000000E+00 0. -1.
         22    1    1    2    0    0  0.41131398595E+02 -0.60791757896E+02  0.94178484653E+02  0.11940275018E+03  0.00000000000E+00 0. -1.
         22    1    1    2    0    0 -0.20357690291E+02  0.17974871405E+02 -0.23531568752E+02  0.35934193799E+02  0.00000000000E+00 0.  1.
</event>
<event>
 6    1  0.1293624E-005  0.1471294E+03  0.7818608E-02  0.1204628E+00
          2   -1    0    0  502    0  0.00000000000E+00  0.00000000000E+00  0.81409707974E+03  0.81409707974E+03  0.00000000000E+00 0.  1.
          1   -1    0    0  501    0 -0.00000000000E+00 -0.00000000000E+00 -0.61848592295E+02  0.61848592295E+02  0.00000000000E+00 0.  1.
          2    1    1    2  501    0  0.15319771962E+03 -0.14070217558E+01  0.10086536845E+03  0.18342667080E+03  0.00000000000E+00 0.  1.
          1    1    1    2  502    0 -0.27341388478E+02  0.32341844502E+01  0.15363238714E+02  0.31528409042E+02  0.00000000000E+00 0.  1.
         22    1    1    2    0    0  0.15288283704E+02 -0.76837258999E+01  0.11317364964E+02  0.20514726712E+02  0.00000000000E+00 0. -1.
         22    1    1    2    0    0 -0.14114461484E+03  0.58565632055E+01  0.62470251531E+03  0.64047586548E+03  0.00000000000E+00 0.  1.
</event>
<event>
 6    1  0.1293624E-005  0.2757065E+03  0.7818608E-02  0.1098057E+00
          2   -1    0    0  502    0  0.00000000000E+00  0.00000000000E+00  0.28041612998E+03  0.28041612998E+03  0.00000000000E+00 0. -1.
          1   -1    0    0  501    0 -0.00000000000E+00 -0.00000000000E+00 -0.18784135423E+03  0.18784135423E+03  0.00000000000E+00 0. -1.
          2    1    1    2  501    0 -0.47606518889E+02  0.50664645059E+02 -0.22093666516E+02  0.72948043152E+02  0.00000000000E+00 0. -1.
          1    1    1    2  502    0  0.23373814237E+02  0.94321421272E+01 -0.11842400046E+03  0.12107660543E+03  0.00000000000E+00 0. -1.
         22    1    1    2    0    0 -0.17997265512E+02 -0.16366600189E+02 -0.79891242445E+01  0.25604555725E+02  0.00000000000E+00 0. -1.
         22    1    1    2    0    0  0.42229970163E+02 -0.43730186996E+02  0.24108156697E+03  0.24862827990E+03  0.00000000000E+00 0. -1.
</event>
<event>
 6    1  0.1293624E-005  0.2754570E+03  0.7818608E-02  0.1098196E+00
          2   -1    0    0  502    0  0.00000000000E+00  0.00000000000E+00  0.95464578941E+02  0.95464578941E+02  0.00000000000E+00 0.  1.
          1   -1    0    0  501    0 -0.00000000000E+00 -0.00000000000E+00 -0.22638092179E+04  0.22638092179E+04  0.00000000000E+00 0.  1.
          2    1    1    2  501    0 -0.86030336036E+02 -0.38148516158E+02 -0.51289005973E+02  0.10717784350E+03  0.00000000000E+00 0.  1.
          1    1    1    2  502    0  0.36454372804E+02 -0.84213974382E+02 -0.20619382357E+04  0.20639792156E+04  0.00000000000E+00 0.  1.
         22    1    1    2    0    0  0.68625430927E+02  0.12842573064E+03 -0.71548162046E+02  0.16223981494E+03  0.00000000000E+00 0.  1.
         22    1    1    2    0    0 -0.19049467695E+02 -0.60632401017E+01  0.16430764766E+02  0.25876922746E+02  0.00000000000E+00 0.  1.
</event>
<event>
 6    1  0.1293624E-005  0.1636702E+03  0.7818608E-02  0.1184614E+00
          2   -1    0    0  502    0  0.00000000000E+00  0.00000000000E+00  0.16440288373E+03  0.16440288373E+03  0.00000000000E+00 0.  1.
          1   -1    0    0  501    0 -0.00000000000E+00 -0.00000000000E+00 -0.33440096938E+03  0.33440096938E+03  0.00000000000E+00 0.  1.
          2    1    1    2  501    0  0.18067125421E+02  0.11647810614E+02  0.14001263330E+02  0.25654003350E+02  0.00000000000E+00 0.  1.
          1    1    1    2  502    0  0.35419794618E+02 -0.47336655795E+02 -0.28992971735E+03  0.29589620111E+03  0.00000000000E+00 0.  1.
         22    1    1    2    0    0 -0.55807548333E+02  0.11247456636E+02 -0.10820857305E+02  0.57948931695E+02  0.00000000000E+00 0.  1.
         22    1    1    2    0    0  0.23206282939E+01  0.24441388546E+02  0.11675122567E+03  0.11930471695E+03  0.00000000000E+00 0.  1.
</event>
<event>
 6    1  0.1293624E-005  0.8135225E+02  0.7818608E-02  0.1327273E+00
          2   -1    0    0  502    0  0.00000000000E+00  0.00000000000E+00  0.59286961162E+02  0.59286961162E+02  0.00000000000E+00 0. -1.
          1   -1    0    0  501    0 -0.00000000000E+00 -0.00000000000E+00 -0.49279045399E+03  0.49279045399E+03  0.00000000000E+00 0. -1.
          2    1    1    2  501    0 -0.19290217637E+02  0.36953590580E+02 -0.23182822137E+03  0.23554618353E+03  0.00000000000E+00 0. -1.
          1    1    1    2  502    0  0.86961591255E+02 -0.36910764728E+02 -0.38224400615E+02  0.10191088121E+03  0.00000000000E+00 0. -1.
         22    1    1    2    0    0  0.83864237860E+00  0.38283573635E+02 -0.11767119983E+03  0.12374508718E+03  0.00000000000E+00 0. -1.
         22    1    1    2    0    0 -0.68510015997E+02 -0.38326399487E+02 -0.45779671011E+02  0.90875263232E+02  0.00000000000E+00 0. -1.
</event>
<event>
 6    1  0.1293624E-005  0.9036033E+02  0.7818608E-02  0.1304940E+00
          2   -1    0    0  502    0  0.00000000000E+00  0.00000000000E+00  0.43284129848E+03  0.43284129848E+03  0.00000000000E+00 0.  1.
          1   -1    0    0  501    0 -0.00000000000E+00 -0.00000000000E+00 -0.28926760536E+02  0.28926760536E+02  0.00000000000E+00 0.  1.
          2    1    1    2  501    0 -0.34010425300E+02  0.87331903976E+01  0.50397679663E+02  0.61423967301E+02  0.00000000000E+00 0.  1.
          1    1    1    2  502    0 -0.27807484837E+02  0.54317687514E+01  0.13598618854E+02  0.31427420503E+02  0.00000000000E+00 0.  1.
         22    1    1    2    0    0 -0.38875928307E+02  0.19771101144E+01  0.12708374569E+03  0.13291171952E+03  0.00000000000E+00 0.  1.
         22    1    1    2    0    0  0.10069383844E+03 -0.16142069263E+02  0.21283449373E+03  0.23600495169E+03  0.00000000000E+00 0.  1.
</event>
<event>
 6    1  0.1293624E-005  0.1258802E+03  0.7818608E-02  0.1235179E+00
          2   -1    0    0  502    0  0.00000000000E+00  0.00000000000E+00  0.40356963706E+03  0.40356963706E+03  0.00000000000E+00 0. -1.
          1   -1    0    0  501    0 -0.00000000000E+00 -0.00000000000E+00 -0.18837296096E+04  0.18837296096E+04  0.00000000000E+00 0.  1.
          2    1    1    2  501    0 -0.68209823284E+02 -0.85838886415E+02  0.25720152316E+03  0.27959527522E+03  0.00000000000E+00 0. -1.
          1    1    1    2  502    0  0.11636535525E+02  0.25413234549E+02 -0.18303066301E+04  0.18305200358E+04  0.00000000000E+00 0.  1.
         22    1    1    2    0    0 -0.24772644944E+01 -0.21819860675E+02  0.70005616210E+02  0.73369131521E+02  0.00000000000E+00 0. -1.
         22    1    1    2    0    0  0.59050552253E+02  0.82245512542E+02  0.22939518179E+02  0.10381480409E+03  0.00000000000E+00 0. -1.
</event>
<event>
 6    1  0.1293624E-005  0.1884304E+03  0.7818608E-02  0.1159885E+00
          2   -1    0    0  502    0  0.00000000000E+00  0.00000000000E+00  0.56699693046E+02  0.56699693046E+02  0.00000000000E+00 0.  1.
          1   -1    0    0  501    0 -0.00000000000E+00 -0.00000000000E+00 -0.66993044648E+03  0.66993044648E+03  0.00000000000E+00 0. -1.
          2    1    1    2  501    0 -0.24302324974E+02  0.19989049316E+02 -0.74510773961E+02  0.80882757915E+02  0.00000000000E+00 0.  1.
          1    1    1    2  502    0  0.27924016156E+02 -0.53515676579E+02 -0.50647542549E+03  0.51005983467E+03  0.00000000000E+00 0. -1.
         22    1    1    2    0    0 -0.20380704636E+01 -0.27082210681E+02  0.35549838817E+02  0.44736907654E+02  0.00000000000E+00 0.  1.
         22    1    1    2    0    0 -0.15836207180E+01  0.60608837944E+02 -0.67794392800E+02  0.90950639286E+02  0.00000000000E+00 0.  1.
</event>
<event>
 6    1  0.1293624E-005  0.1634534E+03  0.7818608E-02  0.1184852E+00
          2   -1    0    0  502    0  0.00000000000E+00  0.00000000000E+00  0.15217235692E+03  0.15217235692E+03  0.00000000000E+00 0.  1.
          1   -1    0    0  501    0 -0.00000000000E+00 -0.00000000000E+00 -0.23698138906E+03  0.23698138906E+03  0.00000000000E+00 0.  1.
          2    1    1    2  501    0 -0.29701205584E+02 -0.22936954542E+02  0.14896979038E+02  0.40375555492E+02  0.00000000000E+00 0.  1.
          1    1    1    2  502    0  0.62557919717E+02  0.32185667912E+02 -0.18466487602E+03  0.19761206181E+03  0.00000000000E+00 0.  1.
         22    1    1    2    0    0 -0.44844097092E+02  0.48482723973E+02  0.46473917592E+02  0.80755139677E+02  0.00000000000E+00 0.  1.
         22    1    1    2    0    0  0.11987382959E+02 -0.57731437343E+02  0.38484947252E+02  0.70410989007E+02  0.00000000000E+00 0.  1.
</event>
<event>
 6    1  0.1293624E-005  0.1410262E+03  0.7818608E-02  0.1212375E+00
          2   -1    0    0  502    0  0.00000000000E+00  0.00000000000E+00  0.11488064925E+04  0.11488064925E+04  0.00000000000E+00 0. -1.
          1   -1    0    0  501    0 -0.00000000000E+00 -0.00000000000E+00 -0.11268386768E+03  0.11268386768E+03  0.00000000000E+00 0.  1.
          2    1    1    2  501    0  0.82581515749E+02 -0.46338043615E+02  0.13479657172E+03  0.16473322912E+03  0.00000000000E+00 0. -1.
          1    1    1    2  502    0 -0.37723427120E+02 -0.84455481994E+02 -0.64704836322E+02  0.11288268794E+03  0.00000000000E+00 0.  1.
         22    1    1    2    0    0  0.20346468364E+02 -0.98854849532E+01  0.50894966058E+02  0.55695593701E+02  0.00000000000E+00 0. -1.
         22    1    1    2    0    0 -0.65204556993E+02  0.14067901056E+03  0.91513592335E+03  0.92817884940E+03  0.00000000000E+00 0. -1.
</event>
<event>
 6    1  0.1293624E-005  0.1382789E+03  0.7818608E-02  0.1217271E+00
          2   -1    0    0  502    0  0.00000000000E+00  0.00000000000E+00  0.75663059326E+03  0.75663059326E+03  0.00000000000E+00 0.  1.
          1   -1    0    0  501    0 -0.00000000000E+00 -0.00000000000E+00 -0.41107124199E+03  0.41107124199E+03  0.00000000000E+00 0.  1.
          2    1    1    2  501    0 -0.95053968234E+02  0.15587239280E+02  0.24098730131E+03  0.25952475469E+03  0.00000000000E+00 0.  1.
          1    1    1    2  502    0 -0.33921641699E+02 -0.66750178215E+02 -0.38038072945E+03  0.38767997550E+03  0.00000000000E+00 0.  1.
         22    1    1    2    0    0 -0.23760787132E+02  0.21753340173E+02  0.10835861718E+03  0.11304588772E+03  0.00000000000E+00 0.  1.
         22    1    1    2    0    0  0.15273639707E+03  0.29409598762E+02  0.37659416223E+03  0.40745121734E+03  0.00000000000E+00 0.  1.
</event>
<event>
 6    1  0.1293624E-005  0.4380508E+03  0.7818608E-02  0.1031347E+00
          2   -1    0    0  502    0  0.00000000000E+00  0.00000000000E+00  0.12889238229E+04  0.12889238229E+04  0.00000000000E+00 0. -1.
          1   -1    0    0  501    0 -0.00000000000E+00 -0.00000000000E+00 -0.14857048352E+03  0.14857048352E+03  0.00000000000E+00 0. -1.
          2    1    1    2  501    0  0.21690693709E+02  0.51521159467E+02  0.82964822285E+01  0.56513252285E+02  0.00000000000E+00 0. -1.
          1    1    1    2  502    0 -0.25371122790E+03 -0.18247402849E+03  0.13418598477E+03  0.34010591989E+03  0.00000000000E+00 0. -1.
         22    1    1    2    0    0  0.22239373587E+03  0.12435769101E+03  0.99714304264E+03  0.10291831987E+04  0.00000000000E+00 0. -1.
         22    1    1    2    0    0  0.96267983190E+01  0.65951780155E+01  0.72782968927E+00  0.11691935468E+02  0.00000000000E+00 0. -1.
</event>
<event>
 6    1  0.1293624E-005  0.1652190E+03  0.7818608E-02  0.1182927E+00
          2   -1    0    0  502    0  0.00000000000E+00  0.00000000000E+00  0.37376803165E+03  0.37376803165E+03  0.00000000000E+00 0.  1.
          1   -1    0    0  501    0 -0.00000000000E+00 -0.00000000000E+00 -0.26347298480E+03  0.26347298480E+03  0.00000000000E+00 0. -1.
          2    1    1    2  501    0 -0.37773837406E+01 -0.19819053270E+02  0.53847056747E+02  0.57502774026E+02  0.00000000000E+00 0.  1.
          1    1    1    2  502    0  0.74709276210E+02 -0.13959914960E+02 -0.23902604084E+03  0.25081826763E+03  0.00000000000E+00 0. -1.
         22    1    1    2    0    0 -0.58319298582E+02  0.75517284757E+02  0.24062165574E+03  0.25884895614E+03  0.00000000000E+00 0.  1.
         22    1    1    2    0    0 -0.12612593887E+02 -0.41738316528E+02  0.54852375197E+02  0.70071018659E+02  0.00000000000E+00 0.  1.
</event>
<event>
 6    1  0.1293624E-005  0.4839498E+02  0.7818608E-02  0.1476846E+00
          2   -1    0    0  502    0  0.00000000000E+00  0.00000000000E+00  0.34868443449E+03  0.34868443449E+03  0.00000000000E+00 0.  1.
          1   -1    0    0  501    0 -0.00000000000E+00 -0.00000000000E+00 -0.74203517994E+03  0.74203517994E+03  0.00000000000E+00 0.  1.
          2    1    1    2  501    0 -0.20256260761E+02 -0.26874427395E+01  0.80216721238E+02  0.82778383740E+02  0.00000000000E+00 0.  1.
          1    1    1    2  502    0  0.40749143477E+02 -0.18820117808E+02 -0.72366637714E+03  0.72505704253E+03  0.00000000000E+00 0.  1.
         22    1    1    2    0    0  0.34898193927E+02 -0.10231908064E+01  0.11276285844E+02  0.36689037616E+02  0.00000000000E+00 0. -1.
         22    1    1    2    0    0 -0.55391076642E+02  0.22530751354E+02  0.23882262461E+03  0.24619515055E+03  0.00000000000E+00 0.  1.
</event>
<event>
 6    1  0.1293624E-005  0.8705886E+02  0.7818608E-02  0.1317669E+00
          2   -1    0    0  502    0  0.00000000000E+00  0.00000000000E+00  0.33637343744E+02  0.33637343744E+02  0.00000000000E+00 0.  1.
          1   -1    0    0  501    0 -0.00000000000E+00 -0.00000000000E+00 -0.81986241278E+03  0.81986241278E+03  0.00000000000E+00 0.  1.
          2    1    1    2  501    0  0.34083798631E+02 -0.36348172386E+02 -0.70703969788E+02  0.86498244541E+02  0.00000000000E+00 0.  1.
          1    1    1    2  502    0 -0.14488143037E+02  0.65756695401E+02 -0.57174447690E+03  0.57569574963E+03  0.00000000000E+00 0.  1.
         22    1    1    2    0    0  0.49967029406E+02  0.17485037042E-01 -0.47545023777E+02  0.68972701987E+02  0.00000000000E+00 0.  1.
         22    1    1    2    0    0 -0.69562685000E+02 -0.29426008052E+02 -0.96231598570E+02  0.12233306036E+03  0.00000000000E+00 0.  1.
</event>
<event>
 6    1  0.1293624E-005  0.2244523E+03  0.7818608E-02  0.1130607E+00
          2   -1    0    0  502    0  0.00000000000E+00  0.00000000000E+00  0.70198221193E+03  0.70198221193E+03  0.00000000000E+00 0. -1.
          1   -1    0    0  501    0 -0.00000000000E+00 -0.00000000000E+00 -0.23252783668E+02  0.23252783668E+02  0.00000000000E+00 0. -1.
          2    1    1    2  501    0 -0.51534879384E+02 -0.17520640088E+02  0.58582189179E+02  0.79966802558E+02  0.00000000000E+00 0. -1.
          1    1    1    2  502    0 -0.12671145414E+02 -0.28346828642E+02  0.79480620380E+02  0.85330355889E+02  0.00000000000E+00 0. -1.
         22    1    1    2    0    0 -0.36893125870E+02  0.10093050070E+02  0.15341990454E+03  0.15811590529E+03  0.00000000000E+00 0. -1.
         22    1    1    2    0    0  0.10109915067E+03  0.35774418661E+02  0.38724671417E+03  0.40182193187E+03  0.00000000000E+00 0. -1.
</event>
<event>
 6    1  0.1293624E-005  0.5805800E+03  0.7818608E-02  0.9946536E-01
          2   -1    0    0  502    0  0.00000000000E+00  0.00000000000E+00  0.86985248447E+03  0.86985248447E+03  0.00000000000E+00 0. -1.
          1   -1    0    0  501    0 -0.00000000000E+00 -0.00000000000E+00 -0.80838551817E+03  0.80838551817E+03  0.00000000000E+00 0.  1.
          2    1    1    2  501    0 -0.10847898939E+03 -0.51405001458E+02 -0.36400467071E+02  0.12543986335E+03  0.00000000000E+00 0. -1.
          1    1    1    2  502    0 -0.78045910734E+02  0.68470646429E+01 -0.70911067513E+03  0.71342553645E+03  0.00000000000E+00 0.  1.
         22    1    1    2    0    0 -0.18628890386E+02 -0.44550354378E+01  0.49544357860E+02  0.53118041130E+02  0.00000000000E+00 0. -1.
         22    1    1    2    0    0  0.20515379051E+03  0.49012972253E+02  0.75743375064E+03  0.78625456171E+03  0.00000000000E+00 0. -1.
</event>
<event>
 6    1  0.1293624E-005  0.2437029E+03  0.7818608E-02  0.1117350E+00
          2   -1    0    0  502    0  0.00000000000E+00  0.00000000000E+00  0.12499565571E+03  0.12499565571E+03  0.00000000000E+00 0.  1.
          1   -1    0    0  501    0 -0.00000000000E+00 -0.00000000000E+00 -0.24613677276E+03  0.24613677276E+03  0.00000000000E+00 0.  1.
          2    1    1    2  501    0 -0.50974092029E+02 -0.29366249741E+02  0.48160376152E+01  0.59024815970E+02  0.00000000000E+00 0.  1.
          1    1    1    2  502    0 -0.58991253759E+02  0.89274682150E+02 -0.32942927282E+02  0.11196058838E+03  0.00000000000E+00 0.  1.
         22    1    1    2    0    0 -0.18200000369E+02 -0.36552103722E+02 -0.13512038161E+01  0.40854890181E+02  0.00000000000E+00 0. -1.
         22    1    1    2    0    0  0.12816534616E+03 -0.23356328687E+02 -0.91663023559E+02  0.15929213393E+03  0.00000000000E+00 0.  1.
</event>
<event>
 6    1  0.1293624E-005  0.2112371E+03  0.7818608E-02  0.1140590E+00
          2   -1    0    0  502    0  0.00000000000E+00  0.00000000000E+00  0.11371743748E+03  0.11371743748E+03  0.00000000000E+00 0.  1.
          1   -1    0    0  501    0 -0.00000000000E+00 -0.00000000000E+00 -0.49796043513E+03  0.49796043513E+03  0.00000000000E+00 0. -1.
          2    1    1    2  501    0  0.25165875053E+02  0.19649046491E+02 -0.58448631000E+02  0.66600666370E+02  0.00000000000E+00 0.  1.
          1    1    1    2  502    0 -0.46856834009E+02 -0.24067250734E+02 -0.39659691437E+03  0.40007987695E+03  0.00000000000E+00 0. -1.
         22    1    1    2    0    0 -0.11480252685E+02 -0.39269896284E+02  0.79545688753E+02  0.89450754916E+02  0.00000000000E+00 0.  1.
         22    1    1    2    0    0  0.33171211642E+02  0.43688100526E+02 -0.87431410377E+01  0.55546574373E+02  0.00000000000E+00 0.  1.
</event>
<event>
 6    1  0.1293624E-005  0.2468366E+03  0.7818608E-02  0.1129528E+00
          2   -1    0    0  502    0  0.00000000000E+00  0.00000000000E+00  0.14560126472E+04  0.14560126472E+04  0.00000000000E+00 0. -1.
          1   -1    0    0  501    0 -0.00000000000E+00 -0.00000000000E+00 -0.30492741991E+03  0.30492741991E+03  0.00000000000E+00 0.  1.
          2    1    1    2  501    0  0.11946244304E+03 -0.11545432389E+03  0.70946624086E+03  0.72865857788E+03  0.00000000000E+00 0. -1.
          1    1    1    2  502    0 -0.23721852618E+03 -0.45007716346E+02 -0.22251336895E+03  0.32834512796E+03  0.00000000000E+00 0.  1.
         22    1    1    2    0    0  0.54226495678E+02 -0.76192993418E+00  0.23414693334E+03  0.24034533439E+03  0.00000000000E+00 0.  1.
         22    1    1    2    0    0  0.63529587458E+02  0.16122397017E+03  0.42998542208E+03  0.46359102692E+03  0.00000000000E+00 0.  1.
</event>
<event>
 6    1  0.1293624E-005  0.6928388E+02  0.7818608E-02  0.1382724E+00
          2   -1    0    0  502    0  0.00000000000E+00  0.00000000000E+00  0.39675928090E+03  0.39675928090E+03  0.00000000000E+00 0. -1.
          1   -1    0    0  501    0 -0.00000000000E+00 -0.00000000000E+00 -0.66333388636E+02  0.66333388636E+02  0.00000000000E+00 0. -1.
          2    1    1    2  501    0 -0.20005798743E+01 -0.27672768304E+02  0.41357204907E+02  0.49801634744E+02  0.00000000000E+00 0. -1.
          1    1    1    2  502    0  0.12896992971E+02  0.54179345223E+02 -0.34255104186E+02  0.65384600933E+02  0.00000000000E+00 0. -1.
         22    1    1    2    0    0 -0.28669164849E+02  0.40563049199E+02  0.74127616776E+02  0.89231079464E+02  0.00000000000E+00 0.  1.
         22    1    1    2    0    0  0.17772751752E+02 -0.67069626117E+02  0.24919617477E+03  0.25867535439E+03  0.00000000000E+00 0. -1.
</event>
<event>
 6    1  0.1293624E-005  0.8659811E+02  0.7818608E-02  0.1314443E+00
          2   -1    0    0  502    0  0.00000000000E+00  0.00000000000E+00  0.16966087595E+03  0.16966087595E+03  0.00000000000E+00 0. -1.
          1   -1    0    0  501    0 -0.00000000000E+00 -0.00000000000E+00 -0.76897459428E+02  0.76897459428E+02  0.00000000000E+00 0. -1.
          2    1    1    2  501    0 -0.15132613014E+00  0.33833766711E+02 -0.34158458217E+01  0.34006097573E+02  0.00000000000E+00 0. -1.
          1    1    1    2  502    0 -0.51178816378E+02 -0.73020294695E+01  0.28425857137E+02  0.58996781558E+02  0.00000000000E+00 0. -1.
         22    1    1    2    0    0  0.68388255703E+02 -0.65817081149E+02  0.44652997926E+02  0.10489390789E+03  0.00000000000E+00 0. -1.
         22    1    1    2    0    0 -0.17058113195E+02  0.39285343907E+02  0.23100407278E+02  0.48661548352E+02  0.00000000000E+00 0. -1.
</event>
<event>
 6    1  0.1293624E-005  0.1043131E+03  0.7818608E-02  0.1274432E+00
          2   -1    0    0  502    0  0.00000000000E+00  0.00000000000E+00  0.61352435730E+02  0.61352435730E+02  0.00000000000E+00 0. -1.
          1   -1    0    0  501    0 -0.00000000000E+00 -0.00000000000E+00 -0.89456283026E+03  0.89456283026E+03  0.00000000000E+00 0. -1.
          2    1    1    2  501    0 -0.57260291534E+02 -0.33100411869E+02 -0.37218645693E+02  0.75892067040E+02  0.00000000000E+00 0. -1.
          1    1    1    2  502    0 -0.10728434174E+02  0.22519740366E+02 -0.72060518938E+03  0.72103680694E+03  0.00000000000E+00 0. -1.
         22    1    1    2    0    0 -0.18764258892E+02 -0.33369725863E+02 -0.42992593598E+01  0.38524273478E+02  0.00000000000E+00 0.  1.
         22    1    1    2    0    0  0.86752984600E+02  0.43950397366E+02 -0.71087300099E+02  0.12046211853E+03  0.00000000000E+00 0. -1.
</event>
<event>
 6    1  0.1293624E-005  0.1726032E+03  0.7818608E-02  0.1175160E+00
          2   -1    0    0  502    0  0.00000000000E+00  0.00000000000E+00  0.71398601922E+02  0.71398601922E+02  0.00000000000E+00 0. -1.
          1   -1    0    0  501    0 -0.00000000000E+00 -0.00000000000E+00 -0.18652588069E+03  0.18652588069E+03  0.00000000000E+00 0. -1.
          2    1    1    2  501    0 -0.64025404560E+01  0.25206123175E+02 -0.42452335047E+02  0.49784956771E+02  0.00000000000E+00 0. -1.
          1    1    1    2  502    0 -0.20564748346E+02 -0.32486949233E+01 -0.78847162617E+02  0.81549604205E+02  0.00000000000E+00 0. -1.
         22    1    1    2    0    0  0.41178990649E+02 -0.66864945230E+02  0.10771832653E+02  0.79263248421E+02  0.00000000000E+00 0. -1.
         22    1    1    2    0    0 -0.14211701847E+02  0.44907516979E+02 -0.45996137529E+01  0.47326673211E+02  0.00000000000E+00 0. -1.
</event>
<event>
 6    1  0.1293624E-005  0.1622991E+03  0.7818608E-02  0.1186125E+00
          2   -1    0    0  502    0  0.00000000000E+00  0.00000000000E+00  0.24182180960E+03  0.24182180960E+03  0.00000000000E+00 0. -1.
          1   -1    0    0  501    0 -0.00000000000E+00 -0.00000000000E+00 -0.55189759516E+03  0.55189759516E+03  0.00000000000E+00 0. -1.
          2    1    1    2  501    0  0.25474864457E+02 -0.19604052563E+02  0.58261112785E+02  0.66540550486E+02  0.00000000000E+00 0. -1.
          1    1    1    2  502    0  0.62690024948E+01  0.30552783963E+02 -0.52414990067E+03  0.52507703375E+03  0.00000000000E+00 0. -1.
         22    1    1    2    0    0 -0.49925708585E+02  0.13920299343E+02  0.16251052778E+03  0.17057556317E+03  0.00000000000E+00 0. -1.
         22    1    1    2    0    0  0.18181841633E+02 -0.24869030742E+02 -0.66975254572E+01  0.31526257349E+02  0.00000000000E+00 0. -1.
</event>
<event>
 6    1  0.1293624E-005  0.2958658E+03  0.7818608E-02  0.1087326E+00
          2   -1    0    0  502    0  0.00000000000E+00  0.00000000000E+00  0.12529095806E+03  0.12529095806E+03  0.00000000000E+00 0. -1.
          1   -1    0    0  501    0 -0.00000000000E+00 -0.00000000000E+00 -0.28478517797E+03  0.28478517797E+03  0.00000000000E+00 0. -1.
          2    1    1    2  501    0 -0.80615786674E+02 -0.45474234520E+02 -0.13521846185E+03  0.16386226988E+03  0.00000000000E+00 0. -1.
          1    1    1    2  502    0  0.46609368040E+02  0.35520905772E+02 -0.87946392554E+02  0.10568224023E+03  0.00000000000E+00 0. -1.
         22    1    1    2    0    0 -0.32033684377E+02  0.30384397233E+02 -0.33106897904E+01  0.44275604986E+02  0.00000000000E+00 0. -1.
         22    1    1    2    0    0  0.66040103011E+02 -0.20431068485E+02  0.66981324278E+02  0.96256020940E+02  0.00000000000E+00 0.  1.
</event>
<event>
 6    1  0.1293624E-005  0.1390780E+03  0.7818608E-02  0.1215526E+00
          2   -1    0    0  502    0  0.00000000000E+00  0.00000000000E+00  0.12098271559E+04  0.12098271559E+04  0.00000000000E+00 0.  1.
          1   -1    0    0  501    0 -0.00000000000E+00 -0.00000000000E+00 -0.25681988226E+04  0.25681988226E+04  0.00000000000E+00 0.  1.
          2    1    1    2  501    0  0.10644384644E+03 -0.75528022872E+02  0.51297196715E+03  0.52931560885E+03  0.00000000000E+00 0.  1.
          1    1    1    2  502    0 -0.64603604795E+02 -0.18380402467E+02 -0.25502739720E+04  0.25511583246E+04  0.00000000000E+00 0.  1.
         22    1    1    2    0    0  0.20185196462E+02 -0.18343219649E+02  0.67226932736E+02  0.72549130583E+02  0.00000000000E+00 0.  1.
         22    1    1    2    0    0 -0.62025438108E+02  0.11225164499E+03  0.61170340547E+03  0.62500291443E+03  0.00000000000E+00 0.  1.
</event>
<event>
 6    1  0.1293624E-005  0.6968081E+02  0.7818608E-02  0.1364513E+00
          2   -1    0    0  502    0  0.00000000000E+00  0.00000000000E+00  0.25180410565E+03  0.25180410565E+03  0.00000000000E+00 0. -1.
          1   -1    0    0  501    0 -0.00000000000E+00 -0.00000000000E+00 -0.50262088434E+02  0.50262088434E+02  0.00000000000E+00 0. -1.
          2    1    1    2  501    0 -0.14018160061E+02  0.26182631595E+02  0.48832166632E+02  0.57154348100E+02  0.00000000000E+00 0. -1.
          1    1    1    2  502    0  0.25475576129E+02  0.25311337872E+02 -0.82588442633E+01  0.36849386868E+02  0.00000000000E+00 0. -1.
         22    1    1    2    0    0 -0.12805378655E+02 -0.84525199792E+02  0.67517400460E+02  0.10893615785E+03  0.00000000000E+00 0. -1.
         22    1    1    2    0    0  0.13479625867E+01  0.33031230324E+02  0.93451294391E+02  0.99126301269E+02  0.00000000000E+00 0. -1.
</event>
<event>
 6    1  0.1293624E-005  0.2072270E+03  0.7818608E-02  0.1143781E+00
          2   -1    0    0  502    0  0.00000000000E+00  0.00000000000E+00  0.17615303452E+03  0.17615303452E+03  0.00000000000E+00 0. -1.
          1   -1    0    0  501    0 -0.00000000000E+00 -0.00000000000E+00 -0.56024233004E+03  0.56024233004E+03  0.00000000000E+00 0. -1.
          2    1    1    2  501    0 -0.61586176079E+02  0.48983839002E+02  0.52038035558E+02  0.94341034084E+02  0.00000000000E+00 0. -1.
          1    1    1    2  502    0  0.28410676393E+02 -0.22458495511E+02 -0.49841155420E+03  0.49972555259E+03  0.00000000000E+00 0. -1.
         22    1    1    2    0    0 -0.30175856099E+02 -0.49764300100E+02  0.15530069931E+02  0.60234964330E+02  0.00000000000E+00 0. -1.
         22    1    1    2    0    0  0.63351355785E+02  0.23238956608E+02  0.46754153191E+02  0.82093813559E+02  0.00000000000E+00 0. -1.
</event>
<event>
 6    1  0.1293624E-005  0.2531738E+03  0.7818608E-02  0.1111315E+00
          2   -1    0    0  502    0  0.00000000000E+00  0.00000000000E+00  0.76278275680E+02  0.76278275680E+02  0.00000000000E+00 0.  1.
          1   -1    0    0  501    0 -0.00000000000E+00 -0.00000000000E+00 -0.81715894604E+03  0.81715894604E+03  0.00000000000E+00 0. -1.
          2    1    1    2  501    0 -0.25147428647E+02  0.13140132507E+02  0.48034957366E+01  0.28777244850E+02  0.00000000000E+00 0.  1.
          1    1    1    2  502    0 -0.12755733209E+03  0.72015764914E+02 -0.56870013935E+03  0.58726228541E+03  0.00000000000E+00 0. -1.
         22    1    1    2    0    0 -0.63104733463E+01  0.14229945010E+02  0.47391581222E+01  0.16271847730E+02  0.00000000000E+00 0.  1.
         22    1    1    2    0    0  0.15901523408E+03 -0.99385842431E+02 -0.18172318487E+03  0.26112584373E+03  0.00000000000E+00 0.  1.
</event>
<event>
 6    1  0.1293624E-005  0.4235602E+03  0.7818608E-02  0.1035914E+00
          2   -1    0    0  502    0  0.00000000000E+00  0.00000000000E+00  0.13758963581E+04  0.13758963581E+04  0.00000000000E+00 0.  1.
          1   -1    0    0  501    0 -0.00000000000E+00 -0.00000000000E+00 -0.38804573866E+02  0.38804573866E+02  0.00000000000E+00 0.  1.
          2    1    1    2  501    0 -0.72608667643E+02 -0.16553490700E+03  0.66112664219E+03  0.68539204917E+03  0.00000000000E+00 0.  1.
          1    1    1    2  502    0 -0.64354288546E+01 -0.21209506381E+02  0.15907288453E+02  0.27281857183E+02  0.00000000000E+00 0.  1.
         22    1    1    2    0    0  0.58603010592E+02  0.60484028823E+02  0.43575909938E+03  0.44382273859E+03  0.00000000000E+00 0.  1.
         22    1    1    2    0    0  0.20441085906E+02  0.12626038455E+03  0.22429875424E+03  0.25820428705E+03  0.00000000000E+00 0.  1.
</event>
<event>
 6    1  0.1293624E-005  0.1298681E+03  0.7818608E-02  0.1228882E+00
          2   -1    0    0  502    0  0.00000000000E+00  0.00000000000E+00  0.12809958167E+04  0.12809958167E+04  0.00000000000E+00 0.  1.
          1   -1    0    0  501    0 -0.00000000000E+00 -0.00000000000E+00 -0.22462487506E+03  0.22462487506E+03  0.00000000000E+00 0.  1.
          2    1    1    2  501    0 -0.54582566602E+02 -0.79460786736E+02  0.33614755231E+03  0.34969765531E+03  0.00000000000E+00 0.  1.
          1    1    1    2  502    0 -0.40075909326E+02  0.32984100955E+02 -0.20743185872E+03  0.21382704561E+03  0.00000000000E+00 0.  1.
         22    1    1    2    0    0  0.10146692420E+03  0.80186255693E+02  0.76369894018E+03  0.77457178076E+03  0.00000000000E+00 0.  1.
         22    1    1    2    0    0 -0.68084482683E+01 -0.33709569912E+02  0.16395630783E+03  0.16752421004E+03  0.00000000000E+00 0.  1.
</event>
<event>
 6    1  0.1293624E-005  0.2700768E+03  0.7818608E-02  0.1101236E+00
          2   -1    0    0  502    0  0.00000000000E+00  0.00000000000E+00  0.14021106875E+04  0.14021106875E+04  0.00000000000E+00 0. -1.
          1   -1    0    0  501    0 -0.00000000000E+00 -0.00000000000E+00 -0.34483034107E+02  0.34483034107E+02  0.00000000000E+00 0. -1.
          2    1    1    2  501    0 -0.52949482108E+02  0.29546890714E+02  0.89493425498E+02  0.10810059951E+03  0.00000000000E+00 0. -1.
          1    1    1    2  502    0  0.32784173027E+02 -0.16644743585E+03  0.51754429107E+03  0.54463900349E+03  0.00000000000E+00 0. -1.
         22    1    1    2    0    0  0.58542002901E+02  0.13773255139E+03  0.64172027910E+03  0.65894031476E+03  0.00000000000E+00 0. -1.
         22    1    1    2    0    0 -0.38376693820E+02 -0.83200625927E+00  0.11886965770E+03  0.12491380382E+03  0.00000000000E+00 0. -1.
</event>
<event>
 6    1  0.1293624E-005  0.2729819E+03  0.7818608E-02  0.1099585E+00
          2   -1    0    0  502    0  0.00000000000E+00  0.00000000000E+00  0.19731389342E+03  0.19731389342E+03  0.00000000000E+00 0.  1.
          1   -1    0    0  501    0 -0.00000000000E+00 -0.00000000000E+00 -0.19158708881E+04  0.19158708881E+04  0.00000000000E+00 0.  1.
          2    1    1    2  501    0 -0.85111162127E+02 -0.30911266350E+02  0.76931500238E+02  0.11881865188E+03  0.00000000000E+00 0.  1.
          1    1    1    2  502    0 -0.21289645743E+02 -0.17135373014E+02 -0.18213023437E+04  0.18215073696E+04  0.00000000000E+00 0.  1.
         22    1    1    2    0    0 -0.17209346805E+02  0.30438838841E+02  0.32613875454E+02  0.47815786092E+02  0.00000000000E+00 0.  1.
         22    1    1    2    0    0  0.12361015468E+03  0.17607800523E+02 -0.68000266084E+01  0.12504297397E+03  0.00000000000E+00 0.  1.
</event>
<event>
 6    1  0.1293624E-005  0.7358487E+02  0.7818608E-02  0.1349790E+00
          2   -1    0    0  502    0  0.00000000000E+00  0.00000000000E+00  0.60376602418E+02  0.60376602418E+02  0.00000000000E+00 0. -1.
          1   -1    0    0  501    0 -0.00000000000E+00 -0.00000000000E+00 -0.15234627298E+04  0.15234627298E+04  0.00000000000E+00 0.  1.
          2    1    1    2  501    0 -0.19846751850E+02  0.53093366263E+01 -0.70193921662E+01  0.21710699684E+02  0.00000000000E+00 0. -1.
          1    1    1    2  502    0 -0.11298171098E+02 -0.33029687892E+02 -0.14206751167E+04  0.14211039358E+04  0.00000000000E+00 0.  1.
         22    1    1    2    0    0  0.78316449943E+02  0.10854301956E+02 -0.43554696379E+02  0.90267900049E+02  0.00000000000E+00 0.  1.
         22    1    1    2    0    0 -0.47171526995E+02  0.16866049309E+02  0.81630778446E+01  0.50756796769E+02  0.00000000000E+00 0. -1.
</event>
<event>
 6    1  0.1293624E-005  0.1756718E+03  0.7818608E-02  0.1172059E+00
          2   -1    0    0  502    0  0.00000000000E+00  0.00000000000E+00  0.54044031720E+02  0.54044031720E+02  0.00000000000E+00 0.  1.
          1   -1    0    0  501    0 -0.00000000000E+00 -0.00000000000E+00 -0.19375245934E+03  0.19375245934E+03  0.00000000000E+00 0. -1.
          2    1    1    2  501    0 -0.25428016424E+02 -0.22467169593E+02 -0.55751696753E+02  0.65265683323E+02  0.00000000000E+00 0.  1.
          1    1    1    2  502    0 -0.18878761679E+02  0.12632216264E+02 -0.39466557443E+02  0.45536685064E+02  0.00000000000E+00 0. -1.
         22    1    1    2    0    0  0.66607849374E+02  0.35330205011E+02 -0.63124944701E+02  0.98334061382E+02  0.00000000000E+00 0. -1.
         22    1    1    2    0    0 -0.22301071272E+02 -0.25495251682E+02  0.18634771278E+02  0.38660061288E+02  0.00000000000E+00 0.  1.
</event>
<event>
 6    1  0.1293624E-005  0.7236573E+02  0.7818608E-02  0.1362572E+00
          2   -1    0    0  502    0  0.00000000000E+00  0.00000000000E+00  0.19171167648E+03  0.19171167648E+03  0.00000000000E+00 0. -1.
          1   -1    0    0  501    0 -0.00000000000E+00 -0.00000000000E+00 -0.48961057511E+03  0.48961057511E+03  0.00000000000E+00 0. -1.
          2    1    1    2  501    0 -0.18283964818E+02 -0.17868841628E+02  0.80703039067E+00  0.25578314422E+02  0.00000000000E+00 0. -1.
          1    1    1    2  502    0 -0.29479728995E+02  0.36420675953E+02 -0.44961462510E+03  0.45204958927E+03  0.00000000000E+00 0. -1.
         22    1    1    2    0    0  0.74064303001E+01 -0.61711018866E+02  0.29775506945E+02  0.68917964807E+02  0.00000000000E+00 0.  1.
         22    1    1    2    0    0  0.40357263513E+02  0.43159184541E+02  0.12113318914E+03  0.13477638309E+03  0.00000000000E+00 0. -1.
</event>
<event>
 6    1  0.1293624E-005  0.7930339E+02  0.7818608E-02  0.1332078E+00
          2   -1    0    0  502    0  0.00000000000E+00  0.00000000000E+00  0.23022144869E+03  0.23022144869E+03  0.00000000000E+00 0.  1.
          1   -1    0    0  501    0 -0.00000000000E+00 -0.00000000000E+00 -0.13874227608E+03  0.13874227608E+03  0.00000000000E+00 0. -1.
          2    1    1    2  501    0  0.10265640864E+02  0.57911008489E+02  0.12011909790E+03  0.13374477921E+03  0.00000000000E+00 0.  1.
          1    1    1    2  502    0 -0.26844041618E+02 -0.17030703398E+02 -0.88244545431E+02  0.93796307107E+02  0.00000000000E+00 0. -1.
         22    1    1    2    0    0  0.29882984089E+01  0.22562175533E+02  0.71873707326E+02  0.75391057142E+02  0.00000000000E+00 0.  1.
         22    1    1    2    0    0  0.13590102345E+02 -0.63442480625E+02 -0.12269087189E+02  0.66031581308E+02  0.00000000000E+00 0.  1.
</event>
<event>
 6    1  0.1293624E-005  0.2090507E+03  0.7818608E-02  0.1142320E+00
          2   -1    0    0  502    0  0.00000000000E+00  0.00000000000E+00  0.34729181228E+03  0.34729181228E+03  0.00000000000E+00 0. -1.
          1   -1    0    0  501    0 -0.00000000000E+00 -0.00000000000E+00 -0.68028411783E+02  0.68028411783E+02  0.00000000000E+00 0. -1.
          2    1    1    2  501    0 -0.62519884349E+02  0.26553338041E+02  0.46692868811E+02  0.82425964950E+02  0.00000000000E+00 0. -1.
          1    1    1    2  502    0  0.33167526446E+02 -0.57605261485E+02 -0.93691808569E-02  0.66471430322E+02  0.00000000000E+00 0. -1.
         22    1    1    2    0    0  0.46441763688E+02  0.50637870629E+02  0.23029811103E+03  0.24032946407E+03  0.00000000000E+00 0. -1.
         22    1    1    2    0    0 -0.17089405785E+02 -0.19585947185E+02  0.22817898293E+01  0.26093364713E+02  0.00000000000E+00 0.  1.
</event>
<event>
 6    1  0.1293624E-005  0.1522797E+03  0.7818608E-02  0.1198027E+00
          2   -1    0    0  502    0  0.00000000000E+00  0.00000000000E+00  0.29979762852E+03  0.29979762852E+03  0.00000000000E+00 0. -1.
          1   -1    0    0  501    0 -0.00000000000E+00 -0.00000000000E+00 -0.32989387222E+03  0.32989387222E+03  0.00000000000E+00 0.  1.
          2    1    1    2  501    0 -0.76645536810E+02 -0.95864831250E+02 -0.24634815660E+02  0.12518577525E+03  0.00000000000E+00 0. -1.
          1    1    1    2  502    0 -0.25025263119E+02  0.86392662494E+00 -0.22016735729E+03  0.22158672203E+03  0.00000000000E+00 0.  1.
         22    1    1    2    0    0  0.11619012408E+03  0.10304971815E+03  0.21625757728E+03  0.26624561795E+03  0.00000000000E+00 0. -1.
         22    1    1    2    0    0 -0.14519324147E+02 -0.80488135227E+01 -0.15516480268E+01  0.16673385511E+02  0.00000000000E+00 0. -1.
</event>
<event>
 6    1  0.1293624E-005  0.2124046E+03  0.7818608E-02  0.1139676E+00
          2   -1    0    0  502    0  0.00000000000E+00  0.00000000000E+00  0.67270359881E+03  0.67270359881E+03  0.00000000000E+00 0. -1.
          1   -1    0    0  501    0 -0.00000000000E+00 -0.00000000000E+00 -0.98055597890E+03  0.98055597890E+03  0.00000000000E+00 0. -1.
          2    1    1    2  501    0 -0.45686903020E+02  0.51050429944E+01  0.64044075973E+02  0.78835260124E+02  0.00000000000E+00 0. -1.
          1    1    1    2  502    0  0.55997033871E+01  0.68358238934E+02 -0.96253866385E+03  0.96497921476E+03  0.00000000000E+00 0. -1.
         22    1    1    2    0    0 -0.11019659619E+02 -0.91936936980E+02  0.30765078958E+03  0.32128311753E+03  0.00000000000E+00 0. -1.
         22    1    1    2    0    0  0.51106859252E+02  0.18473655052E+02  0.28299141821E+03  0.28816198530E+03  0.00000000000E+00 0. -1.
</event>
<event>
 6    1  0.1293624E-005  0.2005145E+03  0.7818608E-02  0.1150183E+00
          2   -1    0    0  502    0  0.00000000000E+00  0.00000000000E+00  0.67274005256E+03  0.67274005256E+03  0.00000000000E+00 0.  1.
          1   -1    0    0  501    0 -0.00000000000E+00 -0.00000000000E+00 -0.10475611181E+04  0.10475611181E+04  0.00000000000E+00 0.  1.
          2    1    1    2  501    0  0.74717680695E+02 -0.12150204463E+03  0.10001972479E+03  0.17421086076E+03  0.00000000000E+00 0.  1.
          1    1    1    2  502    0  0.44674279656E+02 -0.41747713812E+02 -0.98268654781E+03  0.98458697641E+03  0.00000000000E+00 0.  1.
         22    1    1    2    0    0 -0.11875070370E+03  0.18314390284E+03  0.47975757541E+03  0.52707755591E+03  0.00000000000E+00 0.  1.
         22    1    1    2    0    0 -0.64125665112E+00 -0.19894144394E+02  0.28088182054E+02  0.34425777586E+02  0.00000000000E+00 0. -1.
</event>
<event>
 6    1  0.1293624E-005  0.6070175E+03  0.7818608E-02  0.9890953E-01
          2   -1    0    0  502    0  0.00000000000E+00  0.00000000000E+00  0.61271274720E+03  0.61271274720E+03  0.00000000000E+00 0.  1.
          1   -1    0    0  501    0 -0.00000000000E+00 -0.00000000000E+00 -0.40757645080E+03  0.40757645080E+03  0.00000000000E+00 0. -1.
          2    1    1    2  501    0  0.12617953341E+03  0.13750470913E+03  0.14428395935E+03  0.23589548662E+03  0.00000000000E+00 0.  1.
          1    1    1    2  502    0 -0.17943635086E+03  0.25393416782E+03 -0.11805995870E+03  0.33259302375E+03  0.00000000000E+00 0. -1.
         22    1    1    2    0    0  0.85950312336E+01  0.70484462510E+01  0.14859516656E+02  0.18556949957E+02  0.00000000000E+00 0.  1.
         22    1    1    2    0    0  0.44661786216E+02 -0.39848732320E+03  0.16405277910E+03  0.43324373767E+03  0.00000000000E+00 0.  1.
</event>
<event>
 6    1  0.1293624E-005  0.1729526E+03  0.7818608E-02  0.1217989E+00
          2   -1    0    0  502    0  0.00000000000E+00  0.00000000000E+00  0.13337511883E+03  0.13337511883E+03  0.00000000000E+00 0. -1.
          1   -1    0    0  501    0 -0.00000000000E+00 -0.00000000000E+00 -0.35528112850E+03  0.35528112850E+03  0.00000000000E+00 0. -1.
          2    1    1    2  501    0  0.17200503695E+02  0.20077710903E+02 -0.12096716620E+02  0.29074083914E+02  0.00000000000E+00 0. -1.
          1    1    1    2  502    0 -0.17840556978E+03 -0.19220795592E+02 -0.17614552469E+03  0.25144628090E+03  0.00000000000E+00 0. -1.
         22    1    1    2    0    0  0.35369011662E+02 -0.57239768741E+02 -0.65352668945E+01  0.67602276773E+02  0.00000000000E+00 0. -1.
         22    1    1    2    0    0  0.12583605442E+03  0.56382853431E+02 -0.27128501470E+02  0.14053360575E+03  0.00000000000E+00 0. -1.
</event>
<event>
 6    1  0.1293624E-005  0.1108795E+03  0.7818608E-02  0.1296101E+00
          2   -1    0    0  502    0  0.00000000000E+00  0.00000000000E+00  0.40932157299E+02  0.40932157299E+02  0.00000000000E+00 0.  1.
          1   -1    0    0  501    0 -0.00000000000E+00 -0.00000000000E+00 -0.84602237129E+03  0.84602237129E+03  0.00000000000E+00 0.  1.
          2    1    1    2  501    0 -0.27799688960E+02 -0.41628568574E+02 -0.11159723645E+03  0.12230986719E+03  0.00000000000E+00 0.  1.
          1    1    1    2  502    0  0.83592113102E+02  0.92674244867E+02 -0.54318184160E+03  0.55733533001E+03  0.00000000000E+00 0.  1.
         22    1    1    2    0    0 -0.20068047236E+01 -0.42161030859E+02 -0.14672670093E+03  0.15267712519E+03  0.00000000000E+00 0.  1.
         22    1    1    2    0    0 -0.53785619419E+02 -0.88846454344E+01 -0.35844350096E+01  0.54632206207E+02  0.00000000000E+00 0.  1.
</event>
<event>
 6    1  0.1293624E-005  0.2002447E+03  0.7818608E-02  0.1149533E+00
          2   -1    0    0  502    0  0.00000000000E+00  0.00000000000E+00  0.27232917296E+03  0.27232917296E+03  0.00000000000E+00 0.  1.
          1   -1    0    0  501    0 -0.00000000000E+00 -0.00000000000E+00 -0.30652091987E+03  0.30652091987E+03  0.00000000000E+00 0. -1.
          2    1    1    2  501    0  0.25015636206E+02  0.30041383888E+02 -0.11496625071E+01  0.39109954290E+02  0.00000000000E+00 0.  1.
          1    1    1    2  502    0 -0.45324623968E+02 -0.98830668023E+01 -0.26744211450E+03  0.27143559302E+03  0.00000000000E+00 0. -1.
         22    1    1    2    0    0  0.41496663562E+02 -0.66017349321E+02  0.16466511435E+03  0.18219457561E+03  0.00000000000E+00 0.  1.
         22    1    1    2    0    0 -0.21187675800E+02  0.45859032235E+02  0.69734915757E+02  0.86109969916E+02  0.00000000000E+00 0.  1.
</event>
<event>
 6    1  0.1293624E-005  0.6461365E+02  0.7818608E-02  0.1382808E+00
          2   -1    0    0  502    0  0.00000000000E+00  0.00000000000E+00  0.72163107263E+02  0.72163107263E+02  0.00000000000E+00 0.  1.
          1   -1    0    0  501    0 -0.00000000000E+00 -0.00000000000E+00 -0.37569480297E+03  0.37569480297E+03  0.00000000000E+00 0.  1.
          2    1    1    2  501    0  0.30880195340E+02  0.50646370323E+01 -0.12313606494E+02  0.33628290432E+02  0.00000000000E+00 0.  1.
          1    1    1    2  502    0 -0.23389342523E+02 -0.83427027151E+01 -0.29178333910E+03  0.29283814473E+03  0.00000000000E+00 0.  1.
         22    1    1    2    0    0  0.46088343979E+02 -0.16488046095E+02 -0.29194256646E+02  0.56993821910E+02  0.00000000000E+00 0.  1.
         22    1    1    2    0    0 -0.53579196796E+02  0.19766111778E+02  0.29759506530E+02  0.64397653164E+02  0.00000000000E+00 0.  1.
</event>
<event>
 6    1  0.1293624E-005  0.1773977E+03  0.7818608E-02  0.1172074E+00
          2   -1    0    0  502    0  0.00000000000E+00  0.00000000000E+00  0.56112675685E+02  0.56112675685E+02  0.00000000000E+00 0.  1.
          1   -1    0    0  501    0 -0.00000000000E+00 -0.00000000000E+00 -0.20168729381E+04  0.20168729381E+04  0.00000000000E+00 0. -1.
          2    1    1    2  501    0  0.61949308905E+01 -0.15172559110E+03 -0.15260867346E+03  0.21528687694E+03  0.00000000000E+00 0.  1.
          1    1    1    2  502    0 -0.69539529356E+02  0.15684701695E+02 -0.14277027393E+04  0.14294813282E+04  0.00000000000E+00 0. -1.
         22    1    1    2    0    0  0.72545392122E+01 -0.24687448437E+02 -0.61885845690E+02  0.67022058654E+02  0.00000000000E+00 0.  1.
         22    1    1    2    0    0  0.56090059253E+02  0.16072833784E+03 -0.31856300401E+03  0.36119534999E+03  0.00000000000E+00 0.  1.
</event>
<event>
 6    1  0.1293624E-005  0.2035203E+03  0.7818608E-02  0.1207107E+00
          2   -1    0    0  502    0  0.00000000000E+00  0.00000000000E+00  0.10248734266E+03  0.10248734266E+03  0.00000000000E+00 0. -1.
          1   -1    0    0  501    0 -0.00000000000E+00 -0.00000000000E+00 -0.13612574988E+04  0.13612574988E+04  0.00000000000E+00 0. -1.
          2    1    1    2  501    0 -0.34477457876E+02 -0.12702775452E+03 -0.94256174428E+02  0.16189185260E+03  0.00000000000E+00 0. -1.
          1    1    1    2  502    0  0.11560866230E+03  0.16663004436E+03 -0.11275950775E+04  0.11456882618E+04  0.00000000000E+00 0. -1.
         22    1    1    2    0    0 -0.50334735008E+02  0.13228378074E+02  0.34272590620E+02  0.62315214856E+02  0.00000000000E+00 0.  1.
         22    1    1    2    0    0 -0.30796469417E+02 -0.52830667917E+02 -0.71191494863E+02  0.93849512209E+02  0.00000000000E+00 0. -1.
</event>
<event>
 6    1  0.1293624E-005  0.7191071E+02  0.7818608E-02  0.1359099E+00
          2   -1    0    0  502    0  0.00000000000E+00  0.00000000000E+00  0.42759087972E+02  0.42759087972E+02  0.00000000000E+00 0. -1.
          1   -1    0    0  501    0 -0.00000000000E+00 -0.00000000000E+00 -0.95699363077E+03  0.95699363077E+03  0.00000000000E+00 0.  1.
          2    1    1    2  501    0  0.47066009458E+02  0.14052637481E+02 -0.61264609347E+01  0.49499690808E+02  0.00000000000E+00 0. -1.
          1    1    1    2  502    0 -0.14871954292E+02  0.21652690045E+02 -0.72567037780E+03  0.72614565428E+03  0.00000000000E+00 0.  1.
         22    1    1    2    0    0  0.97803513262E+01  0.19140047667E+02  0.68937807931E+01  0.22572569867E+02  0.00000000000E+00 0.  1.
         22    1    1    2    0    0 -0.41974406493E+02 -0.54845375193E+02 -0.18933148486E+03  0.20153480379E+03  0.00000000000E+00 0. -1.
</event>
<event>
 6    1  0.1293624E-005  0.1104779E+03  0.7818608E-02  0.1280364E+00
          2   -1    0    0  502    0  0.00000000000E+00  0.00000000000E+00  0.10697574873E+03  0.10697574873E+03  0.00000000000E+00 0. -1.
          1   -1    0    0  501    0 -0.00000000000E+00 -0.00000000000E+00 -0.13245872337E+04  0.13245872337E+04  0.00000000000E+00 0.  1.
          2    1    1    2  501    0 -0.10238739859E+03  0.33839296768E+02  0.62138332775E+01  0.10801337472E+03  0.00000000000E+00 0. -1.
          1    1    1    2  502    0  0.10248633866E+03  0.23394390475E+02 -0.11667155054E+04  0.11714417688E+04  0.00000000000E+00 0.  1.
         22    1    1    2    0    0 -0.51440069882E+02 -0.38509106184E+01  0.95524317909E+01  0.52461026059E+02  0.00000000000E+00 0. -1.
         22    1    1    2    0    0  0.51341129811E+02 -0.53382776624E+02 -0.66662244619E+02  0.99646812835E+02  0.00000000000E+00 0.  1.
</event>
<event>
 6    1  0.1293624E-005  0.3435676E+03  0.7818608E-02  0.1065287E+00
          2   -1    0    0  502    0  0.00000000000E+00  0.00000000000E+00  0.92240432683E+03  0.92240432683E+03  0.00000000000E+00 0.  1.
          1   -1    0    0  501    0 -0.00000000000E+00 -0.00000000000E+00 -0.39573031065E+03  0.39573031065E+03  0.00000000000E+00 0.  1.
          2    1    1    2  501    0  0.51797036901E+02  0.46821575317E+02  0.42778687888E+02  0.81885341083E+02  0.00000000000E+00 0.  1.
          1    1    1    2  502    0  0.10922571008E+03 -0.91130368504E+01 -0.35518558843E+03  0.37171239609E+03  0.00000000000E+00 0.  1.
         22    1    1    2    0    0 -0.16870386742E+03 -0.56777801437E+02  0.80726613206E+03  0.82665792296E+03  0.00000000000E+00 0.  1.
         22    1    1    2    0    0  0.76811204361E+01  0.19069262970E+02  0.31814784655E+02  0.37878977337E+02  0.00000000000E+00 0. -1.
</event>
<event>
 6    1  0.1293624E-005  0.8775611E+02  0.7818608E-02  0.1313259E+00
          2   -1    0    0  502    0  0.00000000000E+00  0.00000000000E+00  0.26309568389E+03  0.26309568389E+03  0.00000000000E+00 0.  1.
          1   -1    0    0  501    0 -0.00000000000E+00 -0.00000000000E+00 -0.72133254712E+02  0.72133254712E+02  0.00000000000E+00 0.  1.
          2    1    1    2  501    0 -0.92375738795E+01  0.37216334458E+02  0.26748752923E+02  0.46753439495E+02  0.00000000000E+00 0.  1.
          1    1    1    2  502    0 -0.23865269451E+02  0.11959703853E+02 -0.37211184805E+02  0.45795828159E+02  0.00000000000E+00 0.  1.
         22    1    1    2    0    0  0.65461837931E+02 -0.59992424697E+02  0.18414360834E+03  0.20443388109E+03  0.00000000000E+00 0.  1.
         22    1    1    2    0    0 -0.32358994601E+02  0.10816386386E+02  0.17281252721E+02  0.38245789855E+02  0.00000000000E+00 0.  1.
</event>
<event>
 6    1  0.1293624E-005  0.4209892E+03  0.7818608E-02  0.1036745E+00
          2   -1    0    0  502    0  0.00000000000E+00  0.00000000000E+00  0.12997236606E+03  0.12997236606E+03  0.00000000000E+00 0. -1.
          1   -1    0    0  501    0 -0.00000000000E+00 -0.00000000000E+00 -0.47941751514E+03  0.47941751514E+03  0.00000000000E+00 0. -1.
          2    1    1    2  501    0 -0.74677634769E+02  0.15010644693E+03 -0.32131817041E+01  0.16768726571E+03  0.00000000000E+00 0. -1.
          1    1    1    2  502    0  0.31834590199E+02 -0.57444889956E+02 -0.57614653355E+01  0.65928377789E+02  0.00000000000E+00 0. -1.
         22    1    1    2    0    0 -0.53881445939E+01 -0.11660864610E+02  0.77607356923E+01  0.15007894059E+02  0.00000000000E+00 0.  1.
         22    1    1    2    0    0  0.48231189164E+02 -0.81000692366E+02 -0.34823123773E+03  0.36076634364E+03  0.00000000000E+00 0. -1.
</event>
<event>
 6    1  0.1346324E-005  0.2108546E+03  0.7818608E-02  0.1140891E+00
          2   -1    0    0  502    0  0.00000000000E+00  0.00000000000E+00  0.22860562913E+04  0.22860562913E+04  0.00000000000E+00 0. -1.
          1   -1    0    0  501    0 -0.00000000000E+00 -0.00000000000E+00 -0.83569984457E+02  0.83569984457E+02  0.00000000000E+00 0. -1.
          2    1    1    2  501    0 -0.53900420456E+02  0.69100026083E+01 -0.75178924771E+01  0.54859111993E+02  0.00000000000E+00 0. -1.
          1    1    1    2  502    0  0.13854340828E+03 -0.25774230600E+02  0.21469643830E+04  0.21515842184E+04  0.00000000000E+00 0. -1.
         22    1    1    2    0    0  0.16352836658E+02 -0.32285326023E+02  0.24024844936E+02  0.43439045999E+02  0.00000000000E+00 0. -1.
         22    1    1    2    0    0 -0.10099582448E+03  0.51149554014E+02  0.39014971342E+02  0.11974389933E+03  0.00000000000E+00 0. -1.
</event>
<event>
 6    1  0.1293624E-005  0.3958211E+03  0.7818608E-02  0.1045236E+00
          2   -1    0    0  502    0  0.00000000000E+00  0.00000000000E+00  0.45103463734E+03  0.45103463734E+03  0.00000000000E+00 0. -1.
          1   -1    0    0  501    0 -0.00000000000E+00 -0.00000000000E+00 -0.13519373823E+04  0.13519373823E+04  0.00000000000E+00 0.  1.
          2    1    1    2  501    0 -0.16965717774E+03 -0.70907080329E+02  0.10407282748E+03  0.21128777868E+03  0.00000000000E+00 0. -1.
          1    1    1    2  502    0  0.25714920954E+02  0.13674209719E+02 -0.12648958347E+04  0.12652310911E+04  0.00000000000E+00 0.  1.
         22    1    1    2    0    0  0.13093951320E+03  0.78426454129E+02  0.26011428511E+03  0.30158797413E+03  0.00000000000E+00 0. -1.
         22    1    1    2    0    0  0.13002743585E+02 -0.21193583519E+02 -0.19402289019E+00  0.24865175809E+02  0.00000000000E+00 0.  1.
</event>
<event>
 6    1  0.1293624E-005  0.1205907E+03  0.7818608E-02  0.1243559E+00
          2   -1    0    0  502    0  0.00000000000E+00  0.00000000000E+00  0.63977236571E+02  0.63977236571E+02  0.00000000000E+00 0. -1.
          1   -1    0    0  501    0 -0.00000000000E+00 -0.00000000000E+00 -0.15594448873E+04  0.15594448873E+04  0.00000000000E+00 0. -1.
          2    1    1    2  501    0 -0.74192008334E+02 -0.22370286412E+02 -0.85431742623E+02  0.11534065399E+03  0.00000000000E+00 0. -1.
          1    1    1    2  502    0 -0.32190832371E+02 -0.13048872954E+02 -0.13197147114E+04  0.13201717473E+04  0.00000000000E+00 0. -1.
         22    1    1    2    0    0 -0.17539021810E+02 -0.42984589230E+01 -0.47656429805E+02  0.50963019307E+02  0.00000000000E+00 0.  1.
         22    1    1    2    0    0  0.12392186252E+03  0.39717618290E+02 -0.42664766885E+02  0.13694670330E+03  0.00000000000E+00 0. -1.
</event>
<event>
 6    1  0.1293624E-005  0.1811250E+03  0.7818608E-02  0.1166719E+00
          2   -1    0    0  502    0  0.00000000000E+00  0.00000000000E+00  0.26192373517E+02  0.26192373517E+02  0.00000000000E+00 0. -1.
          1   -1    0    0  501    0 -0.00000000000E+00 -0.00000000000E+00 -0.47213604278E+03  0.47213604278E+03  0.00000000000E+00 0. -1.
          2    1    1    2  501    0 -0.15567124674E+02 -0.27506824364E+02 -0.14072166981E+03  0.14422742150E+03  0.00000000000E+00 0. -1.
          1    1    1    2  502    0  0.20889746306E+02  0.54195313919E+01 -0.14862603988E+03  0.15018472809E+03  0.00000000000E+00 0. -1.
         22    1    1    2    0    0  0.17893908580E+02  0.26429516522E+02 -0.17250892830E+03  0.17543671695E+03  0.00000000000E+00 0. -1.
         22    1    1    2    0    0 -0.23216530212E+02 -0.43422235496E+01  0.15912968738E+02  0.28479549759E+02  0.00000000000E+00 0. -1.
</event>
<event>
 6    1  0.1293624E-005  0.1441133E+03  0.7818608E-02  0.1208992E+00
          2   -1    0    0  502    0  0.00000000000E+00  0.00000000000E+00  0.69503985922E+02  0.69503985922E+02  0.00000000000E+00 0.  1.
          1   -1    0    0  501    0 -0.00000000000E+00 -0.00000000000E+00 -0.83095797994E+03  0.83095797994E+03  0.00000000000E+00 0.  1.
          2    1    1    2  501    0  0.97790752474E+02  0.34094102430E+02 -0.81683944030E+02  0.13190036316E+03  0.00000000000E+00 0.  1.
          1    1    1    2  502    0  0.14510761231E+02  0.52308116678E+02 -0.51266614961E+03  0.51553203801E+03  0.00000000000E+00 0.  1.
         22    1    1    2    0    0  0.14344590716E+02  0.19978129661E+02 -0.22489345597E+02  0.33326620184E+02  0.00000000000E+00 0. -1.
         22    1    1    2    0    0 -0.12664610442E+03 -0.10638034877E+03 -0.14461455478E+03  0.21970294451E+03  0.00000000000E+00 0.  1.
</event>
<event>
 6    1  0.1293624E-005  0.9215004E+02  0.7818608E-02  0.1303135E+00
          2   -1    0    0  502    0  0.00000000000E+00  0.00000000000E+00  0.49408613395E+02  0.49408613395E+02  0.00000000000E+00 0. -1.
          1   -1    0    0  501    0 -0.00000000000E+00 -0.00000000000E+00 -0.80772342722E+03  0.80772342722E+03  0.00000000000E+00 0.  1.
          2    1    1    2  501    0  0.65155900804E+02  0.95533640126E+01 -0.48687902461E+02  0.81896703350E+02  0.00000000000E+00 0. -1.
          1    1    1    2  502    0 -0.25615382522E+02 -0.24420467931E+01 -0.61269566175E+03  0.61323575021E+03  0.00000000000E+00 0.  1.
         22    1    1    2    0    0  0.36847515648E+02 -0.23435488052E+01 -0.73004551214E+02  0.81810122408E+02  0.00000000000E+00 0. -1.
         22    1    1    2    0    0 -0.76388033930E+02 -0.47677684142E+01 -0.23926698401E+02  0.80189464643E+02  0.00000000000E+00 0. -1.
</event>
<event>
 6    1  0.1293624E-005  0.7316964E+02  0.7818608E-02  0.1355295E+00
          2   -1    0    0  502    0  0.00000000000E+00  0.00000000000E+00  0.74823869120E+02  0.74823869120E+02  0.00000000000E+00 0.  1.
          1   -1    0    0  501    0 -0.00000000000E+00 -0.00000000000E+00 -0.84186201206E+03  0.84186201206E+03  0.00000000000E+00 0.  1.
          2    1    1    2  501    0 -0.47302743296E+02  0.44118578580E+01 -0.19251867317E+02  0.51260593133E+02  0.00000000000E+00 0.  1.
          1    1    1    2  502    0  0.38935222710E+02 -0.41654945286E+01 -0.73573217981E+03  0.73677346811E+03  0.00000000000E+00 0.  1.
         22    1    1    2    0    0 -0.46679122710E+02 -0.23782282011E+02 -0.36643185460E+02  0.63931686004E+02  0.00000000000E+00 0.  1.
         22    1    1    2    0    0  0.55046643297E+02  0.23535918682E+02  0.24589089644E+02  0.64720133930E+02  0.00000000000E+00 0.  1.
</event>
<event>
 6    1  0.1293624E-005  0.4501673E+03  0.7818608E-02  0.1027672E+00
          2   -1    0    0  502    0  0.00000000000E+00  0.00000000000E+00  0.46301399479E+03  0.46301399479E+03  0.00000000000E+00 0.  1.
          1   -1    0    0  501    0 -0.00000000000E+00 -0.00000000000E+00 -0.12759647540E+04  0.12759647540E+04  0.00000000000E+00 0.  1.
          2    1    1    2  501    0 -0.15642431236E+03  0.12846254503E+03  0.15123241241E+03  0.25267060284E+03  0.00000000000E+00 0.  1.
          1    1    1    2  502    0  0.77089700534E+01  0.26250148828E+02 -0.11663471654E+04  0.11666679942E+04  0.00000000000E+00 0.  1.
         22    1    1    2    0    0  0.12877312302E+03 -0.16099317684E+03  0.12817847610E+03  0.24275716660E+03  0.00000000000E+00 0.  1.
         22    1    1    2    0    0  0.19942219289E+02  0.62804829856E+01  0.73985517670E+02  0.76882985124E+02  0.00000000000E+00 0.  1.
</event>
<event>
 6    1  0.1293624E-005  0.1064234E+03  0.7818608E-02  0.1268419E+00
          2   -1    0    0  502    0  0.00000000000E+00  0.00000000000E+00  0.91358337561E+02  0.91358337561E+02  0.00000000000E+00 0.  1.
          1   -1    0    0  501    0 -0.00000000000E+00 -0.00000000000E+00 -0.15433152364E+04  0.15433152364E+04  0.00000000000E+00 0. -1.
          2    1    1    2  501    0 -0.36455950956E+01 -0.75406639205E+02 -0.24312627970E+03  0.25457776706E+03  0.00000000000E+00 0.  1.
          1    1    1    2  502    0 -0.19604320308E+02 -0.10107964030E+02 -0.12289405911E+04  0.12291385100E+04  0.00000000000E+00 0. -1.
         22    1    1    2    0    0 -0.17714867423E+01 -0.17232588949E+02 -0.29452203203E+02  0.34169175593E+02  0.00000000000E+00 0.  1.
         22    1    1    2    0    0  0.25021402146E+02  0.10274719218E+03  0.49562175180E+02  0.11678812129E+03  0.00000000000E+00 0.  1.
</event>
<event>
 6    1  0.1293624E-005  0.1270711E+03  0.7818608E-02  0.1297209E+00
          2   -1    0    0  502    0  0.00000000000E+00  0.00000000000E+00  0.12528494593E+03  0.12528494593E+03  0.00000000000E+00 0. -1.
          1   -1    0    0  501    0 -0.00000000000E+00 -0.00000000000E+00 -0.85634578338E+03  0.85634578338E+03  0.00000000000E+00 0. -1.
          2    1    1    2  501    0  0.39519778271E+02 -0.91771963343E+01 -0.79325578155E+01  0.41339560722E+02  0.00000000000E+00 0. -1.
          1    1    1    2  502    0 -0.11778255057E+03 -0.11107589719E+02 -0.77589348728E+03  0.78486101405E+03  0.00000000000E+00 0. -1.
         22    1    1    2    0    0 -0.32233077620E+02  0.14831927195E+02  0.10521842668E+02  0.37009006070E+02  0.00000000000E+00 0. -1.
         22    1    1    2    0    0  0.11049584992E+03  0.54528588577E+01  0.42243364983E+02  0.11842114847E+03  0.00000000000E+00 0. -1.
</event>
<event>
 6    1  0.1346365E-005  0.6256840E+02  0.7818608E-02  0.1445111E+00
          2   -1    0    0  502    0  0.00000000000E+00  0.00000000000E+00  0.77247504895E+02  0.77247504895E+02  0.00000000000E+00 0. -1.
          1   -1    0    0  501    0 -0.00000000000E+00 -0.00000000000E+00 -0.14683900814E+04  0.14683900814E+04  0.00000000000E+00 0.  1.
          2    1    1    2  501    0 -0.12234866247E+02 -0.37001498840E+02 -0.23925065393E+03  0.24240395680E+03  0.00000000000E+00 0. -1.
          1    1    1    2  502    0 -0.10842845707E+02  0.64415281742E+02 -0.11701269759E+04  0.11719488195E+04  0.00000000000E+00 0.  1.
         22    1    1    2    0    0  0.14604528803E+01 -0.13694239647E+02 -0.53433733596E+02  0.55179969266E+02  0.00000000000E+00 0. -1.
         22    1    1    2    0    0  0.21617259074E+02 -0.13719543254E+02  0.71668786936E+02  0.76104840699E+02  0.00000000000E+00 0. -1.
</event>
<event>
 6    1  0.1293624E-005  0.8783655E+02  0.7818608E-02  0.1314505E+00
          2   -1    0    0  502    0  0.00000000000E+00  0.00000000000E+00  0.54719210350E+03  0.54719210350E+03  0.00000000000E+00 0.  1.
          1   -1    0    0  501    0 -0.00000000000E+00 -0.00000000000E+00 -0.37439373213E+02  0.37439373213E+02  0.00000000000E+00 0.  1.
          2    1    1    2  501    0  0.23427038597E+02 -0.44576381003E+02  0.97452744317E+02  0.10969465464E+03  0.00000000000E+00 0.  1.
          1    1    1    2  502    0 -0.54937836879E+02 -0.13276538211E+02  0.24950661119E+02  0.61781614402E+02  0.00000000000E+00 0.  1.
         22    1    1    2    0    0  0.42454352697E+02  0.85005940049E+02  0.36252939527E+03  0.37477452467E+03  0.00000000000E+00 0.  1.
         22    1    1    2    0    0 -0.10943554415E+02 -0.27153020835E+02  0.24819929585E+02  0.38380683009E+02  0.00000000000E+00 0.  1.
</event>
<event>
 6    1  0.1293624E-005  0.3813350E+02  0.7818608E-02  0.1533365E+00
          2   -1    0    0  502    0  0.00000000000E+00  0.00000000000E+00  0.94219051756E+02  0.94219051756E+02  0.00000000000E+00 0. -1.
          1   -1    0    0  501    0 -0.00000000000E+00 -0.00000000000E+00 -0.66828423885E+03  0.66828423885E+03  0.00000000000E+00 0. -1.
          2    1    1    2  501    0 -0.18757922136E+02 -0.10865342202E+02 -0.28165254952E+02  0.35541481265E+02  0.00000000000E+00 0. -1.
          1    1    1    2  502    0  0.17275172015E+02  0.19056383239E+02 -0.59393093786E+03  0.59448762498E+03  0.00000000000E+00 0. -1.
         22    1    1    2    0    0 -0.27264367913E+02  0.74245903464E+01 -0.33971123142E+02  0.44187187137E+02  0.00000000000E+00 0. -1.
         22    1    1    2    0    0  0.28747118034E+02 -0.15615631384E+02  0.82002128866E+02  0.88286997216E+02  0.00000000000E+00 0. -1.
</event>
<event>
 6    1  0.1293624E-005  0.1123325E+03  0.7818608E-02  0.1286117E+00
          2   -1    0    0  502    0  0.00000000000E+00  0.00000000000E+00  0.72759338977E+03  0.72759338977E+03  0.00000000000E+00 0. -1.
          1   -1    0    0  501    0 -0.00000000000E+00 -0.00000000000E+00 -0.18065739422E+03  0.18065739422E+03  0.00000000000E+00 0. -1.
          2    1    1    2  501    0 -0.14843595529E+02 -0.60954287917E+02  0.11983869959E+03  0.13526666797E+03  0.00000000000E+00 0. -1.
          1    1    1    2  502    0 -0.11708724778E+02  0.92488296760E+02 -0.15294486785E+03  0.17911815060E+03  0.00000000000E+00 0. -1.
         22    1    1    2    0    0 -0.32099891268E+02 -0.55036225019E+02  0.31722586635E+03  0.32356087428E+03  0.00000000000E+00 0. -1.
         22    1    1    2    0    0  0.58652211575E+02  0.23502216176E+02  0.26281629745E+03  0.27030509114E+03  0.00000000000E+00 0.  1.
</event>
<event>
 6    1  0.1293624E-005  0.1099796E+03  0.7818608E-02  0.1264809E+00
          2   -1    0    0  502    0  0.00000000000E+00  0.00000000000E+00  0.77085226954E+03  0.77085226954E+03  0.00000000000E+00 0.  1.
          1   -1    0    0  501    0 -0.00000000000E+00 -0.00000000000E+00 -0.63273030739E+03  0.63273030739E+03  0.00000000000E+00 0. -1.
          2    1    1    2  501    0  0.79660200940E+02  0.32086212146E+01  0.50544335280E+03  0.51169231551E+03  0.00000000000E+00 0.  1.
          1    1    1    2  502    0  0.10908479256E+02  0.37527730735E+02 -0.60560564135E+03  0.60686532141E+03  0.00000000000E+00 0. -1.
         22    1    1    2    0    0 -0.10976470759E+03 -0.20847575435E+02  0.12169868870E+03  0.16520739470E+03  0.00000000000E+00 0. -1.
         22    1    1    2    0    0  0.19196027389E+02 -0.19888776515E+02  0.11658556199E+03  0.11981754531E+03  0.00000000000E+00 0.  1.
</event>
<event>
 6    1  0.1293624E-005  0.2061367E+03  0.7818608E-02  0.1144662E+00
          2   -1    0    0  502    0  0.00000000000E+00  0.00000000000E+00  0.55571171750E+03  0.55571171750E+03  0.00000000000E+00 0. -1.
          1   -1    0    0  501    0 -0.00000000000E+00 -0.00000000000E+00 -0.12197975739E+03  0.12197975739E+03  0.00000000000E+00 0. -1.
          2    1    1    2  501    0  0.52687002129E+02  0.26086877202E+02  0.11845031929E+03  0.13223813177E+03  0.00000000000E+00 0. -1.
          1    1    1    2  502    0 -0.13333140535E+03 -0.41369338867E+02 -0.52830651033E+02  0.14926407317E+03  0.00000000000E+00 0. -1.
         22    1    1    2    0    0  0.65585091011E+02  0.43169218915E+02  0.35197103738E+03  0.36062251286E+03  0.00000000000E+00 0. -1.
         22    1    1    2    0    0  0.15059312207E+02 -0.27886757250E+02  0.16141254469E+02  0.35566757091E+02  0.00000000000E+00 0. -1.
</event>
<event>
 6    1  0.1293624E-005  0.4718774E+03  0.7818608E-02  0.1021392E+00
          2   -1    0    0  502    0  0.00000000000E+00  0.00000000000E+00  0.38233626970E+03  0.38233626970E+03  0.00000000000E+00 0. -1.
          1   -1    0    0  501    0 -0.00000000000E+00 -0.00000000000E+00 -0.31090264170E+03  0.31090264170E+03  0.00000000000E+00 0. -1.
          2    1    1    2  501    0  0.19781432614E+02 -0.18414376039E+03  0.14735878243E+01  0.18520907382E+03  0.00000000000E+00 0. -1.
          1    1    1    2  502    0  0.11224010820E+03  0.24944161124E+00 -0.13722971540E+03  0.17728479602E+03  0.00000000000E+00 0. -1.
         22    1    1    2    0    0  0.14051046713E+02 -0.69560099405E+01  0.23501591728E+02  0.28251421234E+02  0.00000000000E+00 0. -1.
         22    1    1    2    0    0 -0.14607258753E+03  0.19085032872E+03  0.18368816385E+03  0.30249362032E+03  0.00000000000E+00 0. -1.
</event>
<event>
 6    1  0.1293624E-005  0.1800874E+03  0.7818608E-02  0.1168436E+00
          2   -1    0    0  502    0  0.00000000000E+00  0.00000000000E+00  0.43017787489E+03  0.43017787489E+03  0.00000000000E+00 0. -1.
          1   -1    0    0  501    0 -0.00000000000E+00 -0.00000000000E+00 -0.14815555622E+03  0.14815555622E+03  0.00000000000E+00 0. -1.
          2    1    1    2  501    0  0.11297154673E+03  0.29088456013E+02  0.35610966757E+02  0.12197069155E+03  0.00000000000E+00 0. -1.
          1    1    1    2  502    0 -0.24980528020E+02  0.14706547437E+03  0.81853482616E+02  0.17015367510E+03  0.00000000000E+00 0. -1.
         22    1    1    2    0    0  0.77198752437E+01  0.16449895763E+02  0.64856098601E+01  0.19294006314E+02  0.00000000000E+00 0. -1.
         22    1    1    2    0    0 -0.95710893949E+02 -0.19260382615E+03  0.15807225944E+03  0.26691505816E+03  0.00000000000E+00 0. -1.
</event>
<event>
 6    1  0.1293624E-005  0.6864489E+02  0.7818608E-02  0.1369199E+00
          2   -1    0    0  502    0  0.00000000000E+00  0.00000000000E+00  0.84241291610E+02  0.84241291610E+02  0.00000000000E+00 0.  1.
          1   -1    0    0  501    0 -0.00000000000E+00 -0.00000000000E+00 -0.23929013245E+03  0.23929013245E+03  0.00000000000E+00 0.  1.
          2    1    1    2  501    0  0.56070804522E+01  0.42134142307E+02 -0.10102492110E+03  0.10960273711E+03  0.00000000000E+00 0.  1.
          1    1    1    2  502    0  0.27050505163E+02 -0.66995997079E+01 -0.73123992923E+02  0.78254282993E+02  0.00000000000E+00 0.  1.
         22    1    1    2    0    0 -0.20304100530E+02 -0.60599139402E+02  0.58953915499E+02  0.86948699514E+02  0.00000000000E+00 0.  1.
         22    1    1    2    0    0 -0.12353485086E+02  0.25164596803E+02 -0.39853842324E+02  0.48725704449E+02  0.00000000000E+00 0.  1.
</event>
<event>
 6    1  0.1293624E-005  0.2007767E+03  0.7818608E-02  0.1149085E+00
          2   -1    0    0  502    0  0.00000000000E+00  0.00000000000E+00  0.71653153090E+02  0.71653153090E+02  0.00000000000E+00 0. -1.
          1   -1    0    0  501    0 -0.00000000000E+00 -0.00000000000E+00 -0.27929500007E+03  0.27929500007E+03  0.00000000000E+00 0. -1.
          2    1    1    2  501    0  0.26804793157E+02  0.11193816014E+02 -0.11969655646E+01  0.29072859848E+02  0.00000000000E+00 0. -1.
          1    1    1    2  502    0  0.79383528875E+02 -0.20048754875E+02 -0.67281690657E+02  0.10597416254E+03  0.00000000000E+00 0. -1.
         22    1    1    2    0    0  0.10858860924E+02  0.29080223721E+02  0.23666040304E+01  0.31131577005E+02  0.00000000000E+00 0. -1.
         22    1    1    2    0    0 -0.11704718296E+03 -0.20225284860E+02 -0.14152979479E+03  0.18476955377E+03  0.00000000000E+00 0. -1.
</event>
<event>
 6    1  0.1293624E-005  0.2229730E+03  0.7818608E-02  0.1131686E+00
          2   -1    0    0  502    0  0.00000000000E+00  0.00000000000E+00  0.22597764043E+03  0.22597764043E+03  0.00000000000E+00 0. -1.
          1   -1    0    0  501    0 -0.00000000000E+00 -0.00000000000E+00 -0.59875639942E+03  0.59875639942E+03  0.00000000000E+00 0.  1.
          2    1    1    2  501    0 -0.75322396561E+02 -0.65833262073E+01  0.43149535641E+02  0.87055649063E+02  0.00000000000E+00 0. -1.
          1    1    1    2  502    0  0.27132794529E+02  0.53145224972E+02 -0.54171438874E+03  0.54499090125E+03  0.00000000000E+00 0.  1.
         22    1    1    2    0    0 -0.27909437925E+02 -0.46762412189E+02  0.97162235094E+02  0.11138294235E+03  0.00000000000E+00 0. -1.
         22    1    1    2    0    0  0.76099039956E+02  0.20051342343E+00  0.28623859011E+02  0.81304547183E+02  0.00000000000E+00 0.  1.
</event>
<event>
 6    1  0.1293624E-005  0.2298487E+03  0.7818608E-02  0.1126746E+00
          2   -1    0    0  502    0  0.00000000000E+00  0.00000000000E+00  0.14534607179E+03  0.14534607179E+03  0.00000000000E+00 0. -1.
          1   -1    0    0  501    0 -0.00000000000E+00 -0.00000000000E+00 -0.64452723723E+03  0.64452723723E+03  0.00000000000E+00 0. -1.
          2    1    1    2  501    0  0.15699945929E+02 -0.16400314485E+02 -0.60775901345E+02  0.64878107260E+02  0.00000000000E+00 0. -1.
          1    1    1    2  502    0 -0.13421325029E+02  0.18703678903E+02 -0.55326788755E+03  0.55374661621E+03  0.00000000000E+00 0. -1.
         22    1    1    2    0    0 -0.22420371705E+02 -0.83769828541E+01  0.13795174213E+03  0.14001260681E+03  0.00000000000E+00 0. -1.
         22    1    1    2    0    0  0.20141750805E+02  0.60736184365E+01 -0.23089118678E+02  0.31235978738E+02  0.00000000000E+00 0.  1.
</event>
<event>
 6    1  0.1293624E-005  0.1845597E+03  0.7818608E-02  0.1163462E+00
          2   -1    0    0  502    0  0.00000000000E+00  0.00000000000E+00  0.12367797489E+03  0.12367797489E+03  0.00000000000E+00 0.  1.
          1   -1    0    0  501    0 -0.00000000000E+00 -0.00000000000E+00 -0.30811224293E+03  0.30811224293E+03  0.00000000000E+00 0.  1.
          2    1    1    2  501    0  0.25679439158E+02  0.26394830084E+01 -0.27750740171E+02  0.37901240693E+02  0.00000000000E+00 0.  1.
          1    1    1    2  502    0 -0.61647250751E+02 -0.83154755535E+01 -0.23282529338E+03  0.24099200795E+03  0.00000000000E+00 0.  1.
         22    1    1    2    0    0  0.16968067158E+01  0.20430983511E+02 -0.32276868272E+02  0.38237422320E+02  0.00000000000E+00 0.  1.
         22    1    1    2    0    0  0.34271004877E+02 -0.14754990966E+02  0.10841863378E+03  0.11465954685E+03  0.00000000000E+00 0.  1.
</event>
<event>
 6    1  0.1293624E-005  0.1797315E+03  0.7818608E-02  0.1168063E+00
          2   -1    0    0  502    0  0.00000000000E+00  0.00000000000E+00  0.12164206502E+03  0.12164206502E+03  0.00000000000E+00 0.  1.
          1   -1    0    0  501    0 -0.00000000000E+00 -0.00000000000E+00 -0.16814025106E+03  0.16814025106E+03  0.00000000000E+00 0.  1.
          2    1    1    2  501    0  0.39890674649E+01  0.23647339359E+02  0.21935992877E+02  0.32500724630E+02  0.00000000000E+00 0.  1.
          1    1    1    2  502    0 -0.33033286542E+01 -0.93635865166E+02 -0.57127685948E+02  0.10973677473E+03  0.00000000000E+00 0.  1.
         22    1    1    2    0    0 -0.24333492596E+02  0.35824373408E+02 -0.65950249852E+02  0.78898289256E+02  0.00000000000E+00 0.  1.
         22    1    1    2    0    0  0.23647753786E+02  0.34164152399E+02  0.54643756883E+02  0.68646527476E+02  0.00000000000E+00 0. -1.
</event>
<event>
 6    1  0.1293624E-005  0.6179623E+03  0.7818608E-02  0.9868825E-01
          2   -1    0    0  502    0  0.00000000000E+00  0.00000000000E+00  0.25457308385E+03  0.25457308385E+03  0.00000000000E+00 0.  1.
          1   -1    0    0  501    0 -0.00000000000E+00 -0.00000000000E+00 -0.20842200495E+04  0.20842200495E+04  0.00000000000E+00 0.  1.
          2    1    1    2  501    0 -0.71859615146E+02  0.33477641015E+03 -0.12007536942E+04  0.12486186301E+04  0.00000000000E+00 0.  1.
          1    1    1    2  502    0  0.13671294023E+03 -0.53520502983E+03 -0.18607703725E+03  0.58288893948E+03  0.00000000000E+00 0.  1.
         22    1    1    2    0    0  0.30831635455E+02  0.29262222529E+02 -0.14176825099E+03  0.14800373103E+03  0.00000000000E+00 0.  1.
         22    1    1    2    0    0 -0.95684960542E+02  0.17116639715E+03 -0.30104798317E+03  0.35928183277E+03  0.00000000000E+00 0.  1.
</event>
<event>
 6    1  0.1293624E-005  0.4408752E+03  0.7818608E-02  0.1117492E+00
          2   -1    0    0  502    0  0.00000000000E+00  0.00000000000E+00  0.43432621902E+03  0.43432621902E+03  0.00000000000E+00 0. -1.
          1   -1    0    0  501    0 -0.00000000000E+00 -0.00000000000E+00 -0.26322690206E+04  0.26322690206E+04  0.00000000000E+00 0. -1.
          2    1    1    2  501    0 -0.83149060010E+01 -0.14903941755E+03 -0.10684441540E+02  0.14965307527E+03  0.00000000000E+00 0. -1.
          1    1    1    2  502    0 -0.43533596007E+02  0.40811855286E+03 -0.24734192797E+04  0.25072412848E+04  0.00000000000E+00 0. -1.
         22    1    1    2    0    0  0.14319262595E+02 -0.24253046135E+03  0.20154547815E+03  0.31566856943E+03  0.00000000000E+00 0.  1.
         22    1    1    2    0    0  0.37529239412E+02 -0.16548673962E+02  0.84615441446E+02  0.94032310148E+02  0.00000000000E+00 0.  1.
</event>
<event>
 6    1  0.1293624E-005  0.1407486E+03  0.7818608E-02  0.1232584E+00
          2   -1    0    0  502    0  0.00000000000E+00  0.00000000000E+00  0.88119748931E+03  0.88119748931E+03  0.00000000000E+00 0.  1.
          1   -1    0    0  501    0 -0.00000000000E+00 -0.00000000000E+00 -0.63889079785E+02  0.63889079785E+02  0.00000000000E+00 0.  1.
          2    1    1    2  501    0  0.87406152090E+02 -0.23539288606E+02  0.37398336847E+02  0.97941661872E+02  0.00000000000E+00 0.  1.
          1    1    1    2  502    0 -0.53175586900E+02  0.13814838654E+03  0.26825931000E+03  0.30639137903E+03  0.00000000000E+00 0.  1.
         22    1    1    2    0    0  0.22217897074E+02 -0.41783391513E+02  0.45726718366E+02  0.65805923208E+02  0.00000000000E+00 0.  1.
         22    1    1    2    0    0 -0.56448462264E+02 -0.72825706418E+02  0.46592404431E+03  0.47494760498E+03  0.00000000000E+00 0. -1.
</event>
<event>
 6    1  0.1293624E-005  0.1776754E+03  0.7818608E-02  0.1170072E+00
          2   -1    0    0  502    0  0.00000000000E+00  0.00000000000E+00  0.32908652176E+03  0.32908652176E+03  0.00000000000E+00 0. -1.
          1   -1    0    0  501    0 -0.00000000000E+00 -0.00000000000E+00 -0.10758781353E+04  0.10758781353E+04  0.00000000000E+00 0.  1.
          2    1    1    2  501    0 -0.40703714000E+01 -0.40295792078E+02  0.55461428668E+02  0.68675241917E+02  0.00000000000E+00 0. -1.
          1    1    1    2  502    0  0.62896835042E+02  0.15062816476E+02 -0.10508293092E+04  0.10528177133E+04  0.00000000000E+00 0.  1.
         22    1    1    2    0    0 -0.10932988070E+02 -0.37184036432E+02  0.16163938553E+03  0.16622115915E+03  0.00000000000E+00 0. -1.
         22    1    1    2    0    0 -0.47893475572E+02  0.62417012035E+02  0.86936881506E+02  0.11725054268E+03  0.00000000000E+00 0. -1.
</event>
<event>
 6    1  0.1293624E-005  0.9150248E+02  0.7818608E-02  0.1301751E+00
          2   -1    0    0  502    0  0.00000000000E+00  0.00000000000E+00  0.31660497754E+03  0.31660497754E+03  0.00000000000E+00 0.  1.
          1   -1    0    0  501    0 -0.00000000000E+00 -0.00000000000E+00 -0.46154643534E+02  0.46154643534E+02  0.00000000000E+00 0. -1.
          2    1    1    2  501    0 -0.52376237890E+02  0.15412506930E+02  0.87109385157E+02  0.10280496412E+03  0.00000000000E+00 0.  1.
          1    1    1    2  502    0  0.49112973844E+02  0.22165408075E+02  0.66129051513E+02  0.85302057237E+02  0.00000000000E+00 0. -1.
         22    1    1    2    0    0 -0.55522962090E+02  0.66029517514E+01  0.48844420678E+02  0.74244028194E+02  0.00000000000E+00 0.  1.
         22    1    1    2    0    0  0.58786226136E+02 -0.44180866757E+02  0.68367476661E+02  0.10040857153E+03  0.00000000000E+00 0.  1.
</event>
<event>
 6    1  0.1293624E-005  0.2231107E+03  0.7818608E-02  0.1131585E+00
          2   -1    0    0  502    0  0.00000000000E+00  0.00000000000E+00  0.34461534820E+03  0.34461534820E+03  0.00000000000E+00 0.  1.
          1   -1    0    0  501    0 -0.00000000000E+00 -0.00000000000E+00 -0.10545599385E+04  0.10545599385E+04  0.00000000000E+00 0. -1.
          2    1    1    2  501    0  0.26256913960E+01  0.49639575066E+02  0.85208756768E+02  0.98648435861E+02  0.00000000000E+00 0.  1.
          1    1    1    2  502    0  0.89188998813E+02  0.27769385694E+02 -0.10160800651E+04  0.10203648931E+04  0.00000000000E+00 0. -1.
         22    1    1    2    0    0 -0.95142513339E+02 -0.10246348160E+03  0.15094169025E+03  0.20575290219E+03  0.00000000000E+00 0. -1.
         22    1    1    2    0    0  0.33278231298E+01  0.25054520838E+02  0.69985027846E+02  0.74409055523E+02  0.00000000000E+00 0.  1.
</event>
<event>
 6    1  0.1293624E-005  0.8508311E+02  0.7818608E-02  0.1317572E+00
          2   -1    0    0  502    0  0.00000000000E+00  0.00000000000E+00  0.24257511143E+03  0.24257511143E+03  0.00000000000E+00 0. -1.
          1   -1    0    0  501    0 -0.00000000000E+00 -0.00000000000E+00 -0.24126144329E+03  0.24126144329E+03  0.00000000000E+00 0.  1.
          2    1    1    2  501    0  0.67220687259E+02 -0.23227451477E+02 -0.94646563138E+01  0.71747578474E+02  0.00000000000E+00 0. -1.
          1    1    1    2  502    0 -0.20848576857E+01  0.66553734362E+02 -0.16810919831E+03  0.18081606329E+03  0.00000000000E+00 0.  1.
         22    1    1    2    0    0  0.13872713325E+02 -0.15420380398E+02 -0.11173934635E+02  0.23560499185E+02  0.00000000000E+00 0. -1.
         22    1    1    2    0    0 -0.79008542898E+02 -0.27905902487E+02  0.19006145740E+03  0.20771241377E+03  0.00000000000E+00 0. -1.
</event>
<event>
 6    1  0.1293624E-005  0.6708356E+02  0.7818608E-02  0.1373234E+00
          2   -1    0    0  502    0  0.00000000000E+00  0.00000000000E+00  0.48367968738E+02  0.48367968738E+02  0.00000000000E+00 0. -1.
          1   -1    0    0  501    0 -0.00000000000E+00 -0.00000000000E+00 -0.92975032113E+03  0.92975032113E+03  0.00000000000E+00 0. -1.
          2    1    1    2  501    0 -0.12464732765E+02  0.25308970538E+02  0.85007831179E+00  0.28224744211E+02  0.00000000000E+00 0. -1.
          1    1    1    2  502    0  0.21522587737E+02  0.24397430944E+02 -0.77133332306E+03  0.77201913945E+03  0.00000000000E+00 0. -1.
         22    1    1    2    0    0 -0.15974943659E+02 -0.83771057860E+02 -0.11467555961E+03  0.14291001691E+03  0.00000000000E+00 0.  1.
         22    1    1    2    0    0  0.69170886881E+01  0.34064656377E+02  0.37764519604E+01  0.34964389304E+02  0.00000000000E+00 0. -1.
</event>
<event>
 6    1  0.1293624E-005  0.1156431E+03  0.7818608E-02  0.1251581E+00
          2   -1    0    0  502    0  0.00000000000E+00  0.00000000000E+00  0.86535195769E+03  0.86535195769E+03  0.00000000000E+00 0. -1.
          1   -1    0    0  501    0 -0.00000000000E+00 -0.00000000000E+00 -0.17014241538E+03  0.17014241538E+03  0.00000000000E+00 0.  1.
          2    1    1    2  501    0 -0.70588968395E+02  0.45175201074E+02  0.40392096418E+03  0.41252363151E+03  0.00000000000E+00 0. -1.
          1    1    1    2  502    0  0.18947510793E+01  0.28581631438E+02 -0.14986652138E+03  0.15257940217E+03  0.00000000000E+00 0.  1.
         22    1    1    2    0    0  0.82018815301E+02 -0.96800633923E+02  0.28474760502E+03  0.31173489916E+03  0.00000000000E+00 0. -1.
         22    1    1    2    0    0 -0.13324597985E+02  0.23043801412E+02  0.15640749449E+03  0.15865644023E+03  0.00000000000E+00 0.  1.
</event>
<event>
 6    1  0.1293624E-005  0.1037790E+03  0.7818608E-02  0.1275972E+00
          2   -1    0    0  502    0  0.00000000000E+00  0.00000000000E+00  0.41912064802E+03  0.41912064802E+03  0.00000000000E+00 0. -1.
          1   -1    0    0  501    0 -0.00000000000E+00 -0.00000000000E+00 -0.17336512000E+03  0.17336512000E+03  0.00000000000E+00 0.  1.
          2    1    1    2  501    0  0.39846069262E+02  0.50770255728E+02  0.84179606718E+02  0.10607324964E+03  0.00000000000E+00 0. -1.
          1    1    1    2  502    0  0.27272160206E+02 -0.42661126685E+02 -0.14212833857E+03  0.15087811994E+03  0.00000000000E+00 0.  1.
         22    1    1    2    0    0  0.35932979182E+02  0.51017987894E+01  0.53833885802E+02  0.64925300187E+02  0.00000000000E+00 0. -1.
         22    1    1    2    0    0 -0.10305120865E+03 -0.13210927833E+02  0.24987037407E+03  0.27060909825E+03  0.00000000000E+00 0. -1.
</event>
<event>
 6    1  0.1293624E-005  0.1436192E+03  0.7818608E-02  0.1237141E+00
          2   -1    0    0  502    0  0.00000000000E+00  0.00000000000E+00  0.25973588343E+03  0.25973588343E+03  0.00000000000E+00 0. -1.
          1   -1    0    0  501    0 -0.00000000000E+00 -0.00000000000E+00 -0.13713028607E+03  0.13713028607E+03  0.00000000000E+00 0. -1.
          2    1    1    2  501    0  0.40927798955E+02  0.83514843539E+02  0.69778021527E+01  0.93265768326E+02  0.00000000000E+00 0. -1.
          1    1    1    2  502    0  0.81732099514E+01 -0.12583707955E+03  0.27083776466E+01  0.12613130959E+03  0.00000000000E+00 0. -1.
         22    1    1    2    0    0 -0.78759258573E+02 -0.61217990573E+01  0.54401355112E+02  0.95916654825E+02  0.00000000000E+00 0. -1.
         22    1    1    2    0    0  0.29658249667E+02  0.48444035068E+02  0.58518062447E+02  0.81552436748E+02  0.00000000000E+00 0. -1.
</event>
<event>
 6    1  0.1293624E-005  0.1623584E+03  0.7818608E-02  0.1187040E+00
          2   -1    0    0  502    0  0.00000000000E+00  0.00000000000E+00  0.93811404663E+02  0.93811404663E+02  0.00000000000E+00 0. -1.
          1   -1    0    0  501    0 -0.00000000000E+00 -0.00000000000E+00 -0.10408859371E+04  0.10408859371E+04  0.00000000000E+00 0. -1.
          2    1    1    2  501    0  0.13564008023E+03 -0.69828756161E+02 -0.66862692941E+03  0.68581065702E+03  0.00000000000E+00 0. -1.
          1    1    1    2  502    0 -0.89640022443E+02 -0.63400990515E+02  0.20600698263E+01  0.10981467620E+03  0.00000000000E+00 0. -1.
         22    1    1    2    0    0  0.16241081683E+02 -0.17019247456E+02 -0.64718634073E+02  0.68861666510E+02  0.00000000000E+00 0.  1.
         22    1    1    2    0    0 -0.62241139474E+02  0.15024899413E+03 -0.21578903877E+03  0.27021034202E+03  0.00000000000E+00 0. -1.
</event>
<event>
 6    1  0.1293624E-005  0.1438487E+03  0.7818608E-02  0.1210360E+00
          2   -1    0    0  502    0  0.00000000000E+00  0.00000000000E+00  0.13769825342E+03  0.13769825342E+03  0.00000000000E+00 0.  1.
          1   -1    0    0  501    0 -0.00000000000E+00 -0.00000000000E+00 -0.94643463738E+03  0.94643463738E+03  0.00000000000E+00 0. -1.
          2    1    1    2  501    0  0.11889262619E+03  0.54334910772E+02 -0.86262862024E+02  0.15661743344E+03  0.00000000000E+00 0.  1.
          1    1    1    2  502    0 -0.88250149942E+01 -0.23109467643E+02 -0.75384606479E+03  0.75425182650E+03  0.00000000000E+00 0. -1.
         22    1    1    2    0    0  0.22213606443E+02 -0.80025487676E+01 -0.18503035208E+02  0.29997456724E+02  0.00000000000E+00 0.  1.
         22    1    1    2    0    0 -0.13228121764E+03 -0.23222894361E+02  0.49875578060E+02  0.14326617413E+03  0.00000000000E+00 0.  1.
</event>
<event>
 6    1  0.1293624E-005  0.4740364E+03  0.7818608E-02  0.1020787E+00
          2   -1    0    0  502    0  0.00000000000E+00  0.00000000000E+00  0.34665409876E+03  0.34665409876E+03  0.00000000000E+00 0. -1.
          1   -1    0    0  501    0 -0.00000000000E+00 -0.00000000000E+00 -0.57676669118E+03  0.57676669118E+03  0.00000000000E+00 0. -1.
          2    1    1    2  501    0 -0.96096096732E+02 -0.13992864823E+03 -0.11406119499E+03  0.20451025061E+03  0.00000000000E+00 0. -1.
          1    1    1    2  502    0  0.15418733408E+03  0.16398713535E+03 -0.36654610493E+03  0.43014132746E+03  0.00000000000E+00 0. -1.
         22    1    1    2    0    0 -0.46976358977E+02  0.20637668808E+02  0.23444714062E+03  0.23999615293E+03  0.00000000000E+00 0.  1.
         22    1    1    2    0    0 -0.11114878366E+02 -0.44696155930E+02  0.16047566866E+02  0.48773058939E+02  0.00000000000E+00 0. -1.
</event>
<event>
 6    1  0.1293624E-005  0.1105076E+03  0.7818608E-02  0.1263495E+00
          2   -1    0    0  502    0  0.00000000000E+00  0.00000000000E+00  0.14509577446E+03  0.14509577446E+03  0.00000000000E+00 0. -1.
          1   -1    0    0  501    0 -0.00000000000E+00 -0.00000000000E+00 -0.48714745829E+03  0.48714745829E+03  0.00000000000E+00 0.  1.
          2    1    1    2  501    0 -0.23058949042E+02  0.77496139872E+02  0.72011158910E+02  0.10827268277E+03  0.00000000000E+00 0. -1.
          1    1    1    2  502    0 -0.50076238009E+01 -0.63735515563E+02 -0.38385070037E+03  0.38913834611E+03  0.00000000000E+00 0.  1.
         22    1    1    2    0    0  0.61108081095E+02 -0.41523070881E+02 -0.48053113618E+02  0.88133221426E+02  0.00000000000E+00 0. -1.
         22    1    1    2    0    0 -0.33041508252E+02  0.27762446573E+02  0.17840971246E+02  0.46698982455E+02  0.00000000000E+00 0. -1.
</event>
<event>
 6    1  0.1293624E-005  0.3797457E+03  0.7818608E-02  0.1051028E+00
          2   -1    0    0  502    0  0.00000000000E+00  0.00000000000E+00  0.99142284393E+02  0.99142284393E+02  0.00000000000E+00 0. -1.
          1   -1    0    0  501    0 -0.00000000000E+00 -0.00000000000E+00 -0.13133802312E+04  0.13133802312E+04  0.00000000000E+00 0. -1.
          2    1    1    2  501    0 -0.15673729807E+02  0.75105285649E+02 -0.31776699007E+03  0.32689804177E+03  0.00000000000E+00 0. -1.
          1    1    1    2  502    0  0.80735469351E+02 -0.10571290822E+03 -0.92670094983E+03  0.93619874246E+03  0.00000000000E+00 0. -1.
         22    1    1    2    0    0 -0.30641038810E+02  0.21792411168E+02 -0.49485622171E+02  0.62149893366E+02  0.00000000000E+00 0. -1.
         22    1    1    2    0    0 -0.34420700735E+02  0.88152114033E+01  0.79715615228E+02  0.87275838022E+02  0.00000000000E+00 0. -1.
</event>
<event>
 6    1  0.3258560E-005  0.5647977E+03  0.7818608E-02  0.9981257E-01
          2   -1    0    0  502    0  0.00000000000E+00  0.00000000000E+00  0.78155677526E+03  0.78155677526E+03  0.00000000000E+00 0. -1.
          1   -1    0    0  501    0 -0.00000000000E+00 -0.00000000000E+00 -0.50751822630E+03  0.50751822630E+03  0.00000000000E+00 0. -1.
          2    1    1    2  501    0 -0.26821454967E+03 -0.10166420978E+03 -0.19096030704E+03  0.34458742732E+03  0.00000000000E+00 0. -1.
          1    1    1    2  502    0  0.48519022995E+03  0.12983704015E+03  0.47332699491E+03  0.69014901315E+03  0.00000000000E+00 0. -1.
         22    1    1    2    0    0  0.13392284716E+02 -0.19239648254E+02 -0.38368576921E+01  0.23753711958E+02  0.00000000000E+00 0.  1.
         22    1    1    2    0    0 -0.23036796500E+03 -0.89331821120E+01 -0.44912812243E+01  0.23058484913E+03  0.00000000000E+00 0. -1.
</event>
<event>
 6    1  0.1293624E-005  0.7350797E+02  0.7818608E-02  0.1350509E+00
          2   -1    0    0  502    0  0.00000000000E+00  0.00000000000E+00  0.36349444606E+03  0.36349444606E+03  0.00000000000E+00 0. -1.
          1   -1    0    0  501    0 -0.00000000000E+00 -0.00000000000E+00 -0.22726005774E+02  0.22726005774E+02  0.00000000000E+00 0. -1.
          2    1    1    2  501    0 -0.21799267274E+02 -0.53356047194E+01  0.40833191014E+02  0.46594272393E+02  0.00000000000E+00 0. -1.
          1    1    1    2  502    0  0.18765202002E+02 -0.21881731969E+02  0.68829137599E+02  0.74621666980E+02  0.00000000000E+00 0. -1.
         22    1    1    2    0    0  0.64025313224E+02  0.13165695616E+02  0.13954610369E+03  0.15409637027E+03  0.00000000000E+00 0. -1.
         22    1    1    2    0    0 -0.60991247952E+02  0.14051641073E+02  0.91560007985E+02  0.11090814220E+03  0.00000000000E+00 0.  1.
</event>
<event>
 6    1  0.1293624E-005  0.7610308E+02  0.7818608E-02  0.1341757E+00
          2   -1    0    0  502    0  0.00000000000E+00  0.00000000000E+00  0.43995855968E+03  0.43995855968E+03  0.00000000000E+00 0. -1.
          1   -1    0    0  501    0 -0.00000000000E+00 -0.00000000000E+00 -0.16775099028E+03  0.16775099028E+03  0.00000000000E+00 0.  1.
          2    1    1    2  501    0 -0.18673987449E+02  0.16007891746E+02  0.52164062654E+02  0.57672002202E+02  0.00000000000E+00 0. -1.
          1    1    1    2  502    0  0.37588413120E+02  0.36231994898E+02 -0.14852283109E+03  0.15743150133E+03  0.00000000000E+00 0.  1.
         22    1    1    2    0    0  0.53428965943E-02 -0.91594439841E+02  0.24725389184E+03  0.26367409518E+03  0.00000000000E+00 0. -1.
         22    1    1    2    0    0 -0.18919768568E+02  0.39354553197E+02  0.12131244599E+03  0.12893195125E+03  0.00000000000E+00 0. -1.
</event>
<event>
 6    1  0.1293624E-005  0.2166199E+03  0.7818608E-02  0.1136428E+00
          2   -1    0    0  502    0  0.00000000000E+00  0.00000000000E+00  0.20209676119E+03  0.20209676119E+03  0.00000000000E+00 0. -1.
          1   -1    0    0  501    0 -0.00000000000E+00 -0.00000000000E+00 -0.16806443922E+03  0.16806443922E+03  0.00000000000E+00 0. -1.
          2    1    1    2  501    0  0.40828922754E+02 -0.60359224169E+02  0.12366243671E+02  0.73913198132E+02  0.00000000000E+00 0. -1.
          1    1    1    2  502    0  0.28057755473E+01  0.64298014532E+02 -0.97432473918E+02  0.11676983353E+03  0.00000000000E+00 0. -1.
         22    1    1    2    0    0  0.27402434013E+02 -0.19483153768E+01  0.10301601233E+03  0.10661607815E+03  0.00000000000E+00 0. -1.
         22    1    1    2    0    0 -0.71037132314E+02 -0.19904749860E+01  0.16082539880E+02  0.72862090603E+02  0.00000000000E+00 0.  1.
</event>
<event>
 6    1  0.1293624E-005  0.1983354E+03  0.7818608E-02  0.1151151E+00
          2   -1    0    0  502    0  0.00000000000E+00  0.00000000000E+00  0.79809859573E+01  0.79809859573E+01  0.00000000000E+00 0.  1.
          1   -1    0    0  501    0 -0.00000000000E+00 -0.00000000000E+00 -0.22039248357E+04  0.22039248357E+04  0.00000000000E+00 0. -1.
          2    1    1    2  501    0 -0.63953176188E+02  0.14765657717E+01 -0.57146138420E+03  0.57503069711E+03  0.00000000000E+00 0.  1.
          1    1    1    2  502    0  0.30330454023E+02  0.54051398976E+01 -0.93081637550E+03  0.93132608515E+03  0.00000000000E+00 0. -1.
         22    1    1    2    0    0 -0.98792010912E+00  0.56377531426E+02 -0.33392907226E+03  0.33865620817E+03  0.00000000000E+00 0.  1.
         22    1    1    2    0    0  0.34610642275E+02 -0.63259237095E+02 -0.35973701776E+03  0.36689283119E+03  0.00000000000E+00 0.  1.
</event>
<event>
 6    1  0.1293624E-005  0.1165322E+03  0.7818608E-02  0.1250405E+00
          2   -1    0    0  502    0  0.00000000000E+00  0.00000000000E+00  0.67613801839E+02  0.67613801839E+02  0.00000000000E+00 0.  1.
          1   -1    0    0  501    0 -0.00000000000E+00 -0.00000000000E+00 -0.11314809949E+04  0.11314809949E+04  0.00000000000E+00 0. -1.
          2    1    1    2  501    0 -0.29810801445E+02 -0.86699598274E+02 -0.86108295282E+02  0.12577814890E+03  0.00000000000E+00 0.  1.
          1    1    1    2  502    0  0.12265986853E+02  0.21708129577E+02 -0.91392879348E+03  0.91426885371E+03  0.00000000000E+00 0. -1.
         22    1    1    2    0    0  0.14136566023E+02  0.10421306902E+03 -0.37356471237E+02  0.11160516206E+03  0.00000000000E+00 0.  1.
         22    1    1    2    0    0  0.34082485690E+01 -0.39221600325E+02 -0.26473633065E+02  0.47442632074E+02  0.00000000000E+00 0.  1.
</event>
<event>
 6    1  0.1293624E-005  0.1053350E+03  0.7818608E-02  0.1288900E+00
          2   -1    0    0  502    0  0.00000000000E+00  0.00000000000E+00  0.91504006414E+03  0.91504006414E+03  0.00000000000E+00 0. -1.
          1   -1    0    0  501    0 -0.00000000000E+00 -0.00000000000E+00 -0.10616084785E+03  0.10616084785E+03  0.00000000000E+00 0. -1.
          2    1    1    2  501    0  0.31159108759E+02 -0.35628071496E+02  0.31032197116E+03  0.31391077605E+03  0.00000000000E+00 0. -1.
          1    1    1    2  502    0 -0.39921915750E+02  0.84345384639E+02 -0.74551611399E+02  0.11943971713E+03  0.00000000000E+00 0. -1.
         22    1    1    2    0    0  0.57717984600E+02  0.50643251513E+01  0.26846644656E+03  0.27464749419E+03  0.00000000000E+00 0.  1.
         22    1    1    2    0    0 -0.48955177610E+02 -0.53781638294E+02  0.30464240997E+03  0.31320292461E+03  0.00000000000E+00 0. -1.
</event>
<event>
 6    1  0.1293624E-005  0.1219592E+03  0.7818608E-02  0.1240992E+00
          2   -1    0    0  502    0  0.00000000000E+00  0.00000000000E+00  0.45902641877E+02  0.45902641877E+02  0.00000000000E+00 0. -1.
          1   -1    0    0  501    0 -0.00000000000E+00 -0.00000000000E+00 -0.96902960745E+03  0.96902960745E+03  0.00000000000E+00 0. -1.
          2    1    1    2  501    0 -0.10142149354E+03 -0.39174465084E+02 -0.25835431780E+03  0.28029968176E+03  0.00000000000E+00 0. -1.
          1    1    1    2  502    0  0.29317992788E+02 -0.25141623522E+01 -0.53720921399E+03  0.53801450288E+03  0.00000000000E+00 0. -1.
         22    1    1    2    0    0 -0.23436671165E+02 -0.19534423050E+02 -0.51992281757E+02  0.60283236488E+02  0.00000000000E+00 0. -1.
         22    1    1    2    0    0  0.95540171920E+02  0.61223050486E+02 -0.75571152016E+02  0.13633482819E+03  0.00000000000E+00 0. -1.
</event>
<event>
 6    1  0.1293624E-005  0.1870655E+03  0.7818608E-02  0.1161135E+00
          2   -1    0    0  502    0  0.00000000000E+00  0.00000000000E+00  0.30993305709E+02  0.30993305709E+02  0.00000000000E+00 0. -1.
          1   -1    0    0  501    0 -0.00000000000E+00 -0.00000000000E+00 -0.14260428746E+04  0.14260428746E+04  0.00000000000E+00 0. -1.
          2    1    1    2  501    0  0.21933832758E+01 -0.53728797913E+02 -0.13934110934E+03  0.14935708690E+03  0.00000000000E+00 0. -1.
          1    1    1    2  502    0 -0.62210738385E+01  0.51537719182E+02 -0.11376892494E+04  0.11388729809E+04  0.00000000000E+00 0. -1.
         22    1    1    2    0    0  0.40530015724E+02  0.17850953872E+02 -0.49869231315E-02  0.44287004342E+02  0.00000000000E+00 0. -1.
         22    1    1    2    0    0 -0.36502325161E+02 -0.15659875141E+02 -0.11801422316E+03  0.12451910817E+03  0.00000000000E+00 0.  1.
</event>
<event>
 6    1  0.1293624E-005  0.2200689E+03  0.7818608E-02  0.1133832E+00
          2   -1    0    0  502    0  0.00000000000E+00  0.00000000000E+00  0.13034670428E+03  0.13034670428E+03  0.00000000000E+00 0. -1.
          1   -1    0    0  501    0 -0.00000000000E+00 -0.00000000000E+00 -0.16620851999E+03  0.16620851999E+03  0.00000000000E+00 0. -1.
          2    1    1    2  501    0 -0.26594892713E+02  0.76849479176E+02  0.34757754760E-01  0.81321165610E+02  0.00000000000E+00 0. -1.
          1    1    1    2  502    0  0.14319829965E+02 -0.17024466791E+02 -0.70365124033E+02  0.73797972058E+02  0.00000000000E+00 0. -1.
         22    1    1    2    0    0 -0.36208237525E+02 -0.23442605978E+02 -0.30310685388E+02  0.52719350227E+02  0.00000000000E+00 0.  1.
         22    1    1    2    0    0  0.48483300273E+02 -0.36382406407E+02  0.64779235958E+02  0.88716736372E+02  0.00000000000E+00 0. -1.
</event>
<event>
 6    1  0.1293624E-005  0.1976834E+03  0.7818608E-02  0.1151708E+00
          2   -1    0    0  502    0  0.00000000000E+00  0.00000000000E+00  0.34167087263E+02  0.34167087263E+02  0.00000000000E+00 0. -1.
          1   -1    0    0  501    0 -0.00000000000E+00 -0.00000000000E+00 -0.82495020973E+03  0.82495020973E+03  0.00000000000E+00 0.  1.
          2    1    1    2  501    0  0.21043127010E+02  0.31132834708E+02 -0.16649822512E+03  0.17068604383E+03  0.00000000000E+00 0. -1.
          1    1    1    2  502    0 -0.25388636935E+02 -0.15222839772E+02 -0.53513768468E+03  0.53595583708E+03  0.00000000000E+00 0.  1.
         22    1    1    2    0    0  0.60893107629E+02  0.42501962314E+01 -0.29309236041E+02  0.67713115731E+02  0.00000000000E+00 0. -1.
         22    1    1    2    0    0 -0.56547597704E+02 -0.20160191168E+02 -0.59837976632E+02  0.84762300355E+02  0.00000000000E+00 0.  1.
</event>
<event>
 6    1  0.1293624E-005  0.1057794E+03  0.7818608E-02  0.1270224E+00
          2   -1    0    0  502    0  0.00000000000E+00  0.00000000000E+00  0.89454859394E+03  0.89454859394E+03  0.00000000000E+00 0.  1.
          1   -1    0    0  501    0 -0.00000000000E+00 -0.00000000000E+00 -0.10389423875E+03  0.10389423875E+03  0.00000000000E+00 0. -1.
          2    1    1    2  501    0  0.75263458368E+02 -0.39690754262E+02  0.23549040725E+03  0.25039104626E+03  0.00000000000E+00 0.  1.
          1    1    1    2  502    0 -0.36888993191E+02  0.78886730266E+01 -0.85135840094E+02  0.93118957518E+02  0.00000000000E+00 0. -1.
         22    1    1    2    0    0  0.44020340599E+02 -0.80611499950E+01  0.16885580714E+03  0.17468559223E+03  0.00000000000E+00 0.  1.
         22    1    1    2    0    0 -0.82394805776E+02  0.39863231231E+02  0.47144398090E+03  0.48024723669E+03  0.00000000000E+00 0.  1.
</event>
<event>
 6    1  0.1293624E-005  0.5671619E+02  0.7818608E-02  0.1415311E+00
          2   -1    0    0  502    0  0.00000000000E+00  0.00000000000E+00  0.32380402112E+02  0.32380402112E+02  0.00000000000E+00 0. -1.
          1   -1    0    0  501    0 -0.00000000000E+00 -0.00000000000E+00 -0.46831222715E+03  0.46831222715E+03  0.00000000000E+00 0. -1.
          2    1    1    2  501    0 -0.14273272954E+02  0.14639645892E+02 -0.23130145865E+03  0.23220338138E+03  0.00000000000E+00 0. -1.
          1    1    1    2  502    0  0.20115526764E+02 -0.24822327451E+02 -0.11001324834E+03  0.11455870620E+03  0.00000000000E+00 0. -1.
         22    1    1    2    0    0  0.25542594471E+02 -0.83731848211E+01 -0.11081929965E+03  0.11403267747E+03  0.00000000000E+00 0. -1.
         22    1    1    2    0    0 -0.31384848282E+02  0.18555866380E+02  0.16202181605E+02  0.39897864198E+02  0.00000000000E+00 0. -1.
</event>
<event>
 6    1  0.1293624E-005  0.7597372E+02  0.7818608E-02  0.1344856E+00
          2   -1    0    0  502    0  0.00000000000E+00  0.00000000000E+00  0.25241809218E+02  0.25241809218E+02  0.00000000000E+00 0.  1.
          1   -1    0    0  501    0 -0.00000000000E+00 -0.00000000000E+00 -0.63200874390E+03  0.63200874390E+03  0.00000000000E+00 0.  1.
          2    1    1    2  501    0  0.38555262729E+02 -0.80055493932E+00 -0.46308791730E+02  0.60263200743E+02  0.00000000000E+00 0.  1.
          1    1    1    2  502    0 -0.20250209433E+02 -0.41740995795E+01 -0.36246704391E+03  0.36305626562E+03  0.00000000000E+00 0.  1.
         22    1    1    2    0    0  0.37695969539E+02 -0.83002089783E+01 -0.13854959306E+02  0.41010236355E+02  0.00000000000E+00 0.  1.
         22    1    1    2    0    0 -0.56001022835E+02  0.13274863497E+02 -0.18413613974E+03  0.19292085040E+03  0.00000000000E+00 0.  1.
</event>
<event>
 6    1  0.1293624E-005  0.1022685E+03  0.7818608E-02  0.1277764E+00
          2   -1    0    0  502    0  0.00000000000E+00  0.00000000000E+00  0.38644912233E+03  0.38644912233E+03  0.00000000000E+00 0.  1.
          1   -1    0    0  501    0 -0.00000000000E+00 -0.00000000000E+00 -0.83914509296E+02  0.83914509296E+02  0.00000000000E+00 0. -1.
          2    1    1    2  501    0  0.33616425178E+02  0.75893927338E+02  0.16001943859E+02  0.84534102325E+02  0.00000000000E+00 0.  1.
          1    1    1    2  502    0 -0.29691653842E+02  0.12027420285E+01 -0.26629101718E+02  0.39901753778E+02  0.00000000000E+00 0. -1.
         22    1    1    2    0    0 -0.26695392929E+02 -0.93211029143E+02  0.29962246381E+03  0.31491992757E+03  0.00000000000E+00 0.  1.
         22    1    1    2    0    0  0.22770621593E+02  0.16114359777E+02  0.13539307082E+02  0.31007847958E+02  0.00000000000E+00 0. -1.
</event>
<event>
 6    1  0.1531888E-005  0.2941845E+03  0.7818608E-02  0.1104984E+00
          2   -1    0    0  502    0  0.00000000000E+00  0.00000000000E+00  0.80761695768E+03  0.80761695768E+03  0.00000000000E+00 0.  1.
          1   -1    0    0  501    0 -0.00000000000E+00 -0.00000000000E+00 -0.19507274770E+04  0.19507274770E+04  0.00000000000E+00 0. -1.
          2    1    1    2  501    0 -0.17550360562E+03 -0.24368417438E+03  0.52650105269E+03  0.60612445167E+03  0.00000000000E+00 0.  1.
          1    1    1    2  502    0  0.27192575989E+03  0.10142362207E+03 -0.18496401517E+04  0.18722710971E+04  0.00000000000E+00 0. -1.
         22    1    1    2    0    0  0.91636756982E+00 -0.20573423337E+02  0.37067333333E+02  0.42403922906E+02  0.00000000000E+00 0.  1.
         22    1    1    2    0    0 -0.97338521836E+02  0.16283397565E+03  0.14296124643E+03  0.23754496299E+03  0.00000000000E+00 0.  1.
</event>
<event>
 6    1  0.1293624E-005  0.2322835E+03  0.7818608E-02  0.1125043E+00
          2   -1    0    0  502    0  0.00000000000E+00  0.00000000000E+00  0.66885400221E+02  0.66885400221E+02  0.00000000000E+00 0.  1.
          1   -1    0    0  501    0 -0.00000000000E+00 -0.00000000000E+00 -0.13650370080E+04  0.13650370080E+04  0.00000000000E+00 0.  1.
          2    1    1    2  501    0 -0.34829852625E+02 -0.33414071702E+02  0.25221498266E+02  0.54458633809E+02  0.00000000000E+00 0.  1.
          1    1    1    2  502    0  0.19463548234E+02 -0.30556635756E+02 -0.11622282367E+04  0.11627927640E+04  0.00000000000E+00 0.  1.
         22    1    1    2    0    0 -0.84683460906E+00  0.78423464931E+02 -0.17298504918E+03  0.18993363109E+03  0.00000000000E+00 0.  1.
         22    1    1    2    0    0  0.16213139000E+02 -0.14452757472E+02  0.11840179903E+02  0.24737379305E+02  0.00000000000E+00 0.  1.
</event>
<event>
 6    1  0.1293624E-005  0.7772696E+02  0.7818608E-02  0.1375354E+00
          2   -1    0    0  502    0  0.00000000000E+00  0.00000000000E+00  0.41929253712E+02  0.41929253712E+02  0.00000000000E+00 0. -1.
          1   -1    0    0  501    0 -0.00000000000E+00 -0.00000000000E+00 -0.13587025425E+04  0.13587025425E+04  0.00000000000E+00 0. -1.
          2    1    1    2  501    0 -0.14552329318E+01  0.40263819421E+02 -0.26300835637E+03  0.26607647092E+03  0.00000000000E+00 0. -1.
          1    1    1    2  502    0 -0.40254359883E+02 -0.75951664176E+02 -0.97771929672E+03  0.98149074981E+03  0.00000000000E+00 0. -1.
         22    1    1    2    0    0  0.35981134061E+01  0.24642065386E+02 -0.10242973531E+03  0.10541360673E+03  0.00000000000E+00 0.  1.
         22    1    1    2    0    0  0.38111479408E+02  0.11045779369E+02  0.26384099658E+02  0.47650968714E+02  0.00000000000E+00 0. -1.
</event>
<event>
 6    1  0.1293624E-005  0.7850167E+02  0.7818608E-02  0.1337967E+00
          2   -1    0    0  502    0  0.00000000000E+00  0.00000000000E+00  0.61886804564E+02  0.61886804564E+02  0.00000000000E+00 0. -1.
          1   -1    0    0  501    0 -0.00000000000E+00 -0.00000000000E+00 -0.57468320125E+03  0.57468320125E+03  0.00000000000E+00 0.  1.
          2    1    1    2  501    0  0.43460421438E+02 -0.13826113980E+02 -0.50350158979E+01  0.45883777574E+02  0.00000000000E+00 0. -1.
          1    1    1    2  502    0 -0.97510435832E+01  0.35327331082E+02 -0.44296005637E+03  0.44447352532E+03  0.00000000000E+00 0.  1.
         22    1    1    2    0    0  0.31473002397E+02  0.18093057421E+01  0.19548034633E+02  0.37093788229E+02  0.00000000000E+00 0. -1.
         22    1    1    2    0    0 -0.65182380251E+02 -0.23310522844E+02 -0.84349359049E+02  0.10911891469E+03  0.00000000000E+00 0.  1.
</event>
<event>
 6    1  0.1293624E-005  0.8626653E+02  0.7818608E-02  0.1318657E+00
          2   -1    0    0  502    0  0.00000000000E+00  0.00000000000E+00  0.27540925913E+02  0.27540925913E+02  0.00000000000E+00 0. -1.
          1   -1    0    0  501    0 -0.00000000000E+00 -0.00000000000E+00 -0.45368735168E+03  0.45368735168E+03  0.00000000000E+00 0.  1.
          2    1    1    2  501    0 -0.11117897773E+02 -0.44239647953E+02 -0.10944521452E+03  0.11857069234E+03  0.00000000000E+00 0. -1.
          1    1    1    2  502    0 -0.22425683743E+00  0.25632468832E+02 -0.16938823586E+03  0.17131680653E+03  0.00000000000E+00 0.  1.
         22    1    1    2    0    0 -0.40630812829E+02 -0.29785534564E+02 -0.71463155783E+02  0.87435825924E+02  0.00000000000E+00 0. -1.
         22    1    1    2    0    0  0.51972967440E+02  0.48392713685E+02 -0.75849819599E+02  0.10390495280E+03  0.00000000000E+00 0.  1.
</event>
<event>
 6    1  0.1293624E-005  0.8146275E+02  0.7818608E-02  0.1327563E+00
          2   -1    0    0  502    0  0.00000000000E+00  0.00000000000E+00  0.13180040811E+02  0.13180040811E+02  0.00000000000E+00 0. -1.
          1   -1    0    0  501    0 -0.00000000000E+00 -0.00000000000E+00 -0.14181664266E+04  0.14181664266E+04  0.00000000000E+00 0.  1.
          2    1    1    2  501    0 -0.33979189997E+02  0.94727747304E+01 -0.13088972109E+03  0.13555972079E+03  0.00000000000E+00 0. -1.
          1    1    1    2  502    0 -0.17596795895E+02 -0.43587511932E+02 -0.80657645056E+03  0.80794497895E+03  0.00000000000E+00 0.  1.
         22    1    1    2    0    0 -0.37247829975E+02 -0.23688318492E+01 -0.75355581847E+02  0.84092068102E+02  0.00000000000E+00 0. -1.
         22    1    1    2    0    0  0.88823815867E+02  0.36483569051E+02 -0.39216463233E+03  0.40374969960E+03  0.00000000000E+00 0.  1.
</event>
<event>
 6    1  0.1293624E-005  0.3093255E+03  0.7818608E-02  0.1080670E+00
          2   -1    0    0  502    0  0.00000000000E+00  0.00000000000E+00  0.44007074746E+02  0.44007074746E+02  0.00000000000E+00 0. -1.
          1   -1    0    0  501    0 -0.00000000000E+00 -0.00000000000E+00 -0.13112289703E+04  0.13112289703E+04  0.00000000000E+00 0. -1.
          2    1    1    2  501    0 -0.63182296733E+02  0.22123323874E+02 -0.46894672729E+03  0.47370083082E+03  0.00000000000E+00 0. -1.
          1    1    1    2  502    0  0.77314981108E+02 -0.45459668851E+02 -0.72869480169E+03  0.73419364053E+03  0.00000000000E+00 0. -1.
         22    1    1    2    0    0  0.22761568542E+02  0.27786107643E+02 -0.95501449391E+02  0.10203275756E+03  0.00000000000E+00 0.  1.
         22    1    1    2    0    0 -0.36894252917E+02 -0.44497626654E+01  0.25921082806E+02  0.45308816139E+02  0.00000000000E+00 0. -1.
</event>
<event>
 6    1  0.1293624E-005  0.2234768E+03  0.7818608E-02  0.1131317E+00
          2   -1    0    0  502    0  0.00000000000E+00  0.00000000000E+00  0.48871493543E+03  0.48871493543E+03  0.00000000000E+00 0. -1.
          1   -1    0    0  501    0 -0.00000000000E+00 -0.00000000000E+00 -0.85874603320E+02  0.85874603320E+02  0.00000000000E+00 0. -1.
          2    1    1    2  501    0 -0.18439608313E+02  0.46326438569E+02  0.90945003147E+02  0.10371668941E+03  0.00000000000E+00 0. -1.
          1    1    1    2  502    0  0.11372196380E+03 -0.11549126988E+03  0.76914680099E+02  0.17940676265E+03  0.00000000000E+00 0. -1.
         22    1    1    2    0    0 -0.12207670741E+03  0.69078361309E+02  0.21959176598E+03  0.26056685549E+03  0.00000000000E+00 0. -1.
         22    1    1    2    0    0  0.26794351928E+02  0.86470004908E-01  0.15388882881E+02  0.30899231198E+02  0.00000000000E+00 0. -1.
</event>
<event>
 6    1  0.1293624E-005  0.6551946E+02  0.7818608E-02  0.1381091E+00
          2   -1    0    0  502    0  0.00000000000E+00  0.00000000000E+00  0.21568485726E+03  0.21568485726E+03  0.00000000000E+00 0. -1.
          1   -1    0    0  501    0 -0.00000000000E+00 -0.00000000000E+00 -0.11178069304E+04  0.11178069304E+04  0.00000000000E+00 0.  1.
          2    1    1    2  501    0  0.36945374730E+02 -0.41602977330E+02 -0.28591469316E+01  0.55713042977E+02  0.00000000000E+00 0. -1.
          1    1    1    2  502    0 -0.31365970767E+02  0.11006585254E+02 -0.10675317126E+04  0.10680491218E+04  0.00000000000E+00 0.  1.
         22    1    1    2    0    0 -0.74798171733E+01  0.58311449965E+02  0.17193551633E+03  0.18170854311E+03  0.00000000000E+00 0. -1.
         22    1    1    2    0    0  0.19004132111E+01 -0.27715057889E+02 -0.36667298960E+01  0.28021079785E+02  0.00000000000E+00 0. -1.
</event>
<event>
 6    1  0.1293624E-005  0.2119332E+03  0.7818608E-02  0.1140044E+00
          2   -1    0    0  502    0  0.00000000000E+00  0.00000000000E+00  0.21967255105E+03  0.21967255105E+03  0.00000000000E+00 0.  1.
          1   -1    0    0  501    0 -0.00000000000E+00 -0.00000000000E+00 -0.35304470642E+03  0.35304470642E+03  0.00000000000E+00 0.  1.
          2    1    1    2  501    0 -0.18808495032E+02 -0.26842205963E+02  0.15730909689E+01  0.32813688021E+02  0.00000000000E+00 0.  1.
          1    1    1    2  502    0  0.13022801544E+03  0.40756168502E+02 -0.28239470264E+03  0.31363540833E+03  0.00000000000E+00 0.  1.
         22    1    1    2    0    0 -0.76850546550E+02 -0.36933555258E+01  0.16799543625E+03  0.18477584793E+03  0.00000000000E+00 0.  1.
         22    1    1    2    0    0 -0.34568973859E+02 -0.10220607013E+02 -0.20545979944E+02  0.41492313182E+02  0.00000000000E+00 0.  1.
</event>
<event>
 6    1  0.1293624E-005  0.5130110E+03  0.7818608E-02  0.1010438E+00
          2   -1    0    0  502    0  0.00000000000E+00  0.00000000000E+00  0.14667827178E+03  0.14667827178E+03  0.00000000000E+00 0.  1.
          1   -1    0    0  501    0 -0.00000000000E+00 -0.00000000000E+00 -0.11823293503E+04  0.11823293503E+04  0.00000000000E+00 0. -1.
          2    1    1    2  501    0 -0.61930390887E+02  0.22043957010E+03 -0.13028419430E+03  0.26344439388E+03  0.00000000000E+00 0.  1.
          1    1    1    2  502    0 -0.35492662134E+02  0.13824160778E+02 -0.73174671348E+03  0.73273739442E+03  0.00000000000E+00 0. -1.
         22    1    1    2    0    0 -0.15383437228E+02 -0.12625085886E+03 -0.88614803063E+02  0.15501133128E+03  0.00000000000E+00 0.  1.
         22    1    1    2    0    0  0.11280649025E+03 -0.10801287202E+03 -0.85005367670E+02  0.17781450250E+03  0.00000000000E+00 0.  1.
</event>
<event>
 6    1  0.1293624E-005  0.2296226E+03  0.7818608E-02  0.1126906E+00
          2   -1    0    0  502    0  0.00000000000E+00  0.00000000000E+00  0.31698095790E+03  0.31698095790E+03  0.00000000000E+00 0.  1.
          1   -1    0    0  501    0 -0.00000000000E+00 -0.00000000000E+00 -0.69312006106E+02  0.69312006106E+02  0.00000000000E+00 0.  1.
          2    1    1    2  501    0  0.68098799452E+02 -0.31077086640E+02  0.14096183977E+03  0.15960411045E+03  0.00000000000E+00 0.  1.
          1    1    1    2  502    0 -0.23331524465E+02  0.62183803270E+02  0.47274041319E+02  0.81523128041E+02  0.00000000000E+00 0.  1.
         22    1    1    2    0    0 -0.22020263637E+01 -0.31336881513E+02  0.88308693644E+02  0.93729794816E+02  0.00000000000E+00 0. -1.
         22    1    1    2    0    0 -0.42565248623E+02  0.23016488287E+00 -0.28875622944E+02  0.51435930697E+02  0.00000000000E+00 0.  1.
</event>
<event>
 6    1  0.1293624E-005  0.8758539E+02  0.7818608E-02  0.1310052E+00
          2   -1    0    0  502    0  0.00000000000E+00  0.00000000000E+00  0.36863184368E+03  0.36863184368E+03  0.00000000000E+00 0. -1.
          1   -1    0    0  501    0 -0.00000000000E+00 -0.00000000000E+00 -0.42031213659E+02  0.42031213659E+02  0.00000000000E+00 0. -1.
          2    1    1    2  501    0 -0.16734202818E+02  0.39949443968E+02  0.41541050189E+02  0.60013752325E+02  0.00000000000E+00 0. -1.
          1    1    1    2  502    0 -0.18978834556E+02  0.10954776124E+02 -0.99874777763E+01  0.24082213215E+02  0.00000000000E+00 0. -1.
         22    1    1    2    0    0  0.21347018434E+01  0.33268951770E+02  0.24857397728E+02  0.41584496217E+02  0.00000000000E+00 0. -1.
         22    1    1    2    0    0  0.33578335531E+02 -0.84173171862E+02  0.27018965988E+03  0.28498259558E+03  0.00000000000E+00 0. -1.
</event>
<event>
 6    1  0.1293624E-005  0.2682856E+03  0.7818608E-02  0.1175746E+00
          2   -1    0    0  502    0  0.00000000000E+00  0.00000000000E+00  0.54325618426E+03  0.54325618426E+03  0.00000000000E+00 0.  1.
          1   -1    0    0  501    0 -0.00000000000E+00 -0.00000000000E+00 -0.19429099888E+04  0.19429099888E+04  0.00000000000E+00 0. -1.
          2    1    1    2  501    0 -0.13182994203E+03 -0.38494054211E+02  0.25993718351E+03  0.29398684527E+03  0.00000000000E+00 0.  1.
          1    1    1    2  502    0  0.22746302723E+03  0.10013721360E+03 -0.18896922016E+04  0.19059652429E+04  0.00000000000E+00 0. -1.
         22    1    1    2    0    0 -0.76670443553E+02 -0.20441584860E+02  0.36446238510E+02  0.87318632649E+02  0.00000000000E+00 0. -1.
         22    1    1    2    0    0 -0.18962641640E+02 -0.41201574527E+02  0.19365497510E+03  0.19889545219E+03  0.00000000000E+00 0.  1.
</event>
<event>
 6    1  0.1293624E-005  0.2019581E+03  0.7818608E-02  0.1148097E+00
          2   -1    0    0  502    0  0.00000000000E+00  0.00000000000E+00  0.28599861168E+03  0.28599861168E+03  0.00000000000E+00 0.  1.
          1   -1    0    0  501    0 -0.00000000000E+00 -0.00000000000E+00 -0.59423525616E+02  0.59423525616E+02  0.00000000000E+00 0. -1.
          2    1    1    2  501    0  0.37987479403E+02 -0.39921617702E+02  0.12158436616E+03  0.13348985822E+03  0.00000000000E+00 0.  1.
          1    1    1    2  502    0 -0.32808686958E+02 -0.19774582776E+02 -0.44532761883E+01  0.38565214024E+02  0.00000000000E+00 0. -1.
         22    1    1    2    0    0 -0.21415166730E+02  0.31240804407E+01 -0.21064750313E+02  0.30200876649E+02  0.00000000000E+00 0. -1.
         22    1    1    2    0    0  0.16236374285E+02  0.56572120037E+02  0.13050874640E+03  0.14316618841E+03  0.00000000000E+00 0.  1.
</event>
<event>
 6    1  0.1293624E-005  0.2350355E+03  0.7818608E-02  0.1123145E+00
          2   -1    0    0  502    0  0.00000000000E+00  0.00000000000E+00  0.42208478931E+02  0.42208478931E+02  0.00000000000E+00 0. -1.
          1   -1    0    0  501    0 -0.00000000000E+00 -0.00000000000E+00 -0.69352600978E+03  0.69352600978E+03  0.00000000000E+00 0. -1.
          2    1    1    2  501    0 -0.10906774701E+02 -0.57308364803E+02 -0.34585085939E+03  0.35073640152E+03  0.00000000000E+00 0. -1.
          1    1    1    2  502    0 -0.65383762107E+02  0.20696683689E+02 -0.36859634030E+02  0.77858985890E+02  0.00000000000E+00 0. -1.
         22    1    1    2    0    0  0.43200258171E+02 -0.39781845329E+02 -0.15900514743E+03  0.16950367086E+03  0.00000000000E+00 0. -1.
         22    1    1    2    0    0  0.33090278638E+02  0.76393526443E+02 -0.10960189000E+03  0.13763543045E+03  0.00000000000E+00 0. -1.
</event>
<event>
 6    1  0.1293624E-005  0.4922077E+03  0.7818608E-02  0.1093350E+00
          2   -1    0    0  502    0  0.00000000000E+00  0.00000000000E+00  0.23584075353E+04  0.23584075353E+04  0.00000000000E+00 0.  1.
          1   -1    0    0  501    0 -0.00000000000E+00 -0.00000000000E+00 -0.11864768622E+03  0.11864768622E+03  0.00000000000E+00 0. -1.
          2    1    1    2  501    0 -0.22585360305E+03 -0.26877866846E+03  0.84901437052E+03  0.91873675445E+03  0.00000000000E+00 0.  1.
          1    1    1    2  502    0  0.32643917906E+03  0.38110739201E+03  0.90928128621E+03  0.10385556506E+04  0.00000000000E+00 0. -1.
         22    1    1    2    0    0 -0.54371546637E+02 -0.68672387174E+01  0.29918073029E+03  0.30415873064E+03  0.00000000000E+00 0. -1.
         22    1    1    2    0    0 -0.46214029376E+02 -0.10546148483E+03  0.18228346205E+03  0.21560408584E+03  0.00000000000E+00 0.  1.
</event>
<event>
 6    1  0.1293624E-005  0.1788497E+03  0.7818608E-02  0.1169454E+00
          2   -1    0    0  502    0  0.00000000000E+00  0.00000000000E+00  0.52682598897E+03  0.52682598897E+03  0.00000000000E+00 0. -1.
          1   -1    0    0  501    0 -0.00000000000E+00 -0.00000000000E+00 -0.15849095326E+03  0.15849095326E+03  0.00000000000E+00 0.  1.
          2    1    1    2  501    0  0.95519594557E+02 -0.11488184050E+03  0.15202250317E+03  0.21314941166E+03  0.00000000000E+00 0. -1.
          1    1    1    2  502    0 -0.17488574358E+02 -0.27759746318E+02 -0.94515585507E+02  0.10004823663E+03  0.00000000000E+00 0.  1.
         22    1    1    2    0    0 -0.93273152882E+02  0.15745937899E+03  0.27167903435E+03  0.32757111409E+03  0.00000000000E+00 0.  1.
         22    1    1    2    0    0  0.15242132683E+02 -0.14817792176E+02  0.39149083693E+02  0.44548179847E+02  0.00000000000E+00 0. -1.
</event>
<event>
 6    1  0.1293624E-005  0.2150394E+03  0.7818608E-02  0.1137636E+00
          2   -1    0    0  502    0  0.00000000000E+00  0.00000000000E+00  0.24834758325E+03  0.24834758325E+03  0.00000000000E+00 0. -1.
          1   -1    0    0  501    0 -0.00000000000E+00 -0.00000000000E+00 -0.16121273554E+03  0.16121273554E+03  0.00000000000E+00 0. -1.
          2    1    1    2  501    0  0.34933481413E+02  0.19958804422E+02 -0.14925711595E+02  0.42912455817E+02  0.00000000000E+00 0. -1.
          1    1    1    2  502    0  0.85022915067E+01 -0.20672591646E+02 -0.11336630646E+03  0.11554896991E+03  0.00000000000E+00 0. -1.
         22    1    1    2    0    0 -0.40010031050E+02 -0.25190299728E+02  0.21960543310E+03  0.22463726323E+03  0.00000000000E+00 0. -1.
         22    1    1    2    0    0 -0.34257418698E+01  0.25904086952E+02 -0.41785673276E+01  0.26461629827E+02  0.00000000000E+00 0. -1.
</event>
<event>
 6    1  0.1293624E-005  0.9701459E+02  0.7818608E-02  0.1287506E+00
          2   -1    0    0  502    0  0.00000000000E+00  0.00000000000E+00  0.96311488153E+03  0.96311488153E+03  0.00000000000E+00 0.  1.
          1   -1    0    0  501    0 -0.00000000000E+00 -0.00000000000E+00 -0.24048068244E+02  0.24048068244E+02  0.00000000000E+00 0. -1.
          2    1    1    2  501    0 -0.40430035563E+02 -0.22000258685E+02  0.18731992248E+03  0.19289207479E+03  0.00000000000E+00 0.  1.
          1    1    1    2  502    0 -0.32764791151E+02 -0.63177309813E+01  0.67890517965E+01  0.34051967465E+02  0.00000000000E+00 0. -1.
         22    1    1    2    0    0  0.10121187330E+03  0.52408263755E+02  0.53105344285E+03  0.54314659952E+03  0.00000000000E+00 0.  1.
         22    1    1    2    0    0 -0.28017046585E+02 -0.24090274088E+02  0.21390439616E+03  0.21707230800E+03  0.00000000000E+00 0. -1.
</event>
<event>
 6    1  0.2186708E-005  0.5760787E+02  0.7818608E-02  0.1449341E+00
          2   -1    0    0  502    0  0.00000000000E+00  0.00000000000E+00  0.11920517641E+03  0.11920517641E+03  0.00000000000E+00 0.  1.
          1   -1    0    0  501    0 -0.00000000000E+00 -0.00000000000E+00 -0.85662583490E+03  0.85662583490E+03  0.00000000000E+00 0. -1.
          2    1    1    2  501    0  0.25865131003E+02 -0.21173199106E+02 -0.92680152512E+02  0.98523702894E+02  0.00000000000E+00 0.  1.
          1    1    1    2  502    0 -0.31923466432E+02  0.53517822774E+02 -0.72434751185E+03  0.72702309660E+03  0.00000000000E+00 0. -1.
         22    1    1    2    0    0  0.11659906137E+02 -0.20440808478E+01 -0.32200910396E+02  0.34307875305E+02  0.00000000000E+00 0.  1.
         22    1    1    2    0    0 -0.56015707081E+01 -0.30300542820E+02  0.11180791627E+03  0.11597633651E+03  0.00000000000E+00 0.  1.
</event>
<event>
 6    1  0.1293624E-005  0.2955164E+03  0.7818608E-02  0.1145840E+00
          2   -1    0    0  502    0  0.00000000000E+00  0.00000000000E+00  0.37721847418E+03  0.37721847418E+03  0.00000000000E+00 0. -1.
          1   -1    0    0  501    0 -0.00000000000E+00 -0.00000000000E+00 -0.65750524688E+03  0.65750524688E+03  0.00000000000E+00 0. -1.
          2    1    1    2  501    0 -0.15754455019E+03 -0.11237975477E+02  0.17458431533E+03  0.23542782449E+03  0.00000000000E+00 0. -1.
          1    1    1    2  502    0  0.28006438265E+03 -0.24584389391E+02 -0.53507971964E+03  0.60444251753E+03  0.00000000000E+00 0. -1.
         22    1    1    2    0    0 -0.59489081463E+02 -0.32987988787E+02 -0.53742317921E+01  0.68235185827E+02  0.00000000000E+00 0. -1.
         22    1    1    2    0    0 -0.63030751000E+02  0.68810353655E+02  0.85582863410E+02  0.12661819321E+03  0.00000000000E+00 0.  1.
</event>
<event>
 6    1  0.1293624E-005  0.1533761E+03  0.7818608E-02  0.1198289E+00
          2   -1    0    0  502    0  0.00000000000E+00  0.00000000000E+00  0.20055703178E+03  0.20055703178E+03  0.00000000000E+00 0. -1.
          1   -1    0    0  501    0 -0.00000000000E+00 -0.00000000000E+00 -0.45660864854E+03  0.45660864854E+03  0.00000000000E+00 0. -1.
          2    1    1    2  501    0  0.90995771277E+02 -0.10181604657E+03 -0.55473848178E+02  0.14739092767E+03  0.00000000000E+00 0. -1.
          1    1    1    2  502    0 -0.14845780548E+03 -0.36695327633E+02 -0.26582254851E+03  0.30667229150E+03  0.00000000000E+00 0. -1.
         22    1    1    2    0    0  0.57977164461E+02  0.15940173629E+03  0.66452687662E+02  0.18217086712E+03  0.00000000000E+00 0.  1.
         22    1    1    2    0    0 -0.51513025863E+00 -0.20890362091E+02 -0.12079077397E+01  0.20931594028E+02  0.00000000000E+00 0.  1.
</event>
<event>
 6    1  0.2313410E-005  0.2705782E+03  0.7818608E-02  0.1100949E+00
          2   -1    0    0  502    0  0.00000000000E+00  0.00000000000E+00  0.20182514886E+03  0.20182514886E+03  0.00000000000E+00 0. -1.
          1   -1    0    0  501    0 -0.00000000000E+00 -0.00000000000E+00 -0.14946252675E+04  0.14946252675E+04  0.00000000000E+00 0. -1.
          2    1    1    2  501    0 -0.16684058761E+02 -0.51355666843E+02 -0.60781329430E+03  0.61020714766E+03  0.00000000000E+00 0. -1.
          1    1    1    2  502    0  0.13325898301E+03  0.14280579833E+03  0.13872717523E+03  0.23957604583E+03  0.00000000000E+00 0. -1.
         22    1    1    2    0    0 -0.11498121171E+03 -0.11389187048E+03 -0.78807354637E+03  0.80451970250E+03  0.00000000000E+00 0. -1.
         22    1    1    2    0    0 -0.15937125366E+01  0.22441738994E+02 -0.35640453211E+02  0.42147520375E+02  0.00000000000E+00 0. -1.
</event>
<event>
 6    1  0.1293624E-005  0.1042031E+03  0.7818608E-02  0.1272861E+00
          2   -1    0    0  502    0  0.00000000000E+00  0.00000000000E+00  0.88777813028E+03  0.88777813028E+03  0.00000000000E+00 0. -1.
          1   -1    0    0  501    0 -0.00000000000E+00 -0.00000000000E+00 -0.10754961789E+04  0.10754961789E+04  0.00000000000E+00 0. -1.
          2    1    1    2  501    0  0.29346781063E+02 -0.62614781373E+02  0.45722783869E+03  0.46242744390E+03  0.00000000000E+00 0. -1.
          1    1    1    2  502    0 -0.19413257224E+02 -0.15502069623E+02 -0.10596089358E+04  0.10599001300E+04  0.00000000000E+00 0. -1.
         22    1    1    2    0    0 -0.11517616373E+02  0.10998398421E+03  0.25219161601E+03  0.27537200921E+03  0.00000000000E+00 0. -1.
         22    1    1    2    0    0  0.15840925343E+01 -0.31867133215E+02  0.16247143250E+03  0.16557472606E+03  0.00000000000E+00 0. -1.
</event>
<event>
 6    1  0.1293624E-005  0.1507406E+03  0.7818608E-02  0.1201700E+00
          2   -1    0    0  502    0  0.00000000000E+00  0.00000000000E+00  0.83042728867E+02  0.83042728867E+02  0.00000000000E+00 0. -1.
          1   -1    0    0  501    0 -0.00000000000E+00 -0.00000000000E+00 -0.13242143048E+04  0.13242143048E+04  0.00000000000E+00 0.  1.
          2    1    1    2  501    0 -0.13434615566E+03  0.94472915905E+01 -0.81732200855E+02  0.15753822874E+03  0.00000000000E+00 0. -1.
          1    1    1    2  502    0  0.35687380264E+02  0.56913221633E+02 -0.10408775271E+04  0.10430430147E+04  0.00000000000E+00 0.  1.
         22    1    1    2    0    0  0.11828223796E+03 -0.72649393990E+02 -0.12314903359E+03  0.18556483163E+03  0.00000000000E+00 0. -1.
         22    1    1    2    0    0 -0.19623462571E+02  0.62888807663E+01  0.45871856167E+01  0.21110958681E+02  0.00000000000E+00 0.  1.
</event>
<event>
 6    1  0.1293624E-005  0.4174146E+03  0.7818608E-02  0.1037911E+00
          2   -1    0    0  502    0  0.00000000000E+00  0.00000000000E+00  0.53393505200E+03  0.53393505200E+03  0.00000000000E+00 0.  1.
          1   -1    0    0  501    0 -0.00000000000E+00 -0.00000000000E+00 -0.35520203843E+04  0.35520203843E+04  0.00000000000E+00 0. -1.
          2    1    1    2  501    0 -0.91133475210E+02  0.57143201760E+02  0.68564550805E+02  0.12756078331E+03  0.00000000000E+00 0.  1.
          1    1    1    2  502    0  0.36419334725E+03 -0.77824384442E+02 -0.34588878892E+04  0.34788789658E+04  0.00000000000E+00 0. -1.
         22    1    1    2    0    0 -0.25210675436E+03 -0.18717341097E+02  0.34327520778E+03  0.42631681028E+03  0.00000000000E+00 0.  1.
         22    1    1    2    0    0 -0.20953117678E+02  0.39398523778E+02  0.28962798295E+02  0.53198876881E+02  0.00000000000E+00 0.  1.
</event>
<event>
 6    1  0.1293624E-005  0.1820601E+03  0.7818608E-02  0.1165824E+00
          2   -1    0    0  502    0  0.00000000000E+00  0.00000000000E+00  0.58991659655E+03  0.58991659655E+03  0.00000000000E+00 0.  1.
          1   -1    0    0  501    0 -0.00000000000E+00 -0.00000000000E+00 -0.27144831861E+02  0.27144831861E+02  0.00000000000E+00 0.  1.
          2    1    1    2  501    0  0.22930575803E+02 -0.17899671379E+02  0.39421880537E+01  0.29355585308E+02  0.00000000000E+00 0.  1.
          1    1    1    2  502    0  0.12803911182E+02  0.29570461421E+02  0.27264220251E+03  0.27453983849E+03  0.00000000000E+00 0.  1.
         22    1    1    2    0    0  0.69814526164E+01  0.20888443172E+02  0.42760422876E-01  0.22024294931E+02  0.00000000000E+00 0. -1.
         22    1    1    2    0    0 -0.42715939601E+02 -0.32559233213E+02  0.28614461370E+03  0.29114170968E+03  0.00000000000E+00 0.  1.
</event>
<event>
 6    1  0.1293624E-005  0.1556346E+03  0.7818608E-02  0.1245744E+00
          2   -1    0    0  502    0  0.00000000000E+00  0.00000000000E+00  0.38588189304E+03  0.38588189304E+03  0.00000000000E+00 0. -1.
          1   -1    0    0  501    0 -0.00000000000E+00 -0.00000000000E+00 -0.40453739260E+03  0.40453739260E+03  0.00000000000E+00 0.  1.
          2    1    1    2  501    0 -0.46013374695E+00 -0.85028867566E+02  0.16878145787E+03  0.18899021287E+03  0.00000000000E+00 0. -1.
          1    1    1    2  502    0 -0.27192436354E+02  0.14914417215E+03 -0.35074759189E+03  0.38210899741E+03  0.00000000000E+00 0.  1.
         22    1    1    2    0    0 -0.21065165944E+02 -0.45515766784E+02  0.15931123356E+03  0.16701944611E+03  0.00000000000E+00 0. -1.
         22    1    1    2    0    0  0.48717736044E+02 -0.18599537801E+02  0.39994009064E+01  0.52300629244E+02  0.00000000000E+00 0.  1.
</event>
<event>
 6    1  0.1293624E-005  0.1594798E+03  0.7818608E-02  0.1192870E+00
          2   -1    0    0  502    0  0.00000000000E+00  0.00000000000E+00  0.71883453532E+03  0.71883453532E+03  0.00000000000E+00 0. -1.
          1   -1    0    0  501    0 -0.00000000000E+00 -0.00000000000E+00 -0.13035398566E+03  0.13035398566E+03  0.00000000000E+00 0.  1.
          2    1    1    2  501    0 -0.13589492717E+01 -0.10790537889E+03  0.78036649985E+02  0.13317333171E+03  0.00000000000E+00 0. -1.
          1    1    1    2  502    0 -0.15316719957E+03  0.99828423458E+02  0.15533600254E+02  0.18348623352E+03  0.00000000000E+00 0.  1.
         22    1    1    2    0    0  0.13983464033E+03  0.46478862411E+02  0.43939459239E+03  0.46344537877E+03  0.00000000000E+00 0. -1.
         22    1    1    2    0    0  0.14691508513E+02 -0.38401906977E+02  0.55515707035E+02  0.69083576988E+02  0.00000000000E+00 0.  1.
</event>
<event>
 6    1  0.1293624E-005  0.1061998E+03  0.7818608E-02  0.1287974E+00
          2   -1    0    0  502    0  0.00000000000E+00  0.00000000000E+00  0.14659455144E+03  0.14659455144E+03  0.00000000000E+00 0. -1.
          1   -1    0    0  501    0 -0.00000000000E+00 -0.00000000000E+00 -0.28545466735E+03  0.28545466735E+03  0.00000000000E+00 0. -1.
          2    1    1    2  501    0 -0.17063582042E+02  0.91818671514E+02 -0.82493682537E+02  0.12460755165E+03  0.00000000000E+00 0. -1.
          1    1    1    2  502    0 -0.51162583168E+02 -0.81742990869E+02 -0.11796489037E+03  0.15236548767E+03  0.00000000000E+00 0. -1.
         22    1    1    2    0    0  0.57591075856E+02 -0.43559168388E+02  0.86004879039E+02  0.11229858587E+03  0.00000000000E+00 0. -1.
         22    1    1    2    0    0  0.10635089355E+02  0.33483487742E+02 -0.24406422044E+02  0.42777593597E+02  0.00000000000E+00 0. -1.
</event>
<event>
 6    1  0.1293624E-005  0.2132472E+03  0.7818608E-02  0.1139020E+00
          2   -1    0    0  502    0  0.00000000000E+00  0.00000000000E+00  0.28082362189E+03  0.28082362189E+03  0.00000000000E+00 0.  1.
          1   -1    0    0  501    0 -0.00000000000E+00 -0.00000000000E+00 -0.31857368007E+04  0.31857368007E+04  0.00000000000E+00 0. -1.
          2    1    1    2  501    0  0.12821692417E+02  0.35505637155E+02  0.61219076446E+02  0.71922328849E+02  0.00000000000E+00 0.  1.
          1    1    1    2  502    0 -0.11878228944E+03  0.25899855010E+02 -0.31439088373E+04  0.31462585418E+04  0.00000000000E+00 0. -1.
         22    1    1    2    0    0  0.11709837369E+03 -0.85233216005E+02  0.16360476971E+03  0.21850229038E+03  0.00000000000E+00 0.  1.
         22    1    1    2    0    0 -0.11137776662E+02  0.23827723840E+02  0.14171812328E+02  0.29877261539E+02  0.00000000000E+00 0. -1.
</event>
<event>
 6    1  0.1293624E-005  0.9890322E+03  0.7818608E-02  0.9320657E-01
          2   -1    0    0  502    0  0.00000000000E+00  0.00000000000E+00  0.20031661425E+04  0.20031661425E+04  0.00000000000E+00 0.  1.
          1   -1    0    0  501    0 -0.00000000000E+00 -0.00000000000E+00 -0.16192847699E+04  0.16192847699E+04  0.00000000000E+00 0.  1.
          2    1    1    2  501    0 -0.12574163886E+03  0.12065735251E+03  0.13208640510E+03  0.21866864172E+03  0.00000000000E+00 0.  1.
          1    1    1    2  502    0  0.65273219523E+02 -0.87837061759E+03 -0.13584333889E+04  0.16189925285E+04  0.00000000000E+00 0.  1.
         22    1    1    2    0    0  0.59189782183E+02  0.74410951721E+03  0.16051218887E+04  0.17702030057E+04  0.00000000000E+00 0.  1.
         22    1    1    2    0    0  0.12786371543E+01  0.13603747863E+02  0.51064677162E+01  0.14586736490E+02  0.00000000000E+00 0. -1.
</event>
<event>
 6    1  0.1293624E-005  0.3829281E+03  0.7818608E-02  0.1049857E+00
          2   -1    0    0  502    0  0.00000000000E+00  0.00000000000E+00  0.72994192138E+03  0.72994192138E+03  0.00000000000E+00 0.  1.
          1   -1    0    0  501    0 -0.00000000000E+00 -0.00000000000E+00 -0.24576152491E+03  0.24576152491E+03  0.00000000000E+00 0.  1.
          2    1    1    2  501    0  0.12441621819E+03 -0.11138531706E+03  0.23485553801E+03  0.28817218454E+03  0.00000000000E+00 0.  1.
          1    1    1    2  502    0 -0.12799517249E+02 -0.15476832967E+02 -0.19498913117E+03  0.19602071644E+03  0.00000000000E+00 0.  1.
         22    1    1    2    0    0 -0.13632925242E+03  0.10450070106E+03  0.40530948760E+03  0.44020659051E+03  0.00000000000E+00 0.  1.
         22    1    1    2    0    0  0.24712551477E+02  0.22361448964E+02  0.39004502031E+02  0.51303954808E+02  0.00000000000E+00 0.  1.
</event>
<event>
 6    1  0.1293624E-005  0.2619390E+03  0.7818608E-02  0.1105984E+00
          2   -1    0    0  502    0  0.00000000000E+00  0.00000000000E+00  0.72180812503E+02  0.72180812503E+02  0.00000000000E+00 0. -1.
          1   -1    0    0  501    0 -0.00000000000E+00 -0.00000000000E+00 -0.95235066541E+03  0.95235066541E+03  0.00000000000E+00 0. -1.
          2    1    1    2  501    0  0.17169621817E+02 -0.33613039656E+02 -0.12816858900E+03  0.13361070149E+03  0.00000000000E+00 0. -1.
          1    1    1    2  502    0 -0.16275167924E+03  0.14524479510E+03 -0.20108846228E+03  0.29668287659E+03  0.00000000000E+00 0. -1.
         22    1    1    2    0    0  0.94692911372E+02 -0.62196065828E+02 -0.15483885284E+03  0.19185976238E+03  0.00000000000E+00 0. -1.
         22    1    1    2    0    0  0.50889146048E+02 -0.49435689619E+02 -0.39607394878E+03  0.40237813745E+03  0.00000000000E+00 0. -1.
</event>
<event>
 6    1  0.1293624E-005  0.8224335E+02  0.7818608E-02  0.1370978E+00
          2   -1    0    0  502    0  0.00000000000E+00  0.00000000000E+00  0.70825163336E+02  0.70825163336E+02  0.00000000000E+00 0.  1.
          1   -1    0    0  501    0 -0.00000000000E+00 -0.00000000000E+00 -0.13786627241E+04  0.13786627241E+04  0.00000000000E+00 0.  1.
          2    1    1    2  501    0  0.53341881286E+02  0.32925038528E+02 -0.20700934346E+03  0.21629212362E+03  0.00000000000E+00 0.  1.
          1    1    1    2  502    0 -0.52666187915E+02 -0.60714891695E+02 -0.11029891237E+04  0.11059136641E+04  0.00000000000E+00 0.  1.
         22    1    1    2    0    0 -0.20334789976E+02  0.29706457083E+02  0.57881905655E+02  0.68163716727E+02  0.00000000000E+00 0.  1.
         22    1    1    2    0    0  0.19659096605E+02 -0.19166039161E+01 -0.55720999283E+02  0.59118383020E+02  0.00000000000E+00 0. -1.
</event>
<event>
 6    1  0.1293624E-005  0.1219077E+03  0.7818608E-02  0.1240689E+00
          2   -1    0    0  502    0  0.00000000000E+00  0.00000000000E+00  0.48231387773E+02  0.48231387773E+02  0.00000000000E+00 0. -1.
          1   -1    0    0  501    0 -0.00000000000E+00 -0.00000000000E+00 -0.27131135987E+04  0.27131135987E+04  0.00000000000E+00 0.  1.
          2    1    1    2  501    0  0.48255534306E+02  0.80912100442E+02 -0.14587183771E+03  0.17364894939E+03  0.00000000000E+00 0. -1.
          1    1    1    2  502    0 -0.32060118341E+02  0.16685685729E+02 -0.23705108608E+04  0.23707863684E+04  0.00000000000E+00 0.  1.
         22    1    1    2    0    0  0.16591108892E+02  0.20045750810E+02 -0.62040319947E+02  0.67276283481E+02  0.00000000000E+00 0.  1.
         22    1    1    2    0    0 -0.32786524858E+02 -0.11764353698E+03 -0.86459192426E+02  0.14963338518E+03  0.00000000000E+00 0. -1.
</event>
<event>
 6    1  0.1293624E-005  0.2219106E+03  0.7818608E-02  0.1132662E+00
          2   -1    0    0  502    0  0.00000000000E+00  0.00000000000E+00  0.73456799145E+03  0.73456799145E+03  0.00000000000E+00 0. -1.
          1   -1    0    0  501    0 -0.00000000000E+00 -0.00000000000E+00 -0.18397477941E+04  0.18397477941E+04  0.00000000000E+00 0. -1.
          2    1    1    2  501    0 -0.79707508093E+02  0.15441880706E+03  0.20422994894E+03  0.26815728009E+03  0.00000000000E+00 0. -1.
          1    1    1    2  502    0 -0.24256571547E+02  0.57621517115E+02 -0.17710923435E+04  0.17721954490E+04  0.00000000000E+00 0. -1.
         22    1    1    2    0    0  0.11590726892E+03 -0.22342948474E+03  0.43582533150E+03  0.50328813738E+03  0.00000000000E+00 0. -1.
         22    1    1    2    0    0 -0.11943189283E+02  0.11389160565E+02  0.25857260340E+02  0.30674919085E+02  0.00000000000E+00 0. -1.
</event>
<event>
 6    1  0.1293624E-005  0.1615049E+03  0.7818608E-02  0.1188326E+00
          2   -1    0    0  502    0  0.00000000000E+00  0.00000000000E+00  0.35255033462E+03  0.35255033462E+03  0.00000000000E+00 0. -1.
          1   -1    0    0  501    0 -0.00000000000E+00 -0.00000000000E+00 -0.33467798892E+03  0.33467798892E+03  0.00000000000E+00 0. -1.
          2    1    1    2  501    0 -0.26474757739E+02 -0.14877242404E+03  0.21890230958E+03  0.26599317302E+03  0.00000000000E+00 0. -1.
          1    1    1    2  502    0 -0.52117159646E+02  0.37941074280E+02 -0.22545772490E+03  0.23449287658E+03  0.00000000000E+00 0. -1.
         22    1    1    2    0    0 -0.11151325542E+02 -0.89317139040E+01  0.33898641593E+02  0.36786484970E+02  0.00000000000E+00 0.  1.
         22    1    1    2    0    0  0.89743242927E+02  0.11976306367E+03 -0.94708805658E+01  0.14995578898E+03  0.00000000000E+00 0. -1.
</event>
<event>
 6    1  0.1293624E-005  0.2260533E+03  0.7818608E-02  0.1129449E+00
          2   -1    0    0  502    0  0.00000000000E+00  0.00000000000E+00  0.24915781997E+03  0.24915781997E+03  0.00000000000E+00 0.  1.
          1   -1    0    0  501    0 -0.00000000000E+00 -0.00000000000E+00 -0.63434746158E+03  0.63434746158E+03  0.00000000000E+00 0.  1.
          2    1    1    2  501    0  0.46334986677E+02  0.85747442905E+01  0.13069195990E+03  0.13892748328E+03  0.00000000000E+00 0.  1.
          1    1    1    2  502    0  0.19222574828E+02  0.17417834597E+02 -0.58272668088E+03  0.58330375702E+03  0.00000000000E+00 0.  1.
         22    1    1    2    0    0 -0.11341470690E+02  0.20502926019E+02  0.84510948947E+02  0.87698913475E+02  0.00000000000E+00 0.  1.
         22    1    1    2    0    0 -0.54216090815E+02 -0.46495504907E+02 -0.17665869576E+02  0.73575127779E+02  0.00000000000E+00 0.  1.
</event>
<event>
 6    1  0.1293624E-005  0.2153941E+03  0.7818608E-02  0.1137364E+00
          2   -1    0    0  502    0  0.00000000000E+00  0.00000000000E+00  0.10042809536E+04  0.10042809536E+04  0.00000000000E+00 0.  1.
          1   -1    0    0  501    0 -0.00000000000E+00 -0.00000000000E+00 -0.38717488645E+02  0.38717488645E+02  0.00000000000E+00 0. -1.
          2    1    1    2  501    0  0.20267828197E+02  0.14971336198E+02  0.14668914219E+03  0.14883759674E+03  0.00000000000E+00 0.  1.
          1    1    1    2  502    0 -0.13576369614E+03 -0.91026900887E+02  0.27807476909E+03  0.32255736711E+03  0.00000000000E+00 0. -1.
         22    1    1    2    0    0 -0.25655469565E+02  0.26443985219E+01  0.66234516982E+02  0.71078880140E+02  0.00000000000E+00 0. -1.
         22    1    1    2    0    0  0.14115133751E+03  0.73411166167E+02  0.47456503670E+03  0.50052459825E+03  0.00000000000E+00 0.  1.
</event>
<event>
 6    1  0.1293624E-005  0.1040184E+03  0.7818608E-02  0.1276649E+00
          2   -1    0    0  502    0  0.00000000000E+00  0.00000000000E+00  0.24715132893E+03  0.24715132893E+03  0.00000000000E+00 0. -1.
          1   -1    0    0  501    0 -0.00000000000E+00 -0.00000000000E+00 -0.29133155296E+03  0.29133155296E+03  0.00000000000E+00 0.  1.
          2    1    1    2  501    0  0.23103127839E+02  0.61540218864E+02  0.41612401263E+02  0.77798104043E+02  0.00000000000E+00 0. -1.
          1    1    1    2  502    0 -0.29766103680E+00 -0.28108000840E+02 -0.24795688264E+03  0.24954511408E+03  0.00000000000E+00 0.  1.
         22    1    1    2    0    0  0.38297147603E+02  0.28733651240E+02  0.62591859857E+02  0.78803776232E+02  0.00000000000E+00 0. -1.
         22    1    1    2    0    0 -0.61102614405E+02 -0.62165869264E+02  0.99572397485E+02  0.13233588753E+03  0.00000000000E+00 0. -1.
</event>
<event>
 6    1  0.1293624E-005  0.2124280E+03  0.7818608E-02  0.1170337E+00
          2   -1    0    0  502    0  0.00000000000E+00  0.00000000000E+00  0.75260445235E+03  0.75260445235E+03  0.00000000000E+00 0.  1.
          1   -1    0    0  501    0 -0.00000000000E+00 -0.00000000000E+00 -0.29200652444E+03  0.29200652444E+03  0.00000000000E+00 0. -1.
          2    1    1    2  501    0 -0.51491274562E+02 -0.73838896890E+00  0.56390615480E+02  0.76366210384E+02  0.00000000000E+00 0.  1.
          1    1    1    2  502    0  0.17763896134E+03  0.13890670923E+03 -0.21336914167E+03  0.31044655752E+03  0.00000000000E+00 0. -1.
         22    1    1    2    0    0 -0.41481973132E+02 -0.94640951145E+02  0.47670315656E+03  0.48777409034E+03  0.00000000000E+00 0.  1.
         22    1    1    2    0    0 -0.84665713644E+02 -0.43527369119E+02  0.14087329754E+03  0.17002411855E+03  0.00000000000E+00 0.  1.
</event>
<event>
 6    1  0.1293624E-005  0.3643213E+03  0.7818608E-02  0.1056886E+00
          2   -1    0    0  502    0  0.00000000000E+00  0.00000000000E+00  0.15918176579E+04  0.15918176579E+04  0.00000000000E+00 0. -1.
          1   -1    0    0  501    0 -0.00000000000E+00 -0.00000000000E+00 -0.65456148092E+02  0.65456148092E+02  0.00000000000E+00 0. -1.
          2    1    1    2  501    0  0.81865173996E+02 -0.21636975527E+03  0.95301085594E+03  0.98068724334E+03  0.00000000000E+00 0. -1.
          1    1    1    2  502    0 -0.61512075561E+02  0.21136014148E+03  0.26578526211E+03  0.34510672321E+03  0.00000000000E+00 0. -1.
         22    1    1    2    0    0  0.51076183894E+02  0.39418329001E+01  0.14914077366E+03  0.15769364278E+03  0.00000000000E+00 0.  1.
         22    1    1    2    0    0 -0.71429282329E+02  0.10677808945E+01  0.15842461807E+03  0.17378619664E+03  0.00000000000E+00 0. -1.
</event>
<event>
 6    1  0.1293624E-005  0.9087220E+02  0.7818608E-02  0.1302234E+00
          2   -1    0    0  502    0  0.00000000000E+00  0.00000000000E+00  0.53465741391E+03  0.53465741391E+03  0.00000000000E+00 0.  1.
          1   -1    0    0  501    0 -0.00000000000E+00 -0.00000000000E+00 -0.40842878493E+02  0.40842878493E+02  0.00000000000E+00 0.  1.
          2    1    1    2  501    0  0.48255950903E+02 -0.15078709489E+02  0.11270019423E+03  0.12352059770E+03  0.00000000000E+00 0.  1.
          1    1    1    2  502    0 -0.86770586723E+01 -0.71142930287E+02  0.53789644713E+02  0.89609897642E+02  0.00000000000E+00 0.  1.
         22    1    1    2    0    0  0.28116123307E+02 -0.11206505993E+02  0.11741887605E+03  0.12125714255E+03  0.00000000000E+00 0.  1.
         22    1    1    2    0    0 -0.67695015537E+02  0.97428145770E+02  0.20990582042E+03  0.24111265451E+03  0.00000000000E+00 0.  1.
</event>
<event>
 6    1  0.1293624E-005  0.2798707E+03  0.7818608E-02  0.1095760E+00
          2   -1    0    0  502    0  0.00000000000E+00  0.00000000000E+00  0.61450009858E+03  0.61450009858E+03  0.00000000000E+00 0.  1.
          1   -1    0    0  501    0 -0.00000000000E+00 -0.00000000000E+00 -0.42058525047E+03  0.42058525047E+03  0.00000000000E+00 0. -1.
          2    1    1    2  501    0 -0.70681718826E+02  0.63645207912E+02  0.20892292799E+03  0.22955480327E+03  0.00000000000E+00 0.  1.
          1    1    1    2  502    0 -0.37353416459E+02  0.10679452802E+02 -0.38769759860E+03  0.38963926444E+03  0.00000000000E+00 0. -1.
         22    1    1    2    0    0  0.13725038143E+03 -0.63800758189E+02  0.28227251718E+03  0.32029045865E+03  0.00000000000E+00 0. -1.
         22    1    1    2    0    0 -0.29215246148E+02 -0.10523902525E+02  0.90417001535E+02  0.95600822687E+02  0.00000000000E+00 0.  1.
</event>
<event>
 6    1  0.1293624E-005  0.2165479E+03  0.7818608E-02  0.1136483E+00
          2   -1    0    0  502    0  0.00000000000E+00  0.00000000000E+00  0.21844277276E+03  0.21844277276E+03  0.00000000000E+00 0.  1.
          1   -1    0    0  501    0 -0.00000000000E+00 -0.00000000000E+00 -0.19647133779E+03  0.19647133779E+03  0.00000000000E+00 0. -1.
          2    1    1    2  501    0  0.56606169836E+02 -0.14746122371E+02 -0.25412458788E+01  0.58550529623E+02  0.00000000000E+00 0.  1.
          1    1    1    2  502    0 -0.17418231307E+02  0.49061111886E+02 -0.13681679289E+03  0.14638723407E+03  0.00000000000E+00 0. -1.
         22    1    1    2    0    0 -0.33474059716E+02  0.44093328340E+02  0.74937170927E+02  0.93168202004E+02  0.00000000000E+00 0. -1.
         22    1    1    2    0    0 -0.57138788121E+01 -0.78408317856E+02  0.86392302808E+02  0.11680814486E+03  0.00000000000E+00 0.  1.
</event>
<event>
 6    1  0.1293624E-005  0.2251584E+03  0.7818608E-02  0.1130095E+00
          2   -1    0    0  502    0  0.00000000000E+00  0.00000000000E+00  0.15501759212E+03  0.15501759212E+03  0.00000000000E+00 0. -1.
          1   -1    0    0  501    0 -0.00000000000E+00 -0.00000000000E+00 -0.12493979097E+03  0.12493979097E+03  0.00000000000E+00 0.  1.
          2    1    1    2  501    0  0.53346742184E+02 -0.17873093006E+02  0.64343329050E+02  0.85471552861E+02  0.00000000000E+00 0. -1.
          1    1    1    2  502    0 -0.35458013150E+01  0.49833952344E+02 -0.10811186334E+02  0.51116311126E+02  0.00000000000E+00 0.  1.
         22    1    1    2    0    0 -0.57814613652E+02 -0.48078073284E+02 -0.64170110163E+02  0.98852585807E+02  0.00000000000E+00 0.  1.
         22    1    1    2    0    0  0.80136727827E+01  0.16117213947E+02  0.40715768599E+02  0.44516933289E+02  0.00000000000E+00 0. -1.
</event>
<event>
 6    1  0.1293624E-005  0.1991068E+03  0.7818608E-02  0.1150495E+00
          2   -1    0    0  502    0  0.00000000000E+00  0.00000000000E+00  0.29742186996E+02  0.29742186996E+02  0.00000000000E+00 0. -1.
          1   -1    0    0  501    0 -0.00000000000E+00 -0.00000000000E+00 -0.67747078695E+03  0.67747078695E+03  0.00000000000E+00 0.  1.
          2    1    1    2  501    0  0.14623785298E+02  0.37238434352E+02 -0.10569364929E+03  0.11301196216E+03  0.00000000000E+00 0. -1.
          1    1    1    2  502    0 -0.22512225623E+02  0.47568682491E+02 -0.31573764726E+03  0.32009348908E+03  0.00000000000E+00 0.  1.
         22    1    1    2    0    0  0.30952826133E+02 -0.11349890196E+03 -0.17840592122E+03  0.21370248224E+03  0.00000000000E+00 0. -1.
         22    1    1    2    0    0 -0.23064385808E+02  0.28691785117E+02 -0.47891382191E+02  0.60405040469E+02  0.00000000000E+00 0. -1.
</event>
<event>
 6    1  0.1293624E-005  0.1110165E+03  0.7818608E-02  0.1259632E+00
          2   -1    0    0  502    0  0.00000000000E+00  0.00000000000E+00  0.17833209782E+03  0.17833209782E+03  0.00000000000E+00 0.  1.
          1   -1    0    0  501    0 -0.00000000000E+00 -0.00000000000E+00 -0.23657495574E+03  0.23657495574E+03  0.00000000000E+00 0. -1.
          2    1    1    2  501    0 -0.33956589637E+02  0.66018090394E+02 -0.45543255622E+02  0.87095501443E+02  0.00000000000E+00 0.  1.
          1    1    1    2  502    0  0.88820423098E+01  0.33655985182E+02 -0.12438921234E+03  0.12916769008E+03  0.00000000000E+00 0. -1.
         22    1    1    2    0    0  0.32901535187E+02 -0.10992810860E+03  0.13180039733E+03  0.17475138001E+03  0.00000000000E+00 0.  1.
         22    1    1    2    0    0 -0.78269878601E+01  0.10254033023E+02 -0.20110787284E+02  0.23892482027E+02  0.00000000000E+00 0. -1.
</event>
<event>
 6    1  0.1293624E-005  0.7112447E+02  0.7818608E-02  0.1357062E+00
          2   -1    0    0  502    0  0.00000000000E+00  0.00000000000E+00  0.35658798381E+02  0.35658798381E+02  0.00000000000E+00 0. -1.
          1   -1    0    0  501    0 -0.00000000000E+00 -0.00000000000E+00 -0.11775527971E+04  0.11775527971E+04  0.00000000000E+00 0. -1.
          2    1    1    2  501    0  0.74201398569E+01 -0.19163007026E+02 -0.91438339577E+01  0.22491976641E+02  0.00000000000E+00 0. -1.
          1    1    1    2  502    0 -0.25231013938E+02 -0.44153666194E+02 -0.99350974251E+03  0.99481041347E+03  0.00000000000E+00 0. -1.
         22    1    1    2    0    0  0.97178933826E+01 -0.36383639713E+02 -0.34406694126E+02  0.51010070488E+02  0.00000000000E+00 0. -1.
         22    1    1    2    0    0  0.80929806990E+01  0.99700312933E+02 -0.10483372813E+03  0.14489913488E+03  0.00000000000E+00 0.  1.
</event>
<event>
 6    1  0.1293624E-005  0.6783736E+02  0.7818608E-02  0.1369412E+00
          2   -1    0    0  502    0  0.00000000000E+00  0.00000000000E+00  0.27059839581E+02  0.27059839581E+02  0.00000000000E+00 0. -1.
          1   -1    0    0  501    0 -0.00000000000E+00 -0.00000000000E+00 -0.17366214433E+04  0.17366214433E+04  0.00000000000E+00 0.  1.
          2    1    1    2  501    0 -0.77541333876E+01  0.30713638193E+02 -0.13014472482E+03  0.13394440471E+03  0.00000000000E+00 0. -1.
          1    1    1    2  502    0  0.63208340902E+02  0.75291470871E+01 -0.13926970640E+04  0.13941510300E+04  0.00000000000E+00 0.  1.
         22    1    1    2    0    0 -0.32548632632E+02 -0.63187487721E+02 -0.33334601629E+02  0.78506482258E+02  0.00000000000E+00 0. -1.
         22    1    1    2    0    0 -0.22905574882E+02  0.24944702441E+02 -0.15338521330E+03  0.15707936592E+03  0.00000000000E+00 0. -1.
</event>
<event>
 6    1  0.1293624E-005  0.6528622E+02  0.7818608E-02  0.1379226E+00
          2   -1    0    0  502    0  0.00000000000E+00  0.00000000000E+00  0.25174535418E+03  0.25174535418E+03  0.00000000000E+00 0.  1.
          1   -1    0    0  501    0 -0.00000000000E+00 -0.00000000000E+00 -0.52022667657E+03  0.52022667657E+03  0.00000000000E+00 0.  1.
          2    1    1    2  501    0 -0.11039280643E+02  0.60532270544E+02 -0.42025897722E+02  0.74513069818E+02  0.00000000000E+00 0.  1.
          1    1    1    2  502    0  0.24362670936E+02 -0.23236670238E+02 -0.44286727057E+03  0.44414513610E+03  0.00000000000E+00 0.  1.
         22    1    1    2    0    0 -0.11418010526E+02 -0.60749611285E+02  0.22087641308E+03  0.22936276090E+03  0.00000000000E+00 0.  1.
         22    1    1    2    0    0 -0.19053797666E+01  0.23454010978E+02 -0.44645671755E+01  0.23951063924E+02  0.00000000000E+00 0.  1.
</event>
<event>
 6    1  0.1293624E-005  0.9315504E+02  0.7818608E-02  0.1298440E+00
          2   -1    0    0  502    0  0.00000000000E+00  0.00000000000E+00  0.19489147986E+03  0.19489147986E+03  0.00000000000E+00 0. -1.
          1   -1    0    0  501    0 -0.00000000000E+00 -0.00000000000E+00 -0.74000193598E+02  0.74000193598E+02  0.00000000000E+00 0. -1.
          2    1    1    2  501    0  0.88600529999E+01  0.44350470677E+02 -0.14451436133E+01  0.45249897553E+02  0.00000000000E+00 0. -1.
          1    1    1    2  502    0 -0.40830525877E+02  0.10567444331E+02  0.36842108285E+02  0.56001282717E+02  0.00000000000E+00 0. -1.
         22    1    1    2    0    0  0.52312160958E+02 -0.87612967470E+02  0.44275621984E+02  0.11123365028E+03  0.00000000000E+00 0. -1.
         22    1    1    2    0    0 -0.20341688081E+02  0.32695052462E+02  0.41218699604E+02  0.56406842905E+02  0.00000000000E+00 0.  1.
</event>
<event>
 6    1  0.1293624E-005  0.8322687E+02  0.7818608E-02  0.1332893E+00
          2   -1    0    0  502    0  0.00000000000E+00  0.00000000000E+00  0.30223621937E+02  0.30223621937E+02  0.00000000000E+00 0.  1.
          1   -1    0    0  501    0 -0.00000000000E+00 -0.00000000000E+00 -0.54455249692E+03  0.54455249692E+03  0.00000000000E+00 0. -1.
          2    1    1    2  501    0  0.23678998855E+02  0.41188946480E+02 -0.12479228268E+03  0.13353028913E+03  0.00000000000E+00 0.  1.
          1    1    1    2  502    0  0.41180058643E+01 -0.68596005537E+02 -0.18755120810E+03  0.19974440069E+03  0.00000000000E+00 0. -1.
         22    1    1    2    0    0 -0.58890988657E+02 -0.30703380953E+02 -0.97720843362E+02  0.11815332993E+03  0.00000000000E+00 0. -1.
         22    1    1    2    0    0  0.31093983937E+02  0.58110440010E+02 -0.10426454084E+03  0.12334809910E+03  0.00000000000E+00 0.  1.
</event>
<event>
 6    1  0.1293624E-005  0.1792702E+03  0.7818608E-02  0.1168511E+00
          2   -1    0    0  502    0  0.00000000000E+00  0.00000000000E+00  0.98878436543E+03  0.98878436543E+03  0.00000000000E+00 0. -1.
          1   -1    0    0  501    0 -0.00000000000E+00 -0.00000000000E+00 -0.79735594663E+02  0.79735594663E+02  0.00000000000E+00 0. -1.
          2    1    1    2  501    0 -0.32385975943E+02  0.10721575449E+02  0.33558783367E+03  0.33731735462E+03  0.00000000000E+00 0. -1.
          1    1    1    2  502    0  0.76270864769E+02 -0.37702814201E+02 -0.46049149617E+02  0.96743326342E+02  0.00000000000E+00 0. -1.
         22    1    1    2    0    0 -0.26069045812E+02  0.77368608116E+02  0.42326422824E+03  0.43106624036E+03  0.00000000000E+00 0. -1.
         22    1    1    2    0    0 -0.17815843014E+02 -0.50387369364E+02  0.19624585847E+03  0.20339303877E+03  0.00000000000E+00 0.  1.
</event>
<event>
 6    1  0.1293624E-005  0.1350186E+03  0.7818608E-02  0.1220592E+00
          2   -1    0    0  502    0  0.00000000000E+00  0.00000000000E+00  0.34224670751E+03  0.34224670751E+03  0.00000000000E+00 0. -1.
          1   -1    0    0  501    0 -0.00000000000E+00 -0.00000000000E+00 -0.75415219553E+03  0.75415219553E+03  0.00000000000E+00 0.  1.
          2    1    1    2  501    0 -0.91559640171E+02 -0.47715169779E+02  0.14435282575E+03  0.17747575451E+03  0.00000000000E+00 0. -1.
          1    1    1    2  502    0 -0.67444575395E+02 -0.89145489315E+02 -0.64795490578E+03  0.65752661463E+03  0.00000000000E+00 0.  1.
         22    1    1    2    0    0  0.16778946263E+03  0.14617326911E+03  0.65065457198E+02  0.23184788567E+03  0.00000000000E+00 0. -1.
         22    1    1    2    0    0 -0.87852470614E+01 -0.93126100129E+01  0.26631134808E+02  0.29548648232E+02  0.00000000000E+00 0. -1.
</event>
<event>
 6    1  0.1293624E-005  0.9499294E+02  0.7818608E-02  0.1291930E+00
          2   -1    0    0  502    0  0.00000000000E+00  0.00000000000E+00  0.45188352725E+03  0.45188352725E+03  0.00000000000E+00 0.  1.
          1   -1    0    0  501    0 -0.00000000000E+00 -0.00000000000E+00 -0.41429674922E+02  0.41429674922E+02  0.00000000000E+00 0. -1.
          2    1    1    2  501    0 -0.40790916034E+02  0.12025079197E+02  0.13983087820E+02  0.44766372486E+02  0.00000000000E+00 0.  1.
          1    1    1    2  502    0 -0.35019037813E+01  0.54416992994E+02  0.15764535110E+03  0.16680985936E+03  0.00000000000E+00 0. -1.
         22    1    1    2    0    0 -0.22225183350E+02  0.18984880481E+02  0.14453368421E+02  0.32608040734E+02  0.00000000000E+00 0.  1.
         22    1    1    2    0    0  0.66518003165E+02 -0.85426952671E+02  0.22437204499E+03  0.24912892960E+03  0.00000000000E+00 0. -1.
</event>
<event>
 6    1  0.1293624E-005  0.2028113E+03  0.7818608E-02  0.1147389E+00
          2   -1    0    0  502    0  0.00000000000E+00  0.00000000000E+00  0.45311957497E+03  0.45311957497E+03  0.00000000000E+00 0. -1.
          1   -1    0    0  501    0 -0.00000000000E+00 -0.00000000000E+00 -0.47453994884E+02  0.47453994884E+02  0.00000000000E+00 0. -1.
          2    1    1    2  501    0 -0.75757415482E+01 -0.28400421963E+02  0.19463476629E+01  0.29457835917E+02  0.00000000000E+00 0. -1.
          1    1    1    2  502    0  0.85211418845E+02 -0.15781301000E+02  0.16042678263E+03  0.18233701749E+03  0.00000000000E+00 0. -1.
         22    1    1    2    0    0  0.96580214327E+01  0.48918873419E+02  0.16163680320E+03  0.16915315458E+03  0.00000000000E+00 0.  1.
         22    1    1    2    0    0 -0.87293698729E+02 -0.47371504562E+01  0.81655646596E+02  0.11962556187E+03  0.00000000000E+00 0. -1.
</event>
<event>
 6    1  0.1293624E-005  0.3405503E+03  0.7818608E-02  0.1066562E+00
          2   -1    0    0  502    0  0.00000000000E+00  0.00000000000E+00  0.12647504301E+04  0.12647504301E+04  0.00000000000E+00 0. -1.
          1   -1    0    0  501    0 -0.00000000000E+00 -0.00000000000E+00 -0.51675444056E+02  0.51675444056E+02  0.00000000000E+00 0.  1.
          2    1    1    2  501    0  0.48017396024E+00 -0.48967919698E+02  0.13410232596E+02  0.50773241622E+02  0.00000000000E+00 0. -1.
          1    1    1    2  502    0 -0.15042770434E+03  0.25357683734E+02  0.22960455949E+03  0.27566240240E+03  0.00000000000E+00 0.  1.
         22    1    1    2    0    0  0.15424898119E+03 -0.89051342550E+01  0.89258062043E+03  0.90585441081E+03  0.00000000000E+00 0. -1.
         22    1    1    2    0    0 -0.43014508051E+01  0.32515370219E+02  0.77479573513E+02  0.84135819311E+02  0.00000000000E+00 0.  1.
</event>
<event>
 6    1  0.1293624E-005  0.1631512E+03  0.7818608E-02  0.1185184E+00
          2   -1    0    0  502    0  0.00000000000E+00  0.00000000000E+00  0.21474137175E+03  0.21474137175E+03  0.00000000000E+00 0. -1.
          1   -1    0    0  501    0 -0.00000000000E+00 -0.00000000000E+00 -0.70494459886E+03  0.70494459886E+03  0.00000000000E+00 0. -1.
          2    1    1    2  501    0 -0.16596282603E+02 -0.31400324156E+02  0.40328507378E+02  0.53738305338E+02  0.00000000000E+00 0. -1.
          1    1    1    2  502    0 -0.25544284288E+01  0.34318986264E+02 -0.67345288818E+03  0.67433160279E+03  0.00000000000E+00 0. -1.
         22    1    1    2    0    0 -0.45908043779E+02 -0.11812791445E+02  0.10639360462E+03  0.11647613330E+03  0.00000000000E+00 0. -1.
         22    1    1    2    0    0  0.65058754811E+02  0.88941293365E+01  0.36527549081E+02  0.75139929172E+02  0.00000000000E+00 0.  1.
</event>
<event>
 6    1  0.1293624E-005  0.2307531E+03  0.7818608E-02  0.1126617E+00
          2   -1    0    0  502    0  0.00000000000E+00  0.00000000000E+00  0.51724029896E+03  0.51724029896E+03  0.00000000000E+00 0.  1.
          1   -1    0    0  501    0 -0.00000000000E+00 -0.00000000000E+00 -0.17729528185E+03  0.17729528185E+03  0.00000000000E+00 0. -1.
          2    1    1    2  501    0 -0.41242994554E+02  0.19840147351E+03  0.21593221633E+03  0.29612641108E+03  0.00000000000E+00 0.  1.
          1    1    1    2  502    0 -0.33446837899E+01  0.30993964840E+02 -0.64377076695E+02  0.71527762232E+02  0.00000000000E+00 0. -1.
         22    1    1    2    0    0  0.16399924988E+01  0.13981494252E+02  0.30558247514E+02  0.33644884426E+02  0.00000000000E+00 0. -1.
         22    1    1    2    0    0  0.42947685845E+02 -0.24337693260E+03  0.15783162996E+03  0.29323652307E+03  0.00000000000E+00 0. -1.
</event>
<event>
 6    1  0.1293624E-005  0.2078541E+03  0.7818608E-02  0.1143277E+00
          2   -1    0    0  502    0  0.00000000000E+00  0.00000000000E+00  0.23715704791E+03  0.23715704791E+03  0.00000000000E+00 0. -1.
          1   -1    0    0  501    0 -0.00000000000E+00 -0.00000000000E+00 -0.68165469652E+03  0.68165469652E+03  0.00000000000E+00 0.  1.
          2    1    1    2  501    0 -0.76146612610E+02 -0.23676705025E+02  0.82262103057E+02  0.11456852348E+03  0.00000000000E+00 0. -1.
          1    1    1    2  502    0  0.58387212114E+02  0.39881600285E+02 -0.63376495205E+03  0.63769712484E+03  0.00000000000E+00 0.  1.
         22    1    1    2    0    0  0.47713219643E+02 -0.56997895176E+02  0.46556854570E+02  0.87708905424E+02  0.00000000000E+00 0.  1.
         22    1    1    2    0    0 -0.29953819147E+02  0.40792999916E+02  0.60448345819E+02  0.78837190690E+02  0.00000000000E+00 0. -1.
</event>
<event>
 6    1  0.1293624E-005  0.1485579E+03  0.7818608E-02  0.1203134E+00
          2   -1    0    0  502    0  0.00000000000E+00  0.00000000000E+00  0.35665704890E+03  0.35665704890E+03  0.00000000000E+00 0. -1.
          1   -1    0    0  501    0 -0.00000000000E+00 -0.00000000000E+00 -0.30554233630E+03  0.30554233630E+03  0.00000000000E+00 0. -1.
          2    1    1    2  501    0  0.99856139893E+02  0.48543233184E+02  0.89943570004E+01  0.11139386258E+03  0.00000000000E+00 0. -1.
          1    1    1    2  502    0  0.18290915344E+02  0.30817531771E+02 -0.22144168300E+03  0.22432275145E+03  0.00000000000E+00 0. -1.
         22    1    1    2    0    0  0.12530518211E+02  0.11045288911E+01 -0.77503568904E+01  0.14775043236E+02  0.00000000000E+00 0.  1.
         22    1    1    2    0    0 -0.13067757345E+03 -0.80465293846E+02  0.27131239548E+03  0.31170772794E+03  0.00000000000E+00 0. -1.
</event>
<event>
 6    1  0.1293624E-005  0.1358998E+03  0.7818608E-02  0.1220913E+00
          2   -1    0    0  502    0  0.00000000000E+00  0.00000000000E+00  0.66696885045E+03  0.66696885045E+03  0.00000000000E+00 0.  1.
          1   -1    0    0  501    0 -0.00000000000E+00 -0.00000000000E+00 -0.58809020218E+02  0.58809020218E+02  0.00000000000E+00 0.  1.
          2    1    1    2  501    0  0.28724191365E+02 -0.95782255786E+02  0.34225234192E+03  0.35656133447E+03  0.00000000000E+00 0.  1.
          1    1    1    2  502    0  0.26131825615E+02  0.33409993981E+01 -0.24001531780E+02  0.35638576216E+02  0.00000000000E+00 0.  1.
         22    1    1    2    0    0 -0.51780900928E+02  0.12340341986E+03  0.23149739779E+03  0.26739616848E+03  0.00000000000E+00 0.  1.
         22    1    1    2    0    0 -0.30751160521E+01 -0.30962163475E+02  0.58411622309E+02  0.66181791503E+02  0.00000000000E+00 0. -1.
</event>
<event>
 6    1  0.1293624E-005  0.1947430E+03  0.7818608E-02  0.1154252E+00
          2   -1    0    0  502    0  0.00000000000E+00  0.00000000000E+00  0.16963085429E+02  0.16963085429E+02  0.00000000000E+00 0.  1.
          1   -1    0    0  501    0 -0.00000000000E+00 -0.00000000000E+00 -0.15495794757E+04  0.15495794757E+04  0.00000000000E+00 0.  1.
          2    1    1    2  501    0  0.23141877185E+02 -0.26715464595E+02 -0.23345307036E+03  0.23611352903E+03  0.00000000000E+00 0.  1.
          1    1    1    2  502    0 -0.26910582698E+02 -0.39063417774E+02 -0.97030188372E+03  0.97146069175E+03  0.00000000000E+00 0.  1.
         22    1    1    2    0    0  0.43253181790E+02 -0.21002271754E+02 -0.96773017153E+02  0.10805993708E+03  0.00000000000E+00 0. -1.
         22    1    1    2    0    0 -0.39484476277E+02  0.86781154124E+02 -0.23208841901E+03  0.25090840324E+03  0.00000000000E+00 0.  1.
</event>
<event>
 6    1  0.1346118E-005  0.3882154E+03  0.7818608E-02  0.1115951E+00
          2   -1    0    0  502    0  0.00000000000E+00  0.00000000000E+00  0.13249562894E+04  0.13249562894E+04  0.00000000000E+00 0.  1.
          1   -1    0    0  501    0 -0.00000000000E+00 -0.00000000000E+00 -0.38324932249E+03  0.38324932249E+03  0.00000000000E+00 0.  1.
          2    1    1    2  501    0  0.74701044287E+02 -0.29339071649E+03  0.81713377061E+03  0.87141606458E+03  0.00000000000E+00 0.  1.
          1    1    1    2  502    0 -0.14718304896E+02  0.38112306193E+03 -0.23150819832E+03  0.44616976895E+03  0.00000000000E+00 0.  1.
         22    1    1    2    0    0 -0.58506098570E+02 -0.21832865458E+02  0.57628902637E+02  0.84974866891E+02  0.00000000000E+00 0.  1.
         22    1    1    2    0    0 -0.14766408215E+01 -0.65899479983E+02  0.29845249194E+03  0.30564491142E+03  0.00000000000E+00 0. -1.
</event>
<event>
 6    1  0.1293624E-005  0.2314427E+03  0.7818608E-02  0.1125628E+00
          2   -1    0    0  502    0  0.00000000000E+00  0.00000000000E+00  0.60998466674E+03  0.60998466674E+03  0.00000000000E+00 0. -1.
          1   -1    0    0  501    0 -0.00000000000E+00 -0.00000000000E+00 -0.14616112378E+03  0.14616112378E+03  0.00000000000E+00 0. -1.
          2    1    1    2  501    0 -0.71848661724E+02  0.31795089850E+02  0.25448954939E+03  0.26634205203E+03  0.00000000000E+00 0. -1.
          1    1    1    2  502    0 -0.11131056856E+02 -0.18097839226E+02 -0.12326578447E+03  0.12508351543E+03  0.00000000000E+00 0. -1.
         22    1    1    2    0    0  0.79341888803E+02  0.42318701078E+02  0.24169358337E+03  0.25787942148E+03  0.00000000000E+00 0.  1.
         22    1    1    2    0    0  0.36378297769E+01 -0.56015951701E+02  0.90906194673E+02  0.10684080157E+03  0.00000000000E+00 0. -1.
</event>
<event>
 6    1  0.1293624E-005  0.3904099E+03  0.7818608E-02  0.1047152E+00
          2   -1    0    0  502    0  0.00000000000E+00  0.00000000000E+00  0.85650890713E+03  0.85650890713E+03  0.00000000000E+00 0.  1.
          1   -1    0    0  501    0 -0.00000000000E+00 -0.00000000000E+00 -0.11815068265E+03  0.11815068265E+03  0.00000000000E+00 0. -1.
          2    1    1    2  501    0  0.42002932237E+02 -0.17620673061E+03  0.21213742663E+03  0.27895402131E+03  0.00000000000E+00 0.  1.
          1    1    1    2  502    0  0.10683724934E+03  0.17547438094E+03  0.10519070931E+03  0.23080411941E+03  0.00000000000E+00 0. -1.
         22    1    1    2    0    0 -0.10760722999E+03  0.38822078157E+02  0.15289592929E+03  0.19095453619E+03  0.00000000000E+00 0.  1.
         22    1    1    2    0    0 -0.41232951582E+02 -0.38089728487E+02  0.26813415925E+03  0.27394691286E+03  0.00000000000E+00 0.  1.
</event>
<event>
 6    1  0.1293624E-005  0.4153952E+02  0.7818608E-02  0.1498796E+00
          2   -1    0    0  502    0  0.00000000000E+00  0.00000000000E+00  0.18858717452E+03  0.18858717452E+03  0.00000000000E+00 0.  1.
          1   -1    0    0  501    0 -0.00000000000E+00 -0.00000000000E+00 -0.93386020527E+02  0.93386020527E+02  0.00000000000E+00 0.  1.
          2    1    1    2  501    0  0.13027281661E+02 -0.18706656133E+02  0.84782233577E+02  0.87793372082E+02  0.00000000000E+00 0.  1.
          1    1    1    2  502    0 -0.62206057483E+01 -0.27430834442E+02 -0.44669039279E+02  0.52787021929E+02  0.00000000000E+00 0.  1.
         22    1    1    2    0    0  0.15171119922E+02 -0.93163224028E+01  0.76096336755E+02  0.78151194554E+02  0.00000000000E+00 0.  1.
         22    1    1    2    0    0 -0.21977795834E+02  0.55453812978E+02 -0.21008377061E+02  0.63241606481E+02  0.00000000000E+00 0.  1.
</event>
<event>
 6    1  0.1293624E-005  0.6763931E+02  0.7818608E-02  0.1373867E+00
          2   -1    0    0  502    0  0.00000000000E+00  0.00000000000E+00  0.44803796089E+03  0.44803796089E+03  0.00000000000E+00 0.  1.
          1   -1    0    0  501    0 -0.00000000000E+00 -0.00000000000E+00 -0.27590978180E+02  0.27590978180E+02  0.00000000000E+00 0.  1.
          2    1    1    2  501    0  0.32487960489E+01  0.23866423961E+02  0.52407522710E+02  0.57677632623E+02  0.00000000000E+00 0.  1.
          1    1    1    2  502    0  0.36231298963E+02 -0.12944887552E+02  0.16164128811E+02  0.41731956562E+02  0.00000000000E+00 0.  1.
         22    1    1    2    0    0 -0.64368789618E+02 -0.24961168060E+02  0.33700925004E+03  0.34400819118E+03  0.00000000000E+00 0.  1.
         22    1    1    2    0    0  0.24888694606E+02  0.14039631651E+02  0.14866081144E+02  0.32211158698E+02  0.00000000000E+00 0.  1.
</event>
<event>
 6    1  0.1293624E-005  0.2257706E+03  0.7818608E-02  0.1129653E+00
          2   -1    0    0  502    0  0.00000000000E+00  0.00000000000E+00  0.29335213780E+03  0.29335213780E+03  0.00000000000E+00 0.  1.
          1   -1    0    0  501    0 -0.00000000000E+00 -0.00000000000E+00 -0.50875083240E+03  0.50875083240E+03  0.00000000000E+00 0. -1.
          2    1    1    2  501    0 -0.90319697583E+01  0.29588691624E+02 -0.19484417155E+02  0.36561040215E+02  0.00000000000E+00 0.  1.
          1    1    1    2  502    0 -0.23169176531E+01  0.20055376240E+02 -0.46505980986E+03  0.46549781199E+03  0.00000000000E+00 0. -1.
         22    1    1    2    0    0  0.21345972806E+00 -0.62007882167E+02  0.27538025099E+03  0.28227523031E+03  0.00000000000E+00 0.  1.
         22    1    1    2    0    0  0.11135427683E+02  0.12363814303E+02 -0.62347185668E+01  0.17768887681E+02  0.00000000000E+00 0.  1.
</event>
<event>
 6    1  0.1293624E-005  0.1102232E+03  0.7818608E-02  0.1262716E+00
          2   -1    0    0  502    0  0.00000000000E+00  0.00000000000E+00  0.61731622304E+03  0.61731622304E+03  0.00000000000E+00 0.  1.
          1   -1    0    0  501    0 -0.00000000000E+00 -0.00000000000E+00 -0.83792145859E+03  0.83792145859E+03  0.00000000000E+00 0. -1.
          2    1    1    2  501    0  0.47889547616E+02  0.64794699781E+02  0.19901014895E+03  0.21470165644E+03  0.00000000000E+00 0.  1.
          1    1    1    2  502    0  0.83574384703E+01 -0.35578057547E+02 -0.81814714479E+03  0.81896300007E+03  0.00000000000E+00 0. -1.
         22    1    1    2    0    0  0.77115398605E+01  0.40469467139E+02  0.15307572037E+03  0.15852262231E+03  0.00000000000E+00 0. -1.
         22    1    1    2    0    0 -0.63958525947E+02 -0.69686109373E+02  0.24545603993E+03  0.26305040281E+03  0.00000000000E+00 0. -1.
</event>
<event>
 6    1  0.1293624E-005  0.2730873E+03  0.7818608E-02  0.1099526E+00
          2   -1    0    0  502    0  0.00000000000E+00  0.00000000000E+00  0.38336720243E+03  0.38336720243E+03  0.00000000000E+00 0. -1.
          1   -1    0    0  501    0 -0.00000000000E+00 -0.00000000000E+00 -0.22016405947E+03  0.22016405947E+03  0.00000000000E+00 0.  1.
          2    1    1    2  501    0 -0.19161080085E+02 -0.20605139930E+02 -0.29769596546E+02  0.40962759429E+02  0.00000000000E+00 0. -1.
          1    1    1    2  502    0  0.49454331366E+02  0.89057651938E+02 -0.15420470523E+03  0.18481365581E+03  0.00000000000E+00 0.  1.
         22    1    1    2    0    0  0.15707076739E+01  0.25860142827E+02  0.12846987519E+02  0.28918146517E+02  0.00000000000E+00 0. -1.
         22    1    1    2    0    0 -0.31863958956E+02 -0.94312654836E+02  0.33433045721E+03  0.34883670014E+03  0.00000000000E+00 0. -1.
</event>
<event>
 6    1  0.1293624E-005  0.7522575E+02  0.7818608E-02  0.1346463E+00
          2   -1    0    0  502    0  0.00000000000E+00  0.00000000000E+00  0.36022602991E+03  0.36022602991E+03  0.00000000000E+00 0.  1.
          1   -1    0    0  501    0 -0.00000000000E+00 -0.00000000000E+00 -0.52014456611E+03  0.52014456611E+03  0.00000000000E+00 0. -1.
          2    1    1    2  501    0  0.18565104932E+02 -0.21389750904E+02  0.84045791244E+02  0.88689794175E+02  0.00000000000E+00 0.  1.
          1    1    1    2  502    0  0.77434636440E+01  0.48133244814E+02 -0.50047104334E+03  0.50283997028E+03  0.00000000000E+00 0. -1.
         22    1    1    2    0    0 -0.74791352719E+02 -0.17661424793E+02  0.10947077817E+03  0.13375172388E+03  0.00000000000E+00 0.  1.
         22    1    1    2    0    0  0.48482784143E+02 -0.90820691166E+01  0.14703593773E+03  0.15508910769E+03  0.00000000000E+00 0.  1.
</event>
<event>
 6    1  0.1293624E-005  0.1696279E+03  0.7818608E-02  0.1178236E+00
          2   -1    0    0  502    0  0.00000000000E+00  0.00000000000E+00  0.14091081038E+03  0.14091081038E+03  0.00000000000E+00 0. -1.
          1   -1    0    0  501    0 -0.00000000000E+00 -0.00000000000E+00 -0.43359331448E+03  0.43359331448E+03  0.00000000000E+00 0. -1.
          2    1    1    2  501    0 -0.19278462229E+02 -0.60494849660E+01 -0.17220816645E+02  0.26548293734E+02  0.00000000000E+00 0. -1.
          1    1    1    2  502    0  0.25835431164E+02  0.18855111501E+02 -0.38163148058E+03  0.38296941353E+03  0.00000000000E+00 0. -1.
         22    1    1    2    0    0 -0.17512923410E+02  0.24317432047E+02  0.12015172285E+03  0.12383245331E+03  0.00000000000E+00 0. -1.
         22    1    1    2    0    0  0.10955954476E+02 -0.37123058582E+02 -0.13981929731E+02  0.41153964280E+02  0.00000000000E+00 0.  1.
</event>
<event>
 6    1  0.1440982E-005  0.1982921E+03  0.7818608E-02  0.1184747E+00
          2   -1    0    0  502    0  0.00000000000E+00  0.00000000000E+00  0.75333191845E+03  0.75333191845E+03  0.00000000000E+00 0.  1.
          1   -1    0    0  501    0 -0.00000000000E+00 -0.00000000000E+00 -0.95214003492E+03  0.95214003492E+03  0.00000000000E+00 0. -1.
          2    1    1    2  501    0 -0.48910418618E+02 -0.85752055121E+02  0.17067408595E+03  0.19716817091E+03  0.00000000000E+00 0.  1.
          1    1    1    2  502    0  0.12887086271E+03  0.14259861170E+03 -0.91722607789E+03  0.93714766248E+03  0.00000000000E+00 0. -1.
         22    1    1    2    0    0  0.11786827372E+02 -0.58681901225E+02  0.12532060328E+03  0.13888033856E+03  0.00000000000E+00 0. -1.
         22    1    1    2    0    0 -0.91747271468E+02  0.18353446409E+01  0.42242327219E+03  0.43227578142E+03  0.00000000000E+00 0.  1.
</event>
<event>
 6    1  0.1293624E-005  0.1844289E+03  0.7818608E-02  0.1163584E+00
          2   -1    0    0  502    0  0.00000000000E+00  0.00000000000E+00  0.13062114318E+03  0.13062114318E+03  0.00000000000E+00 0.  1.
          1   -1    0    0  501    0 -0.00000000000E+00 -0.00000000000E+00 -0.27888820087E+03  0.27888820087E+03  0.00000000000E+00 0.  1.
          2    1    1    2  501    0  0.15334613867E+02  0.13422900938E+02 -0.19187387240E+02  0.27990721340E+02  0.00000000000E+00 0.  1.
          1    1    1    2  502    0  0.10624401379E+02 -0.92406739890E+02 -0.19777053863E+03  0.21855221214E+03  0.00000000000E+00 0.  1.
         22    1    1    2    0    0 -0.61772828629E+02  0.53341355491E+02  0.83241892592E+02  0.11657785058E+03  0.00000000000E+00 0.  1.
         22    1    1    2    0    0  0.35813813382E+02  0.25642483461E+02 -0.14551024415E+02  0.46388559997E+02  0.00000000000E+00 0. -1.
</event>
<event>
 6    1  0.1293624E-005  0.3183849E+03  0.7818608E-02  0.1076395E+00
          2   -1    0    0  502    0  0.00000000000E+00  0.00000000000E+00  0.10093487519E+04  0.10093487519E+04  0.00000000000E+00 0. -1.
          1   -1    0    0  501    0 -0.00000000000E+00 -0.00000000000E+00 -0.10707644188E+04  0.10707644188E+04  0.00000000000E+00 0. -1.
          2    1    1    2  501    0 -0.27883300358E+02  0.43788230582E+02  0.33830704786E+02  0.61962925711E+02  0.00000000000E+00 0. -1.
          1    1    1    2  502    0  0.13208587780E+01 -0.20906380771E+03 -0.10349413171E+04  0.10558470298E+04  0.00000000000E+00 0. -1.
         22    1    1    2    0    0  0.40964412451E+02  0.15931820929E+03  0.92887830100E+03  0.94333200569E+03  0.00000000000E+00 0. -1.
         22    1    1    2    0    0 -0.14401970870E+02  0.59573678430E+01  0.10816644442E+02  0.18971209596E+02  0.00000000000E+00 0. -1.
</event>
<event>
 6    1  0.1293624E-005  0.2068007E+03  0.7818608E-02  0.1144125E+00
          2   -1    0    0  502    0  0.00000000000E+00  0.00000000000E+00  0.64809153784E+03  0.64809153784E+03  0.00000000000E+00 0.  1.
          1   -1    0    0  501    0 -0.00000000000E+00 -0.00000000000E+00 -0.34580147646E+02  0.34580147646E+02  0.00000000000E+00 0.  1.
          2    1    1    2  501    0 -0.42879999361E+02 -0.62811952282E+02  0.24147239971E+03  0.25316586562E+03  0.00000000000E+00 0.  1.
          1    1    1    2  502    0  0.61914226164E+02  0.59487796691E+02  0.11973537625E+03  0.14733882612E+03  0.00000000000E+00 0.  1.
         22    1    1    2    0    0 -0.42774514154E+02  0.53688125388E+02  0.11393439833E+03  0.13301549155E+03  0.00000000000E+00 0.  1.
         22    1    1    2    0    0  0.23740287351E+02 -0.50363969798E+02  0.13836921591E+03  0.14915150220E+03  0.00000000000E+00 0.  1.
</event>
<event>
 6    1  0.1293624E-005  0.8758069E+02  0.7818608E-02  0.1312281E+00
          2   -1    0    0  502    0  0.00000000000E+00  0.00000000000E+00  0.33495752524E+02  0.33495752524E+02  0.00000000000E+00 0. -1.
          1   -1    0    0  501    0 -0.00000000000E+00 -0.00000000000E+00 -0.17158891887E+04  0.17158891887E+04  0.00000000000E+00 0.  1.
          2    1    1    2  501    0 -0.11600133086E+01 -0.32122629686E+02 -0.11703081265E+03  0.12136482224E+03  0.00000000000E+00 0. -1.
          1    1    1    2  502    0 -0.31493728775E+02 -0.23322608833E+02 -0.14379268779E+04  0.14384608111E+04  0.00000000000E+00 0.  1.
         22    1    1    2    0    0 -0.25255074454E+02 -0.16725921618E+02 -0.80071923939E+02  0.85610094282E+02  0.00000000000E+00 0. -1.
         22    1    1    2    0    0  0.57908816538E+02  0.72171160138E+02 -0.47363821656E+02  0.10394921351E+03  0.00000000000E+00 0. -1.
</event>
<event>
 6    1  0.1293624E-005  0.2205893E+03  0.7818608E-02  0.1133445E+00
          2   -1    0    0  502    0  0.00000000000E+00  0.00000000000E+00  0.27211062477E+03  0.27211062477E+03  0.00000000000E+00 0. -1.
          1   -1    0    0  501    0 -0.00000000000E+00 -0.00000000000E+00 -0.91444861875E+03  0.91444861875E+03  0.00000000000E+00 0.  1.
          2    1    1    2  501    0 -0.68846839118E+02  0.29326152211E+01  0.90771523864E+02  0.11396471837E+03  0.00000000000E+00 0. -1.
          1    1    1    2  502    0 -0.19680819116E+02 -0.79266356308E+01 -0.86959221863E+03  0.86985101764E+03  0.00000000000E+00 0.  1.
         22    1    1    2    0    0  0.92040841530E+02  0.36521943639E+02  0.50625047864E+02  0.11121269868E+03  0.00000000000E+00 0.  1.
         22    1    1    2    0    0 -0.35131832964E+01 -0.31527923229E+02  0.85857652922E+02  0.91530808831E+02  0.00000000000E+00 0. -1.
</event>
<event>
 6    1  0.1293624E-005  0.7615910E+02  0.7818608E-02  0.1345635E+00
          2   -1    0    0  502    0  0.00000000000E+00  0.00000000000E+00  0.26758400453E+03  0.26758400453E+03  0.00000000000E+00 0.  1.
          1   -1    0    0  501    0 -0.00000000000E+00 -0.00000000000E+00 -0.19651262232E+03  0.19651262232E+03  0.00000000000E+00 0. -1.
          2    1    1    2  501    0  0.50371518118E+02 -0.87466528868E+01  0.10540218951E+03  0.11714698173E+03  0.00000000000E+00 0.  1.
          1    1    1    2  502    0 -0.17999914788E+02 -0.41263833948E+02 -0.15429239911E+03  0.16072599462E+03  0.00000000000E+00 0. -1.
         22    1    1    2    0    0 -0.52388583749E+02  0.51540692998E+02  0.96760047799E+01  0.74125783709E+02  0.00000000000E+00 0.  1.
         22    1    1    2    0    0  0.20016980419E+02 -0.15302061638E+01  0.11028558702E+03  0.11209786679E+03  0.00000000000E+00 0. -1.
</event>
<event>
 6    1  0.1293624E-005  0.2210251E+03  0.7818608E-02  0.1133121E+00
          2   -1    0    0  502    0  0.00000000000E+00  0.00000000000E+00  0.26695569344E+03  0.26695569344E+03  0.00000000000E+00 0. -1.
          1   -1    0    0  501    0 -0.00000000000E+00 -0.00000000000E+00 -0.12549004985E+03  0.12549004985E+03  0.00000000000E+00 0. -1.
          2    1    1    2  501    0  0.22914557681E+02  0.81430888035E+02  0.49766226272E+01  0.84739797337E+02  0.00000000000E+00 0. -1.
          1    1    1    2  502    0 -0.48338038328E+02 -0.12978961369E+03  0.91040384055E+02  0.16574154971E+03  0.00000000000E+00 0. -1.
         22    1    1    2    0    0 -0.36733074539E+02 -0.93206342536E+01 -0.11754024422E+02  0.39678080574E+02  0.00000000000E+00 0. -1.
         22    1    1    2    0    0  0.62156555185E+02  0.57679359908E+02  0.57202661326E+02  0.10228631568E+03  0.00000000000E+00 0. -1.
</event>
<event>
 6    1  0.1293624E-005  0.2519443E+03  0.7818608E-02  0.1112082E+00
          2   -1    0    0  502    0  0.00000000000E+00  0.00000000000E+00  0.62027380352E+03  0.62027380352E+03  0.00000000000E+00 0.  1.
          1   -1    0    0  501    0 -0.00000000000E+00 -0.00000000000E+00 -0.73872780365E+02  0.73872780365E+02  0.00000000000E+00 0.  1.
          2    1    1    2  501    0 -0.27093731629E+02 -0.79550760776E+01  0.21613228869E+03  0.21796907979E+03  0.00000000000E+00 0.  1.
          1    1    1    2  502    0 -0.56514052083E+02  0.11886604894E+03  0.56447500466E+02  0.14321066993E+03  0.00000000000E+00 0.  1.
         22    1    1    2    0    0  0.10216696058E+03 -0.89417110831E+02  0.27260405472E+03  0.30454306459E+03  0.00000000000E+00 0.  1.
         22    1    1    2    0    0 -0.18559176869E+02 -0.21493862034E+02  0.12171792806E+01  0.28423769570E+02  0.00000000000E+00 0.  1.
</event>
<event>
 6    1  0.1293624E-005  0.1926666E+03  0.7818608E-02  0.1156078E+00
          2   -1    0    0  502    0  0.00000000000E+00  0.00000000000E+00  0.37919091643E+02  0.37919091643E+02  0.00000000000E+00 0. -1.
          1   -1    0    0  501    0 -0.00000000000E+00 -0.00000000000E+00 -0.66826782999E+03  0.66826782999E+03  0.00000000000E+00 0. -1.
          2    1    1    2  501    0  0.33561839501E+02  0.30608176339E+02 -0.46806886984E+02  0.65223785528E+02  0.00000000000E+00 0. -1.
          1    1    1    2  502    0 -0.36673034891E+02 -0.10641343426E+03 -0.33634137832E+03  0.35467485568E+03  0.00000000000E+00 0. -1.
         22    1    1    2    0    0 -0.51075454751E+02  0.66259562703E+02 -0.18625180726E+03  0.20417827366E+03  0.00000000000E+00 0. -1.
         22    1    1    2    0    0  0.54186650141E+02  0.95456952135E+01 -0.60948665775E+02  0.82110006762E+02  0.00000000000E+00 0.  1.
</event>
<event>
 6    1  0.1293624E-005  0.9335976E+02  0.7818608E-02  0.1296972E+00
          2   -1    0    0  502    0  0.00000000000E+00  0.00000000000E+00  0.34024688150E+02  0.34024688150E+02  0.00000000000E+00 0.  1.
          1   -1    0    0  501    0 -0.00000000000E+00 -0.00000000000E+00 -0.14072672941E+04  0.14072672941E+04  0.00000000000E+00 0.  1.
          2    1    1    2  501    0  0.23108951945E+02  0.78920072858E+02 -0.41311594077E+03  0.42122106082E+03  0.00000000000E+00 0.  1.
          1    1    1    2  502    0 -0.80509843380E+01 -0.19618199456E+02 -0.83740572146E+03  0.83767418155E+03  0.00000000000E+00 0.  1.
         22    1    1    2    0    0  0.13183713875E+02  0.23309157753E+02 -0.81619991918E+02  0.85900816221E+02  0.00000000000E+00 0.  1.
         22    1    1    2    0    0 -0.28241681482E+02 -0.82611031155E+02 -0.41100951779E+02  0.96495923637E+02  0.00000000000E+00 0.  1.
</event>
<event>
 6    1  0.1293624E-005  0.2351217E+03  0.7818608E-02  0.1123086E+00
          2   -1    0    0  502    0  0.00000000000E+00  0.00000000000E+00  0.59729662441E+03  0.59729662441E+03  0.00000000000E+00 0.  1.
          1   -1    0    0  501    0 -0.00000000000E+00 -0.00000000000E+00 -0.96352006930E+03  0.96352006930E+03  0.00000000000E+00 0. -1.
          2    1    1    2  501    0 -0.88493076179E+01  0.22266972657E+02  0.21624289593E+02  0.32275969653E+02  0.00000000000E+00 0.  1.
          1    1    1    2  502    0 -0.11630667222E+03 -0.12484972798E+03 -0.93233504811E+03  0.94782030919E+03  0.00000000000E+00 0. -1.
         22    1    1    2    0    0 -0.19945927195E+02  0.17783880979E+02  0.33788567093E+02  0.43078691955E+02  0.00000000000E+00 0.  1.
         22    1    1    2    0    0  0.14510190703E+03  0.84798874339E+02  0.51069874653E+03  0.53764172292E+03  0.00000000000E+00 0.  1.
</event>
<event>
 6    1  0.1293624E-005  0.2018378E+03  0.7818608E-02  0.1148198E+00
          2   -1    0    0  502    0  0.00000000000E+00  0.00000000000E+00  0.47130161718E+03  0.47130161718E+03  0.00000000000E+00 0.  1.
          1   -1    0    0  501    0 -0.00000000000E+00 -0.00000000000E+00 -0.11673980239E+03  0.11673980239E+03  0.00000000000E+00 0. -1.
          2    1    1    2  501    0  0.35165591947E+02 -0.25026105343E+02  0.77137095013E+02  0.88391494120E+02  0.00000000000E+00 0.  1.
          1    1    1    2  502    0  0.45355603884E+02 -0.26081248939E+02 -0.87574835734E+02  0.10201330405E+03  0.00000000000E+00 0. -1.
         22    1    1    2    0    0 -0.28284093758E+02 -0.40805688103E+02  0.86355656262E+02  0.99611211767E+02  0.00000000000E+00 0.  1.
         22    1    1    2    0    0 -0.52237102073E+02  0.91913042385E+02  0.27864389925E+03  0.29802540963E+03  0.00000000000E+00 0.  1.
</event>
<event>
 6    1  0.1293624E-005  0.7824370E+02  0.7818608E-02  0.1337576E+00
          2   -1    0    0  502    0  0.00000000000E+00  0.00000000000E+00  0.27219698551E+02  0.27219698551E+02  0.00000000000E+00 0.  1.
          1   -1    0    0  501    0 -0.00000000000E+00 -0.00000000000E+00 -0.16685929456E+04  0.16685929456E+04  0.00000000000E+00 0.  1.
          2    1    1    2  501    0  0.26719453198E+02  0.23047376702E+02 -0.21249863688E+02  0.41190623433E+02  0.00000000000E+00 0.  1.
          1    1    1    2  502    0 -0.31797387581E+02 -0.93511213102E+01 -0.14140697036E+04  0.14144580743E+04  0.00000000000E+00 0.  1.
         22    1    1    2    0    0 -0.74550830199E+01 -0.61678547491E+02 -0.16318571987E+03  0.17461214348E+03  0.00000000000E+00 0.  1.
         22    1    1    2    0    0  0.12533017403E+02  0.47982292099E+02 -0.42867959863E+02  0.65551802898E+02  0.00000000000E+00 0.  1.
</event>
<event>
 6    1  0.1293624E-005  0.1730025E+03  0.7818608E-02  0.1174752E+00
          2   -1    0    0  502    0  0.00000000000E+00  0.00000000000E+00  0.28279573622E+03  0.28279573622E+03  0.00000000000E+00 0. -1.
          1   -1    0    0  501    0 -0.00000000000E+00 -0.00000000000E+00 -0.13577313649E+03  0.13577313649E+03  0.00000000000E+00 0.  1.
          2    1    1    2  501    0 -0.17934695548E+02 -0.13020795835E+02  0.14788699013E+02  0.26643949539E+02  0.00000000000E+00 0. -1.
          1    1    1    2  502    0 -0.25717863994E+02 -0.44021020458E+02 -0.10276736421E+03  0.11471874266E+03  0.00000000000E+00 0.  1.
         22    1    1    2    0    0  0.43122182097E+02  0.84484585368E+02  0.23068002753E+03  0.24942021341E+03  0.00000000000E+00 0. -1.
         22    1    1    2    0    0  0.53037744486E+00 -0.27442769076E+02  0.43212374000E+01  0.27785967096E+02  0.00000000000E+00 0. -1.
</event>
<event>
 6    1  0.1293624E-005  0.2324705E+03  0.7818608E-02  0.1125603E+00
          2   -1    0    0  502    0  0.00000000000E+00  0.00000000000E+00  0.28890298545E+03  0.28890298545E+03  0.00000000000E+00 0.  1.
          1   -1    0    0  501    0 -0.00000000000E+00 -0.00000000000E+00 -0.40230471144E+03  0.40230471144E+03  0.00000000000E+00 0.  1.
          2    1    1    2  501    0  0.22245732043E+03 -0.25583399811E+02 -0.25156569816E+02  0.22533224972E+03  0.00000000000E+00 0.  1.
          1    1    1    2  502    0 -0.21326102242E+02 -0.20940439123E+02 -0.19719145084E+03  0.19944365849E+03  0.00000000000E+00 0.  1.
         22    1    1    2    0    0  0.18009011358E+02  0.88639194257E+01  0.36260251699E+01  0.20397098230E+02  0.00000000000E+00 0.  1.
         22    1    1    2    0    0 -0.21914022955E+03  0.37659919509E+02  0.10532026949E+03  0.24603469046E+03  0.00000000000E+00 0.  1.
</event>
<event>
 6    1  0.1293624E-005  0.4253794E+02  0.7818608E-02  0.1542721E+00
          2   -1    0    0  502    0  0.00000000000E+00  0.00000000000E+00  0.78163496023E+02  0.78163496023E+02  0.00000000000E+00 0. -1.
          1   -1    0    0  501    0 -0.00000000000E+00 -0.00000000000E+00 -0.54248220629E+03  0.54248220629E+03  0.00000000000E+00 0. -1.
          2    1    1    2  501    0 -0.15942548785E+02  0.33480243277E+02 -0.21210892468E+03  0.21532600280E+03  0.00000000000E+00 0. -1.
          1    1    1    2  502    0  0.26380114513E+02 -0.26402937219E+02 -0.27584686479E+03  0.27836041089E+03  0.00000000000E+00 0. -1.
         22    1    1    2    0    0 -0.58886607305E+01 -0.20193598873E+02  0.72849864336E+02  0.75825856371E+02  0.00000000000E+00 0. -1.
         22    1    1    2    0    0 -0.45489049975E+01  0.13116292815E+02 -0.49212785127E+02  0.51133432252E+02  0.00000000000E+00 0.  1.
</event>
<event>
 6    1  0.1293624E-005  0.8915799E+02  0.7818608E-02  0.1306267E+00
          2   -1    0    0  502    0  0.00000000000E+00  0.00000000000E+00  0.21894702147E+03  0.21894702147E+03  0.00000000000E+00 0.  1.
          1   -1    0    0  501    0 -0.00000000000E+00 -0.00000000000E+00 -0.52541190954E+03  0.52541190954E+03  0.00000000000E+00 0.  1.
          2    1    1    2  501    0  0.48149982953E+02 -0.16163493893E+02  0.34540536534E+02  0.61422537047E+02  0.00000000000E+00 0.  1.
          1    1    1    2  502    0 -0.65702488587E+01  0.33233616565E+02 -0.48717452879E+03  0.48835096288E+03  0.00000000000E+00 0.  1.
         22    1    1    2    0    0  0.42597916980E+02 -0.66416564352E+00  0.45303534395E+02  0.62188695723E+02  0.00000000000E+00 0. -1.
         22    1    1    2    0    0 -0.84177651075E+02 -0.16405957029E+02  0.10086556979E+03  0.13239673536E+03  0.00000000000E+00 0.  1.
</event>
<event>
 6    1  0.1293624E-005  0.4270116E+03  0.7818608E-02  0.1034808E+00
          2   -1    0    0  502    0  0.00000000000E+00  0.00000000000E+00  0.56626597172E+03  0.56626597172E+03  0.00000000000E+00 0. -1.
          1   -1    0    0  501    0 -0.00000000000E+00 -0.00000000000E+00 -0.38561833314E+03  0.38561833314E+03  0.00000000000E+00 0.  1.
          2    1    1    2  501    0  0.10254625578E+01 -0.24525809899E+02  0.29221984405E+02  0.38164005256E+02  0.00000000000E+00 0. -1.
          1    1    1    2  502    0 -0.37717252391E+03  0.76749659209E+02 -0.14868975972E+03  0.41262363920E+03  0.00000000000E+00 0.  1.
         22    1    1    2    0    0  0.43754593516E+00 -0.11288032800E+02  0.41848895888E+02  0.43346755565E+02  0.00000000000E+00 0.  1.
         22    1    1    2    0    0  0.37570951542E+03 -0.40935816510E+02  0.25826651802E+03  0.45774990484E+03  0.00000000000E+00 0. -1.
</event>
<event>
 6    1  0.1293624E-005  0.1826463E+03  0.7818608E-02  0.1165266E+00
          2   -1    0    0  502    0  0.00000000000E+00  0.00000000000E+00  0.10740820620E+03  0.10740820620E+03  0.00000000000E+00 0.  1.
          1   -1    0    0  501    0 -0.00000000000E+00 -0.00000000000E+00 -0.39116109466E+03  0.39116109466E+03  0.00000000000E+00 0.  1.
          2    1    1    2  501    0 -0.51789773270E+01 -0.27133404120E+02  0.30659264679E+02  0.41267831734E+02  0.00000000000E+00 0.  1.
          1    1    1    2  502    0 -0.53250330794E+02  0.49533193068E+02 -0.30604518064E+03  0.31456761997E+03  0.00000000000E+00 0.  1.
         22    1    1    2    0    0 -0.81151572682E+01 -0.12975559967E+02  0.50884582549E+02  0.53136255750E+02  0.00000000000E+00 0.  1.
         22    1    1    2    0    0  0.66544465389E+02 -0.94242289806E+01 -0.59251555053E+02  0.89597593394E+02  0.00000000000E+00 0.  1.
</event>
<event>
 6    1  0.1293624E-005  0.3732855E+03  0.7818608E-02  0.1053444E+00
          2   -1    0    0  502    0  0.00000000000E+00  0.00000000000E+00  0.17164674807E+03  0.17164674807E+03  0.00000000000E+00 0. -1.
          1   -1    0    0  501    0 -0.00000000000E+00 -0.00000000000E+00 -0.27361049583E+03  0.27361049583E+03  0.00000000000E+00 0. -1.
          2    1    1    2  501    0 -0.59264368888E+02 -0.15517769363E+03 -0.13102829050E+03  0.21156747134E+03  0.00000000000E+00 0. -1.
          1    1    1    2  502    0  0.35132437228E+02  0.24252764188E+02  0.26778856918E+02  0.50394363714E+02  0.00000000000E+00 0. -1.
         22    1    1    2    0    0 -0.34486783911E+02 -0.52916041342E+01 -0.19037002632E+01  0.34942286896E+02  0.00000000000E+00 0.  1.
         22    1    1    2    0    0  0.58618715572E+02  0.13621653358E+03  0.41893860789E+01  0.14835312194E+03  0.00000000000E+00 0. -1.
</event>
<event>
 6    1  0.1293624E-005  0.1218960E+03  0.7818608E-02  0.1243805E+00
          2   -1    0    0  502    0  0.00000000000E+00  0.00000000000E+00  0.32707554094E+02  0.32707554094E+02  0.00000000000E+00 0. -1.
          1   -1    0    0  501    0 -0.00000000000E+00 -0.00000000000E+00 -0.10583577064E+04  0.10583577064E+04  0.00000000000E+00 0. -1.
          2    1    1    2  501    0 -0.76830873577E+02  0.19991616276E+02 -0.19972372535E+03  0.21492374072E+03  0.00000000000E+00 0. -1.
          1    1    1    2  502    0  0.11164296652E+02  0.32876376940E+02 -0.61129282981E+03  0.61227805894E+03  0.00000000000E+00 0. -1.
         22    1    1    2    0    0  0.84681217039E+02 -0.82503247962E+02 -0.16273308631E+03  0.20114609572E+03  0.00000000000E+00 0. -1.
         22    1    1    2    0    0 -0.19014640114E+02  0.29635254745E+02 -0.51900510838E+02  0.62717365121E+02  0.00000000000E+00 0. -1.
</event>
<event>
 6    1  0.1293624E-005  0.5930390E+02  0.7818608E-02  0.1408690E+00
          2   -1    0    0  502    0  0.00000000000E+00  0.00000000000E+00  0.71118536753E+02  0.71118536753E+02  0.00000000000E+00 0. -1.
          1   -1    0    0  501    0 -0.00000000000E+00 -0.00000000000E+00 -0.70532441589E+03  0.70532441589E+03  0.00000000000E+00 0. -1.
          2    1    1    2  501    0  0.22591840477E+01  0.24922549236E+02  0.30959166947E+02  0.39808383427E+02  0.00000000000E+00 0. -1.
          1    1    1    2  502    0  0.16179546220E+01 -0.27058419526E+02 -0.58882176967E+03  0.58944537685E+03  0.00000000000E+00 0. -1.
         22    1    1    2    0    0  0.20779007456E+02 -0.23641853155E+02 -0.99700860337E+02  0.10455125979E+03  0.00000000000E+00 0. -1.
         22    1    1    2    0    0 -0.24656146126E+02  0.25777723444E+02  0.23357583927E+02  0.42637932580E+02  0.00000000000E+00 0. -1.
</event>
<event>
 6    1  0.1293624E-005  0.1927114E+03  0.7818608E-02  0.1156038E+00
          2   -1    0    0  502    0  0.00000000000E+00  0.00000000000E+00  0.13890240550E+03  0.13890240550E+03  0.00000000000E+00 0.  1.
          1   -1    0    0  501    0 -0.00000000000E+00 -0.00000000000E+00 -0.17872465407E+03  0.17872465407E+03  0.00000000000E+00 0.  1.
          2    1    1    2  501    0  0.77576359409E+01  0.30488504294E+02 -0.19273384725E+02  0.36894351440E+02  0.00000000000E+00 0.  1.
          1    1    1    2  502    0 -0.60203855122E+02  0.59043136107E+02  0.57176291589E+02  0.10188093253E+03  0.00000000000E+00 0.  1.
         22    1    1    2    0    0  0.23961930385E+02  0.28577711200E+02 -0.60271585547E+01  0.37778119666E+02  0.00000000000E+00 0. -1.
         22    1    1    2    0    0  0.28484288796E+02 -0.11810935160E+03 -0.71697996873E+02  0.14107365594E+03  0.00000000000E+00 0.  1.
</event>
<event>
 6    1  0.1293624E-005  0.7388266E+02  0.7818608E-02  0.1350848E+00
          2   -1    0    0  502    0  0.00000000000E+00  0.00000000000E+00  0.34159626866E+02  0.34159626866E+02  0.00000000000E+00 0. -1.
          1   -1    0    0  501    0 -0.00000000000E+00 -0.00000000000E+00 -0.58399242487E+03  0.58399242487E+03  0.00000000000E+00 0. -1.
          2    1    1    2  501    0 -0.28060956328E+02 -0.69305182597E+01 -0.52645064432E+02  0.60057906744E+02  0.00000000000E+00 0. -1.
          1    1    1    2  502    0 -0.85193223223E+01 -0.38440330228E+02 -0.36224247148E+03  0.36437596790E+03  0.00000000000E+00 0. -1.
         22    1    1    2    0    0  0.59052584158E+02  0.48991196867E+02 -0.23901614575E+02  0.80365616065E+02  0.00000000000E+00 0. -1.
         22    1    1    2    0    0 -0.22472305508E+02 -0.36203483791E+01 -0.11104364752E+03  0.11335256103E+03  0.00000000000E+00 0. -1.
</event>
<event>
 6    1  0.1293624E-005  0.1020077E+03  0.7818608E-02  0.1278173E+00
          2   -1    0    0  502    0  0.00000000000E+00  0.00000000000E+00  0.97231286804E+02  0.97231286804E+02  0.00000000000E+00 0. -1.
          1   -1    0    0  501    0 -0.00000000000E+00 -0.00000000000E+00 -0.10115586068E+04  0.10115586068E+04  0.00000000000E+00 0.  1.
          2    1    1    2  501    0  0.63027620533E+02 -0.11651896065E+02  0.27082203654E+02  0.69582277820E+02  0.00000000000E+00 0. -1.
          1    1    1    2  502    0 -0.40340000184E+02  0.18148854764E+02 -0.90096904884E+03  0.90205427969E+03  0.00000000000E+00 0.  1.
         22    1    1    2    0    0  0.52417553373E+02 -0.93475814304E+01 -0.33748692611E+01  0.53351353523E+02  0.00000000000E+00 0.  1.
         22    1    1    2    0    0 -0.75105173722E+02  0.28506227310E+01 -0.37065605570E+02  0.83801982590E+02  0.00000000000E+00 0.  1.
</event>
<event>
 6    1  0.1293624E-005  0.2964371E+03  0.7818608E-02  0.1087035E+00
          2   -1    0    0  502    0  0.00000000000E+00  0.00000000000E+00  0.41127264553E+03  0.41127264553E+03  0.00000000000E+00 0.  1.
          1   -1    0    0  501    0 -0.00000000000E+00 -0.00000000000E+00 -0.29536730388E+03  0.29536730388E+03  0.00000000000E+00 0.  1.
          2    1    1    2  501    0  0.45104867184E+02 -0.12018787312E+02  0.70980972198E+02  0.84954097643E+02  0.00000000000E+00 0.  1.
          1    1    1    2  502    0 -0.42662294086E+01 -0.20011299531E+03 -0.19332221679E+03  0.27827484814E+03  0.00000000000E+00 0.  1.
         22    1    1    2    0    0  0.14032915764E+02 -0.82917408143E+01  0.34982923847E+02  0.38593790323E+02  0.00000000000E+00 0. -1.
         22    1    1    2    0    0 -0.54871553540E+02  0.22042352343E+03  0.20326366240E+03  0.30481721330E+03  0.00000000000E+00 0.  1.
</event>
<event>
 6    1  0.1293624E-005  0.1059541E+03  0.7818608E-02  0.1334197E+00
          2   -1    0    0  502    0  0.00000000000E+00  0.00000000000E+00  0.25458121430E+03  0.25458121430E+03  0.00000000000E+00 0.  1.
          1   -1    0    0  501    0 -0.00000000000E+00 -0.00000000000E+00 -0.30470987070E+04  0.30470987070E+04  0.00000000000E+00 0.  1.
          2    1    1    2  501    0 -0.16182125020E+02 -0.22431888987E+02  0.13779650463E+02  0.30901934901E+02  0.00000000000E+00 0.  1.
          1    1    1    2  502    0  0.59736050861E+02  0.86015518132E+02 -0.30138092366E+04  0.30156281567E+04  0.00000000000E+00 0.  1.
         22    1    1    2    0    0 -0.57856228146E+02 -0.35560295629E+02  0.28927769836E+02  0.73815266905E+02  0.00000000000E+00 0.  1.
         22    1    1    2    0    0  0.14302302305E+02 -0.28023333515E+02  0.17858432351E+03  0.18133456283E+03  0.00000000000E+00 0.  1.
</event>
<event>
 6    1  0.1293624E-005  0.6118591E+02  0.7818608E-02  0.1396156E+00
          2   -1    0    0  502    0  0.00000000000E+00  0.00000000000E+00  0.25638343936E+03  0.25638343936E+03  0.00000000000E+00 0.  1.
          1   -1    0    0  501    0 -0.00000000000E+00 -0.00000000000E+00 -0.21642479420E+03  0.21642479420E+03  0.00000000000E+00 0. -1.
          2    1    1    2  501    0 -0.29578495927E+02  0.24136442739E+02  0.11110277853E+03  0.11747886060E+03  0.00000000000E+00 0.  1.
          1    1    1    2  502    0  0.32313660532E+02 -0.17433850529E+01 -0.18253003882E+03  0.18537644705E+03  0.00000000000E+00 0. -1.
         22    1    1    2    0    0 -0.13269633738E+02  0.19568776504E+02  0.12292371128E+03  0.12517691077E+03  0.00000000000E+00 0.  1.
         22    1    1    2    0    0  0.10534469133E+02 -0.41961834190E+02 -0.11537805838E+02  0.44776015143E+02  0.00000000000E+00 0.  1.
</event>
<event>
 6    1  0.1293624E-005  0.3451627E+03  0.7818608E-02  0.1064618E+00
          2   -1    0    0  502    0  0.00000000000E+00  0.00000000000E+00  0.29820593841E+03  0.29820593841E+03  0.00000000000E+00 0.  1.
          1   -1    0    0  501    0 -0.00000000000E+00 -0.00000000000E+00 -0.26003205961E+03  0.26003205961E+03  0.00000000000E+00 0. -1.
          2    1    1    2  501    0  0.70380766368E+02  0.16026430033E+02 -0.55089319038E+02  0.90802708144E+02  0.00000000000E+00 0.  1.
          1    1    1    2  502    0  0.47384474424E+02  0.41143598933E+01 -0.15538943198E+03  0.16250566742E+03  0.00000000000E+00 0. -1.
         22    1    1    2    0    0 -0.12836334515E+03 -0.37955304284E+02  0.25060037994E+03  0.28410966884E+03  0.00000000000E+00 0.  1.
         22    1    1    2    0    0  0.10598104359E+02  0.17814514358E+02 -0.19477501252E+01  0.20819953611E+02  0.00000000000E+00 0.  1.
</event>
<event>
 6    1  0.1293624E-005  0.1046057E+03  0.7818608E-02  0.1349996E+00
          2   -1    0    0  502    0  0.00000000000E+00  0.00000000000E+00  0.19318001211E+03  0.19318001211E+03  0.00000000000E+00 0. -1.
          1   -1    0    0  501    0 -0.00000000000E+00 -0.00000000000E+00 -0.16170901765E+03  0.16170901765E+03  0.00000000000E+00 0. -1.
          2    1    1    2  501    0 -0.82652381550E+02  0.17295574900E+01 -0.13408092563E+02  0.83750728302E+02  0.00000000000E+00 0. -1.
          1    1    1    2  502    0  0.92788697600E+02  0.12399550813E+02 -0.55521016936E+02  0.10883967376E+03  0.00000000000E+00 0. -1.
         22    1    1    2    0    0 -0.33651495174E+02 -0.59797633000E+01 -0.19833424447E+02  0.39516394343E+02  0.00000000000E+00 0. -1.
         22    1    1    2    0    0  0.23515179124E+02 -0.81493450032E+01  0.12023352840E+03  0.12278223335E+03  0.00000000000E+00 0. -1.
</event>
<event>
 6    1  0.1293624E-005  0.2222622E+03  0.7818608E-02  0.1132208E+00
          2   -1    0    0  502    0  0.00000000000E+00  0.00000000000E+00  0.35680400560E+03  0.35680400560E+03  0.00000000000E+00 0.  1.
          1   -1    0    0  501    0 -0.00000000000E+00 -0.00000000000E+00 -0.17573881281E+04  0.17573881281E+04  0.00000000000E+00 0. -1.
          2    1    1    2  501    0  0.38162181911E+02  0.15176675618E+02  0.58933641429E+01  0.41489942781E+02  0.00000000000E+00 0.  1.
          1    1    1    2  502    0  0.28927078360E+02  0.16928447612E+02 -0.17225961257E+04  0.17229221574E+04  0.00000000000E+00 0. -1.
         22    1    1    2    0    0 -0.71057989632E+02 -0.63290817965E+02  0.29943218914E+03  0.31418879901E+03  0.00000000000E+00 0.  1.
         22    1    1    2    0    0  0.39687293602E+01  0.31185694734E+02  0.16686449866E+02  0.35591234566E+02  0.00000000000E+00 0.  1.
</event>
<event>
 6    1  0.1293624E-005  0.2000340E+03  0.7818608E-02  0.1149710E+00
          2   -1    0    0  502    0  0.00000000000E+00  0.00000000000E+00  0.14348307726E+03  0.14348307726E+03  0.00000000000E+00 0.  1.
          1   -1    0    0  501    0 -0.00000000000E+00 -0.00000000000E+00 -0.38545144038E+03  0.38545144038E+03  0.00000000000E+00 0.  1.
          2    1    1    2  501    0 -0.45186970404E+02  0.30810792253E+01  0.14775780978E+02  0.47641148674E+02  0.00000000000E+00 0.  1.
          1    1    1    2  502    0  0.43147182851E+02 -0.95016510957E+02 -0.30245839565E+03  0.31995452465E+03  0.00000000000E+00 0.  1.
         22    1    1    2    0    0 -0.41090223373E+02  0.13569201461E+01 -0.15359591438E+02  0.43888093354E+02  0.00000000000E+00 0.  1.
         22    1    1    2    0    0  0.43130010925E+02  0.90578511586E+02  0.61073843000E+02  0.11745075096E+03  0.00000000000E+00 0.  1.
</event>
<event>
 6    1  0.1293624E-005  0.9663264E+02  0.7818608E-02  0.1288106E+00
          2   -1    0    0  502    0  0.00000000000E+00  0.00000000000E+00  0.61442080987E+02  0.61442080987E+02  0.00000000000E+00 0.  1.
          1   -1    0    0  501    0 -0.00000000000E+00 -0.00000000000E+00 -0.19682042845E+04  0.19682042845E+04  0.00000000000E+00 0.  1.
          2    1    1    2  501    0  0.51509491878E+02  0.17237401736E+02 -0.25133886474E+03  0.25714116881E+03  0.00000000000E+00 0.  1.
          1    1    1    2  502    0  0.31642552503E+02 -0.22263448036E+02 -0.16136548501E+04  0.16141186101E+04  0.00000000000E+00 0.  1.
         22    1    1    2    0    0 -0.99441011457E+02  0.57278428163E+01  0.13725535507E+02  0.10054706991E+03  0.00000000000E+00 0.  1.
         22    1    1    2    0    0  0.16288967075E+02 -0.70179651623E+00 -0.55494024205E+02  0.57839516675E+02  0.00000000000E+00 0.  1.
</event>
<event>
 6    1  0.1293624E-005  0.2509640E+03  0.7818608E-02  0.1112697E+00
          2   -1    0    0  502    0  0.00000000000E+00  0.00000000000E+00  0.21084047814E+03  0.21084047814E+03  0.00000000000E+00 0. -1.
          1   -1    0    0  501    0 -0.00000000000E+00 -0.00000000000E+00 -0.57030827050E+03  0.57030827050E+03  0.00000000000E+00 0.  1.
          2    1    1    2  501    0  0.61918736754E+02  0.13951480426E+02 -0.23781790256E+02  0.67780139532E+02  0.00000000000E+00 0. -1.
          1    1    1    2  502    0 -0.37733429441E+01  0.40553306777E+02 -0.49449254805E+03  0.49616699698E+03  0.00000000000E+00 0.  1.
         22    1    1    2    0    0 -0.85111827325E+02 -0.15060638614E+02  0.14259388359E+03  0.16674489984E+03  0.00000000000E+00 0. -1.
         22    1    1    2    0    0  0.26966433515E+02 -0.39444148589E+02  0.16212662359E+02  0.50456712291E+02  0.00000000000E+00 0. -1.
</event>
<event>
 6    1  0.1293624E-005  0.4121361E+03  0.7818608E-02  0.1039657E+00
          2   -1    0    0  502    0  0.00000000000E+00  0.00000000000E+00  0.94167557425E+02  0.94167557425E+02  0.00000000000E+00 0.  1.
          1   -1    0    0  501    0 -0.00000000000E+00 -0.00000000000E+00 -0.53866615237E+03  0.53866615237E+03  0.00000000000E+00 0.  1.
          2    1    1    2  501    0  0.10782088229E+03 -0.89853298395E+02 -0.35865168030E+03  0.38513632089E+03  0.00000000000E+00 0.  1.
          1    1    1    2  502    0  0.27194844770E+02  0.25606629760E+02 -0.26302900862E+02  0.45684807797E+02  0.00000000000E+00 0.  1.
         22    1    1    2    0    0 -0.13804561667E+03  0.30350065162E+02 -0.97214814078E+01  0.14167648336E+03  0.00000000000E+00 0.  1.
         22    1    1    2    0    0  0.30298896084E+01  0.33896603473E+02 -0.49822532372E+02  0.60336097736E+02  0.00000000000E+00 0.  1.
</event>
<event>
 6    1  0.1293624E-005  0.3618356E+03  0.7818608E-02  0.1057859E+00
          2   -1    0    0  502    0  0.00000000000E+00  0.00000000000E+00  0.73119615071E+03  0.73119615071E+03  0.00000000000E+00 0. -1.
          1   -1    0    0  501    0 -0.00000000000E+00 -0.00000000000E+00 -0.22334523721E+03  0.22334523721E+03  0.00000000000E+00 0. -1.
          2    1    1    2  501    0  0.58407010311E+02 -0.10018580458E+03  0.77135930715E+02  0.13927859168E+03  0.00000000000E+00 0. -1.
          1    1    1    2  502    0  0.27667039870E+02 -0.24407768152E+01 -0.17743469069E+03  0.17959535614E+03  0.00000000000E+00 0. -1.
         22    1    1    2    0    0 -0.79733569131E+02  0.11598115428E+03  0.60418509459E+03  0.62036174827E+03  0.00000000000E+00 0. -1.
         22    1    1    2    0    0 -0.63404810504E+01 -0.13354572889E+02  0.39645788812E+01  0.15305691840E+02  0.00000000000E+00 0. -1.
</event>
<event>
 6    1  0.1293624E-005  0.2668710E+03  0.7818608E-02  0.1103084E+00
          2   -1    0    0  502    0  0.00000000000E+00  0.00000000000E+00  0.84732379703E+02  0.84732379703E+02  0.00000000000E+00 0. -1.
          1   -1    0    0  501    0 -0.00000000000E+00 -0.00000000000E+00 -0.35213765027E+03  0.35213765027E+03  0.00000000000E+00 0. -1.
          2    1    1    2  501    0  0.18294297839E+02 -0.86053588758E+02 -0.74642686204E+02  0.11537517963E+03  0.00000000000E+00 0. -1.
          1    1    1    2  502    0 -0.26731282993E+02 -0.29875152517E+02 -0.13132421577E+03  0.13730672189E+03  0.00000000000E+00 0. -1.
         22    1    1    2    0    0 -0.33519922923E+02  0.11386903338E+03 -0.74565249338E+02  0.14017745327E+03  0.00000000000E+00 0. -1.
         22    1    1    2    0    0  0.41956908078E+02  0.20597078954E+01  0.13126880745E+02  0.44010675184E+02  0.00000000000E+00 0. -1.
</event>
<event>
 6    1  0.1293624E-005  0.3848729E+03  0.7818608E-02  0.1049147E+00
          2   -1    0    0  502    0  0.00000000000E+00  0.00000000000E+00  0.34862299602E+03  0.34862299602E+03  0.00000000000E+00 0.  1.
          1   -1    0    0  501    0 -0.00000000000E+00 -0.00000000000E+00 -0.34698883145E+03  0.34698883145E+03  0.00000000000E+00 0.  1.
          2    1    1    2  501    0  0.37306987176E+01  0.19485119676E+03 -0.39397741751E+02  0.19882929625E+03  0.00000000000E+00 0.  1.
          1    1    1    2  502    0 -0.25761069497E+02 -0.30177571220E+03 -0.51064375103E+02  0.30714782040E+03  0.00000000000E+00 0.  1.
         22    1    1    2    0    0  0.23212648821E+02  0.12310606963E+03  0.10910692116E+03  0.16612721538E+03  0.00000000000E+00 0.  1.
         22    1    1    2    0    0 -0.11822780410E+01 -0.16181554192E+02 -0.17010639731E+02  0.23507495433E+02  0.00000000000E+00 0. -1.
</event>
<event>
 6    1  0.1293624E-005  0.1626787E+03  0.7818608E-02  0.1186909E+00
          2   -1    0    0  502    0  0.00000000000E+00  0.00000000000E+00  0.34960722888E+03  0.34960722888E+03  0.00000000000E+00 0.  1.
          1   -1    0    0  501    0 -0.00000000000E+00 -0.00000000000E+00 -0.17734928155E+04  0.17734928155E+04  0.00000000000E+00 0.  1.
          2    1    1    2  501    0  0.12223279426E+03  0.86733882192E+02  0.10388169578E+03  0.18235961459E+03  0.00000000000E+00 0.  1.
          1    1    1    2  502    0  0.16590112902E+02 -0.74646129315E+02 -0.16920750869E+04  0.16938020475E+04  0.00000000000E+00 0.  1.
         22    1    1    2    0    0 -0.15825350282E+03 -0.15869006085E+02  0.16197486394E+03  0.22700628418E+03  0.00000000000E+00 0.  1.
         22    1    1    2    0    0  0.19430595655E+02  0.37812532088E+01  0.23329405441E+01  0.19932098106E+02  0.00000000000E+00 0. -1.
</event>
<event>
 6    1  0.1293624E-005  0.2864140E+03  0.7818608E-02  0.1092236E+00
          2   -1    0    0  502    0  0.00000000000E+00  0.00000000000E+00  0.95229341883E+03  0.95229341883E+03  0.00000000000E+00 0.  1.
          1   -1    0    0  501    0 -0.00000000000E+00 -0.00000000000E+00 -0.10829712525E+03  0.10829712525E+03  0.00000000000E+00 0.  1.
          2    1    1    2  501    0  0.54557572586E+01  0.29746623588E+02  0.50853395467E+01  0.30667369963E+02  0.00000000000E+00 0.  1.
          1    1    1    2  502    0  0.20959180116E+03 -0.93767402867E+02  0.70651494218E+03  0.74288923298E+03  0.00000000000E+00 0.  1.
         22    1    1    2    0    0 -0.11489884905E+02  0.49057676168E+02  0.21924625640E+02  0.54948723876E+02  0.00000000000E+00 0.  1.
         22    1    1    2    0    0 -0.20355767351E+03  0.14963103110E+02  0.11047138621E+03  0.23208521726E+03  0.00000000000E+00 0.  1.
</event>
<event>
 6    1  0.1293624E-005  0.1851132E+03  0.7818608E-02  0.1162944E+00
          2   -1    0    0  502    0  0.00000000000E+00  0.00000000000E+00  0.75452197870E+02  0.75452197870E+02  0.00000000000E+00 0. -1.
          1   -1    0    0  501    0 -0.00000000000E+00 -0.00000000000E+00 -0.36974087668E+03  0.36974087668E+03  0.00000000000E+00 0. -1.
          2    1    1    2  501    0 -0.39688914374E+02 -0.27340118065E+02  0.33476215504E+01  0.48310439349E+02  0.00000000000E+00 0. -1.
          1    1    1    2  502    0 -0.14649585930E+02  0.14243014698E+02 -0.25517632909E+03  0.25599303265E+03  0.00000000000E+00 0. -1.
         22    1    1    2    0    0 -0.11176951935E+02  0.77683746643E+01  0.36027533917E+02  0.38513051029E+02  0.00000000000E+00 0.  1.
         22    1    1    2    0    0  0.65515452238E+02  0.53287287026E+01 -0.78487505182E+02  0.10237655152E+03  0.00000000000E+00 0. -1.
</event>
<event>
 6    1  0.1293624E-005  0.8502445E+02  0.7818608E-02  0.1318097E+00
          2   -1    0    0  502    0  0.00000000000E+00  0.00000000000E+00  0.16124409386E+03  0.16124409386E+03  0.00000000000E+00 0.  1.
          1   -1    0    0  501    0 -0.00000000000E+00 -0.00000000000E+00 -0.79536876887E+02  0.79536876887E+02  0.00000000000E+00 0. -1.
          2    1    1    2  501    0  0.78730828274E+00  0.32522874395E+02  0.17516924828E+02  0.36948611188E+02  0.00000000000E+00 0.  1.
          1    1    1    2  502    0  0.28429237883E+02  0.11608526372E+02 -0.23321496185E+02  0.38559974526E+02  0.00000000000E+00 0. -1.
         22    1    1    2    0    0 -0.45198903829E+02 -0.77689618178E+02  0.91042957221E+02  0.12793528731E+03  0.00000000000E+00 0.  1.
         22    1    1    2    0    0  0.15982357664E+02  0.33558217410E+02 -0.35311688953E+01  0.37337097718E+02  0.00000000000E+00 0. -1.
</event>
<event>
 6    1  0.1293624E-005  0.1806917E+03  0.7818608E-02  0.1167135E+00
          2   -1    0    0  502    0  0.00000000000E+00  0.00000000000E+00  0.20017848745E+03  0.20017848745E+03  0.00000000000E+00 0. -1.
          1   -1    0    0  501    0 -0.00000000000E+00 -0.00000000000E+00 -0.18443107262E+03  0.18443107262E+03  0.00000000000E+00 0.  1.
          2    1    1    2  501    0  0.20947417265E+02  0.20762087509E+02 -0.73394004667E+01  0.30392850591E+02  0.00000000000E+00 0. -1.
          1    1    1    2  502    0  0.77894506022E+01 -0.26482589295E+02 -0.14205455612E+03  0.14471178249E+03  0.00000000000E+00 0.  1.
         22    1    1    2    0    0  0.19328900494E+02  0.18543996088E+02  0.15679029574E+03  0.15906188426E+03  0.00000000000E+00 0. -1.
         22    1    1    2    0    0 -0.48065768361E+02 -0.12823494303E+02  0.83510756728E+01  0.50443042723E+02  0.00000000000E+00 0. -1.
</event>
<event>
 6    1  0.1293624E-005  0.2605969E+03  0.7818608E-02  0.1106785E+00
          2   -1    0    0  502    0  0.00000000000E+00  0.00000000000E+00  0.22930842417E+03  0.22930842417E+03  0.00000000000E+00 0.  1.
          1   -1    0    0  501    0 -0.00000000000E+00 -0.00000000000E+00 -0.16619085762E+03  0.16619085762E+03  0.00000000000E+00 0.  1.
          2    1    1    2  501    0  0.22394279413E+02 -0.85304520899E+02  0.87583835052E+02  0.12429518574E+03  0.00000000000E+00 0.  1.
          1    1    1    2  502    0  0.19315589233E+02 -0.18432885894E+02 -0.89570754697E+02  0.93465412677E+02  0.00000000000E+00 0.  1.
         22    1    1    2    0    0 -0.24327422119E+02 -0.25301108578E+02  0.16135880657E+02  0.38630767619E+02  0.00000000000E+00 0. -1.
         22    1    1    2    0    0 -0.17382446527E+02  0.12903851537E+03  0.48968605545E+02  0.13910791575E+03  0.00000000000E+00 0.  1.
</event>
<event>
 6    1  0.1293624E-005  0.1945426E+03  0.7818608E-02  0.1154427E+00
          2   -1    0    0  502    0  0.00000000000E+00  0.00000000000E+00  0.17600043253E+03  0.17600043253E+03  0.00000000000E+00 0. -1.
          1   -1    0    0  501    0 -0.00000000000E+00 -0.00000000000E+00 -0.13098992742E+03  0.13098992742E+03  0.00000000000E+00 0. -1.
          2    1    1    2  501    0 -0.15538769228E+02  0.39661514437E+02  0.90376865807E+01  0.43545021016E+02  0.00000000000E+00 0. -1.
          1    1    1    2  502    0  0.44803090028E+02  0.40894721949E+02 -0.60503570069E+02  0.85676001018E+02  0.00000000000E+00 0. -1.
         22    1    1    2    0    0 -0.23208758191E+01  0.19946480085E+02  0.66529342087E+02  0.69493898228E+02  0.00000000000E+00 0. -1.
         22    1    1    2    0    0 -0.26943444981E+02 -0.10050271647E+03  0.29947046516E+02  0.10827543969E+03  0.00000000000E+00 0. -1.
</event>
<event>
 6    1  0.1293624E-005  0.1544866E+03  0.7818608E-02  0.1195066E+00
          2   -1    0    0  502    0  0.00000000000E+00  0.00000000000E+00  0.71505317552E+02  0.71505317552E+02  0.00000000000E+00 0. -1.
          1   -1    0    0  501    0 -0.00000000000E+00 -0.00000000000E+00 -0.10912659107E+03  0.10912659107E+03  0.00000000000E+00 0.  1.
          2    1    1    2  501    0 -0.22878974211E+02 -0.28581076596E+00  0.56645127598E+01  0.23571505118E+02  0.00000000000E+00 0. -1.
          1    1    1    2  502    0  0.17344676455E+02  0.13471882864E+02 -0.77118510953E+01  0.23276642295E+02  0.00000000000E+00 0.  1.
         22    1    1    2    0    0 -0.61591189837E+01 -0.54596217740E+02 -0.62349903030E+02  0.83103502609E+02  0.00000000000E+00 0.  1.
         22    1    1    2    0    0  0.11693416740E+02  0.41410145642E+02  0.26775967850E+02  0.50680258597E+02  0.00000000000E+00 0. -1.
</event>
<event>
 6    1  0.1293624E-005  0.6822512E+02  0.7818608E-02  0.1367120E+00
          2   -1    0    0  502    0  0.00000000000E+00  0.00000000000E+00  0.26508611665E+03  0.26508611665E+03  0.00000000000E+00 0.  1.
          1   -1    0    0  501    0 -0.00000000000E+00 -0.00000000000E+00 -0.22037533050E+03  0.22037533050E+03  0.00000000000E+00 0.  1.
          2    1    1    2  501    0 -0.14737456885E+02 -0.25294207645E+02 -0.36545081980E+02  0.46824487107E+02  0.00000000000E+00 0.  1.
          1    1    1    2  502    0  0.15959208311E+02 -0.30128931733E+02 -0.15936607050E+03  0.16297236969E+03  0.00000000000E+00 0.  1.
         22    1    1    2    0    0  0.50103668341E+01  0.69357875691E+02  0.24880828447E+03  0.25834314606E+03  0.00000000000E+00 0.  1.
         22    1    1    2    0    0 -0.62321182595E+01 -0.13934736313E+02 -0.81863458403E+01  0.17321444291E+02  0.00000000000E+00 0.  1.
</event>
<event>
 6    1  0.1293624E-005  0.2284554E+03  0.7818608E-02  0.1127732E+00
          2   -1    0    0  502    0  0.00000000000E+00  0.00000000000E+00  0.55325646507E+03  0.55325646507E+03  0.00000000000E+00 0.  1.
          1   -1    0    0  501    0 -0.00000000000E+00 -0.00000000000E+00 -0.30922706149E+02  0.30922706149E+02  0.00000000000E+00 0.  1.
          2    1    1    2  501    0 -0.12210129719E+02  0.69645168547E+02  0.83250527128E+02  0.10922539557E+03  0.00000000000E+00 0.  1.
          1    1    1    2  502    0 -0.24829333181E+02 -0.57931086881E+01  0.20236369943E+02  0.32550984055E+02  0.00000000000E+00 0.  1.
         22    1    1    2    0    0  0.60763972802E+02 -0.75470982686E+02  0.39534360256E+03  0.40704384740E+03  0.00000000000E+00 0.  1.
         22    1    1    2    0    0 -0.23724509902E+02  0.11618922827E+02  0.23503259291E+02  0.35358944202E+02  0.00000000000E+00 0.  1.
</event>
<event>
 6    1  0.1293624E-005  0.3273447E+03  0.7818608E-02  0.1072318E+00
          2   -1    0    0  502    0  0.00000000000E+00  0.00000000000E+00  0.16042217769E+03  0.16042217769E+03  0.00000000000E+00 0.  1.
          1   -1    0    0  501    0 -0.00000000000E+00 -0.00000000000E+00 -0.18569827628E+04  0.18569827628E+04  0.00000000000E+00 0. -1.
          2    1    1    2  501    0  0.70879883448E+01  0.45460668462E+02 -0.13325797399E+03  0.14097730167E+03  0.00000000000E+00 0.  1.
          1    1    1    2  502    0 -0.33835744120E+02  0.38383873285E+01 -0.16896440454E+04  0.16899871570E+04  0.00000000000E+00 0. -1.
         22    1    1    2    0    0  0.36702552959E+02  0.84276134392E+01  0.12202429033E+03  0.12770289540E+03  0.00000000000E+00 0.  1.
         22    1    1    2    0    0 -0.99547971845E+01 -0.57726669230E+02  0.43171439037E+01  0.58737586423E+02  0.00000000000E+00 0.  1.
</event>
<event>
 6    1  0.1293624E-005  0.7821919E+02  0.7818608E-02  0.1335090E+00
          2   -1    0    0  502    0  0.00000000000E+00  0.00000000000E+00  0.10187009546E+03  0.10187009546E+03  0.00000000000E+00 0.  1.
          1   -1    0    0  501    0 -0.00000000000E+00 -0.00000000000E+00 -0.93705704154E+03  0.93705704154E+03  0.00000000000E+00 0. -1.
          2    1    1    2  501    0  0.24849601710E+02 -0.47243319789E+01 -0.42056858664E+02  0.49077503792E+02  0.00000000000E+00 0.  1.
          1    1    1    2  502    0  0.40675581623E+02  0.14849409573E+02 -0.83950529646E+03  0.84062128851E+03  0.00000000000E+00 0. -1.
         22    1    1    2    0    0 -0.83517553935E+02 -0.18389289964E+02  0.75455414927E+02  0.11404765426E+03  0.00000000000E+00 0.  1.
         22    1    1    2    0    0  0.17992370602E+02  0.82642123704E+01 -0.29080205872E+02  0.35180690435E+02  0.00000000000E+00 0.  1.
</event>
<event>
 6    1  0.1293624E-005  0.9078293E+02  0.7818608E-02  0.1304681E+00
          2   -1    0    0  502    0  0.00000000000E+00  0.00000000000E+00  0.20228256230E+02  0.20228256230E+02  0.00000000000E+00 0. -1.
          1   -1    0    0  501    0 -0.00000000000E+00 -0.00000000000E+00 -0.74124048974E+03  0.74124048974E+03  0.00000000000E+00 0. -1.
          2    1    1    2  501    0  0.49679942718E+02  0.55377408185E+01 -0.26492627197E+03  0.26960098824E+03  0.00000000000E+00 0. -1.
          1    1    1    2  502    0 -0.34865732462E+02  0.13835751447E+02 -0.37206372424E+02  0.52833336703E+02  0.00000000000E+00 0. -1.
         22    1    1    2    0    0  0.46409329929E+02  0.27820683723E+02 -0.18025866357E+03  0.18820468150E+03  0.00000000000E+00 0.  1.
         22    1    1    2    0    0 -0.61223540184E+02 -0.47194175989E+02 -0.23862092555E+03  0.25082973953E+03  0.00000000000E+00 0. -1.
</event>
<event>
 6    1  0.1293624E-005  0.2517278E+03  0.7818608E-02  0.1112218E+00
          2   -1    0    0  502    0  0.00000000000E+00  0.00000000000E+00  0.66417244920E+03  0.66417244920E+03  0.00000000000E+00 0.  1.
          1   -1    0    0  501    0 -0.00000000000E+00 -0.00000000000E+00 -0.20965338539E+03  0.20965338539E+03  0.00000000000E+00 0. -1.
          2    1    1    2  501    0 -0.99861512116E+02  0.43882372425E+02  0.17987716806E+03  0.21036582375E+03  0.00000000000E+00 0.  1.
          1    1    1    2  502    0  0.12192838306E+03 -0.29379997008E+01 -0.16496205319E+03  0.20515272709E+03  0.00000000000E+00 0. -1.
         22    1    1    2    0    0 -0.30514524656E+02 -0.65921502064E+02  0.41787126275E+03  0.42413815306E+03  0.00000000000E+00 0.  1.
         22    1    1    2    0    0  0.84476537132E+01  0.24977129340E+02  0.21732686184E+02  0.34169130690E+02  0.00000000000E+00 0.  1.
</event>
<event>
 6    1  0.1293624E-005  0.3561114E+03  0.7818608E-02  0.1060134E+00
          2   -1    0    0  502    0  0.00000000000E+00  0.00000000000E+00  0.47342805594E+03  0.47342805594E+03  0.00000000000E+00 0.  1.
          1   -1    0    0  501    0 -0.00000000000E+00 -0.00000000000E+00 -0.35594223919E+03  0.35594223919E+03  0.00000000000E+00 0.  1.
          2    1    1    2  501    0 -0.11114662030E+03 -0.66063243926E+02  0.53562399221E+02  0.13995304217E+03  0.00000000000E+00 0.  1.
          1    1    1    2  502    0  0.97461352427E+01 -0.34707043508E+02 -0.28769129478E+03  0.28994110974E+03  0.00000000000E+00 0.  1.
         22    1    1    2    0    0 -0.17962713927E+00 -0.13337095935E+02 -0.27181500562E+01  0.13612447745E+02  0.00000000000E+00 0.  1.
         22    1    1    2    0    0  0.10158011220E+03  0.11410738337E+03  0.35433286236E+03  0.38586369547E+03  0.00000000000E+00 0.  1.
</event>
<event>
 6    1  0.1293624E-005  0.8156466E+02  0.7818608E-02  0.1360092E+00
          2   -1    0    0  502    0  0.00000000000E+00  0.00000000000E+00  0.36486930672E+02  0.36486930672E+02  0.00000000000E+00 0. -1.
          1   -1    0    0  501    0 -0.00000000000E+00 -0.00000000000E+00 -0.15265309329E+04  0.15265309329E+04  0.00000000000E+00 0.  1.
          2    1    1    2  501    0 -0.26398331690E+02 -0.80344807439E+01 -0.17407539604E+02  0.32625867527E+02  0.00000000000E+00 0. -1.
          1    1    1    2  502    0  0.54914765390E+02 -0.47012270730E+02 -0.13346215654E+04  0.13365779094E+04  0.00000000000E+00 0.  1.
         22    1    1    2    0    0 -0.69514302865E+02  0.38401597185E+02 -0.46158948538E+02  0.91856243659E+02  0.00000000000E+00 0.  1.
         22    1    1    2    0    0  0.40997869164E+02  0.16645154289E+02 -0.91855948658E+02  0.10195784296E+03  0.00000000000E+00 0. -1.
</event>
<event>
 6    1  0.1293624E-005  0.7567321E+02  0.7818608E-02  0.1343162E+00
          2   -1    0    0  502    0  0.00000000000E+00  0.00000000000E+00  0.41332380577E+02  0.41332380577E+02  0.00000000000E+00 0.  1.
          1   -1    0    0  501    0 -0.00000000000E+00 -0.00000000000E+00 -0.64702051836E+03  0.64702051836E+03  0.00000000000E+00 0.  1.
          2    1    1    2  501    0  0.32655567061E+02 -0.61671364471E+01 -0.16340603904E+02  0.37032890354E+02  0.00000000000E+00 0.  1.
          1    1    1    2  502    0  0.67224655460E+01  0.24507751908E+02 -0.47169095665E+03  0.47237504172E+03  0.00000000000E+00 0.  1.
         22    1    1    2    0    0 -0.78630635349E+02 -0.21932795258E+02 -0.11278644591E+03  0.13922861310E+03  0.00000000000E+00 0.  1.
         22    1    1    2    0    0  0.39252602742E+02  0.35921797973E+01 -0.48701313107E+01  0.39716353769E+02  0.00000000000E+00 0.  1.
</event>
<event>
 6    1  0.1293624E-005  0.1370528E+03  0.7818608E-02  0.1269141E+00
          2   -1    0    0  502    0  0.00000000000E+00  0.00000000000E+00  0.84756818270E+02  0.84756818270E+02  0.00000000000E+00 0. -1.
          1   -1    0    0  501    0 -0.00000000000E+00 -0.00000000000E+00 -0.74463347329E+03  0.74463347329E+03  0.00000000000E+00 0. -1.
          2    1    1    2  501    0 -0.59600314464E+02  0.32141487545E+02 -0.11539625126E+03  0.13379673954E+03  0.00000000000E+00 0. -1.
          1    1    1    2  502    0  0.12045583988E+03 -0.30172059755E+02 -0.54025917364E+03  0.55434640546E+03  0.00000000000E+00 0. -1.
         22    1    1    2    0    0 -0.53510596565E+02  0.45585669758E+02 -0.40369918771E+02  0.81062738503E+02  0.00000000000E+00 0. -1.
         22    1    1    2    0    0 -0.73449288486E+01 -0.47555097548E+02  0.36148688646E+02  0.60184408059E+02  0.00000000000E+00 0. -1.
</event>
<event>
 6    1  0.1293624E-005  0.2822744E+03  0.7818608E-02  0.1094453E+00
          2   -1    0    0  502    0  0.00000000000E+00  0.00000000000E+00  0.59583293430E+03  0.59583293430E+03  0.00000000000E+00 0.  1.
          1   -1    0    0  501    0 -0.00000000000E+00 -0.00000000000E+00 -0.80113405430E+03  0.80113405430E+03  0.00000000000E+00 0. -1.
          2    1    1    2  501    0  0.18956100457E+02  0.10661891395E+03  0.33079700790E+03  0.34807123839E+03  0.00000000000E+00 0.  1.
          1    1    1    2  502    0  0.27681195627E+02 -0.18953997623E+03 -0.75505838040E+03  0.77897677051E+03  0.00000000000E+00 0. -1.
         22    1    1    2    0    0 -0.28867950954E+02  0.93714786501E+02  0.22727499805E+03  0.24752726019E+03  0.00000000000E+00 0.  1.
         22    1    1    2    0    0 -0.17769345130E+02 -0.10793724226E+02 -0.83147455411E+01  0.22391719506E+02  0.00000000000E+00 0. -1.
</event>
<event>
 6    1  0.1293624E-005  0.3556495E+03  0.7818608E-02  0.1060320E+00
          2   -1    0    0  502    0  0.00000000000E+00  0.00000000000E+00  0.16642637341E+03  0.16642637341E+03  0.00000000000E+00 0. -1.
          1   -1    0    0  501    0 -0.00000000000E+00 -0.00000000000E+00 -0.45137577591E+03  0.45137577591E+03  0.00000000000E+00 0. -1.
          2    1    1    2  501    0 -0.37689486645E+02  0.23724329158E+02 -0.16448185018E+03  0.17040428468E+03  0.00000000000E+00 0. -1.
          1    1    1    2  502    0  0.31030115047E+02 -0.89671267691E+02 -0.24154411325E+03  0.25951370472E+03  0.00000000000E+00 0. -1.
         22    1    1    2    0    0  0.74911566308E+01  0.23485576600E+02 -0.25387716359E+02  0.35386803724E+02  0.00000000000E+00 0. -1.
         22    1    1    2    0    0 -0.83178503310E+00  0.42461361932E+02  0.14646427729E+03  0.15249735619E+03  0.00000000000E+00 0. -1.
</event>
<event>
 6    1  0.1293624E-005  0.8800698E+02  0.7818608E-02  0.1308627E+00
          2   -1    0    0  502    0  0.00000000000E+00  0.00000000000E+00  0.32588640330E+03  0.32588640330E+03  0.00000000000E+00 0. -1.
          1   -1    0    0  501    0 -0.00000000000E+00 -0.00000000000E+00 -0.18379947186E+04  0.18379947186E+04  0.00000000000E+00 0. -1.
          2    1    1    2  501    0 -0.18205568326E+02 -0.32704872198E+02  0.63604061557E+02  0.73800596407E+02  0.00000000000E+00 0. -1.
          1    1    1    2  502    0  0.27454656896E+02 -0.34395376894E+02 -0.18128073621E+04  0.18133414826E+04  0.00000000000E+00 0. -1.
         22    1    1    2    0    0  0.10903359533E+02  0.99730726914E+02  0.19803842684E+03  0.22200071992E+03  0.00000000000E+00 0. -1.
         22    1    1    2    0    0 -0.20152448103E+02 -0.32630477822E+02  0.39056558452E+02  0.54738323006E+02  0.00000000000E+00 0. -1.
</event>
<event>
 6    1  0.1293624E-005  0.6955850E+02  0.7818608E-02  0.1366795E+00
          2   -1    0    0  502    0  0.00000000000E+00  0.00000000000E+00  0.48521842013E+02  0.48521842013E+02  0.00000000000E+00 0. -1.
          1   -1    0    0  501    0 -0.00000000000E+00 -0.00000000000E+00 -0.26783976859E+03  0.26783976859E+03  0.00000000000E+00 0. -1.
          2    1    1    2  501    0 -0.23730794402E+02 -0.12541370033E+02 -0.26473012661E+02  0.37699561862E+02  0.00000000000E+00 0. -1.
          1    1    1    2  502    0  0.25689986661E+02  0.24202583050E+02 -0.13707003320E+03  0.14154128176E+03  0.00000000000E+00 0. -1.
         22    1    1    2    0    0 -0.29123712547E+02 -0.59706549661E+02 -0.46660107932E+02  0.81180221589E+02  0.00000000000E+00 0.  1.
         22    1    1    2    0    0  0.27164520287E+02  0.48045336645E+02 -0.91147727839E+01  0.55940545391E+02  0.00000000000E+00 0. -1.
</event>
<event>
 6    1  0.1293624E-005  0.3349289E+03  0.7818608E-02  0.1068977E+00
          2   -1    0    0  502    0  0.00000000000E+00  0.00000000000E+00  0.45718586126E+03  0.45718586126E+03  0.00000000000E+00 0. -1.
          1   -1    0    0  501    0 -0.00000000000E+00 -0.00000000000E+00 -0.22840695620E+03  0.22840695620E+03  0.00000000000E+00 0. -1.
          2    1    1    2  501    0  0.49853746288E+02  0.27278544849E+02  0.14264512957E+02  0.58591734553E+02  0.00000000000E+00 0. -1.
          1    1    1    2  502    0  0.15679825107E+03 -0.13660249164E+03 -0.86861890075E+02  0.22536840996E+03  0.00000000000E+00 0. -1.
         22    1    1    2    0    0  0.18706598064E+00 -0.20323179023E+02  0.33750351442E+02  0.39397370747E+02  0.00000000000E+00 0. -1.
         22    1    1    2    0    0 -0.20683906334E+03  0.12964712582E+03  0.26762593074E+03  0.36223530220E+03  0.00000000000E+00 0. -1.
</event>
<event>
 6    1  0.1293624E-005  0.7346331E+02  0.7818608E-02  0.1350142E+00
          2   -1    0    0  502    0  0.00000000000E+00  0.00000000000E+00  0.32796071332E+03  0.32796071332E+03  0.00000000000E+00 0. -1.
          1   -1    0    0  501    0 -0.00000000000E+00 -0.00000000000E+00 -0.39593992260E+02  0.39593992260E+02  0.00000000000E+00 0. -1.
          2    1    1    2  501    0  0.24868838573E+02 -0.32421499942E+01  0.47901935715E+02  0.54070011224E+02  0.00000000000E+00 0. -1.
          1    1    1    2  502    0  0.22726612053E+02 -0.43664373939E+02  0.20699702870E+02  0.53399945185E+02  0.00000000000E+00 0. -1.
         22    1    1    2    0    0 -0.75505687413E+02  0.69195005621E+02  0.14881769480E+03  0.18065371272E+03  0.00000000000E+00 0. -1.
         22    1    1    2    0    0  0.27910236787E+02 -0.22288481687E+02  0.70947387675E+02  0.79431036449E+02  0.00000000000E+00 0. -1.
</event>
<event>
 6    1  0.1293624E-005  0.1238357E+03  0.7818608E-02  0.1327545E+00
          2   -1    0    0  502    0  0.00000000000E+00  0.00000000000E+00  0.22015060307E+03  0.22015060307E+03  0.00000000000E+00 0. -1.
          1   -1    0    0  501    0 -0.00000000000E+00 -0.00000000000E+00 -0.54753440633E+03  0.54753440633E+03  0.00000000000E+00 0.  1.
          2    1    1    2  501    0 -0.93147669846E+01  0.33323139016E+02  0.15923436908E+02  0.38088742704E+02  0.00000000000E+00 0. -1.
          1    1    1    2  502    0  0.50991377590E+02 -0.10943958307E+03 -0.49657509741E+03  0.51104204357E+03  0.00000000000E+00 0.  1.
         22    1    1    2    0    0 -0.63789922576E+02  0.77380363128E+02  0.48363187862E+02  0.11133675386E+03  0.00000000000E+00 0. -1.
         22    1    1    2    0    0  0.22113311970E+02 -0.12639190693E+01  0.10490466938E+03  0.10721746926E+03  0.00000000000E+00 0. -1.
</event>
<event>
 6    1  0.1293624E-005  0.1838110E+03  0.7818608E-02  0.1164165E+00
          2   -1    0    0  502    0  0.00000000000E+00  0.00000000000E+00  0.29869908205E+03  0.29869908205E+03  0.00000000000E+00 0.  1.
          1   -1    0    0  501    0 -0.00000000000E+00 -0.00000000000E+00 -0.16356109672E+03  0.16356109672E+03  0.00000000000E+00 0.  1.
          2    1    1    2  501    0  0.19703949700E+02 -0.17253732607E+02  0.15796986443E+02  0.30585645380E+02  0.00000000000E+00 0.  1.
          1    1    1    2  502    0  0.60641254859E+02  0.49012013947E+02 -0.12284014050E+03  0.14549652717E+03  0.00000000000E+00 0.  1.
         22    1    1    2    0    0 -0.96253161829E+02  0.22434177219E+01  0.22531599481E+03  0.24502449185E+03  0.00000000000E+00 0.  1.
         22    1    1    2    0    0  0.15907957270E+02 -0.34001699062E+02  0.16865144564E+02  0.41153514368E+02  0.00000000000E+00 0.  1.
</event>
<event>
 6    1  0.1293624E-005  0.2148508E+03  0.7818608E-02  0.1137781E+00
          2   -1    0    0  502    0  0.00000000000E+00  0.00000000000E+00  0.18375708970E+03  0.18375708970E+03  0.00000000000E+00 0.  1.
          1   -1    0    0  501    0 -0.00000000000E+00 -0.00000000000E+00 -0.17078024152E+03  0.17078024152E+03  0.00000000000E+00 0.  1.
          2    1    1    2  501    0 -0.46689114842E+01  0.24775338257E+02 -0.34298633524E+02  0.42567738744E+02  0.00000000000E+00 0.  1.
          1    1    1    2  502    0 -0.43227254740E+02 -0.66883973281E+02 -0.86671189401E+02  0.11770283134E+03  0.00000000000E+00 0.  1.
         22    1    1    2    0    0  0.93772806850E+01 -0.34240146627E+02  0.17977979071E+00  0.35501455672E+02  0.00000000000E+00 0. -1.
         22    1    1    2    0    0  0.38518885539E+02  0.76348781650E+02  0.13376689132E+03  0.15876530545E+03  0.00000000000E+00 0.  1.
</event>
<event>
 6    1  0.1293624E-005  0.2672866E+03  0.7818608E-02  0.1102843E+00
          2   -1    0    0  502    0  0.00000000000E+00  0.00000000000E+00  0.16849602162E+03  0.16849602162E+03  0.00000000000E+00 0. -1.
          1   -1    0    0  501    0 -0.00000000000E+00 -0.00000000000E+00 -0.67943043656E+03  0.67943043656E+03  0.00000000000E+00 0. -1.
          2    1    1    2  501    0  0.35664896373E+02 -0.13935433768E+02 -0.20695242366E+02  0.43525558057E+02  0.00000000000E+00 0. -1.
          1    1    1    2  502    0 -0.20124182636E+03  0.79155513370E+02 -0.53745375210E+03  0.57932754433E+03  0.00000000000E+00 0. -1.
         22    1    1    2    0    0  0.37225913117E+02  0.15070459275E+02 -0.34578516274E+02  0.52995859629E+02  0.00000000000E+00 0.  1.
         22    1    1    2    0    0  0.12835101687E+03 -0.80290538877E+02  0.81793095810E+02  0.17207749616E+03  0.00000000000E+00 0. -1.
</event>
<event>
 6    1  0.1293624E-005  0.3210922E+03  0.7818608E-02  0.1075148E+00
          2   -1    0    0  502    0  0.00000000000E+00  0.00000000000E+00  0.65824008963E+02  0.65824008963E+02  0.00000000000E+00 0.  1.
          1   -1    0    0  501    0 -0.00000000000E+00 -0.00000000000E+00 -0.16378778505E+04  0.16378778505E+04  0.00000000000E+00 0.  1.
          2    1    1    2  501    0  0.21508481089E+02 -0.62989705200E+02 -0.19689623409E+03  0.20784235545E+03  0.00000000000E+00 0.  1.
          1    1    1    2  502    0 -0.63729969523E+02 -0.11049370333E+03 -0.12221903365E+04  0.12288285422E+04  0.00000000000E+00 0.  1.
         22    1    1    2    0    0  0.11173203130E+02 -0.10231689338E+02  0.11091283315E+02  0.18776168419E+02  0.00000000000E+00 0.  1.
         22    1    1    2    0    0  0.31048285304E+02  0.18371509787E+03 -0.16405855419E+03  0.24825479332E+03  0.00000000000E+00 0.  1.
</event>
<event>
 6    1  0.1293624E-005  0.1257269E+03  0.7818608E-02  0.1297935E+00
          2   -1    0    0  502    0  0.00000000000E+00  0.00000000000E+00  0.35463018007E+03  0.35463018007E+03  0.00000000000E+00 0. -1.
          1   -1    0    0  501    0 -0.00000000000E+00 -0.00000000000E+00 -0.28702655380E+03  0.28702655380E+03  0.00000000000E+00 0. -1.
          2    1    1    2  501    0  0.69511220657E+02 -0.20017628980E+02 -0.20068573139E+03  0.21332434941E+03  0.00000000000E+00 0. -1.
          1    1    1    2  502    0 -0.11802603821E+03  0.65222201634E+02  0.25258522518E+03  0.28632739523E+03  0.00000000000E+00 0. -1.
         22    1    1    2    0    0  0.51873957709E+01 -0.35768952674E+02  0.65818334991E+02  0.75089148825E+02  0.00000000000E+00 0.  1.
         22    1    1    2    0    0  0.43327421786E+02 -0.94356199801E+01 -0.50114202511E+02  0.66915840400E+02  0.00000000000E+00 0. -1.
</event>
<event>
 6    1  0.1293624E-005  0.9394902E+02  0.7818608E-02  0.1341488E+00
          2   -1    0    0  502    0  0.00000000000E+00  0.00000000000E+00  0.57268420264E+02  0.57268420264E+02  0.00000000000E+00 0. -1.
          1   -1    0    0  501    0 -0.00000000000E+00 -0.00000000000E+00 -0.12059154055E+04  0.12059154055E+04  0.00000000000E+00 0. -1.
          2    1    1    2  501    0 -0.13075767362E+01 -0.41923073132E+02 -0.88113010610E+02  0.97586661263E+02  0.00000000000E+00 0. -1.
          1    1    1    2  502    0  0.71390752303E+02  0.58150677952E+02 -0.10108263631E+04  0.10150113680E+04  0.00000000000E+00 0. -1.
         22    1    1    2    0    0 -0.30500063244E+02 -0.19952560158E+02 -0.88084782392E+02  0.95327264745E+02  0.00000000000E+00 0. -1.
         22    1    1    2    0    0 -0.39583112323E+02  0.37249553382E+01  0.38377170935E+02  0.55258531671E+02  0.00000000000E+00 0. -1.
</event>
<event>
 6    1  0.1293624E-005  0.1541290E+03  0.7818608E-02  0.1195489E+00
          2   -1    0    0  502    0  0.00000000000E+00  0.00000000000E+00  0.26895751721E+02  0.26895751721E+02  0.00000000000E+00 0. -1.
          1   -1    0    0  501    0 -0.00000000000E+00 -0.00000000000E+00 -0.84765416724E+03  0.84765416724E+03  0.00000000000E+00 0. -1.
          2    1    1    2  501    0  0.16154987329E+02  0.23955525751E+02 -0.21775107348E+02  0.36180189740E+02  0.00000000000E+00 0. -1.
          1    1    1    2  502    0 -0.73431144787E+01 -0.23210204060E+02 -0.62463981612E+03  0.62511401743E+03  0.00000000000E+00 0. -1.
         22    1    1    2    0    0 -0.63005052662E+02  0.38247536786E+01 -0.62186366112E+02  0.88608179825E+02  0.00000000000E+00 0. -1.
         22    1    1    2    0    0  0.54193179812E+02 -0.45700753688E+01 -0.11215712594E+03  0.12464753197E+03  0.00000000000E+00 0. -1.
</event>
<event>
 6    1  0.1293624E-005  0.4750162E+02  0.7818608E-02  0.1514162E+00
          2   -1    0    0  502    0  0.00000000000E+00  0.00000000000E+00  0.31677218143E+02  0.31677218143E+02  0.00000000000E+00 0. -1.
          1   -1    0    0  501    0 -0.00000000000E+00 -0.00000000000E+00 -0.15863534873E+04  0.15863534873E+04  0.00000000000E+00 0. -1.
          2    1    1    2  501    0  0.58996420936E+01  0.37058312520E+02 -0.25455550194E+03  0.25730648626E+03  0.00000000000E+00 0. -1.
          1    1    1    2  502    0  0.11378809216E+02 -0.36266510697E+02 -0.11985202810E+04  0.11991228465E+04  0.00000000000E+00 0. -1.
         22    1    1    2    0    0 -0.14877299322E+02  0.21113445149E+02 -0.12606019560E+03  0.12867899796E+03  0.00000000000E+00 0. -1.
         22    1    1    2    0    0 -0.24011519873E+01 -0.21905246972E+02  0.24459709354E+02  0.32922374724E+02  0.00000000000E+00 0. -1.
</event>
<event>
 6    1  0.1293624E-005  0.1882483E+03  0.7818608E-02  0.1160051E+00
          2   -1    0    0  502    0  0.00000000000E+00  0.00000000000E+00  0.59907687825E+03  0.59907687825E+03  0.00000000000E+00 0. -1.
          1   -1    0    0  501    0 -0.00000000000E+00 -0.00000000000E+00 -0.39080013828E+02  0.39080013828E+02  0.00000000000E+00 0. -1.
          2    1    1    2  501    0  0.37091290871E+02 -0.11618410376E+02  0.56178968001E+02  0.68314184206E+02  0.00000000000E+00 0. -1.
          1    1    1    2  502    0 -0.79707794032E+02  0.60568292139E+02  0.10170453954E+03  0.14270831723E+03  0.00000000000E+00 0. -1.
         22    1    1    2    0    0 -0.21443348856E+02 -0.54911867327E+02  0.84253952380E+02  0.10282927052E+03  0.00000000000E+00 0. -1.
         22    1    1    2    0    0  0.64059852018E+02  0.59619855644E+01  0.31785940450E+03  0.32430512012E+03  0.00000000000E+00 0. -1.
</event>
<event>
 6    1  0.1293624E-005  0.7876757E+02  0.7818608E-02  0.1334775E+00
          2   -1    0    0  502    0  0.00000000000E+00  0.00000000000E+00  0.20903270025E+02  0.20903270025E+02  0.00000000000E+00 0.  1.
          1   -1    0    0  501    0 -0.00000000000E+00 -0.00000000000E+00 -0.96474639632E+03  0.96474639632E+03  0.00000000000E+00 0. -1.
          2    1    1    2  501    0 -0.40686394817E+02  0.19994027331E+02 -0.74461719750E+02  0.87176209829E+02  0.00000000000E+00 0.  1.
          1    1    1    2  502    0 -0.27291419211E+02 -0.71181093324E+02 -0.32729637151E+03  0.33605726359E+03  0.00000000000E+00 0. -1.
         22    1    1    2    0    0 -0.20824571476E+02  0.30073000684E+02 -0.50084754871E+02  0.62020406463E+02  0.00000000000E+00 0. -1.
         22    1    1    2    0    0  0.88802385505E+02  0.21114065309E+02 -0.49200028016E+03  0.50039578646E+03  0.00000000000E+00 0.  1.
</event>
<event>
 6    1  0.1992312E-005  0.7510771E+03  0.7818608E-02  0.9633662E-01
          2   -1    0    0  502    0  0.00000000000E+00  0.00000000000E+00  0.35065018885E+03  0.35065018885E+03  0.00000000000E+00 0. -1.
          1   -1    0    0  501    0 -0.00000000000E+00 -0.00000000000E+00 -0.48448712354E+03  0.48448712354E+03  0.00000000000E+00 0. -1.
          2    1    1    2  501    0  0.80077431679E+02  0.35088149516E+02 -0.37884874194E+03  0.38880579030E+03  0.00000000000E+00 0. -1.
          1    1    1    2  502    0  0.12989655159E+02  0.24977644040E+02 -0.76915836549E+02  0.81906408510E+02  0.00000000000E+00 0. -1.
         22    1    1    2    0    0  0.78572448954E+01  0.13187525799E+02 -0.36520924005E+01  0.15779255779E+02  0.00000000000E+00 0.  1.
         22    1    1    2    0    0 -0.10092433173E+03 -0.73253319355E+02  0.32557973621E+03  0.34864585780E+03  0.00000000000E+00 0. -1.
</event>
<event>
 6    1  0.1293624E-005  0.2070024E+03  0.7818608E-02  0.1143962E+00
          2   -1    0    0  502    0  0.00000000000E+00  0.00000000000E+00  0.19187485617E+02  0.19187485617E+02  0.00000000000E+00 0.  1.
          1   -1    0    0  501    0 -0.00000000000E+00 -0.00000000000E+00 -0.15654819219E+04  0.15654819219E+04  0.00000000000E+00 0.  1.
          2    1    1    2  501    0  0.14445566090E+02  0.38479949089E+02 -0.16901604539E+03  0.17394195716E+03  0.00000000000E+00 0.  1.
          1    1    1    2  502    0  0.42049364605E+01  0.67060812069E+02 -0.97001537825E+03  0.97233979043E+03  0.00000000000E+00 0.  1.
         22    1    1    2    0    0 -0.77840306203E+01 -0.11912261172E+03 -0.40323362865E+03  0.42053316995E+03  0.00000000000E+00 0.  1.
         22    1    1    2    0    0 -0.10866471930E+02  0.13581850565E+02 -0.40293839939E+01  0.17854489978E+02  0.00000000000E+00 0.  1.
</event>
<event>
 6    1  0.1293624E-005  0.1193137E+03  0.7818608E-02  0.1245039E+00
          2   -1    0    0  502    0  0.00000000000E+00  0.00000000000E+00  0.59779315107E+02  0.59779315107E+02  0.00000000000E+00 0. -1.
          1   -1    0    0  501    0 -0.00000000000E+00 -0.00000000000E+00 -0.60363320354E+03  0.60363320354E+03  0.00000000000E+00 0. -1.
          2    1    1    2  501    0 -0.97018442457E+02  0.23997669221E+02 -0.33931258176E+02  0.10554523479E+03  0.00000000000E+00 0. -1.
          1    1    1    2  502    0  0.51002457445E+01  0.44699705871E+02 -0.18657891929E+03  0.19192646857E+03  0.00000000000E+00 0. -1.
         22    1    1    2    0    0 -0.17237850535E+02 -0.16678604442E+01  0.86980669158E+00  0.17340179157E+02  0.00000000000E+00 0. -1.
         22    1    1    2    0    0  0.10915604725E+03 -0.67029514648E+02 -0.32421351766E+03  0.34860063614E+03  0.00000000000E+00 0. -1.
</event>
<event>
 6    1  0.1293624E-005  0.3112433E+03  0.7818608E-02  0.1079751E+00
          2   -1    0    0  502    0  0.00000000000E+00  0.00000000000E+00  0.90650679801E+03  0.90650679801E+03  0.00000000000E+00 0.  1.
          1   -1    0    0  501    0 -0.00000000000E+00 -0.00000000000E+00 -0.74434694188E+02  0.74434694188E+02  0.00000000000E+00 0.  1.
          2    1    1    2  501    0 -0.12017445302E+02  0.14760392469E+03  0.16304928208E+03  0.22026440012E+03  0.00000000000E+00 0.  1.
          1    1    1    2  502    0  0.17777227440E+02 -0.19894196417E+03  0.24169064361E+03  0.31354154770E+03  0.00000000000E+00 0.  1.
         22    1    1    2    0    0 -0.41478412854E+02  0.68388636767E+02  0.36215195827E+03  0.37087936752E+03  0.00000000000E+00 0.  1.
         22    1    1    2    0    0  0.35718630715E+02 -0.17050597283E+02  0.65180219862E+02  0.76256176859E+02  0.00000000000E+00 0. -1.
</event>
<event>
 6    1  0.1293624E-005  0.2322546E+03  0.7818608E-02  0.1125063E+00
          2   -1    0    0  502    0  0.00000000000E+00  0.00000000000E+00  0.30635044890E+03  0.30635044890E+03  0.00000000000E+00 0.  1.
          1   -1    0    0  501    0 -0.00000000000E+00 -0.00000000000E+00 -0.11415137257E+04  0.11415137257E+04  0.00000000000E+00 0. -1.
          2    1    1    2  501    0 -0.63345172942E+01 -0.56090194975E+02  0.41897347962E+01  0.56602031407E+02  0.00000000000E+00 0.  1.
          1    1    1    2  502    0 -0.45419840677E+02  0.16490535502E+02 -0.10968852505E+04  0.10979490664E+04  0.00000000000E+00 0. -1.
         22    1    1    2    0    0 -0.16418577925E+02  0.12832954430E+01 -0.66788620825E+01  0.17771430640E+02  0.00000000000E+00 0. -1.
         22    1    1    2    0    0  0.68172935896E+02  0.38316364031E+02  0.26421110092E+03  0.27554164620E+03  0.00000000000E+00 0.  1.
</event>
<event>
 6    1  0.1293624E-005  0.2231611E+03  0.7818608E-02  0.1209974E+00
          2   -1    0    0  502    0  0.00000000000E+00  0.00000000000E+00  0.12717198443E+03  0.12717198443E+03  0.00000000000E+00 0.  1.
          1   -1    0    0  501    0 -0.00000000000E+00 -0.00000000000E+00 -0.48890714200E+03  0.48890714200E+03  0.00000000000E+00 0.  1.
          2    1    1    2  501    0 -0.27269454834E+01 -0.21323805107E+02 -0.14215535793E+01  0.21544412512E+02  0.00000000000E+00 0.  1.
          1    1    1    2  502    0  0.32162830160E+02  0.21974986467E+03 -0.24322553928E+03  0.32936774830E+03  0.00000000000E+00 0.  1.
         22    1    1    2    0    0  0.76267172806E+01 -0.20060055620E+03 -0.96948864374E+02  0.22293010624E+03  0.00000000000E+00 0.  1.
         22    1    1    2    0    0 -0.37062601957E+02  0.21744966409E+01 -0.20139200344E+02  0.42236859376E+02  0.00000000000E+00 0. -1.
</event>
<event>
 6    1  0.1293624E-005  0.4417160E+02  0.7818608E-02  0.1481601E+00
          2   -1    0    0  502    0  0.00000000000E+00  0.00000000000E+00  0.31810105246E+03  0.31810105246E+03  0.00000000000E+00 0.  1.
          1   -1    0    0  501    0 -0.00000000000E+00 -0.00000000000E+00 -0.48260967674E+02  0.48260967674E+02  0.00000000000E+00 0. -1.
          2    1    1    2  501    0 -0.20142327415E+02 -0.30223625619E+01  0.16122026204E+03  0.16250175667E+03  0.00000000000E+00 0.  1.
          1    1    1    2  502    0  0.46328355076E+01  0.27974038400E+02 -0.11760104683E+02  0.30697069101E+02  0.00000000000E+00 0. -1.
         22    1    1    2    0    0  0.37034363213E+02 -0.14730459962E+02 -0.96171864193E+01  0.41000253461E+02  0.00000000000E+00 0. -1.
         22    1    1    2    0    0 -0.21524871306E+02 -0.10221215876E+02  0.12999711385E+03  0.13216294091E+03  0.00000000000E+00 0.  1.
</event>
<event>
 6    1  0.1293624E-005  0.9471587E+02  0.7818608E-02  0.1292545E+00
          2   -1    0    0  502    0  0.00000000000E+00  0.00000000000E+00  0.47676306019E+03  0.47676306019E+03  0.00000000000E+00 0.  1.
          1   -1    0    0  501    0 -0.00000000000E+00 -0.00000000000E+00 -0.53292856834E+03  0.53292856834E+03  0.00000000000E+00 0. -1.
          2    1    1    2  501    0  0.48855986042E+02  0.49456906110E+02  0.14878598780E+02  0.71093358591E+02  0.00000000000E+00 0.  1.
          1    1    1    2  502    0 -0.41087919457E+02  0.36677944727E+02 -0.48922251469E+03  0.49231306872E+03  0.00000000000E+00 0. -1.
         22    1    1    2    0    0  0.82307617487E+01  0.96218773510E+01 -0.38497580317E+01  0.13234296340E+02  0.00000000000E+00 0.  1.
         22    1    1    2    0    0 -0.15998828334E+02 -0.95756728188E+02  0.42202816578E+03  0.43305090488E+03  0.00000000000E+00 0.  1.
</event>
<event>
 6    1  0.1293624E-005  0.5941673E+02  0.7818608E-02  0.1408555E+00
          2   -1    0    0  502    0  0.00000000000E+00  0.00000000000E+00  0.11682043708E+03  0.11682043708E+03  0.00000000000E+00 0. -1.
          1   -1    0    0  501    0 -0.00000000000E+00 -0.00000000000E+00 -0.55113459815E+03  0.55113459815E+03  0.00000000000E+00 0. -1.
          2    1    1    2  501    0  0.70836085553E+01 -0.50932557283E+02 -0.12333531942E+03  0.13362598519E+03  0.00000000000E+00 0. -1.
          1    1    1    2  502    0  0.74327585039E+01  0.29074604666E+02 -0.38521989035E+03  0.38638703712E+03  0.00000000000E+00 0. -1.
         22    1    1    2    0    0  0.10006440647E+02 -0.23249441819E+02 -0.25395394223E+02  0.35855145336E+02  0.00000000000E+00 0. -1.
         22    1    1    2    0    0 -0.24522807706E+02  0.45107394435E+02  0.99636442910E+02  0.11208686759E+03  0.00000000000E+00 0. -1.
</event>
<event>
 6    1  0.1293624E-005  0.1077274E+03  0.7818608E-02  0.1268945E+00
          2   -1    0    0  502    0  0.00000000000E+00  0.00000000000E+00  0.83210631164E+02  0.83210631164E+02  0.00000000000E+00 0. -1.
          1   -1    0    0  501    0 -0.00000000000E+00 -0.00000000000E+00 -0.14597660133E+04  0.14597660133E+04  0.00000000000E+00 0. -1.
          2    1    1    2  501    0  0.30862318176E+02  0.79074153429E+02 -0.21333647957E+03  0.22960326204E+03  0.00000000000E+00 0. -1.
          1    1    1    2  502    0 -0.35171419202E+02 -0.28152495790E+01 -0.11628741497E+04  0.11634093185E+04  0.00000000000E+00 0. -1.
         22    1    1    2    0    0  0.14434593009E+02 -0.98596059812E+02  0.36143660647E+02  0.10599955043E+03  0.00000000000E+00 0. -1.
         22    1    1    2    0    0 -0.10125491983E+02  0.22337155962E+02 -0.36488413449E+02  0.43964513421E+02  0.00000000000E+00 0. -1.
</event>
<event>
 6    1  0.1293624E-005  0.9995161E+02  0.7818608E-02  0.1289495E+00
          2   -1    0    0  502    0  0.00000000000E+00  0.00000000000E+00  0.68584838132E+02  0.68584838132E+02  0.00000000000E+00 0. -1.
          1   -1    0    0  501    0 -0.00000000000E+00 -0.00000000000E+00 -0.32997458934E+04  0.32997458934E+04  0.00000000000E+00 0.  1.
          2    1    1    2  501    0 -0.49350662927E+02  0.27058460533E-01 -0.64694103229E+01  0.49772903607E+02  0.00000000000E+00 0. -1.
          1    1    1    2  502    0  0.75170904391E+02  0.54233681440E+02 -0.31678667557E+04  0.31692225764E+04  0.00000000000E+00 0.  1.
         22    1    1    2    0    0 -0.28459700485E+02  0.29874678157E+02  0.92954941371E+01  0.42294883354E+02  0.00000000000E+00 0.  1.
         22    1    1    2    0    0  0.26394590214E+01 -0.84135418057E+02 -0.66120383405E+02  0.10704036817E+03  0.00000000000E+00 0.  1.
</event>
<event>
 6    1  0.1293624E-005  0.2631231E+03  0.7818608E-02  0.1105281E+00
          2   -1    0    0  502    0  0.00000000000E+00  0.00000000000E+00  0.20671374014E+04  0.20671374014E+04  0.00000000000E+00 0. -1.
          1   -1    0    0  501    0 -0.00000000000E+00 -0.00000000000E+00 -0.20881014035E+02  0.20881014035E+02  0.00000000000E+00 0. -1.
          2    1    1    2  501    0 -0.11807678138E+03  0.46097218921E+02  0.38625831610E+03  0.40652498896E+03  0.00000000000E+00 0. -1.
          1    1    1    2  502    0  0.12059248177E+03 -0.49364898840E+02  0.10317297114E+04  0.10399257845E+04  0.00000000000E+00 0. -1.
         22    1    1    2    0    0 -0.65158142341E+02 -0.99918797708E+01  0.31642329595E+03  0.32321683649E+03  0.00000000000E+00 0. -1.
         22    1    1    2    0    0  0.62642441946E+02  0.13259559689E+02  0.31184506395E+03  0.31835080550E+03  0.00000000000E+00 0. -1.
</event>
<event>
 6    1  0.1293624E-005  0.8195196E+02  0.7818608E-02  0.1328865E+00
          2   -1    0    0  502    0  0.00000000000E+00  0.00000000000E+00  0.20036788363E+02  0.20036788363E+02  0.00000000000E+00 0. -1.
          1   -1    0    0  501    0 -0.00000000000E+00 -0.00000000000E+00 -0.75422149453E+03  0.75422149453E+03  0.00000000000E+00 0.  1.
          2    1    1    2  501    0 -0.28150470607E+01  0.40365845363E+02 -0.11123298444E+03  0.11836428004E+03  0.00000000000E+00 0. -1.
          1    1    1    2  502    0 -0.57716246974E+02 -0.20287790432E+02 -0.26253435159E+03  0.26956825735E+03  0.00000000000E+00 0.  1.
         22    1    1    2    0    0  0.80298736057E+02 -0.48328100584E+02 -0.31875072270E+03  0.33224315726E+03  0.00000000000E+00 0. -1.
         22    1    1    2    0    0 -0.19767442023E+02  0.28250045654E+02 -0.41666647435E+02  0.54082588252E+02  0.00000000000E+00 0. -1.
</event>
<event>
 6    1  0.1293624E-005  0.3275934E+03  0.7818608E-02  0.1072207E+00
          2   -1    0    0  502    0  0.00000000000E+00  0.00000000000E+00  0.16237846326E+03  0.16237846326E+03  0.00000000000E+00 0.  1.
          1   -1    0    0  501    0 -0.00000000000E+00 -0.00000000000E+00 -0.87269410338E+03  0.87269410338E+03  0.00000000000E+00 0.  1.
          2    1    1    2  501    0  0.16756584713E+02 -0.23990774695E+02 -0.10984725962E+03  0.11367832180E+03  0.00000000000E+00 0.  1.
          1    1    1    2  502    0 -0.16672800759E+03  0.64092815711E+02 -0.68341950223E+03  0.70637690617E+03  0.00000000000E+00 0.  1.
         22    1    1    2    0    0  0.90555475630E+01 -0.84059502553E+01 -0.29490017680E+02  0.31973803092E+02  0.00000000000E+00 0. -1.
         22    1    1    2    0    0  0.14091587531E+03 -0.31696090761E+02  0.11244113942E+03  0.18304353558E+03  0.00000000000E+00 0.  1.
</event>
<event>
 6    1  0.1293624E-005  0.1266700E+03  0.7818608E-02  0.1237216E+00
          2   -1    0    0  502    0  0.00000000000E+00  0.00000000000E+00  0.75929824639E+03  0.75929824639E+03  0.00000000000E+00 0.  1.
          1   -1    0    0  501    0 -0.00000000000E+00 -0.00000000000E+00 -0.25211358781E+03  0.25211358781E+03  0.00000000000E+00 0.  1.
          2    1    1    2  501    0  0.11092135359E+03  0.54858564023E+02  0.33291273565E+03  0.35516742290E+03  0.00000000000E+00 0.  1.
          1    1    1    2  502    0 -0.63426025533E+02 -0.11059567679E+02 -0.22444825471E+03  0.23349987965E+03  0.00000000000E+00 0.  1.
         22    1    1    2    0    0 -0.89241537912E+02 -0.33069914187E+02  0.30675430451E+03  0.32117888263E+03  0.00000000000E+00 0.  1.
         22    1    1    2    0    0  0.41746209855E+02 -0.10729082157E+02  0.91965873130E+02  0.10156564902E+03  0.00000000000E+00 0.  1.
</event>
<event>
 6    1  0.1293624E-005  0.2438808E+03  0.7818608E-02  0.1117234E+00
          2   -1    0    0  502    0  0.00000000000E+00  0.00000000000E+00  0.10217479702E+03  0.10217479702E+03  0.00000000000E+00 0.  1.
          1   -1    0    0  501    0 -0.00000000000E+00 -0.00000000000E+00 -0.31074130510E+03  0.31074130510E+03  0.00000000000E+00 0.  1.
          2    1    1    2  501    0 -0.69291914139E+02  0.42382517753E+02 -0.76372270999E+02  0.11149157346E+03  0.00000000000E+00 0.  1.
          1    1    1    2  502    0  0.29434839419E+02 -0.29196644265E+01 -0.16193865859E+03  0.16461793146E+03  0.00000000000E+00 0.  1.
         22    1    1    2    0    0  0.54204394782E+02  0.28571532491E+02  0.27705058241E+02  0.67245959988E+02  0.00000000000E+00 0.  1.
         22    1    1    2    0    0 -0.14347320062E+02 -0.68034385818E+02  0.20393632719E+01  0.69560637211E+02  0.00000000000E+00 0.  1.
</event>
<event>
 6    1  0.1293624E-005  0.4847025E+03  0.7818608E-02  0.1044962E+00
          2   -1    0    0  502    0  0.00000000000E+00  0.00000000000E+00  0.67304921268E+03  0.67304921268E+03  0.00000000000E+00 0. -1.
          1   -1    0    0  501    0 -0.00000000000E+00 -0.00000000000E+00 -0.75239877142E+03  0.75239877142E+03  0.00000000000E+00 0.  1.
          2    1    1    2  501    0  0.31023805187E+03 -0.69264243923E+02  0.32657148936E+03  0.45573470570E+03  0.00000000000E+00 0. -1.
          1    1    1    2  502    0 -0.49605479449E+03 -0.11442560685E+03 -0.44677905676E+03  0.67732939121E+03  0.00000000000E+00 0.  1.
         22    1    1    2    0    0  0.11704772165E+03  0.18304937628E+03  0.11408154089E+02  0.21757157278E+03  0.00000000000E+00 0. -1.
         22    1    1    2    0    0  0.68769020973E+02  0.64047448959E+00  0.29449854573E+02  0.74812314411E+02  0.00000000000E+00 0.  1.
</event>
<event>
 6    1  0.1907827E-005  0.1808839E+03  0.7818608E-02  0.1166950E+00
          2   -1    0    0  502    0  0.00000000000E+00  0.00000000000E+00  0.13949421850E+03  0.13949421850E+03  0.00000000000E+00 0. -1.
          1   -1    0    0  501    0 -0.00000000000E+00 -0.00000000000E+00 -0.10034798658E+04  0.10034798658E+04  0.00000000000E+00 0.  1.
          2    1    1    2  501    0  0.23397475829E+02 -0.10684316072E+02 -0.61892472795E+01  0.26455684966E+02  0.00000000000E+00 0. -1.
          1    1    1    2  502    0 -0.94436312673E+02  0.45737889999E+02 -0.94067170861E+03  0.94650590865E+03  0.00000000000E+00 0.  1.
         22    1    1    2    0    0  0.43842678182E+02 -0.36877719385E+02  0.11463886679E+03  0.12815699901E+03  0.00000000000E+00 0. -1.
         22    1    1    2    0    0  0.27196158662E+02  0.18241454582E+01 -0.31763558151E+02  0.41855491623E+02  0.00000000000E+00 0. -1.
</event>
<event>
 6    1  0.1293624E-005  0.1887614E+03  0.7818608E-02  0.1159583E+00
          2   -1    0    0  502    0  0.00000000000E+00  0.00000000000E+00  0.47973079611E+03  0.47973079611E+03  0.00000000000E+00 0.  1.
          1   -1    0    0  501    0 -0.00000000000E+00 -0.00000000000E+00 -0.26172023772E+02  0.26172023772E+02  0.00000000000E+00 0.  1.
          2    1    1    2  501    0  0.41044695526E+02 -0.33224516347E+02  0.86910892769E+02  0.10169581505E+03  0.00000000000E+00 0.  1.
          1    1    1    2  502    0 -0.84708919515E+01  0.23865359206E+02  0.17617289893E+02  0.30849315773E+02  0.00000000000E+00 0.  1.
         22    1    1    2    0    0 -0.33597152225E+02  0.66947044657E+02  0.20304250754E+03  0.21641842642E+03  0.00000000000E+00 0.  1.
         22    1    1    2    0    0  0.10233486499E+01 -0.57587887516E+02  0.14598808214E+03  0.15693926264E+03  0.00000000000E+00 0.  1.
</event>
<event>
 6    1  0.1293624E-005  0.1571143E+03  0.7818608E-02  0.1191994E+00
          2   -1    0    0  502    0  0.00000000000E+00  0.00000000000E+00  0.19828873652E+03  0.19828873652E+03  0.00000000000E+00 0.  1.
          1   -1    0    0  501    0 -0.00000000000E+00 -0.00000000000E+00 -0.46875372776E+03  0.46875372776E+03  0.00000000000E+00 0.  1.
          2    1    1    2  501    0 -0.22606918087E+02  0.88581296509E+00  0.22624640428E+02  0.31995808545E+02  0.00000000000E+00 0.  1.
          1    1    1    2  502    0 -0.18521330174E+02 -0.29632448598E+02 -0.43682363373E+03  0.43821913316E+03  0.00000000000E+00 0.  1.
         22    1    1    2    0    0  0.42138801378E+02 -0.10107397135E+02 -0.45146110693E+01  0.43568564029E+02  0.00000000000E+00 0.  1.
         22    1    1    2    0    0 -0.10105531173E+01  0.38854032768E+02  0.14824861313E+03  0.15325895855E+03  0.00000000000E+00 0.  1.
</event>
<event>
 6    1  0.1293624E-005  0.7161614E+02  0.7818608E-02  0.1356334E+00
          2   -1    0    0  502    0  0.00000000000E+00  0.00000000000E+00  0.42220773714E+03  0.42220773714E+03  0.00000000000E+00 0.  1.
          1   -1    0    0  501    0 -0.00000000000E+00 -0.00000000000E+00 -0.97408340034E+02  0.97408340034E+02  0.00000000000E+00 0.  1.
          2    1    1    2  501    0 -0.12067172583E+02 -0.24684697542E+02  0.96277204423E+02  0.10012118177E+03  0.00000000000E+00 0.  1.
          1    1    1    2  502    0 -0.25222161850E+02 -0.12356208779E+02 -0.78260089087E+02  0.83147308360E+02  0.00000000000E+00 0.  1.
         22    1    1    2    0    0 -0.30497640467E+02 -0.21978637639E+02  0.15896576437E+03  0.16335017854E+03  0.00000000000E+00 0.  1.
         22    1    1    2    0    0  0.67786974900E+02  0.59019543959E+02  0.14781651740E+03  0.17299740851E+03  0.00000000000E+00 0. -1.
</event>
<event>
 6    1  0.1293624E-005  0.4003714E+03  0.7818608E-02  0.1043651E+00
          2   -1    0    0  502    0  0.00000000000E+00  0.00000000000E+00  0.91746469516E+02  0.91746469516E+02  0.00000000000E+00 0.  1.
          1   -1    0    0  501    0 -0.00000000000E+00 -0.00000000000E+00 -0.81688341567E+03  0.81688341567E+03  0.00000000000E+00 0.  1.
          2    1    1    2  501    0 -0.25380655521E+01 -0.97280100170E+02 -0.34236208302E+03  0.35592366535E+03  0.00000000000E+00 0.  1.
          1    1    1    2  502    0  0.23278002039E+02 -0.23461120231E+02 -0.37588466309E+03  0.37733482412E+03  0.00000000000E+00 0.  1.
         22    1    1    2    0    0 -0.71450418607E+02  0.63646696302E+02  0.12723560129E+02  0.96529546004E+02  0.00000000000E+00 0.  1.
         22    1    1    2    0    0  0.50710482120E+02  0.57094524099E+02 -0.19613760169E+02  0.78841849718E+02  0.00000000000E+00 0.  1.
</event>
<event>
 6    1  0.1293624E-005  0.6793294E+02  0.7818608E-02  0.1368945E+00
          2   -1    0    0  502    0  0.00000000000E+00  0.00000000000E+00  0.12682725724E+03  0.12682725724E+03  0.00000000000E+00 0.  1.
          1   -1    0    0  501    0 -0.00000000000E+00 -0.00000000000E+00 -0.84522023530E+02  0.84522023530E+02  0.00000000000E+00 0.  1.
          2    1    1    2  501    0  0.18438519237E+02  0.90988816417E+01  0.30431213791E+02  0.36726385768E+02  0.00000000000E+00 0.  1.
          1    1    1    2  502    0  0.32460766613E+02  0.15501661732E+01 -0.15162312635E+02  0.35860843670E+02  0.00000000000E+00 0.  1.
         22    1    1    2    0    0  0.30195567871E+02  0.25887383742E+02  0.29918546439E+02  0.49769954562E+02  0.00000000000E+00 0.  1.
         22    1    1    2    0    0 -0.81094853721E+02 -0.36536431557E+02 -0.28822138839E+01  0.88992096771E+02  0.00000000000E+00 0.  1.
</event>
<event>
 6    1  0.1293624E-005  0.2884972E+03  0.7818608E-02  0.1091136E+00
          2   -1    0    0  502    0  0.00000000000E+00  0.00000000000E+00  0.10524594797E+03  0.10524594797E+03  0.00000000000E+00 0. -1.
          1   -1    0    0  501    0 -0.00000000000E+00 -0.00000000000E+00 -0.52625435610E+03  0.52625435610E+03  0.00000000000E+00 0. -1.
          2    1    1    2  501    0  0.48908881503E+02  0.13970696756E+03 -0.20975617361E+03  0.25672508222E+03  0.00000000000E+00 0. -1.
          1    1    1    2  502    0  0.39735113766E+01 -0.11749630200E+03  0.42238731642E+01  0.11763932540E+03  0.00000000000E+00 0. -1.
         22    1    1    2    0    0 -0.40488491153E+02 -0.47992669546E+02 -0.21944876323E+03  0.22825506332E+03  0.00000000000E+00 0.  1.
         22    1    1    2    0    0 -0.12393901727E+02  0.25782003989E+02  0.39726555475E+01  0.28880833122E+02  0.00000000000E+00 0. -1.
</event>
<event>
 6    1  0.1293624E-005  0.1988567E+03  0.7818608E-02  0.1150707E+00
          2   -1    0    0  502    0  0.00000000000E+00  0.00000000000E+00  0.58253957171E+03  0.58253957171E+03  0.00000000000E+00 0.  1.
          1   -1    0    0  501    0 -0.00000000000E+00 -0.00000000000E+00 -0.33914737553E+02  0.33914737553E+02  0.00000000000E+00 0.  1.
          2    1    1    2  501    0 -0.57415214263E+02 -0.48999544693E+01  0.19521893489E+03  0.20354593812E+03  0.00000000000E+00 0.  1.
          1    1    1    2  502    0 -0.15417083432E+01 -0.32646907713E+02 -0.23182960345E+00  0.32684112238E+02  0.00000000000E+00 0.  1.
         22    1    1    2    0    0  0.15523309283E+01 -0.41753461556E+02  0.10668979409E+03  0.11457955074E+03  0.00000000000E+00 0.  1.
         22    1    1    2    0    0  0.57404591678E+02  0.79300323738E+02  0.24694793477E+03  0.26564470817E+03  0.00000000000E+00 0.  1.
</event>
<event>
 6    1  0.1293624E-005  0.1082368E+03  0.7818608E-02  0.1267992E+00
          2   -1    0    0  502    0  0.00000000000E+00  0.00000000000E+00  0.26538809819E+02  0.26538809819E+02  0.00000000000E+00 0. -1.
          1   -1    0    0  501    0 -0.00000000000E+00 -0.00000000000E+00 -0.15307373880E+04  0.15307373880E+04  0.00000000000E+00 0. -1.
          2    1    1    2  501    0  0.47444106719E+02  0.49846375086E+02 -0.17200774200E+03  0.18526269911E+03  0.00000000000E+00 0. -1.
          1    1    1    2  502    0  0.60044318940E+02 -0.69820786335E+02 -0.94543764951E+03  0.94991189674E+03  0.00000000000E+00 0. -1.
         22    1    1    2    0    0 -0.12693427176E+03 -0.16720223897E+01 -0.36294318465E+03  0.38450339438E+03  0.00000000000E+00 0. -1.
         22    1    1    2    0    0  0.19445846097E+02  0.21646433639E+02 -0.23810002054E+02  0.37598207637E+02  0.00000000000E+00 0. -1.
</event>
<event>
 6    1  0.1293624E-005  0.2410555E+03  0.7818608E-02  0.1119092E+00
          2   -1    0    0  502    0  0.00000000000E+00  0.00000000000E+00  0.91773217356E+03  0.91773217356E+03  0.00000000000E+00 0.  1.
          1   -1    0    0  501    0 -0.00000000000E+00 -0.00000000000E+00 -0.49914483086E+02  0.49914483086E+02  0.00000000000E+00 0.  1.
          2    1    1    2  501    0  0.19752401269E+02  0.10911991205E+02  0.15593319195E+02  0.27429555437E+02  0.00000000000E+00 0.  1.
          1    1    1    2  502    0 -0.15577637948E+03 -0.10288357320E+03  0.36039589369E+03  0.40587745715E+03  0.00000000000E+00 0.  1.
         22    1    1    2    0    0  0.60447412136E+02  0.63512623092E+01  0.52198401826E+02  0.80118046158E+02  0.00000000000E+00 0.  1.
         22    1    1    2    0    0  0.75576566073E+02  0.85620319684E+02  0.43963007576E+03  0.45422159790E+03  0.00000000000E+00 0.  1.
</event>
<event>
 6    1  0.1293624E-005  0.7741825E+02  0.7818608E-02  0.1339145E+00
          2   -1    0    0  502    0  0.00000000000E+00  0.00000000000E+00  0.30154797710E+03  0.30154797710E+03  0.00000000000E+00 0.  1.
          1   -1    0    0  501    0 -0.00000000000E+00 -0.00000000000E+00 -0.17290290222E+03  0.17290290222E+03  0.00000000000E+00 0.  1.
          2    1    1    2  501    0  0.96236267020E+01 -0.32910688928E+02  0.58716995262E+02  0.67995684931E+02  0.00000000000E+00 0.  1.
          1    1    1    2  502    0 -0.42318865740E+02 -0.53029913806E+01 -0.14634463914E+03  0.15243280986E+03  0.00000000000E+00 0.  1.
         22    1    1    2    0    0  0.16047018228E+02  0.76518345242E+02  0.81546615372E+02  0.11297085656E+03  0.00000000000E+00 0.  1.
         22    1    1    2    0    0  0.16648220810E+02 -0.38304664933E+02  0.13472610339E+03  0.14105152798E+03  0.00000000000E+00 0.  1.
</event>
<event>
 6    1  0.1293624E-005  0.1551532E+03  0.7818608E-02  0.1262678E+00
          2   -1    0    0  502    0  0.00000000000E+00  0.00000000000E+00  0.39658452828E+03  0.39658452828E+03  0.00000000000E+00 0. -1.
          1   -1    0    0  501    0 -0.00000000000E+00 -0.00000000000E+00 -0.29287144334E+03  0.29287144334E+03  0.00000000000E+00 0.  1.
          2    1    1    2  501    0  0.32524293138E+02 -0.29218708373E+02  0.17005776480E+02  0.46912247834E+02  0.00000000000E+00 0. -1.
          1    1    1    2  502    0 -0.12232342537E+03  0.74189470145E+02 -0.24026251477E+03  0.27963042373E+03  0.00000000000E+00 0.  1.
         22    1    1    2    0    0 -0.66829549259E+01 -0.37014537597E+02  0.19860397501E+03  0.20213430379E+03  0.00000000000E+00 0. -1.
         22    1    1    2    0    0  0.96482087163E+02 -0.79562241754E+01  0.12836584822E+03  0.16077899625E+03  0.00000000000E+00 0.  1.
</event>
<event>
 6    1  0.1293624E-005  0.1156902E+03  0.7818608E-02  0.1297144E+00
          2   -1    0    0  502    0  0.00000000000E+00  0.00000000000E+00  0.22199937532E+03  0.22199937532E+03  0.00000000000E+00 0.  1.
          1   -1    0    0  501    0 -0.00000000000E+00 -0.00000000000E+00 -0.13753564998E+04  0.13753564998E+04  0.00000000000E+00 0. -1.
          2    1    1    2  501    0  0.89416117764E+01  0.36264688283E+02  0.40913420918E+02  0.55398448071E+02  0.00000000000E+00 0.  1.
          1    1    1    2  502    0  0.11000587048E+01 -0.10827249891E+03 -0.13351226317E+04  0.13395060978E+04  0.00000000000E+00 0. -1.
         22    1    1    2    0    0  0.24606533167E+02  0.40141948441E+02  0.14757137809E+03  0.15490051365E+03  0.00000000000E+00 0.  1.
         22    1    1    2    0    0 -0.34648203648E+02  0.31865862183E+02 -0.67192917774E+01  0.47550815668E+02  0.00000000000E+00 0.  1.
</event>
<event>
 6    1  0.1293624E-005  0.2121903E+03  0.7818608E-02  0.1139843E+00
          2   -1    0    0  502    0  0.00000000000E+00  0.00000000000E+00  0.97310547998E+02  0.97310547998E+02  0.00000000000E+00 0. -1.
          1   -1    0    0  501    0 -0.00000000000E+00 -0.00000000000E+00 -0.60197327090E+03  0.60197327090E+03  0.00000000000E+00 0. -1.
          2    1    1    2  501    0  0.23634591943E+02 -0.42975428111E+02 -0.50329105250E+02  0.70274463306E+02  0.00000000000E+00 0. -1.
          1    1    1    2  502    0 -0.38081666397E+02 -0.12755245662E+02 -0.48447348186E+03  0.48613523245E+03  0.00000000000E+00 0. -1.
         22    1    1    2    0    0 -0.35637549168E+02  0.74698987185E+02  0.33328454498E+02  0.89223088247E+02  0.00000000000E+00 0. -1.
         22    1    1    2    0    0  0.50084623622E+02 -0.18968313412E+02 -0.31885902919E+01  0.53651034893E+02  0.00000000000E+00 0. -1.
</event>
<event>
 6    1  0.1293624E-005  0.1123988E+03  0.7818608E-02  0.1256813E+00
          2   -1    0    0  502    0  0.00000000000E+00  0.00000000000E+00  0.10176749886E+03  0.10176749886E+03  0.00000000000E+00 0. -1.
          1   -1    0    0  501    0 -0.00000000000E+00 -0.00000000000E+00 -0.38161935953E+03  0.38161935953E+03  0.00000000000E+00 0. -1.
          2    1    1    2  501    0 -0.61227044802E+02  0.24275944306E+02 -0.57240090413E+02  0.87261104953E+02  0.00000000000E+00 0. -1.
          1    1    1    2  502    0 -0.10503273640E+02  0.54808238211E+02 -0.22714968644E+03  0.23390434323E+03  0.00000000000E+00 0. -1.
         22    1    1    2    0    0  0.97007118125E+02 -0.77777153643E+02  0.28286367288E+02  0.12751386266E+03  0.00000000000E+00 0. -1.
         22    1    1    2    0    0 -0.25276799683E+02 -0.13070288744E+01 -0.23748451104E+02  0.34707547544E+02  0.00000000000E+00 0. -1.
</event>
<event>
 6    1  0.1293624E-005  0.1080266E+03  0.7818608E-02  0.1268830E+00
          2   -1    0    0  502    0  0.00000000000E+00  0.00000000000E+00  0.85826615523E+03  0.85826615523E+03  0.00000000000E+00 0. -1.
          1   -1    0    0  501    0 -0.00000000000E+00 -0.00000000000E+00 -0.33680216839E+02  0.33680216839E+02  0.00000000000E+00 0.  1.
          2    1    1    2  501    0 -0.76849690429E+01 -0.80625925143E+02  0.27682051394E+03  0.28842537248E+03  0.00000000000E+00 0. -1.
          1    1    1    2  502    0  0.22225789243E+02  0.41388810781E+02  0.83494564578E+01  0.47715121172E+02  0.00000000000E+00 0.  1.
         22    1    1    2    0    0 -0.33766772863E+02 -0.39587591061E+02  0.24129503018E+03  0.24684137397E+03  0.00000000000E+00 0. -1.
         22    1    1    2    0    0  0.19225952663E+02  0.78824705423E+02  0.29812093781E+03  0.30896450444E+03  0.00000000000E+00 0. -1.
</event>
<event>
 6    1  0.1293624E-005  0.4338034E+03  0.7818608E-02  0.1032665E+00
          2   -1    0    0  502    0  0.00000000000E+00  0.00000000000E+00  0.68741746343E+03  0.68741746343E+03  0.00000000000E+00 0. -1.
          1   -1    0    0  501    0 -0.00000000000E+00 -0.00000000000E+00 -0.25225319682E+03  0.25225319682E+03  0.00000000000E+00 0. -1.
          2    1    1    2  501    0 -0.67586660557E+02 -0.34736820590E+02 -0.10551987305E+02  0.76719931087E+02  0.00000000000E+00 0. -1.
          1    1    1    2  502    0  0.33014694845E+03 -0.44950065532E+02  0.11626878018E+02  0.33339571121E+03  0.00000000000E+00 0. -1.
         22    1    1    2    0    0 -0.24650930171E+03  0.78712723911E+02  0.44157971131E+03  0.51181556265E+03  0.00000000000E+00 0. -1.
         22    1    1    2    0    0 -0.16050986184E+02  0.97416221103E+00 -0.74903354090E+01  0.17739455291E+02  0.00000000000E+00 0. -1.
</event>
<event>
 6    1  0.1293624E-005  0.3120990E+03  0.7818608E-02  0.1079344E+00
          2   -1    0    0  502    0  0.00000000000E+00  0.00000000000E+00  0.57096505571E+03  0.57096505571E+03  0.00000000000E+00 0.  1.
          1   -1    0    0  501    0 -0.00000000000E+00 -0.00000000000E+00 -0.14009032424E+03  0.14009032424E+03  0.00000000000E+00 0.  1.
          2    1    1    2  501    0 -0.29106097384E+02 -0.85607182570E+01 -0.21447289373E+02  0.37154232915E+02  0.00000000000E+00 0.  1.
          1    1    1    2  502    0  0.23456192553E+03  0.78174788547E+02  0.24354925344E+03  0.34705451059E+03  0.00000000000E+00 0.  1.
         22    1    1    2    0    0 -0.19041439330E+03 -0.98015892745E+02  0.20115687839E+03  0.29381770901E+03  0.00000000000E+00 0.  1.
         22    1    1    2    0    0 -0.15041434849E+02  0.28401822455E+02  0.76158890160E+01  0.33028927421E+02  0.00000000000E+00 0. -1.
</event>
<event>
 6    1  0.1293624E-005  0.2180204E+03  0.7818608E-02  0.1160714E+00
          2   -1    0    0  502    0  0.00000000000E+00  0.00000000000E+00  0.80475960711E+03  0.80475960711E+03  0.00000000000E+00 0.  1.
          1   -1    0    0  501    0 -0.00000000000E+00 -0.00000000000E+00 -0.13665907963E+03  0.13665907963E+03  0.00000000000E+00 0.  1.
          2    1    1    2  501    0  0.15200404930E+02  0.41132215085E+02  0.71029405893E+02  0.83475073701E+02  0.00000000000E+00 0.  1.
          1    1    1    2  502    0 -0.16815958758E+03 -0.16175487317E+03  0.17044266889E+02  0.23395040698E+03  0.00000000000E+00 0.  1.
         22    1    1    2    0    0  0.11397809091E+03  0.35315948831E+02  0.20297082200E+03  0.23544718311E+03  0.00000000000E+00 0.  1.
         22    1    1    2    0    0  0.38981091743E+02  0.85306709259E+02  0.37705603270E+03  0.38854602295E+03  0.00000000000E+00 0.  1.
</event>
<event>
 6    1  0.1293624E-005  0.5150334E+02  0.7818608E-02  0.1440185E+00
          2   -1    0    0  502    0  0.00000000000E+00  0.00000000000E+00  0.60243381685E+02  0.60243381685E+02  0.00000000000E+00 0.  1.
          1   -1    0    0  501    0 -0.00000000000E+00 -0.00000000000E+00 -0.13199817081E+04  0.13199817081E+04  0.00000000000E+00 0.  1.
          2    1    1    2  501    0  0.25675968612E+01  0.21641375290E+02 -0.39967091085E+02  0.45522632260E+02  0.00000000000E+00 0.  1.
          1    1    1    2  502    0  0.16109796303E+02 -0.21193860055E+02 -0.12107648430E+04  0.12110574761E+04  0.00000000000E+00 0.  1.
         22    1    1    2    0    0 -0.11775628428E+00  0.43705897940E+02 -0.45755480912E+02  0.63275456653E+02  0.00000000000E+00 0. -1.
         22    1    1    2    0    0 -0.18559636880E+02 -0.44153413174E+02  0.36749088582E+02  0.60369524826E+02  0.00000000000E+00 0.  1.
</event>
<event>
 6    1  0.1293624E-005  0.8757003E+02  0.7818608E-02  0.1312002E+00
          2   -1    0    0  502    0  0.00000000000E+00  0.00000000000E+00  0.15422659208E+03  0.15422659208E+03  0.00000000000E+00 0. -1.
          1   -1    0    0  501    0 -0.00000000000E+00 -0.00000000000E+00 -0.33656062445E+03  0.33656062445E+03  0.00000000000E+00 0.  1.
          2    1    1    2  501    0  0.39166257323E+02 -0.25116832189E+02  0.23487943998E+02  0.52120384545E+02  0.00000000000E+00 0. -1.
          1    1    1    2  502    0 -0.27970826178E+02 -0.51090926587E+01 -0.28673388193E+03  0.28814022453E+03  0.00000000000E+00 0.  1.
         22    1    1    2    0    0 -0.55361761412E+02  0.45969180841E+02  0.22028302029E+02  0.75255141380E+02  0.00000000000E+00 0. -1.
         22    1    1    2    0    0  0.44166330267E+02 -0.15743255993E+02  0.58883603540E+02  0.75271466071E+02  0.00000000000E+00 0. -1.
</event>
<event>
 6    1  0.1293624E-005  0.7556607E+02  0.7818608E-02  0.1347757E+00
          2   -1    0    0  502    0  0.00000000000E+00  0.00000000000E+00  0.47501488526E+02  0.47501488526E+02  0.00000000000E+00 0.  1.
          1   -1    0    0  501    0 -0.00000000000E+00 -0.00000000000E+00 -0.26175533127E+03  0.26175533127E+03  0.00000000000E+00 0.  1.
          2    1    1    2  501    0 -0.37889370043E+02  0.40413672069E+02 -0.89426911969E+02  0.10519525577E+03  0.00000000000E+00 0.  1.
          1    1    1    2  502    0  0.13657918346E+02 -0.25042197433E+02 -0.29340471495E+02  0.40920821759E+02  0.00000000000E+00 0.  1.
         22    1    1    2    0    0  0.37517689779E+02  0.41664588686E+02 -0.62645808405E+01  0.56415954922E+02  0.00000000000E+00 0.  1.
         22    1    1    2    0    0 -0.13286238082E+02 -0.57036063321E+02 -0.89221878443E+02  0.10672478735E+03  0.00000000000E+00 0.  1.
</event>
<event>
 6    1  0.1293624E-005  0.2420517E+03  0.7818608E-02  0.1118434E+00
          2   -1    0    0  502    0  0.00000000000E+00  0.00000000000E+00  0.64221113794E+02  0.64221113794E+02  0.00000000000E+00 0. -1.
          1   -1    0    0  501    0 -0.00000000000E+00 -0.00000000000E+00 -0.65714669916E+03  0.65714669916E+03  0.00000000000E+00 0.  1.
          2    1    1    2  501    0  0.30032110551E+02  0.37001765810E+02 -0.12874398414E+03  0.13728099574E+03  0.00000000000E+00 0. -1.
          1    1    1    2  502    0 -0.13677867234E+03 -0.41100946403E+01 -0.36130243179E+03  0.38634795884E+03  0.00000000000E+00 0.  1.
         22    1    1    2    0    0  0.99935175312E+02 -0.75620854572E+02 -0.71437284919E+02  0.14425269005E+03  0.00000000000E+00 0. -1.
         22    1    1    2    0    0  0.68113864787E+01  0.42729183402E+02 -0.31441884518E+02  0.53486168324E+02  0.00000000000E+00 0.  1.
</event>
<event>
 6    1  0.1293624E-005  0.1842637E+03  0.7818608E-02  0.1163739E+00
          2   -1    0    0  502    0  0.00000000000E+00  0.00000000000E+00  0.36656878627E+02  0.36656878627E+02  0.00000000000E+00 0.  1.
          1   -1    0    0  501    0 -0.00000000000E+00 -0.00000000000E+00 -0.23423099205E+04  0.23423099205E+04  0.00000000000E+00 0.  1.
          2    1    1    2  501    0 -0.49895019684E+02 -0.29227938240E+02 -0.83522458172E+02  0.10158634939E+03  0.00000000000E+00 0.  1.
          1    1    1    2  502    0  0.20360372142E+02  0.21117982433E+02 -0.21100017936E+04  0.21102056968E+04  0.00000000000E+00 0.  1.
         22    1    1    2    0    0 -0.21991462523E+02  0.88752548947E+01 -0.11317440719E+03  0.11563235281E+03  0.00000000000E+00 0.  1.
         22    1    1    2    0    0  0.51526110065E+02 -0.76529908750E+00  0.10456170124E+01  0.51542400177E+02  0.00000000000E+00 0.  1.
</event>
<event>
 6    1  0.1293624E-005  0.8155317E+02  0.7818608E-02  0.1327429E+00
          2   -1    0    0  502    0  0.00000000000E+00  0.00000000000E+00  0.18736607012E+03  0.18736607012E+03  0.00000000000E+00 0.  1.
          1   -1    0    0  501    0 -0.00000000000E+00 -0.00000000000E+00 -0.80595146812E+02  0.80595146812E+02  0.00000000000E+00 0. -1.
          2    1    1    2  501    0 -0.16681408526E+02 -0.39716617870E+02  0.50335743057E+02  0.66252291693E+02  0.00000000000E+00 0.  1.
          1    1    1    2  502    0 -0.19296955053E+02  0.31153515015E+02 -0.29588247608E+02  0.47099664210E+02  0.00000000000E+00 0. -1.
         22    1    1    2    0    0  0.33050125666E+01 -0.45905108931E+02  0.78030002575E+02  0.90591850825E+02  0.00000000000E+00 0.  1.
         22    1    1    2    0    0  0.32673351013E+02  0.54468211785E+02  0.79934252839E+01  0.64017410204E+02  0.00000000000E+00 0. -1.
</event>
<event>
 6    1  0.1293624E-005  0.1436424E+03  0.7818608E-02  0.1209244E+00
          2   -1    0    0  502    0  0.00000000000E+00  0.00000000000E+00  0.62922900041E+03  0.62922900041E+03  0.00000000000E+00 0.  1.
          1   -1    0    0  501    0 -0.00000000000E+00 -0.00000000000E+00 -0.10681583718E+04  0.10681583718E+04  0.00000000000E+00 0.  1.
          2    1    1    2  501    0  0.30716209285E+02  0.13174678630E+03  0.29712023333E+03  0.32646766190E+03  0.00000000000E+00 0.  1.
          1    1    1    2  502    0 -0.13662565332E+03 -0.37072790161E+02 -0.10206779231E+04  0.10304486322E+04  0.00000000000E+00 0.  1.
         22    1    1    2    0    0  0.44273748493E+01  0.22797046582E+02  0.81933056702E+02  0.85160629175E+02  0.00000000000E+00 0.  1.
         22    1    1    2    0    0  0.10148206918E+03 -0.11747104272E+03  0.20269526166E+03  0.25531044895E+03  0.00000000000E+00 0.  1.
</event>
<event>
 6    1  0.1293624E-005  0.1854051E+03  0.7818608E-02  0.1162672E+00
          2   -1    0    0  502    0  0.00000000000E+00  0.00000000000E+00  0.33900416813E+03  0.33900416813E+03  0.00000000000E+00 0. -1.
          1   -1    0    0  501    0 -0.00000000000E+00 -0.00000000000E+00 -0.70516029923E+02  0.70516029923E+02  0.00000000000E+00 0. -1.
          2    1    1    2  501    0 -0.32984284172E+02  0.14111130692E+01  0.19730644068E+02  0.38461052479E+02  0.00000000000E+00 0. -1.
          1    1    1    2  502    0 -0.54051276720E+02 -0.57551813422E+01  0.20725587038E+03  0.21426539253E+03  0.00000000000E+00 0. -1.
         22    1    1    2    0    0  0.81975510506E+02 -0.41560313830E+02 -0.39539012684E+01  0.91993898404E+02  0.00000000000E+00 0. -1.
         22    1    1    2    0    0  0.50600503864E+01  0.45904382103E+02  0.45455525024E+02  0.64799854640E+02  0.00000000000E+00 0. -1.
</event>
<event>
 6    1  0.1293624E-005  0.1959498E+03  0.7818608E-02  0.1153202E+00
          2   -1    0    0  502    0  0.00000000000E+00  0.00000000000E+00  0.96187217043E+03  0.96187217043E+03  0.00000000000E+00 0. -1.
          1   -1    0    0  501    0 -0.00000000000E+00 -0.00000000000E+00 -0.70046667698E+02  0.70046667698E+02  0.00000000000E+00 0. -1.
          2    1    1    2  501    0 -0.41328918709E+02 -0.51041330428E+01  0.12814037670E+03  0.13473710639E+03  0.00000000000E+00 0. -1.
          1    1    1    2  502    0  0.20099555132E+01 -0.74935524085E+02 -0.36331764383E+02  0.83302879868E+02  0.00000000000E+00 0. -1.
         22    1    1    2    0    0 -0.19303982907E+02 -0.23565030697E+02  0.15324676257E+03  0.15624507886E+03  0.00000000000E+00 0. -1.
         22    1    1    2    0    0  0.58622946102E+02  0.10360468782E+03  0.64677012784E+03  0.65763377302E+03  0.00000000000E+00 0. -1.
</event>
<event>
 6    1  0.1293624E-005  0.7740294E+02  0.7818608E-02  0.1338411E+00
          2   -1    0    0  502    0  0.00000000000E+00  0.00000000000E+00  0.90986497296E+01  0.90986497296E+01  0.00000000000E+00 0.  1.
          1   -1    0    0  501    0 -0.00000000000E+00 -0.00000000000E+00 -0.92000777941E+03  0.92000777941E+03  0.00000000000E+00 0.  1.
          2    1    1    2  501    0  0.84391557272E+01 -0.23368045961E+02 -0.76622073685E+02  0.80549531949E+02  0.00000000000E+00 0.  1.
          1    1    1    2  502    0  0.15105797548E+02 -0.15439484568E+02 -0.21097745010E+03  0.21208028493E+03  0.00000000000E+00 0.  1.
         22    1    1    2    0    0  0.37317015293E+01 -0.42563282230E+02 -0.22607977912E+03  0.23008177919E+03  0.00000000000E+00 0.  1.
         22    1    1    2    0    0 -0.27276654804E+02  0.81370812759E+02 -0.39722982678E+03  0.40639483307E+03  0.00000000000E+00 0.  1.
</event>
<event>
 6    1  0.1293624E-005  0.8940506E+02  0.7818608E-02  0.1305278E+00
          2   -1    0    0  502    0  0.00000000000E+00  0.00000000000E+00  0.41777276848E+03  0.41777276848E+03  0.00000000000E+00 0.  1.
          1   -1    0    0  501    0 -0.00000000000E+00 -0.00000000000E+00 -0.13900572296E+03  0.13900572296E+03  0.00000000000E+00 0. -1.
          2    1    1    2  501    0 -0.31646379717E+02 -0.37249486471E+02  0.53426241439E+02  0.72411192960E+02  0.00000000000E+00 0.  1.
          1    1    1    2  502    0  0.29933328247E+02 -0.41197562933E+02 -0.10907272942E+03  0.12037484635E+03  0.00000000000E+00 0. -1.
         22    1    1    2    0    0  0.24018961956E+02  0.93614565292E+02  0.31812503418E+03  0.33248178106E+03  0.00000000000E+00 0. -1.
         22    1    1    2    0    0 -0.22305910486E+02 -0.15167515888E+02  0.16288499321E+02  0.31510671065E+02  0.00000000000E+00 0.  1.
</event>
<event>
 6    1  0.1293624E-005  0.1033478E+03  0.7818608E-02  0.1277603E+00
          2   -1    0    0  502    0  0.00000000000E+00  0.00000000000E+00  0.22114087093E+02  0.22114087093E+02  0.00000000000E+00 0. -1.
          1   -1    0    0  501    0 -0.00000000000E+00 -0.00000000000E+00 -0.84218531434E+03  0.84218531434E+03  0.00000000000E+00 0.  1.
          2    1    1    2  501    0 -0.48863802224E+02 -0.13240991065E+02 -0.19470444380E+03  0.20117856608E+03  0.00000000000E+00 0. -1.
          1    1    1    2  502    0 -0.11347776001E+02 -0.25350394281E+02 -0.36673184157E+03  0.36778207968E+03  0.00000000000E+00 0.  1.
         22    1    1    2    0    0  0.79503607552E+02  0.69559589635E+02 -0.18134784290E+03  0.20987234274E+03  0.00000000000E+00 0.  1.
         22    1    1    2    0    0 -0.19292029328E+02 -0.30968204288E+02 -0.77287098978E+02  0.85466412940E+02  0.00000000000E+00 0. -1.
</event>
<event>
 6    1  0.1293624E-005  0.6786599E+02  0.7818608E-02  0.1372059E+00
          2   -1    0    0  502    0  0.00000000000E+00  0.00000000000E+00  0.46590017848E+03  0.46590017848E+03  0.00000000000E+00 0.  1.
          1   -1    0    0  501    0 -0.00000000000E+00 -0.00000000000E+00 -0.88863022942E+02  0.88863022942E+02  0.00000000000E+00 0.  1.
          2    1    1    2  501    0  0.36728183814E+02  0.35129537277E+01  0.69680159858E+02  0.78845576972E+02  0.00000000000E+00 0.  1.
          1    1    1    2  502    0 -0.27610691427E+02 -0.36578124246E+02 -0.66358724494E+02  0.80646077220E+02  0.00000000000E+00 0.  1.
         22    1    1    2    0    0  0.35134729065E+02 -0.12758823247E+02  0.37043821608E+02  0.52625863189E+02  0.00000000000E+00 0.  1.
         22    1    1    2    0    0 -0.44252221451E+02  0.45823993765E+02  0.33667189857E+03  0.34264568404E+03  0.00000000000E+00 0.  1.
</event>
<event>
 6    1  0.1293624E-005  0.1609343E+03  0.7818608E-02  0.1226601E+00
          2   -1    0    0  502    0  0.00000000000E+00  0.00000000000E+00  0.95657832837E+02  0.95657832837E+02  0.00000000000E+00 0.  1.
          1   -1    0    0  501    0 -0.00000000000E+00 -0.00000000000E+00 -0.66982973624E+03  0.66982973624E+03  0.00000000000E+00 0.  1.
          2    1    1    2  501    0 -0.72377716313E+01 -0.50549704419E+02 -0.85777484818E+01  0.51780650093E+02  0.00000000000E+00 0.  1.
          1    1    1    2  502    0  0.13278469092E+02  0.15670555096E+03 -0.51931033205E+03  0.54260129784E+03  0.00000000000E+00 0.  1.
         22    1    1    2    0    0 -0.62803876405E+02 -0.30338013564E+02 -0.14826642800E+02  0.71306039682E+02  0.00000000000E+00 0.  1.
         22    1    1    2    0    0  0.56763178944E+02 -0.75817832978E+02 -0.31457180066E+02  0.99799581458E+02  0.00000000000E+00 0.  1.
</event>
<event>
 6    1  0.1293624E-005  0.4480176E+03  0.7818608E-02  0.1028315E+00
          2   -1    0    0  502    0  0.00000000000E+00  0.00000000000E+00  0.39163872106E+03  0.39163872106E+03  0.00000000000E+00 0. -1.
          1   -1    0    0  501    0 -0.00000000000E+00 -0.00000000000E+00 -0.34194832614E+03  0.34194832614E+03  0.00000000000E+00 0. -1.
          2    1    1    2  501    0  0.13910730402E+03 -0.53911591359E+02 -0.19278762030E+03  0.24377113910E+03  0.00000000000E+00 0. -1.
          1    1    1    2  502    0 -0.14121506067E+03  0.19211796233E+03  0.14008547293E+03  0.27654103590E+03  0.00000000000E+00 0. -1.
         22    1    1    2    0    0 -0.52952277851E+01 -0.31174065573E+02 -0.29507801413E+02  0.43250111513E+02  0.00000000000E+00 0.  1.
         22    1    1    2    0    0  0.74029844326E+01 -0.10703230540E+03  0.13190034370E+03  0.17002476069E+03  0.00000000000E+00 0. -1.
</event>
<event>
 6    1  0.1293624E-005  0.2504744E+03  0.7818608E-02  0.1113005E+00
          2   -1    0    0  502    0  0.00000000000E+00  0.00000000000E+00  0.50122467082E+02  0.50122467082E+02  0.00000000000E+00 0. -1.
          1   -1    0    0  501    0 -0.00000000000E+00 -0.00000000000E+00 -0.43141770377E+03  0.43141770377E+03  0.00000000000E+00 0. -1.
          2    1    1    2  501    0  0.10394858825E+03  0.28199650424E+02 -0.15125548862E+03  0.18568455003E+03  0.00000000000E+00 0. -1.
          1    1    1    2  502    0 -0.43390715888E+02 -0.34824860276E+01 -0.52181931170E+02  0.67954660435E+02  0.00000000000E+00 0. -1.
         22    1    1    2    0    0 -0.79427189203E+02 -0.59367418532E+02 -0.10119674244E+03  0.14168256579E+03  0.00000000000E+00 0. -1.
         22    1    1    2    0    0  0.18869316844E+02  0.34650254136E+02 -0.76661074459E+02  0.86218394598E+02  0.00000000000E+00 0. -1.
</event>
<event>
 6    1  0.1293624E-005  0.8247564E+02  0.7818608E-02  0.1323904E+00
          2   -1    0    0  502    0  0.00000000000E+00  0.00000000000E+00  0.62059368788E+03  0.62059368788E+03  0.00000000000E+00 0. -1.
          1   -1    0    0  501    0 -0.00000000000E+00 -0.00000000000E+00 -0.13209748699E+03  0.13209748699E+03  0.00000000000E+00 0. -1.
          2    1    1    2  501    0 -0.19588736891E+02  0.35027548832E+02  0.15767614101E+03  0.16270345182E+03  0.00000000000E+00 0. -1.
          1    1    1    2  502    0  0.22226403004E+02 -0.98388379850E+01 -0.11983515685E+03  0.12227542901E+03  0.00000000000E+00 0. -1.
         22    1    1    2    0    0 -0.38819966023E+02  0.33006554818E+02  0.26407253075E+03  0.26894371887E+03  0.00000000000E+00 0. -1.
         22    1    1    2    0    0  0.36182299910E+02 -0.58195265665E+02  0.18658268598E+03  0.19876857518E+03  0.00000000000E+00 0.  1.
</event>
<event>
 6    1  0.1293624E-005  0.1534647E+03  0.7818608E-02  0.1196279E+00
          2   -1    0    0  502    0  0.00000000000E+00  0.00000000000E+00  0.30524160037E+03  0.30524160037E+03  0.00000000000E+00 0.  1.
          1   -1    0    0  501    0 -0.00000000000E+00 -0.00000000000E+00 -0.11451681865E+03  0.11451681865E+03  0.00000000000E+00 0. -1.
          2    1    1    2  501    0 -0.23896471187E+02 -0.89884511394E+01  0.65864172242E+02  0.70639385432E+02  0.00000000000E+00 0.  1.
          1    1    1    2  502    0  0.28739286414E+02 -0.18740925133E+02 -0.91933117334E+02  0.98126790028E+02  0.00000000000E+00 0. -1.
         22    1    1    2    0    0 -0.10661188262E+02 -0.21499247024E+02 -0.43258609510E+01  0.24384249645E+02  0.00000000000E+00 0.  1.
         22    1    1    2    0    0  0.58183730342E+01  0.49228623297E+02  0.22111958776E+03  0.22660799392E+03  0.00000000000E+00 0.  1.
</event>
<event>
 6    1  0.1293624E-005  0.1733792E+03  0.7818608E-02  0.1174369E+00
          2   -1    0    0  502    0  0.00000000000E+00  0.00000000000E+00  0.20821172936E+03  0.20821172936E+03  0.00000000000E+00 0.  1.
          1   -1    0    0  501    0 -0.00000000000E+00 -0.00000000000E+00 -0.75647512719E+03  0.75647512719E+03  0.00000000000E+00 0.  1.
          2    1    1    2  501    0 -0.39830286768E+02  0.26474744018E+02  0.27881144683E+02  0.55359931753E+02  0.00000000000E+00 0.  1.
          1    1    1    2  502    0  0.44131103788E+02 -0.13263682307E+02 -0.71951634762E+03  0.72099046740E+03  0.00000000000E+00 0.  1.
         22    1    1    2    0    0  0.39899211387E+02  0.28426590487E+02  0.10667345958E+03  0.11738502926E+03  0.00000000000E+00 0.  1.
         22    1    1    2    0    0 -0.44200028406E+02 -0.41637652198E+02  0.36698345517E+02  0.70951428142E+02  0.00000000000E+00 0.  1.
</event>
<event>
 6    1  0.1293624E-005  0.1189444E+03  0.7818608E-02  0.1246666E+00
          2   -1    0    0  502    0  0.00000000000E+00  0.00000000000E+00  0.28642189983E+03  0.28642189983E+03  0.00000000000E+00 0. -1.
          1   -1    0    0  501    0 -0.00000000000E+00 -0.00000000000E+00 -0.14901583310E+04  0.14901583310E+04  0.00000000000E+00 0. -1.
          2    1    1    2  501    0  0.35449734002E+02  0.88483225214E+02  0.13942461924E+03  0.16889401776E+03  0.00000000000E+00 0. -1.
          1    1    1    2  502    0  0.16394073734E+02 -0.13299122636E+02 -0.14293829140E+04  0.14295387882E+04  0.00000000000E+00 0. -1.
         22    1    1    2    0    0  0.17114130986E+02  0.14649446485E+02  0.56851488324E+02  0.61152199358E+02  0.00000000000E+00 0. -1.
         22    1    1    2    0    0 -0.68957938721E+02 -0.89833549064E+02  0.29370375198E+02  0.11699522550E+03  0.00000000000E+00 0. -1.
</event>
<event>
 6    1  0.1293624E-005  0.1483679E+03  0.7818608E-02  0.1285095E+00
          2   -1    0    0  502    0  0.00000000000E+00  0.00000000000E+00  0.16349798695E+03  0.16349798695E+03  0.00000000000E+00 0. -1.
          1   -1    0    0  501    0 -0.00000000000E+00 -0.00000000000E+00 -0.99848269344E+03  0.99848269344E+03  0.00000000000E+00 0. -1.
          2    1    1    2  501    0 -0.31366513141E+02  0.28304064590E+02  0.38072218981E+02  0.56872419300E+02  0.00000000000E+00 0. -1.
          1    1    1    2  502    0  0.56583668026E+02 -0.12067832557E+03 -0.93063020197E+03  0.94012634394E+03  0.00000000000E+00 0. -1.
         22    1    1    2    0    0 -0.60412337657E+01 -0.27296082989E+02  0.29366592559E+02  0.40545892646E+02  0.00000000000E+00 0. -1.
         22    1    1    2    0    0 -0.19175921119E+02  0.11967034397E+03  0.28206683945E+02  0.12443602451E+03  0.00000000000E+00 0. -1.
</event>
<event>
 6    1  0.1293624E-005  0.2232436E+03  0.7818608E-02  0.1131488E+00
          2   -1    0    0  502    0  0.00000000000E+00  0.00000000000E+00  0.20662064893E+03  0.20662064893E+03  0.00000000000E+00 0.  1.
          1   -1    0    0  501    0 -0.00000000000E+00 -0.00000000000E+00 -0.12998543336E+03  0.12998543336E+03  0.00000000000E+00 0.  1.
          2    1    1    2  501    0  0.34564902302E+02 -0.10017790879E+01 -0.32757237732E+02  0.47631635037E+02  0.00000000000E+00 0.  1.
          1    1    1    2  502    0 -0.57850699450E+02 -0.86089083450E+02  0.13424628812E+02  0.10458610986E+03  0.00000000000E+00 0.  1.
         22    1    1    2    0    0  0.59771503508E+02  0.53139388231E+01  0.11122174177E+02  0.61029282609E+02  0.00000000000E+00 0.  1.
         22    1    1    2    0    0 -0.36485706360E+02  0.81776923715E+02  0.84845650316E+02  0.12335905479E+03  0.00000000000E+00 0.  1.
</event>
<event>
 6    1  0.1293624E-005  0.5557375E+02  0.7818608E-02  0.1422069E+00
          2   -1    0    0  502    0  0.00000000000E+00  0.00000000000E+00  0.22390117620E+03  0.22390117620E+03  0.00000000000E+00 0.  1.
          1   -1    0    0  501    0 -0.00000000000E+00 -0.00000000000E+00 -0.13356079803E+04  0.13356079803E+04  0.00000000000E+00 0. -1.
          2    1    1    2  501    0 -0.48750815949E+02 -0.40596472163E+02 -0.56609671760E+02  0.85025705199E+02  0.00000000000E+00 0.  1.
          1    1    1    2  502    0  0.89097090152E+01  0.38611925994E+02 -0.12452035232E+04  0.12458338885E+04  0.00000000000E+00 0. -1.
         22    1    1    2    0    0  0.46802722972E+02  0.19978247724E+02  0.20041504110E+03  0.20677479043E+03  0.00000000000E+00 0.  1.
         22    1    1    2    0    0 -0.69616160379E+01 -0.17993701554E+02 -0.10308650259E+02  0.21874772311E+02  0.00000000000E+00 0.  1.
</event>
<event>
 6    1  0.1293624E-005  0.1894558E+03  0.7818608E-02  0.1160500E+00
          2   -1    0    0  502    0  0.00000000000E+00  0.00000000000E+00  0.75769528423E+03  0.75769528423E+03  0.00000000000E+00 0.  1.
          1   -1    0    0  501    0 -0.00000000000E+00 -0.00000000000E+00 -0.44893121450E+03  0.44893121450E+03  0.00000000000E+00 0. -1.
          2    1    1    2  501    0 -0.18545495950E+03  0.11729634922E+02  0.47768480649E+02  0.19186702187E+03  0.00000000000E+00 0.  1.
          1    1    1    2  502    0  0.24666076001E+02  0.23367594473E+02 -0.35886936215E+03  0.36047424162E+03  0.00000000000E+00 0. -1.
         22    1    1    2    0    0 -0.12969820971E+02  0.12288177165E+02  0.15493389823E+02  0.23648693035E+02  0.00000000000E+00 0.  1.
         22    1    1    2    0    0  0.17375870447E+03 -0.47385406560E+02  0.60437156141E+03  0.63063654221E+03  0.00000000000E+00 0.  1.
</event>
<event>
 6    1  0.1293624E-005  0.8683565E+02  0.7818608E-02  0.1317118E+00
          2   -1    0    0  502    0  0.00000000000E+00  0.00000000000E+00  0.82333770295E+03  0.82333770295E+03  0.00000000000E+00 0.  1.
          1   -1    0    0  501    0 -0.00000000000E+00 -0.00000000000E+00 -0.18874144313E+02  0.18874144313E+02  0.00000000000E+00 0. -1.
          2    1    1    2  501    0  0.27820428091E+02 -0.30750479720E+02  0.17004369526E+03  0.17502693084E+03  0.00000000000E+00 0.  1.
          1    1    1    2  502    0  0.12308833835E+02  0.53641023552E+02  0.81588522845E+02  0.98415211518E+02  0.00000000000E+00 0. -1.
         22    1    1    2    0    0 -0.84098030993E+02 -0.27362013417E+02  0.33326293547E+03  0.34479753879E+03  0.00000000000E+00 0.  1.
         22    1    1    2    0    0  0.43968769067E+02  0.44714695848E+01  0.21956840506E+03  0.22397216611E+03  0.00000000000E+00 0.  1.
</event>
<event>
 6    1  0.1293624E-005  0.1370891E+03  0.7818608E-02  0.1218786E+00
          2   -1    0    0  502    0  0.00000000000E+00  0.00000000000E+00  0.77374880516E+03  0.77374880516E+03  0.00000000000E+00 0.  1.
          1   -1    0    0  501    0 -0.00000000000E+00 -0.00000000000E+00 -0.15540120421E+03  0.15540120421E+03  0.00000000000E+00 0. -1.
          2    1    1    2  501    0 -0.97445326109E+02 -0.99574234910E+02  0.12143025095E+03  0.18481321837E+03  0.00000000000E+00 0.  1.
          1    1    1    2  502    0  0.14039551493E+02  0.17438881744E+02 -0.11079238198E+03  0.11303174558E+03  0.00000000000E+00 0. -1.
         22    1    1    2    0    0 -0.18224528597E+01 -0.15134916125E+02  0.68986012788E+01  0.16732534779E+02  0.00000000000E+00 0.  1.
         22    1    1    2    0    0  0.85228227475E+02  0.97270269291E+02  0.60081113071E+03  0.61457251064E+03  0.00000000000E+00 0.  1.
</event>
<event>
 6    1  0.1293624E-005  0.2822953E+03  0.7818608E-02  0.1094442E+00
          2   -1    0    0  502    0  0.00000000000E+00  0.00000000000E+00  0.10668902738E+03  0.10668902738E+03  0.00000000000E+00 0.  1.
          1   -1    0    0  501    0 -0.00000000000E+00 -0.00000000000E+00 -0.33912427869E+03  0.33912427869E+03  0.00000000000E+00 0.  1.
          2    1    1    2  501    0 -0.29587228895E+02 -0.15187690871E+02 -0.16700659978E+03  0.17028586094E+03  0.00000000000E+00 0.  1.
          1    1    1    2  502    0  0.87438411743E+02 -0.45043530629E+01 -0.10321581150E+03  0.13534869334E+03  0.00000000000E+00 0.  1.
         22    1    1    2    0    0 -0.22616953238E+02 -0.28143962402E+02  0.65368609166E+02  0.74677066478E+02  0.00000000000E+00 0.  1.
         22    1    1    2    0    0 -0.35234229611E+02  0.47836006336E+02 -0.27581449202E+02  0.65501685310E+02  0.00000000000E+00 0.  1.
</event>
<event>
 6    1  0.1293624E-005  0.1950408E+03  0.7818608E-02  0.1215546E+00
          2   -1    0    0  502    0  0.00000000000E+00  0.00000000000E+00  0.70542255025E+03  0.70542255025E+03  0.00000000000E+00 0. -1.
          1   -1    0    0  501    0 -0.00000000000E+00 -0.00000000000E+00 -0.32823271488E+03  0.32823271488E+03  0.00000000000E+00 0.  1.
          2    1    1    2  501    0  0.26320700730E+02  0.14548315199E+02  0.69548719795E+02  0.75772403863E+02  0.00000000000E+00 0. -1.
          1    1    1    2  502    0 -0.16681081763E+03 -0.98070298959E+02 -0.27682628401E+03  0.33775201545E+03  0.00000000000E+00 0.  1.
         22    1    1    2    0    0  0.37656414047E+02 -0.31974017602E+02  0.99210200465E+02  0.11082872911E+03  0.00000000000E+00 0. -1.
         22    1    1    2    0    0  0.10283370286E+03  0.11549600136E+03  0.48525719913E+03  0.50930211671E+03  0.00000000000E+00 0. -1.
</event>
<event>
 6    1  0.1293624E-005  0.1774698E+03  0.7818608E-02  0.1170274E+00
          2   -1    0    0  502    0  0.00000000000E+00  0.00000000000E+00  0.25785901869E+03  0.25785901869E+03  0.00000000000E+00 0. -1.
          1   -1    0    0  501    0 -0.00000000000E+00 -0.00000000000E+00 -0.13481161151E+03  0.13481161151E+03  0.00000000000E+00 0. -1.
          2    1    1    2  501    0 -0.19449770683E+02  0.10879691732E+02  0.12777595233E+03  0.12970487758E+03  0.00000000000E+00 0. -1.
          1    1    1    2  502    0  0.36193944744E+02 -0.11910721136E+02 -0.10036156097E+03  0.10735133830E+03  0.00000000000E+00 0. -1.
         22    1    1    2    0    0 -0.26021136122E+02  0.26151699511E+02  0.11615718585E+03  0.12187494713E+03  0.00000000000E+00 0. -1.
         22    1    1    2    0    0  0.92769620607E+01 -0.25120670106E+02 -0.20524170036E+02  0.33739467206E+02  0.00000000000E+00 0.  1.
</event>
<event>
 6    1  0.1293624E-005  0.5655621E+02  0.7818608E-02  0.1437070E+00
          2   -1    0    0  502    0  0.00000000000E+00  0.00000000000E+00  0.29372637201E+03  0.29372637201E+03  0.00000000000E+00 0. -1.
          1   -1    0    0  501    0 -0.00000000000E+00 -0.00000000000E+00 -0.72377142849E+03  0.72377142849E+03  0.00000000000E+00 0. -1.
          2    1    1    2  501    0 -0.22098490242E+02  0.13044683327E+02  0.36605040273E+02  0.44703870162E+02  0.00000000000E+00 0. -1.
          1    1    1    2  502    0  0.38156531207E+02 -0.37509906894E+02 -0.70346752269E+03  0.70549944683E+03  0.00000000000E+00 0. -1.
         22    1    1    2    0    0 -0.54268685954E+02  0.16234556697E+02  0.47324658973E+02  0.73812427499E+02  0.00000000000E+00 0. -1.
         22    1    1    2    0    0  0.38210644989E+02  0.82306668699E+01  0.18949276697E+03  0.19348205602E+03  0.00000000000E+00 0. -1.
</event>
<event>
 6    1  0.1293624E-005  0.2051694E+03  0.7818608E-02  0.1206894E+00
          2   -1    0    0  502    0  0.00000000000E+00  0.00000000000E+00  0.41799057293E+03  0.41799057293E+03  0.00000000000E+00 0.  1.
          1   -1    0    0  501    0 -0.00000000000E+00 -0.00000000000E+00 -0.41458157296E+03  0.41458157296E+03  0.00000000000E+00 0.  1.
          2    1    1    2  501    0  0.72962573446E+02 -0.61828117085E+02  0.86680329866E+02  0.12907258722E+03  0.00000000000E+00 0.  1.
          1    1    1    2  502    0 -0.34851509882E+02  0.17641244806E+03 -0.34559572315E+03  0.38957975234E+03  0.00000000000E+00 0.  1.
         22    1    1    2    0    0 -0.50992604731E+02  0.19918070840E+01  0.50510636088E+02  0.71802070936E+02  0.00000000000E+00 0.  1.
         22    1    1    2    0    0  0.12881541168E+02 -0.11657613806E+03  0.21181375717E+03  0.24211773540E+03  0.00000000000E+00 0.  1.
</event>
<event>
 6    1  0.1293624E-005  0.6352357E+02  0.7818608E-02  0.1385360E+00
          2   -1    0    0  502    0  0.00000000000E+00  0.00000000000E+00  0.82738397644E+02  0.82738397644E+02  0.00000000000E+00 0. -1.
          1   -1    0    0  501    0 -0.00000000000E+00 -0.00000000000E+00 -0.13877847051E+04  0.13877847051E+04  0.00000000000E+00 0.  1.
          2    1    1    2  501    0  0.14926144448E+02 -0.14516175137E+02 -0.97946351885E+01  0.23009650305E+02  0.00000000000E+00 0. -1.
          1    1    1    2  502    0  0.24784668564E+02  0.65155014603E+01 -0.13150074503E+04  0.13152571330E+04  0.00000000000E+00 0.  1.
         22    1    1    2    0    0 -0.58383515597E+02  0.29980490031E+02  0.55763645527E+02  0.86122290021E+02  0.00000000000E+00 0. -1.
         22    1    1    2    0    0  0.18672702585E+02 -0.21979816354E+02 -0.36007867485E+02  0.46134029410E+02  0.00000000000E+00 0. -1.
</event>
<event>
 6    1  0.1293624E-005  0.2878218E+03  0.7818608E-02  0.1091492E+00
          2   -1    0    0  502    0  0.00000000000E+00  0.00000000000E+00  0.26100391225E+03  0.26100391225E+03  0.00000000000E+00 0. -1.
          1   -1    0    0  501    0 -0.00000000000E+00 -0.00000000000E+00 -0.25752555510E+03  0.25752555510E+03  0.00000000000E+00 0. -1.
          2    1    1    2  501    0  0.10202569247E+03  0.41068976524E+02 -0.16283732987E+03  0.19649910624E+03  0.00000000000E+00 0. -1.
          1    1    1    2  502    0 -0.10114079817E+03 -0.11889224761E+02  0.16093810093E+03  0.19045179719E+03  0.00000000000E+00 0. -1.
         22    1    1    2    0    0 -0.16725806635E+02  0.26505463350E+02 -0.44996978362E+02  0.54836304185E+02  0.00000000000E+00 0.  1.
         22    1    1    2    0    0  0.15840912334E+02 -0.55685215113E+02  0.50374564444E+02  0.76742259731E+02  0.00000000000E+00 0. -1.
</event>
<event>
 6    1  0.1293624E-005  0.1977148E+03  0.7818608E-02  0.1151681E+00
          2   -1    0    0  502    0  0.00000000000E+00  0.00000000000E+00  0.78023953273E+02  0.78023953273E+02  0.00000000000E+00 0. -1.
          1   -1    0    0  501    0 -0.00000000000E+00 -0.00000000000E+00 -0.91359263575E+03  0.91359263575E+03  0.00000000000E+00 0.  1.
          2    1    1    2  501    0 -0.29696666708E+02 -0.33329091227E+02 -0.17655049665E+02  0.48004386406E+02  0.00000000000E+00 0. -1.
          1    1    1    2  502    0  0.71495380743E+02 -0.38649213245E+02 -0.78276380716E+03  0.78697174597E+03  0.00000000000E+00 0.  1.
         22    1    1    2    0    0  0.58111025027E+00 -0.36298169000E+02 -0.10363268434E+02  0.37753040865E+02  0.00000000000E+00 0. -1.
         22    1    1    2    0    0 -0.42379824286E+02  0.10827647347E+03 -0.24786557221E+02  0.11888741579E+03  0.00000000000E+00 0. -1.
</event>
<event>
 6    1  0.1293624E-005  0.5981663E+03  0.7818608E-02  0.9909218E-01
          2   -1    0    0  502    0  0.00000000000E+00  0.00000000000E+00  0.22907904604E+03  0.22907904604E+03  0.00000000000E+00 0. -1.
          1   -1    0    0  501    0 -0.00000000000E+00 -0.00000000000E+00 -0.71752714530E+03  0.71752714530E+03  0.00000000000E+00 0. -1.
          2    1    1    2  501    0  0.14805905249E+03  0.91638139145E+02 -0.34397501316E+03  0.38553578465E+03  0.00000000000E+00 0. -1.
          1    1    1    2  502    0  0.64521167087E+01 -0.13254834736E+03 -0.28569496715E+03  0.31501160050E+03  0.00000000000E+00 0. -1.
         22    1    1    2    0    0  0.17050068692E+01  0.15601404492E+02 -0.16401031249E+02  0.22700323711E+02  0.00000000000E+00 0.  1.
         22    1    1    2    0    0 -0.15621617607E+03  0.25308803722E+02  0.15762291230E+03  0.22335848247E+03  0.00000000000E+00 0. -1.
</event>
<event>
 6    1  0.1293624E-005  0.4861376E+02  0.7818608E-02  0.1477759E+00
          2   -1    0    0  502    0  0.00000000000E+00  0.00000000000E+00  0.27825552514E+02  0.27825552514E+02  0.00000000000E+00 0.  1.
          1   -1    0    0  501    0 -0.00000000000E+00 -0.00000000000E+00 -0.10789979886E+04  0.10789979886E+04  0.00000000000E+00 0.  1.
          2    1    1    2  501    0  0.21097889326E+02 -0.68648596678E+01 -0.16522475404E+03  0.16670772801E+03  0.00000000000E+00 0.  1.
          1    1    1    2  502    0 -0.45499699848E+02 -0.34903551780E+00 -0.76273503567E+03  0.76409101497E+03  0.00000000000E+00 0.  1.
         22    1    1    2    0    0  0.10871227010E+02  0.32216234775E+02  0.13354846033E+02  0.36529731348E+02  0.00000000000E+00 0.  1.
         22    1    1    2    0    0  0.13530583512E+02 -0.25002339589E+02 -0.13656749243E+03  0.13949506680E+03  0.00000000000E+00 0.  1.
</event>
<event>
 6    1  0.1293624E-005  0.2003185E+03  0.7818608E-02  0.1149471E+00
          2   -1    0    0  502    0  0.00000000000E+00  0.00000000000E+00  0.74525005148E+03  0.74525005148E+03  0.00000000000E+00 0.  1.
          1   -1    0    0  501    0 -0.00000000000E+00 -0.00000000000E+00 -0.14956553032E+03  0.14956553032E+03  0.00000000000E+00 0.  1.
          2    1    1    2  501    0 -0.35043531293E+02 -0.10363622782E+02  0.51319815370E+02  0.63001406430E+02  0.00000000000E+00 0.  1.
          1    1    1    2  502    0  0.19868873901E+02 -0.59465658526E+02 -0.12874517873E+03  0.14320006194E+03  0.00000000000E+00 0.  1.
         22    1    1    2    0    0 -0.43572897207E+02 -0.11224305639E+02  0.19232292807E+03  0.19751630583E+03  0.00000000000E+00 0.  1.
         22    1    1    2    0    0  0.58747554599E+02  0.81053586947E+02  0.48078695645E+03  0.49109780759E+03  0.00000000000E+00 0.  1.
</event>
<event>
 6    1  0.1293624E-005  0.9433407E+02  0.7818608E-02  0.1317682E+00
          2   -1    0    0  502    0  0.00000000000E+00  0.00000000000E+00  0.12853764795E+03  0.12853764795E+03  0.00000000000E+00 0.  1.
          1   -1    0    0  501    0 -0.00000000000E+00 -0.00000000000E+00 -0.15240869668E+04  0.15240869668E+04  0.00000000000E+00 0. -1.
          2    1    1    2  501    0  0.76593263050E+01 -0.11011217553E+03 -0.12280196073E+03  0.16511716458E+03  0.00000000000E+00 0.  1.
          1    1    1    2  502    0  0.32943457541E+02  0.79345794737E+02 -0.13377598964E+04  0.13405157839E+04  0.00000000000E+00 0. -1.
         22    1    1    2    0    0 -0.14415253935E+02 -0.22905462141E+02 -0.26395347245E+02  0.37804419028E+02  0.00000000000E+00 0.  1.
         22    1    1    2    0    0 -0.26187529910E+02  0.53671842936E+02  0.91407885449E+02  0.10918724728E+03  0.00000000000E+00 0.  1.
</event>
<event>
 6    1  0.1293624E-005  0.8616796E+02  0.7818608E-02  0.1315549E+00
          2   -1    0    0  502    0  0.00000000000E+00  0.00000000000E+00  0.30497271809E+03  0.30497271809E+03  0.00000000000E+00 0.  1.
          1   -1    0    0  501    0 -0.00000000000E+00 -0.00000000000E+00 -0.17593101320E+04  0.17593101320E+04  0.00000000000E+00 0.  1.
          2    1    1    2  501    0 -0.15429236948E+02 -0.53815519290E+02  0.20408262032E+02  0.59587487180E+02  0.00000000000E+00 0.  1.
          1    1    1    2  502    0 -0.25204266550E+02  0.12957355514E+02 -0.17211001234E+04  0.17213334316E+04  0.00000000000E+00 0.  1.
         22    1    1    2    0    0  0.28248023107E+02  0.75552087997E+02  0.22870858045E+03  0.24251532649E+03  0.00000000000E+00 0.  1.
         22    1    1    2    0    0  0.12385480391E+02 -0.34693924221E+02  0.17645866984E+02  0.40846604803E+02  0.00000000000E+00 0.  1.
</event>
<event>
 6    1  0.1293624E-005  0.9258359E+02  0.7818608E-02  0.1302767E+00
          2   -1    0    0  502    0  0.00000000000E+00  0.00000000000E+00  0.45557049109E+02  0.45557049109E+02  0.00000000000E+00 0.  1.
          1   -1    0    0  501    0 -0.00000000000E+00 -0.00000000000E+00 -0.12451175309E+04  0.12451175309E+04  0.00000000000E+00 0. -1.
          2    1    1    2  501    0  0.27886549647E+02 -0.24553749438E+02 -0.31344881155E+02  0.48611190453E+02  0.00000000000E+00 0.  1.
          1    1    1    2  502    0  0.21381884776E+02 -0.23973061563E+02 -0.10684532941E+04  0.10689360759E+04  0.00000000000E+00 0. -1.
         22    1    1    2    0    0  0.41716081316E+02  0.15130328440E+02 -0.35641218215E+02  0.56916207841E+02  0.00000000000E+00 0. -1.
         22    1    1    2    0    0 -0.90984515739E+02  0.33396482560E+02 -0.64121088351E+02  0.11621110585E+03  0.00000000000E+00 0.  1.
</event>
<event>
 6    1  0.1293624E-005  0.4164537E+03  0.7818608E-02  0.1038227E+00
          2   -1    0    0  502    0  0.00000000000E+00  0.00000000000E+00  0.82770235405E+03  0.82770235405E+03  0.00000000000E+00 0. -1.
          1   -1    0    0  501    0 -0.00000000000E+00 -0.00000000000E+00 -0.29952362976E+03  0.29952362976E+03  0.00000000000E+00 0. -1.
          2    1    1    2  501    0  0.66442533146E+02  0.66731076948E+02  0.13073259409E+03  0.16111690786E+03  0.00000000000E+00 0. -1.
          1    1    1    2  502    0 -0.24211262574E+03 -0.30479184942E+03 -0.72855407046E+02  0.39601073894E+03  0.00000000000E+00 0. -1.
         22    1    1    2    0    0  0.67640375443E+02  0.12201169305E+03  0.11417210865E+03  0.18027019727E+03  0.00000000000E+00 0. -1.
         22    1    1    2    0    0  0.10802971715E+03  0.11604907943E+03  0.35612942859E+03  0.38982813974E+03  0.00000000000E+00 0. -1.
</event>
<event>
 6    1  0.1293624E-005  0.2002377E+03  0.7818608E-02  0.1193798E+00
          2   -1    0    0  502    0  0.00000000000E+00  0.00000000000E+00  0.16565239965E+03  0.16565239965E+03  0.00000000000E+00 0. -1.
          1   -1    0    0  501    0 -0.00000000000E+00 -0.00000000000E+00 -0.26263604660E+04  0.26263604660E+04  0.00000000000E+00 0.  1.
          2    1    1    2  501    0  0.86311647504E+02 -0.73603351097E+02 -0.62854377435E+02  0.12968356315E+03  0.00000000000E+00 0. -1.
          1    1    1    2  502    0 -0.17996205731E+03  0.97386905188E+02 -0.24755452898E+04  0.24839877281E+04  0.00000000000E+00 0.  1.
         22    1    1    2    0    0  0.72686155024E+02 -0.61529863211E+01  0.11248015943E+03  0.13406312930E+03  0.00000000000E+00 0. -1.
         22    1    1    2    0    0  0.20964254787E+02 -0.17630567769E+02 -0.34788558560E+02  0.44278445155E+02  0.00000000000E+00 0. -1.
</event>
<event>
 6    1  0.1293624E-005  0.9135525E+02  0.7818608E-02  0.1304874E+00
          2   -1    0    0  502    0  0.00000000000E+00  0.00000000000E+00  0.49245835397E+02  0.49245835397E+02  0.00000000000E+00 0.  1.
          1   -1    0    0  501    0 -0.00000000000E+00 -0.00000000000E+00 -0.13185149276E+04  0.13185149276E+04  0.00000000000E+00 0.  1.
          2    1    1    2  501    0 -0.60381253986E+02 -0.19414393162E+02 -0.29015681662E+02  0.69747575420E+02  0.00000000000E+00 0.  1.
          1    1    1    2  502    0  0.69910136388E+02 -0.58807782341E+02 -0.10698185867E+04  0.10737120614E+04  0.00000000000E+00 0.  1.
         22    1    1    2    0    0  0.10340313708E+02  0.98514850233E+02 -0.16896805381E+03  0.19586296488E+03  0.00000000000E+00 0. -1.
         22    1    1    2    0    0 -0.19869196110E+02 -0.20292674731E+02 -0.14667700432E+01  0.28438161265E+02  0.00000000000E+00 0. -1.
</event>
<event>
 6    1  0.1293624E-005  0.1037605E+03  0.7818608E-02  0.1304172E+00
          2   -1    0    0  502    0  0.00000000000E+00  0.00000000000E+00  0.13690243601E+03  0.13690243601E+03  0.00000000000E+00 0. -1.
          1   -1    0    0  501    0 -0.00000000000E+00 -0.00000000000E+00 -0.84417048729E+03  0.84417048729E+03  0.00000000000E+00 0.  1.
          2    1    1    2  501    0 -0.67284703098E+02  0.47215444181E+02 -0.47711185112E+01  0.82336462227E+02  0.00000000000E+00 0. -1.
          1    1    1    2  502    0  0.61894735162E+02 -0.69786162075E+02 -0.75387111746E+03  0.75962012111E+03  0.00000000000E+00 0.  1.
         22    1    1    2    0    0  0.51967550770E+02  0.24203900649E+02  0.68625428232E+02  0.89419821851E+02  0.00000000000E+00 0. -1.
         22    1    1    2    0    0 -0.46577582834E+02 -0.16331827552E+01 -0.17251243544E+02  0.49696518111E+02  0.00000000000E+00 0. -1.
</event>
<event>
 6    1  0.1293624E-005  0.2618779E+03  0.7818608E-02  0.1106020E+00
          2   -1    0    0  502    0  0.00000000000E+00  0.00000000000E+00  0.33838195832E+02  0.33838195832E+02  0.00000000000E+00 0.  1.
          1   -1    0    0  501    0 -0.00000000000E+00 -0.00000000000E+00 -0.12676077676E+04  0.12676077676E+04  0.00000000000E+00 0. -1.
          2    1    1    2  501    0 -0.59947906513E+02  0.37801438846E+02 -0.34685958411E+03  0.35402580607E+03  0.00000000000E+00 0.  1.
          1    1    1    2  502    0  0.85932357884E+01 -0.29537921907E+02 -0.75589047474E+03  0.75651618775E+03  0.00000000000E+00 0. -1.
         22    1    1    2    0    0 -0.18240941865E+02  0.41927797522E+02 -0.76868089077E+02  0.89439226761E+02  0.00000000000E+00 0.  1.
         22    1    1    2    0    0  0.69595612590E+02 -0.50191314460E+02 -0.54151423861E+02  0.10146474287E+03  0.00000000000E+00 0.  1.
</event>
<event>
 6    1  0.1293624E-005  0.3083459E+03  0.7818608E-02  0.1222977E+00
          2   -1    0    0  502    0  0.00000000000E+00  0.00000000000E+00  0.35470662957E+03  0.35470662957E+03  0.00000000000E+00 0. -1.
          1   -1    0    0  501    0 -0.00000000000E+00 -0.00000000000E+00 -0.78528824121E+03  0.78528824121E+03  0.00000000000E+00 0.  1.
          2    1    1    2  501    0  0.20473252154E+02 -0.13068172088E+02  0.54263218275E+01  0.24887268715E+02  0.00000000000E+00 0. -1.
          1    1    1    2  502    0 -0.26471026090E+03  0.15304999817E+03 -0.66393718195E+03  0.73096402493E+03  0.00000000000E+00 0.  1.
         22    1    1    2    0    0 -0.97667067993E+01 -0.43561040756E+01  0.37330228255E+02  0.38831818732E+02  0.00000000000E+00 0. -1.
         22    1    1    2    0    0  0.25400371555E+03 -0.13562572200E+03  0.19059902023E+03  0.34531175841E+03  0.00000000000E+00 0. -1.
</event>
<event>
 6    1  0.1293624E-005  0.9997084E+02  0.7818608E-02  0.1291805E+00
          2   -1    0    0  502    0  0.00000000000E+00  0.00000000000E+00  0.43175058072E+03  0.43175058072E+03  0.00000000000E+00 0. -1.
          1   -1    0    0  501    0 -0.00000000000E+00 -0.00000000000E+00 -0.10412700858E+03  0.10412700858E+03  0.00000000000E+00 0. -1.
          2    1    1    2  501    0 -0.40922000556E+02 -0.38162962562E+02  0.82079350359E+02  0.99338016874E+02  0.00000000000E+00 0. -1.
          1    1    1    2  502    0  0.56761398763E+02 -0.11529542444E+02 -0.71526804370E+02  0.92037332001E+02  0.00000000000E+00 0. -1.
         22    1    1    2    0    0  0.50861921742E+02  0.43747736233E+02  0.14165008862E+03  0.15673400115E+03  0.00000000000E+00 0. -1.
         22    1    1    2    0    0 -0.66701319948E+02  0.59447687734E+01  0.17542093752E+03  0.18776823927E+03  0.00000000000E+00 0. -1.
</event>
<event>
 6    1  0.1293624E-005  0.4141292E+02  0.7818608E-02  0.1501718E+00
          2   -1    0    0  502    0  0.00000000000E+00  0.00000000000E+00  0.19311614554E+03  0.19311614554E+03  0.00000000000E+00 0.  1.
          1   -1    0    0  501    0 -0.00000000000E+00 -0.00000000000E+00 -0.15122838959E+04  0.15122838959E+04  0.00000000000E+00 0. -1.
          2    1    1    2  501    0 -0.10746746895E+02 -0.40106823987E+02 -0.58696402763E+02  0.71897966567E+02  0.00000000000E+00 0.  1.
          1    1    1    2  502    0  0.16225558613E+02  0.13458511224E+02 -0.14247227214E+04  0.14248786731E+04  0.00000000000E+00 0. -1.
         22    1    1    2    0    0 -0.92114270411E+01  0.38063396802E+02  0.18256772372E+03  0.18672077096E+03  0.00000000000E+00 0.  1.
         22    1    1    2    0    0  0.37326153221E+01 -0.11415084039E+02 -0.18316349897E+02  0.21902630763E+02  0.00000000000E+00 0. -1.
</event>
<event>
 6    1  0.1293624E-005  0.2512353E+03  0.7818608E-02  0.1112527E+00
          2   -1    0    0  502    0  0.00000000000E+00  0.00000000000E+00  0.44363633566E+03  0.44363633566E+03  0.00000000000E+00 0.  1.
          1   -1    0    0  501    0 -0.00000000000E+00 -0.00000000000E+00 -0.88973212900E+02  0.88973212900E+02  0.00000000000E+00 0.  1.
          2    1    1    2  501    0 -0.29972176789E+02  0.99480288306E+02  0.75500460158E+02  0.12843277863E+03  0.00000000000E+00 0.  1.
          1    1    1    2  502    0 -0.40460126647E+02 -0.13843201195E+03  0.15479274490E+03  0.21156851763E+03  0.00000000000E+00 0.  1.
         22    1    1    2    0    0  0.24004232380E+02  0.80535643461E+02  0.80646030388E+02  0.11647306666E+03  0.00000000000E+00 0.  1.
         22    1    1    2    0    0  0.46428071056E+02 -0.41583919815E+02  0.43723887311E+02  0.76135185629E+02  0.00000000000E+00 0.  1.
</event>
<event>
 6    1  0.1293624E-005  0.2522120E+03  0.7818608E-02  0.1111915E+00
          2   -1    0    0  502    0  0.00000000000E+00  0.00000000000E+00  0.10518895101E+03  0.10518895101E+03  0.00000000000E+00 0.  1.
          1   -1    0    0  501    0 -0.00000000000E+00 -0.00000000000E+00 -0.15658238417E+04  0.15658238417E+04  0.00000000000E+00 0. -1.
          2    1    1    2  501    0 -0.60530986606E+02 -0.78842939837E+01 -0.94393020435E+02  0.11241087464E+03  0.00000000000E+00 0.  1.
          1    1    1    2  502    0  0.84015199387E+02  0.64866166182E+02 -0.14097233313E+04  0.14137135650E+04  0.00000000000E+00 0. -1.
         22    1    1    2    0    0 -0.21590098258E+02 -0.68343254480E+02  0.79520487018E+02  0.10705344754E+03  0.00000000000E+00 0.  1.
         22    1    1    2    0    0 -0.18941145227E+01  0.11361382281E+02 -0.36039026003E+02  0.37834905476E+02  0.00000000000E+00 0. -1.
</event>
<event>
 6    1  0.1293624E-005  0.3609996E+03  0.7818608E-02  0.1058189E+00
          2   -1    0    0  502    0  0.00000000000E+00  0.00000000000E+00  0.22774212680E+04  0.22774212680E+04  0.00000000000E+00 0. -1.
          1   -1    0    0  501    0 -0.00000000000E+00 -0.00000000000E+00 -0.50223548166E+02  0.50223548166E+02  0.00000000000E+00 0.  1.
          2    1    1    2  501    0 -0.66143780533E+02  0.76800831653E+02  0.68182811305E+03  0.68932063889E+03  0.00000000000E+00 0. -1.
          1    1    1    2  502    0 -0.15915083709E+03 -0.59176006776E+02  0.17461905552E+03  0.24356231908E+03  0.00000000000E+00 0.  1.
         22    1    1    2    0    0 -0.14715606718E+02  0.72125107515E+01  0.90043063976E+02  0.91522252827E+02  0.00000000000E+00 0. -1.
         22    1    1    2    0    0  0.24001022434E+03 -0.24837335628E+02  0.12807074873E+04  0.13032396054E+04  0.00000000000E+00 0. -1.
</event>
<event>
 6    1  0.1293624E-005  0.2492324E+03  0.7818608E-02  0.1177023E+00
          2   -1    0    0  502    0  0.00000000000E+00  0.00000000000E+00  0.29109083103E+03  0.29109083103E+03  0.00000000000E+00 0. -1.
          1   -1    0    0  501    0 -0.00000000000E+00 -0.00000000000E+00 -0.45820701859E+03  0.45820701859E+03  0.00000000000E+00 0. -1.
          2    1    1    2  501    0  0.53193989397E+02  0.11255243560E+03  0.53929535341E+02  0.13566888387E+03  0.00000000000E+00 0. -1.
          1    1    1    2  502    0 -0.11676224693E+03 -0.22718815680E+03 -0.31981742469E+03  0.40930559004E+03  0.00000000000E+00 0. -1.
         22    1    1    2    0    0  0.44701615001E+02  0.63012339909E+02 -0.14328394098E+02  0.78575392089E+02  0.00000000000E+00 0. -1.
         22    1    1    2    0    0  0.18866642535E+02  0.51623381294E+02  0.11310009588E+03  0.12574798362E+03  0.00000000000E+00 0. -1.
</event>
<event>
 6    1  0.1293624E-005  0.2301024E+03  0.7818608E-02  0.1126568E+00
          2   -1    0    0  502    0  0.00000000000E+00  0.00000000000E+00  0.63977811000E+02  0.63977811000E+02  0.00000000000E+00 0. -1.
          1   -1    0    0  501    0 -0.00000000000E+00 -0.00000000000E+00 -0.10075202907E+04  0.10075202907E+04  0.00000000000E+00 0. -1.
          2    1    1    2  501    0  0.14202733361E+02  0.16128798361E+02 -0.13550416372E+03  0.13719779210E+03  0.00000000000E+00 0. -1.
          1    1    1    2  502    0 -0.39430585138E+02  0.35121498853E+02 -0.79688530837E+03  0.79863288527E+03  0.00000000000E+00 0. -1.
         22    1    1    2    0    0  0.12100138823E+02 -0.10817961760E+02 -0.65038091927E+02  0.67032790913E+02  0.00000000000E+00 0. -1.
         22    1    1    2    0    0  0.13127712953E+02 -0.40432335454E+02  0.53885084300E+02  0.68634633441E+02  0.00000000000E+00 0. -1.
</event>
<event>
 6    1  0.1293624E-005  0.2090565E+03  0.7818608E-02  0.1142315E+00
          2   -1    0    0  502    0  0.00000000000E+00  0.00000000000E+00  0.71723555980E+02  0.71723555980E+02  0.00000000000E+00 0. -1.
          1   -1    0    0  501    0 -0.00000000000E+00 -0.00000000000E+00 -0.46533608095E+03  0.46533608095E+03  0.00000000000E+00 0. -1.
          2    1    1    2  501    0 -0.19742832332E+02 -0.27818861470E+02 -0.56258922674E+02  0.65793121696E+02  0.00000000000E+00 0. -1.
          1    1    1    2  502    0  0.12867361341E+03  0.21357194570E+02 -0.25441211932E+03  0.28589955405E+03  0.00000000000E+00 0. -1.
         22    1    1    2    0    0 -0.52476792121E+01  0.47384297617E+02 -0.50110980780E+02  0.69165888937E+02  0.00000000000E+00 0. -1.
         22    1    1    2    0    0 -0.10368310187E+03 -0.40922630717E+02 -0.32830502197E+02  0.11620107225E+03  0.00000000000E+00 0. -1.
</event>
<event>
 6    1  0.1293624E-005  0.7485433E+02  0.7818608E-02  0.1345484E+00
          2   -1    0    0  502    0  0.00000000000E+00  0.00000000000E+00  0.31027505886E+03  0.31027505886E+03  0.00000000000E+00 0.  1.
          1   -1    0    0  501    0 -0.00000000000E+00 -0.00000000000E+00 -0.20672571068E+03  0.20672571068E+03  0.00000000000E+00 0.  1.
          2    1    1    2  501    0  0.27771648176E+02 -0.47569676483E+01  0.90997468762E+02  0.95259815792E+02  0.00000000000E+00 0.  1.
          1    1    1    2  502    0  0.44908239768E+02  0.12310235276E+02 -0.17687390126E+03  0.18290070760E+03  0.00000000000E+00 0.  1.
         22    1    1    2    0    0  0.34852272562E+02 -0.30750773325E+01  0.68768226381E+02  0.77157021475E+02  0.00000000000E+00 0.  1.
         22    1    1    2    0    0 -0.10753216051E+03 -0.44781902950E+01  0.12065755430E+03  0.16168322467E+03  0.00000000000E+00 0.  1.
</event>
<event>
 6    1  0.1293624E-005  0.1138323E+03  0.7818608E-02  0.1257371E+00
          2   -1    0    0  502    0  0.00000000000E+00  0.00000000000E+00  0.24895573268E+03  0.24895573268E+03  0.00000000000E+00 0.  1.
          1   -1    0    0  501    0 -0.00000000000E+00 -0.00000000000E+00 -0.82713986759E+02  0.82713986759E+02  0.00000000000E+00 0.  1.
          2    1    1    2  501    0  0.18597751330E+02  0.76550576989E+02  0.63795909647E+02  0.10136954809E+03  0.00000000000E+00 0.  1.
          1    1    1    2  502    0 -0.33119814390E+02 -0.10361421362E+01 -0.22310381913E+02  0.39946825116E+02  0.00000000000E+00 0.  1.
         22    1    1    2    0    0  0.32242615557E+02 -0.10409197177E+03  0.84460457068E+02  0.13787056848E+03  0.00000000000E+00 0.  1.
         22    1    1    2    0    0 -0.17720552497E+02  0.28577536914E+02  0.40295761120E+02  0.52482777757E+02  0.00000000000E+00 0. -1.
</event>
<event>
 6    1  0.1293624E-005  0.2572026E+03  0.7818608E-02  0.1108836E+00
          2   -1    0    0  502    0  0.00000000000E+00  0.00000000000E+00  0.57346828271E+03  0.57346828271E+03  0.00000000000E+00 0.  1.
          1   -1    0    0  501    0 -0.00000000000E+00 -0.00000000000E+00 -0.30209119843E+03  0.30209119843E+03  0.00000000000E+00 0. -1.
          2    1    1    2  501    0 -0.98621687124E+02  0.58192813360E+02  0.19818809824E+03  0.22889115969E+03  0.00000000000E+00 0.  1.
          1    1    1    2  502    0  0.86730047188E+02 -0.12627176296E+03 -0.25056694805E+03  0.29368427717E+03  0.00000000000E+00 0. -1.
         22    1    1    2    0    0 -0.22051659331E+02 -0.27741654865E+02  0.12233598011E+03  0.12736548639E+03  0.00000000000E+00 0. -1.
         22    1    1    2    0    0  0.33943299267E+02  0.95820604461E+02  0.20141995398E+03  0.22561855790E+03  0.00000000000E+00 0.  1.
</event>
<event>
 6    1  0.1293624E-005  0.3031598E+03  0.7818608E-02  0.1083672E+00
          2   -1    0    0  502    0  0.00000000000E+00  0.00000000000E+00  0.28553600740E+03  0.28553600740E+03  0.00000000000E+00 0. -1.
          1   -1    0    0  501    0 -0.00000000000E+00 -0.00000000000E+00 -0.43636694157E+03  0.43636694157E+03  0.00000000000E+00 0. -1.
          2    1    1    2  501    0  0.45447361460E+02  0.19384671538E+02 -0.52636895742E+02  0.72193288800E+02  0.00000000000E+00 0. -1.
          1    1    1    2  502    0 -0.92906533242E+02 -0.94268288028E+02 -0.33980210704E+03  0.36466917335E+03  0.00000000000E+00 0. -1.
         22    1    1    2    0    0  0.33143152909E+02  0.80194490866E+02  0.25203248217E+03  0.26655205311E+03  0.00000000000E+00 0. -1.
         22    1    1    2    0    0  0.14316018872E+02 -0.53108743765E+01 -0.10424413562E+02  0.18488433711E+02  0.00000000000E+00 0. -1.
</event>
<event>
 6    1  0.1293624E-005  0.1971983E+03  0.7818608E-02  0.1152125E+00
          2   -1    0    0  502    0  0.00000000000E+00  0.00000000000E+00  0.58722869864E+02  0.58722869864E+02  0.00000000000E+00 0. -1.
          1   -1    0    0  501    0 -0.00000000000E+00 -0.00000000000E+00 -0.57005359645E+03  0.57005359645E+03  0.00000000000E+00 0.  1.
          2    1    1    2  501    0 -0.27560308285E+01 -0.25847917096E+02 -0.97171976909E+02  0.10058878476E+03  0.00000000000E+00 0. -1.
          1    1    1    2  502    0  0.27493807915E+02  0.28421400511E+02 -0.40073685624E+03  0.40268314272E+03  0.00000000000E+00 0.  1.
         22    1    1    2    0    0  0.98931145986E+01 -0.69766382539E+01 -0.63397817229E+02  0.64543244629E+02  0.00000000000E+00 0.  1.
         22    1    1    2    0    0 -0.34630891685E+02  0.44031548386E+01  0.49975923794E+02  0.60961294200E+02  0.00000000000E+00 0. -1.
</event>
<event>
 6    1  0.1293624E-005  0.1115372E+03  0.7818608E-02  0.1296178E+00
          2   -1    0    0  502    0  0.00000000000E+00  0.00000000000E+00  0.65229714957E+02  0.65229714957E+02  0.00000000000E+00 0. -1.
          1   -1    0    0  501    0 -0.00000000000E+00 -0.00000000000E+00 -0.89148524658E+03  0.89148524658E+03  0.00000000000E+00 0. -1.
          2    1    1    2  501    0 -0.82742208447E+02 -0.69669854983E+02 -0.46886143451E+03  0.48117689733E+03  0.00000000000E+00 0. -1.
          1    1    1    2  502    0  0.45512928217E+02  0.93690367974E+02 -0.31951208194E+03  0.33606142622E+03  0.00000000000E+00 0. -1.
         22    1    1    2    0    0 -0.12213279033E+02 -0.36383886312E+01 -0.73905711352E+02  0.74996374759E+02  0.00000000000E+00 0. -1.
         22    1    1    2    0    0  0.49442559264E+02 -0.20382124360E+02  0.36023696179E+02  0.64480263231E+02  0.00000000000E+00 0. -1.
</event>
<event>
 6    1  0.1293624E-005  0.3222373E+03  0.7818608E-02  0.1074624E+00
          2   -1    0    0  502    0  0.00000000000E+00  0.00000000000E+00  0.55434750848E+03  0.55434750848E+03  0.00000000000E+00 0.  1.
          1   -1    0    0  501    0 -0.00000000000E+00 -0.00000000000E+00 -0.46409028227E+03  0.46409028227E+03  0.00000000000E+00 0.  1.
          2    1    1    2  501    0 -0.26050241282E+02 -0.59600463810E+02  0.26659534266E+02  0.70296238338E+02  0.00000000000E+00 0.  1.
          1    1    1    2  502    0 -0.10454045921E+03  0.20075643319E+03 -0.38359752265E+03  0.44539747694E+03  0.00000000000E+00 0.  1.
         22    1    1    2    0    0  0.14754486071E+03 -0.13661979520E+03  0.44000910143E+03  0.48377935436E+03  0.00000000000E+00 0.  1.
         22    1    1    2    0    0 -0.16954160215E+02 -0.45361741856E+01  0.71861131663E+01  0.18964721123E+02  0.00000000000E+00 0.  1.
</event>
<event>
 6    1  0.1293624E-005  0.3270019E+03  0.7818608E-02  0.1072471E+00
          2   -1    0    0  502    0  0.00000000000E+00  0.00000000000E+00  0.82953988182E+03  0.82953988182E+03  0.00000000000E+00 0.  1.
          1   -1    0    0  501    0 -0.00000000000E+00 -0.00000000000E+00 -0.13820075636E+03  0.13820075636E+03  0.00000000000E+00 0.  1.
          2    1    1    2  501    0  0.12022457352E+03  0.24805877269E+02  0.17245360694E+03  0.21168260715E+03  0.00000000000E+00 0.  1.
          1    1    1    2  502    0  0.14027198866E+01 -0.67101482414E+02 -0.94886348040E+02  0.11622390292E+03  0.00000000000E+00 0.  1.
         22    1    1    2    0    0 -0.14362998214E+03  0.22006603578E+02  0.43640942566E+03  0.45996418250E+03  0.00000000000E+00 0.  1.
         22    1    1    2    0    0  0.22002688738E+02  0.20289001567E+02  0.17736244090E+03  0.17986994562E+03  0.00000000000E+00 0.  1.
</event>
<event>
 6    1  0.1293624E-005  0.6870462E+02  0.7818608E-02  0.1366465E+00
          2   -1    0    0  502    0  0.00000000000E+00  0.00000000000E+00  0.18042238368E+03  0.18042238368E+03  0.00000000000E+00 0. -1.
          1   -1    0    0  501    0 -0.00000000000E+00 -0.00000000000E+00 -0.14233475903E+04  0.14233475903E+04  0.00000000000E+00 0.  1.
          2    1    1    2  501    0  0.35574933928E+02 -0.14339328573E+02 -0.30642112876E+02  0.49093088611E+02  0.00000000000E+00 0. -1.
          1    1    1    2  502    0 -0.30934214415E+02 -0.41902150196E+02 -0.13559876985E+04  0.13569876029E+04  0.00000000000E+00 0.  1.
         22    1    1    2    0    0 -0.11844493648E+02  0.69405250195E+02  0.16044116857E+03  0.17521058574E+03  0.00000000000E+00 0. -1.
         22    1    1    2    0    0  0.72037741358E+01 -0.13163771426E+02 -0.16736563787E+02  0.22478696745E+02  0.00000000000E+00 0. -1.
</event>
<event>
 6    1  0.1293624E-005  0.1470969E+03  0.7818608E-02  0.1206621E+00
          2   -1    0    0  502    0  0.00000000000E+00  0.00000000000E+00  0.30695090045E+03  0.30695090045E+03  0.00000000000E+00 0. -1.
          1   -1    0    0  501    0 -0.00000000000E+00 -0.00000000000E+00 -0.76685540070E+03  0.76685540070E+03  0.00000000000E+00 0. -1.
          2    1    1    2  501    0  0.87316189991E+02  0.36039934485E+02  0.36104120193E+02  0.10112616579E+03  0.00000000000E+00 0. -1.
          1    1    1    2  502    0  0.47772323090E+01  0.73393722582E+02 -0.69318738437E+03  0.69707833872E+03  0.00000000000E+00 0. -1.
         22    1    1    2    0    0 -0.11315546718E+03 -0.12128351141E+03  0.15517032363E+03  0.22713801802E+03  0.00000000000E+00 0. -1.
         22    1    1    2    0    0  0.21062044882E+02  0.11849854339E+02  0.42008440291E+02  0.48463778620E+02  0.00000000000E+00 0. -1.
</event>
<event>
 6    1  0.1293624E-005  0.1861342E+03  0.7818608E-02  0.1161995E+00
          2   -1    0    0  502    0  0.00000000000E+00  0.00000000000E+00  0.10657865232E+03  0.10657865232E+03  0.00000000000E+00 0.  1.
          1   -1    0    0  501    0 -0.00000000000E+00 -0.00000000000E+00 -0.47525832024E+03  0.47525832024E+03  0.00000000000E+00 0. -1.
          2    1    1    2  501    0  0.11105900590E+02 -0.29804983456E+02 -0.34892838068E+02  0.47214279780E+02  0.00000000000E+00 0.  1.
          1    1    1    2  502    0 -0.19604926368E+02 -0.11130269396E+02 -0.39342032821E+03  0.39406571874E+03  0.00000000000E+00 0. -1.
         22    1    1    2    0    0 -0.44425145833E+02 -0.12790280751E+02  0.31536169978E+01  0.46337135907E+02  0.00000000000E+00 0.  1.
         22    1    1    2    0    0  0.52924171610E+02  0.53725533603E+02  0.56479881360E+02  0.94219838145E+02  0.00000000000E+00 0. -1.
</event>
<event>
 6    1  0.1293624E-005  0.1513647E+03  0.7818608E-02  0.1200032E+00
          2   -1    0    0  502    0  0.00000000000E+00  0.00000000000E+00  0.18961099398E+03  0.18961099398E+03  0.00000000000E+00 0.  1.
          1   -1    0    0  501    0 -0.00000000000E+00 -0.00000000000E+00 -0.21096476208E+03  0.21096476208E+03  0.00000000000E+00 0.  1.
          2    1    1    2  501    0 -0.38087856633E+02  0.13051211894E+03 -0.15162109794E+02  0.13679907743E+03  0.00000000000E+00 0.  1.
          1    1    1    2  502    0  0.69721169225E+01 -0.19208650459E+02 -0.75017586620E+02  0.77751019088E+02  0.00000000000E+00 0.  1.
         22    1    1    2    0    0  0.76901605675E+01  0.27598827755E+02 -0.12838535223E+01  0.28678949473E+02  0.00000000000E+00 0.  1.
         22    1    1    2    0    0  0.23425579143E+02 -0.13890229624E+03  0.70109781835E+02  0.15734671006E+03  0.00000000000E+00 0.  1.
</event>
<event>
 6    1  0.1293624E-005  0.6277170E+02  0.7818608E-02  0.1389821E+00
          2   -1    0    0  502    0  0.00000000000E+00  0.00000000000E+00  0.31621340945E+03  0.31621340945E+03  0.00000000000E+00 0. -1.
          1   -1    0    0  501    0 -0.00000000000E+00 -0.00000000000E+00 -0.53205788854E+02  0.53205788854E+02  0.00000000000E+00 0. -1.
          2    1    1    2  501    0 -0.31782349194E+02 -0.64222746960E+01  0.33796842246E+02  0.46835775625E+02  0.00000000000E+00 0. -1.
          1    1    1    2  502    0  0.31177834824E+02  0.82644990463E+01 -0.22968022473E+02  0.39596582998E+02  0.00000000000E+00 0. -1.
         22    1    1    2    0    0 -0.51828951772E+02  0.14505407901E+02  0.49933518948E+02  0.73416642628E+02  0.00000000000E+00 0. -1.
         22    1    1    2    0    0  0.52433466142E+02 -0.16347632251E+02  0.20224528188E+03  0.20957019705E+03  0.00000000000E+00 0. -1.
</event>
<event>
 6    1  0.1293624E-005  0.2409597E+03  0.7818608E-02  0.1119155E+00
          2   -1    0    0  502    0  0.00000000000E+00  0.00000000000E+00  0.21990847129E+03  0.21990847129E+03  0.00000000000E+00 0.  1.
          1   -1    0    0  501    0 -0.00000000000E+00 -0.00000000000E+00 -0.11139190078E+04  0.11139190078E+04  0.00000000000E+00 0.  1.
          2    1    1    2  501    0 -0.97571517201E+02  0.13474178149E+02  0.14926174105E+02  0.99622011218E+02  0.00000000000E+00 0.  1.
          1    1    1    2  502    0  0.87462095590E+02 -0.33560667400E+02 -0.10451826869E+04  0.10493725676E+04  0.00000000000E+00 0.  1.
         22    1    1    2    0    0  0.23859228054E+02 -0.48727789623E+02  0.51521348089E+02  0.74820515594E+02  0.00000000000E+00 0. -1.
         22    1    1    2    0    0 -0.13749806443E+02  0.68814278874E+02  0.84724628230E+02  0.11001238468E+03  0.00000000000E+00 0.  1.
</event>
<event>
 6    1  0.1293624E-005  0.2946116E+03  0.7818608E-02  0.1087966E+00
          2   -1    0    0  502    0  0.00000000000E+00  0.00000000000E+00  0.36464817616E+02  0.36464817616E+02  0.00000000000E+00 0. -1.
          1   -1    0    0  501    0 -0.00000000000E+00 -0.00000000000E+00 -0.23076235357E+04  0.23076235357E+04  0.00000000000E+00 0. -1.
          2    1    1    2  501    0  0.34275799894E+01  0.41196907169E+02 -0.45649004318E+03  0.45835804017E+03  0.00000000000E+00 0. -1.
          1    1    1    2  502    0  0.21424378000E+02  0.26055056614E+02 -0.17096629018E+04  0.17099956455E+04  0.00000000000E+00 0. -1.
         22    1    1    2    0    0 -0.41178322789E+02 -0.97888714344E+02 -0.79289192151E+02  0.13253162134E+03  0.00000000000E+00 0. -1.
         22    1    1    2    0    0  0.16326364799E+02  0.30636750561E+02 -0.25716580988E+02  0.43203046307E+02  0.00000000000E+00 0.  1.
</event>
<event>
 6    1  0.1293624E-005  0.8249494E+02  0.7818608E-02  0.1322919E+00
          2   -1    0    0  502    0  0.00000000000E+00  0.00000000000E+00  0.96162572872E+02  0.96162572872E+02  0.00000000000E+00 0. -1.
          1   -1    0    0  501    0 -0.00000000000E+00 -0.00000000000E+00 -0.24701246514E+03  0.24701246514E+03  0.00000000000E+00 0. -1.
          2    1    1    2  501    0 -0.36947736098E+02 -0.25079688132E+02 -0.50242063673E+02  0.67218977392E+02  0.00000000000E+00 0. -1.
          1    1    1    2  502    0  0.21752473406E+01 -0.22704538099E+02 -0.13268800319E+03  0.13463407423E+03  0.00000000000E+00 0. -1.
         22    1    1    2    0    0 -0.13647663551E+02 -0.21631501521E+02 -0.27701089191E+02  0.37703195101E+02  0.00000000000E+00 0.  1.
         22    1    1    2    0    0  0.48420152308E+02  0.69415727752E+02  0.59781263789E+02  0.10361879129E+03  0.00000000000E+00 0. -1.
</event>
<event>
 6    1  0.1293624E-005  0.2051813E+03  0.7818608E-02  0.1145440E+00
          2   -1    0    0  502    0  0.00000000000E+00  0.00000000000E+00  0.95190289613E+02  0.95190289613E+02  0.00000000000E+00 0.  1.
          1   -1    0    0  501    0 -0.00000000000E+00 -0.00000000000E+00 -0.32523950161E+03  0.32523950161E+03  0.00000000000E+00 0.  1.
          2    1    1    2  501    0 -0.28169798187E+02  0.69273981893E+01 -0.55782251120E+02  0.62874366125E+02  0.00000000000E+00 0.  1.
          1    1    1    2  502    0  0.10160575330E+02  0.62825565417E+02 -0.20388506177E+03  0.21358700189E+03  0.00000000000E+00 0.  1.
         22    1    1    2    0    0 -0.22290797611E+02  0.97428239004E+01 -0.28573224434E+02  0.37526409770E+02  0.00000000000E+00 0. -1.
         22    1    1    2    0    0  0.40300020468E+02 -0.79495787507E+02  0.58191325333E+02  0.10644201344E+03  0.00000000000E+00 0.  1.
</event>
<event>
 6    1  0.1293624E-005  0.2287113E+03  0.7818608E-02  0.1127550E+00
          2   -1    0    0  502    0  0.00000000000E+00  0.00000000000E+00  0.95792363909E+02  0.95792363909E+02  0.00000000000E+00 0. -1.
          1   -1    0    0  501    0 -0.00000000000E+00 -0.00000000000E+00 -0.56376285822E+03  0.56376285822E+03  0.00000000000E+00 0.  1.
          2    1    1    2  501    0 -0.86365705556E+02  0.68652726735E+01  0.69253703325E+01  0.86914485671E+02  0.00000000000E+00 0. -1.
          1    1    1    2  502    0  0.11439254157E+03  0.13033770401E+02 -0.40683745439E+03  0.42281467220E+03  0.00000000000E+00 0.  1.
         22    1    1    2    0    0  0.12889100163E+02 -0.52438720911E+02 -0.79697419971E+02  0.96268515641E+02  0.00000000000E+00 0.  1.
         22    1    1    2    0    0 -0.40915936173E+02  0.32539677836E+02  0.11639009714E+02  0.53557548615E+02  0.00000000000E+00 0.  1.
</event>
<event>
 6    1  0.1293624E-005  0.1736375E+03  0.7818608E-02  0.1174107E+00
          2   -1    0    0  502    0  0.00000000000E+00  0.00000000000E+00  0.50317999820E+02  0.50317999820E+02  0.00000000000E+00 0.  1.
          1   -1    0    0  501    0 -0.00000000000E+00 -0.00000000000E+00 -0.74227845215E+03  0.74227845215E+03  0.00000000000E+00 0. -1.
          2    1    1    2  501    0  0.27455040079E+02  0.37256453917E+02 -0.27055957062E+02  0.53608277315E+02  0.00000000000E+00 0.  1.
          1    1    1    2  502    0  0.51130542640E+01 -0.50506303677E+02 -0.58806003620E+03  0.59024709759E+03  0.00000000000E+00 0. -1.
         22    1    1    2    0    0  0.83826710150E+01 -0.18249442493E+02  0.26471707467E+02  0.33227437772E+02  0.00000000000E+00 0.  1.
         22    1    1    2    0    0 -0.40950765358E+02  0.31499292254E+02 -0.10331616653E+03  0.11551363929E+03  0.00000000000E+00 0.  1.
</event>
<event>
 6    1  0.1293624E-005  0.1917655E+03  0.7818608E-02  0.1157529E+00
          2   -1    0    0  502    0  0.00000000000E+00  0.00000000000E+00  0.14728459806E+03  0.14728459806E+03  0.00000000000E+00 0. -1.
          1   -1    0    0  501    0 -0.00000000000E+00 -0.00000000000E+00 -0.67736287752E+03  0.67736287752E+03  0.00000000000E+00 0. -1.
          2    1    1    2  501    0  0.60172409138E+02  0.14699979234E+03 -0.50065935005E+02  0.16654205360E+03  0.00000000000E+00 0. -1.
          1    1    1    2  502    0  0.12124539381E+01  0.23634124971E+02 -0.42920694092E+03  0.42985886060E+03  0.00000000000E+00 0. -1.
         22    1    1    2    0    0 -0.62756924607E+02 -0.18958961174E+03 -0.33409170648E+02  0.20248166621E+03  0.00000000000E+00 0. -1.
         22    1    1    2    0    0  0.13720615309E+01  0.18955694430E+02 -0.17396232887E+02  0.25764895165E+02  0.00000000000E+00 0.  1.
</event>
<event>
 6    1  0.1293624E-005  0.8377784E+02  0.7818608E-02  0.1321802E+00
          2   -1    0    0  502    0  0.00000000000E+00  0.00000000000E+00  0.40550410284E+03  0.40550410284E+03  0.00000000000E+00 0. -1.
          1   -1    0    0  501    0 -0.00000000000E+00 -0.00000000000E+00 -0.23737897398E+04  0.23737897398E+04  0.00000000000E+00 0. -1.
          2    1    1    2  501    0  0.65710595142E+01  0.45462354106E+02  0.11238050072E+03  0.12140585409E+03  0.00000000000E+00 0. -1.
          1    1    1    2  502    0 -0.31887125697E+02 -0.14712646849E+02 -0.23549883327E+04  0.23552501561E+04  0.00000000000E+00 0. -1.
         22    1    1    2    0    0  0.16309483454E+02  0.38347345097E+02  0.18345658691E+03  0.18812984189E+03  0.00000000000E+00 0. -1.
         22    1    1    2    0    0  0.90065827292E+01 -0.69097052353E+02  0.90865608068E+02  0.11450799058E+03  0.00000000000E+00 0. -1.
</event>
<event>
 6    1  0.1293624E-005  0.2462161E+03  0.7818608E-02  0.1115720E+00
          2   -1    0    0  502    0  0.00000000000E+00  0.00000000000E+00  0.18191977871E+03  0.18191977871E+03  0.00000000000E+00 0.  1.
          1   -1    0    0  501    0 -0.00000000000E+00 -0.00000000000E+00 -0.54123377656E+03  0.54123377656E+03  0.00000000000E+00 0.  1.
          2    1    1    2  501    0  0.27304660556E+02 -0.90085210114E+01 -0.52734706181E+02  0.60063692651E+02  0.00000000000E+00 0.  1.
          1    1    1    2  502    0 -0.92508469536E+02 -0.22845779234E+02 -0.45059607559E+03  0.46056114675E+03  0.00000000000E+00 0.  1.
         22    1    1    2    0    0  0.34351352859E+02  0.64811196135E+02  0.13892126559E+03  0.15709750036E+03  0.00000000000E+00 0.  1.
         22    1    1    2    0    0  0.30852456121E+02 -0.32956895890E+02  0.50955183309E+01  0.45431215507E+02  0.00000000000E+00 0.  1.
</event>
<event>
 6    1  0.1293624E-005  0.1965977E+03  0.7818608E-02  0.1152642E+00
          2   -1    0    0  502    0  0.00000000000E+00  0.00000000000E+00  0.13432446881E+03  0.13432446881E+03  0.00000000000E+00 0. -1.
          1   -1    0    0  501    0 -0.00000000000E+00 -0.00000000000E+00 -0.20735957869E+03  0.20735957869E+03  0.00000000000E+00 0.  1.
          2    1    1    2  501    0  0.49556032712E+02  0.28275575334E+02 -0.97883371201E+01  0.57888859742E+02  0.00000000000E+00 0. -1.
          1    1    1    2  502    0 -0.53310549021E+02 -0.64281082070E+02 -0.11355229540E+03  0.14095458822E+03  0.00000000000E+00 0.  1.
         22    1    1    2    0    0  0.86236886519E+01 -0.46854854721E+02  0.40369998612E+01  0.47812579776E+02  0.00000000000E+00 0. -1.
         22    1    1    2    0    0 -0.48691723434E+01  0.82860361457E+02  0.46268522783E+02  0.95028019766E+02  0.00000000000E+00 0. -1.
</event>
<event>
 6    1  0.1293624E-005  0.1649152E+03  0.7818608E-02  0.1184926E+00
          2   -1    0    0  502    0  0.00000000000E+00  0.00000000000E+00  0.18396047241E+03  0.18396047241E+03  0.00000000000E+00 0.  1.
          1   -1    0    0  501    0 -0.00000000000E+00 -0.00000000000E+00 -0.98027662266E+03  0.98027662266E+03  0.00000000000E+00 0. -1.
          2    1    1    2  501    0 -0.13882457529E+02  0.15082809238E+03  0.47471229239E+02  0.15873044347E+03  0.00000000000E+00 0.  1.
          1    1    1    2  502    0  0.17895683280E+02 -0.20887808402E+02 -0.82543345012E+03  0.82589160099E+03  0.00000000000E+00 0. -1.
         22    1    1    2    0    0 -0.31109185348E+01 -0.14563135713E+03 -0.41659764757E+02  0.15150480518E+03  0.00000000000E+00 0.  1.
         22    1    1    2    0    0 -0.90230721707E+00  0.15691073151E+02  0.23305835384E+02  0.28110245426E+02  0.00000000000E+00 0.  1.
</event>
<event>
 6    1  0.1293624E-005  0.2415071E+03  0.7818608E-02  0.1190620E+00
          2   -1    0    0  502    0  0.00000000000E+00  0.00000000000E+00  0.18072841450E+03  0.18072841450E+03  0.00000000000E+00 0.  1.
          1   -1    0    0  501    0 -0.00000000000E+00 -0.00000000000E+00 -0.43702888561E+03  0.43702888561E+03  0.00000000000E+00 0.  1.
          2    1    1    2  501    0 -0.15145827240E+03  0.88138303269E+02 -0.14357605550E+03  0.22654370990E+03  0.00000000000E+00 0.  1.
          1    1    1    2  502    0  0.20441526626E+03 -0.98886158844E+02 -0.11706797729E+03  0.25547795364E+03  0.00000000000E+00 0.  1.
         22    1    1    2    0    0 -0.52427299682E+01 -0.44279597697E+02  0.35028574052E+02  0.56702468992E+02  0.00000000000E+00 0.  1.
         22    1    1    2    0    0 -0.47714263895E+02  0.55027453272E+02 -0.30685012370E+02  0.79033167574E+02  0.00000000000E+00 0. -1.
</event>
<event>
 6    1  0.1293624E-005  0.9453357E+02  0.7818608E-02  0.1296792E+00
          2   -1    0    0  502    0  0.00000000000E+00  0.00000000000E+00  0.40041752362E+02  0.40041752362E+02  0.00000000000E+00 0. -1.
          1   -1    0    0  501    0 -0.00000000000E+00 -0.00000000000E+00 -0.46633607827E+03  0.46633607827E+03  0.00000000000E+00 0.  1.
          2    1    1    2  501    0  0.14666478384E+02 -0.44300218214E+02 -0.86997360429E+02  0.98722619716E+02  0.00000000000E+00 0. -1.
          1    1    1    2  502    0 -0.24495964389E+02 -0.20149818044E+01 -0.24622558282E+03  0.24744928785E+03  0.00000000000E+00 0.  1.
         22    1    1    2    0    0 -0.62358435656E+01 -0.41065953488E+02 -0.30810512651E+02  0.51716399437E+02  0.00000000000E+00 0. -1.
         22    1    1    2    0    0  0.16065329571E+02  0.87381153507E+02 -0.62260870004E+02  0.10848952362E+03  0.00000000000E+00 0.  1.
</event>
<event>
 6    1  0.1293624E-005  0.2548856E+03  0.7818608E-02  0.1110256E+00
          2   -1    0    0  502    0  0.00000000000E+00  0.00000000000E+00  0.17177950770E+03  0.17177950770E+03  0.00000000000E+00 0. -1.
          1   -1    0    0  501    0 -0.00000000000E+00 -0.00000000000E+00 -0.19409764370E+03  0.19409764370E+03  0.00000000000E+00 0. -1.
          2    1    1    2  501    0 -0.66502677205E+02 -0.89634073362E+02 -0.54255789537E+02  0.12409900838E+03  0.00000000000E+00 0. -1.
          1    1    1    2  502    0  0.51826246864E+02  0.96899445554E+02  0.13339723400E+01  0.10989650538E+03  0.00000000000E+00 0. -1.
         22    1    1    2    0    0  0.40037171095E+02 -0.48399219184E+02  0.49522107541E+02  0.79986865311E+02  0.00000000000E+00 0. -1.
         22    1    1    2    0    0 -0.25360740753E+02  0.41133846993E+02 -0.18918426349E+02  0.51894772333E+02  0.00000000000E+00 0.  1.
</event>
<event>
 6    1  0.1293624E-005  0.1438406E+03  0.7818608E-02  0.1215465E+00
          2   -1    0    0  502    0  0.00000000000E+00  0.00000000000E+00  0.15606350031E+03  0.15606350031E+03  0.00000000000E+00 0.  1.
          1   -1    0    0  501    0 -0.00000000000E+00 -0.00000000000E+00 -0.30409372094E+03  0.30409372094E+03  0.00000000000E+00 0.  1.
          2    1    1    2  501    0 -0.37509362848E+02 -0.10727118323E+03 -0.39536604876E+02  0.12032124574E+03  0.00000000000E+00 0.  1.
          1    1    1    2  502    0 -0.54596332540E+02  0.14588890667E+03 -0.76856044504E+02  0.17369854401E+03  0.00000000000E+00 0.  1.
         22    1    1    2    0    0 -0.29106749332E+02 -0.15650128439E+02 -0.27010706959E+02  0.42681467492E+02  0.00000000000E+00 0.  1.
         22    1    1    2    0    0  0.12121244472E+03 -0.22967595001E+02 -0.46268642917E+01  0.12345596400E+03  0.00000000000E+00 0.  1.
</event>
<event>
 6    1  0.1293624E-005  0.1219937E+03  0.7818608E-02  0.1241774E+00
          2   -1    0    0  502    0  0.00000000000E+00  0.00000000000E+00  0.52773336525E+03  0.52773336525E+03  0.00000000000E+00 0.  1.
          1   -1    0    0  501    0 -0.00000000000E+00 -0.00000000000E+00 -0.10709443164E+03  0.10709443164E+03  0.00000000000E+00 0. -1.
          2    1    1    2  501    0 -0.16997917631E+01 -0.84167422751E+02  0.55424670638E+02  0.10079155947E+03  0.00000000000E+00 0.  1.
          1    1    1    2  502    0 -0.10479558170E+03  0.36081363457E+02 -0.18732343278E+02  0.11240497951E+03  0.00000000000E+00 0. -1.
         22    1    1    2    0    0 -0.10718202233E+02 -0.70679110843E+01 -0.33299586006E+01  0.13263628858E+02  0.00000000000E+00 0.  1.
         22    1    1    2    0    0  0.11721357570E+03  0.55153970378E+02  0.38727656485E+03  0.40836762906E+03  0.00000000000E+00 0.  1.
</event>
<event>
 6    1  0.1293624E-005  0.1629211E+03  0.7818608E-02  0.1186064E+00
          2   -1    0    0  502    0  0.00000000000E+00  0.00000000000E+00  0.15634856772E+04  0.15634856772E+04  0.00000000000E+00 0. -1.
          1   -1    0    0  501    0 -0.00000000000E+00 -0.00000000000E+00 -0.58514396214E+02  0.58514396214E+02  0.00000000000E+00 0.  1.
          2    1    1    2  501    0  0.13998104680E+03  0.51344835633E+02  0.13184104823E+04  0.13268146764E+04  0.00000000000E+00 0. -1.
          1    1    1    2  502    0 -0.30198214492E+02 -0.11435191703E+01 -0.10478601215E+02  0.31985010208E+02  0.00000000000E+00 0.  1.
         22    1    1    2    0    0 -0.12566709207E+03 -0.51418451300E+02  0.11008660027E+03  0.17480027095E+03  0.00000000000E+00 0.  1.
         22    1    1    2    0    0  0.15884259765E+02  0.12171348369E+01  0.86952799669E+02  0.88400115926E+02  0.00000000000E+00 0. -1.
</event>
<event>
 6    1  0.1293624E-005  0.9072867E+02  0.7818608E-02  0.1307372E+00
          2   -1    0    0  502    0  0.00000000000E+00  0.00000000000E+00  0.13128975507E+03  0.13128975507E+03  0.00000000000E+00 0. -1.
          1   -1    0    0  501    0 -0.00000000000E+00 -0.00000000000E+00 -0.11955897422E+03  0.11955897422E+03  0.00000000000E+00 0. -1.
          2    1    1    2  501    0  0.49602940523E+02  0.20760648099E+02  0.13876721007E+02  0.55533950012E+02  0.00000000000E+00 0. -1.
          1    1    1    2  502    0 -0.18839821383E+02 -0.44612893077E+02 -0.39993929739E+02  0.62807352391E+02  0.00000000000E+00 0. -1.
         22    1    1    2    0    0  0.30959923736E+02  0.35364681917E+02  0.49925178242E+02  0.68568950898E+02  0.00000000000E+00 0. -1.
         22    1    1    2    0    0 -0.61723042877E+02 -0.11512436940E+02 -0.12077188660E+02  0.63938475992E+02  0.00000000000E+00 0.  1.
</event>
<event>
 6    1  0.1293624E-005  0.2602142E+03  0.7818608E-02  0.1107015E+00
          2   -1    0    0  502    0  0.00000000000E+00  0.00000000000E+00  0.85857237270E+03  0.85857237270E+03  0.00000000000E+00 0. -1.
          1   -1    0    0  501    0 -0.00000000000E+00 -0.00000000000E+00 -0.48441681255E+02  0.48441681255E+02  0.00000000000E+00 0. -1.
          2    1    1    2  501    0 -0.28909171621E+02 -0.28220270733E+02  0.37978165596E+03  0.38192437744E+03  0.00000000000E+00 0. -1.
          1    1    1    2  502    0  0.45960656040E+02 -0.96399907823E+02  0.84640595870E+02  0.13626941917E+03  0.00000000000E+00 0. -1.
         22    1    1    2    0    0  0.10948854998E+02  0.13568426013E+03  0.21332617099E+03  0.25305760432E+03  0.00000000000E+00 0. -1.
         22    1    1    2    0    0 -0.28000339417E+02 -0.11064081579E+02  0.13238226863E+03  0.13576265302E+03  0.00000000000E+00 0. -1.
</event>
<event>
 6    1  0.1293624E-005  0.7229194E+02  0.7818608E-02  0.1361840E+00
          2   -1    0    0  502    0  0.00000000000E+00  0.00000000000E+00  0.24124702235E+03  0.24124702235E+03  0.00000000000E+00 0.  1.
          1   -1    0    0  501    0 -0.00000000000E+00 -0.00000000000E+00 -0.31452288548E+03  0.31452288548E+03  0.00000000000E+00 0.  1.
          2    1    1    2  501    0  0.25410170337E+02  0.28167176599E+02 -0.16311474375E+02  0.41293229353E+02  0.00000000000E+00 0.  1.
          1    1    1    2  502    0  0.35160402544E+01 -0.36608344617E+02 -0.26736520144E+03  0.26988272338E+03  0.00000000000E+00 0.  1.
         22    1    1    2    0    0  0.27610532260E+02  0.30219050260E+02  0.21543394840E+02  0.46256354716E+02  0.00000000000E+00 0.  1.
         22    1    1    2    0    0 -0.56536742852E+02 -0.21777882242E+02  0.18885741785E+03  0.19833760038E+03  0.00000000000E+00 0.  1.
</event>
<event>
 6    1  0.1293624E-005  0.7094776E+03  0.7818608E-02  0.9701160E-01
          2   -1    0    0  502    0  0.00000000000E+00  0.00000000000E+00  0.17067244759E+04  0.17067244759E+04  0.00000000000E+00 0. -1.
          1   -1    0    0  501    0 -0.00000000000E+00 -0.00000000000E+00 -0.45964640018E+03  0.45964640018E+03  0.00000000000E+00 0. -1.
          2    1    1    2  501    0  0.16095195447E+03 -0.67829736157E+02  0.10909024653E+03  0.20592980999E+03  0.00000000000E+00 0. -1.
          1    1    1    2  502    0 -0.98083296288E+02  0.47174710308E+03 -0.22534950512E+03  0.53192862466E+03  0.00000000000E+00 0. -1.
         22    1    1    2    0    0 -0.70747356223E+02 -0.41030838873E+03  0.13271133154E+04  0.13908946452E+04  0.00000000000E+00 0. -1.
         22    1    1    2    0    0  0.78786980409E+01  0.63910218039E+01  0.36224018925E+02  0.37617796182E+02  0.00000000000E+00 0. -1.
</event>
<event>
 6    1  0.1293624E-005  0.2343421E+03  0.7818608E-02  0.1190768E+00
          2   -1    0    0  502    0  0.00000000000E+00  0.00000000000E+00  0.70232324227E+03  0.70232324227E+03  0.00000000000E+00 0. -1.
          1   -1    0    0  501    0 -0.00000000000E+00 -0.00000000000E+00 -0.35233998647E+03  0.35233998647E+03  0.00000000000E+00 0.  1.
          2    1    1    2  501    0 -0.83740995637E+02 -0.10585378713E+03  0.24207107946E+03  0.27715697017E+03  0.00000000000E+00 0. -1.
          1    1    1    2  502    0  0.83656175207E+02  0.21215457283E+03 -0.27790948545E+03  0.35950187833E+03  0.00000000000E+00 0.  1.
         22    1    1    2    0    0  0.48224724750E+02 -0.63893659128E+01  0.94487940334E+02  0.10627520380E+03  0.00000000000E+00 0.  1.
         22    1    1    2    0    0 -0.48139904320E+02 -0.99911419786E+02  0.29133372145E+03  0.31172917645E+03  0.00000000000E+00 0. -1.
</event>
<event>
 6    1  0.1293624E-005  0.1832013E+03  0.7818608E-02  0.1164740E+00
          2   -1    0    0  502    0  0.00000000000E+00  0.00000000000E+00  0.19947240355E+03  0.19947240355E+03  0.00000000000E+00 0. -1.
          1   -1    0    0  501    0 -0.00000000000E+00 -0.00000000000E+00 -0.45753768584E+03  0.45753768584E+03  0.00000000000E+00 0.  1.
          2    1    1    2  501    0 -0.10847179720E+02 -0.17128703194E+02  0.15508304019E+02  0.25525698316E+02  0.00000000000E+00 0. -1.
          1    1    1    2  502    0 -0.10837783665E+02 -0.79962899212E+02 -0.41070264562E+03  0.41855487803E+03  0.00000000000E+00 0.  1.
         22    1    1    2    0    0 -0.11770569394E+02 -0.14877270244E+02  0.81178738371E+02  0.83365862541E+02  0.00000000000E+00 0. -1.
         22    1    1    2    0    0  0.33455532779E+02  0.11196887265E+03  0.55950320949E+02  0.12956365050E+03  0.00000000000E+00 0. -1.
</event>
<event>
 6    1  0.1293624E-005  0.8287471E+02  0.7818608E-02  0.1323639E+00
          2   -1    0    0  502    0  0.00000000000E+00  0.00000000000E+00  0.10745565114E+03  0.10745565114E+03  0.00000000000E+00 0.  1.
          1   -1    0    0  501    0 -0.00000000000E+00 -0.00000000000E+00 -0.81524292413E+03  0.81524292413E+03  0.00000000000E+00 0. -1.
          2    1    1    2  501    0  0.47378863946E+02 -0.14626537498E+02  0.45462661131E+02  0.67272177793E+02  0.00000000000E+00 0.  1.
          1    1    1    2  502    0  0.73911642812E+01 -0.56801722533E+02 -0.68341137283E+03  0.68580767676E+03  0.00000000000E+00 0. -1.
         22    1    1    2    0    0 -0.83852437522E+02  0.63930573584E+02 -0.85495590296E+02  0.13574920065E+03  0.00000000000E+00 0. -1.
         22    1    1    2    0    0  0.29082409295E+02  0.74976864470E+01  0.15657029008E+02  0.33869520071E+02  0.00000000000E+00 0. -1.
</event>
<event>
 6    1  0.1293624E-005  0.4507563E+02  0.7818608E-02  0.1481842E+00
          2   -1    0    0  502    0  0.00000000000E+00  0.00000000000E+00  0.93724780676E+02  0.93724780676E+02  0.00000000000E+00 0. -1.
          1   -1    0    0  501    0 -0.00000000000E+00 -0.00000000000E+00 -0.15705447908E+03  0.15705447908E+03  0.00000000000E+00 0. -1.
          2    1    1    2  501    0 -0.18174969674E+02 -0.32384679428E+02  0.41249098615E+01  0.37364580363E+02  0.00000000000E+00 0. -1.
          1    1    1    2  502    0 -0.13382853552E+02  0.20380983505E+02 -0.76010735767E+02  0.79825542339E+02  0.00000000000E+00 0. -1.
         22    1    1    2    0    0 -0.20422390533E+02  0.16369790855E+01 -0.50342846301E+02  0.54352147237E+02  0.00000000000E+00 0. -1.
         22    1    1    2    0    0  0.51980213759E+02  0.10366716837E+02  0.58898973803E+02  0.79236989818E+02  0.00000000000E+00 0. -1.
</event>
<event>
 6    1  0.1293624E-005  0.1934123E+03  0.7818608E-02  0.1155419E+00
          2   -1    0    0  502    0  0.00000000000E+00  0.00000000000E+00  0.25252898076E+02  0.25252898076E+02  0.00000000000E+00 0.  1.
          1   -1    0    0  501    0 -0.00000000000E+00 -0.00000000000E+00 -0.13390072006E+04  0.13390072006E+04  0.00000000000E+00 0.  1.
          2    1    1    2  501    0  0.37744430695E+02  0.28031284074E+02 -0.12136114079E+03  0.13014961171E+03  0.00000000000E+00 0.  1.
          1    1    1    2  502    0 -0.47801983635E+02 -0.92641036894E+02 -0.91664954946E+03  0.92255828427E+03  0.00000000000E+00 0.  1.
         22    1    1    2    0    0  0.10839796395E+02 -0.30293305062E+02 -0.17947837480E+02  0.36841693605E+02  0.00000000000E+00 0.  1.
         22    1    1    2    0    0 -0.78224345537E+00  0.94903057882E+02 -0.25779577483E+03  0.27471050911E+03  0.00000000000E+00 0.  1.
</event>
<event>
 6    1  0.1293624E-005  0.2346444E+03  0.7818608E-02  0.1123413E+00
          2   -1    0    0  502    0  0.00000000000E+00  0.00000000000E+00  0.25660671300E+03  0.25660671300E+03  0.00000000000E+00 0.  1.
          1   -1    0    0  501    0 -0.00000000000E+00 -0.00000000000E+00 -0.19686020181E+03  0.19686020181E+03  0.00000000000E+00 0.  1.
          2    1    1    2  501    0 -0.56678851969E+02  0.50588680645E+01  0.21078074620E+01  0.56943193263E+02  0.00000000000E+00 0.  1.
          1    1    1    2  502    0 -0.30639281884E+02  0.48180649888E+01 -0.14118217547E+03  0.14454890527E+03  0.00000000000E+00 0.  1.
         22    1    1    2    0    0 -0.20985729045E+02  0.32291481108E+02  0.46484884287E+02  0.60365429204E+02  0.00000000000E+00 0.  1.
         22    1    1    2    0    0  0.10830386290E+03 -0.42168414162E+02  0.15233599491E+03  0.19160938708E+03  0.00000000000E+00 0.  1.
</event>
<event>
 6    1  0.1293624E-005  0.1996091E+03  0.7818608E-02  0.1150069E+00
          2   -1    0    0  502    0  0.00000000000E+00  0.00000000000E+00  0.59223505065E+02  0.59223505065E+02  0.00000000000E+00 0.  1.
          1   -1    0    0  501    0 -0.00000000000E+00 -0.00000000000E+00 -0.80311661394E+03  0.80311661394E+03  0.00000000000E+00 0.  1.
          2    1    1    2  501    0  0.18802685559E+02 -0.21842012322E+02 -0.91899093467E+02  0.96312293434E+02  0.00000000000E+00 0.  1.
          1    1    1    2  502    0  0.22005767321E+02  0.13036587511E+02 -0.63393063602E+03  0.63444641830E+03  0.00000000000E+00 0.  1.
         22    1    1    2    0    0 -0.29624419153E+02 -0.43470876856E+02 -0.47218436266E+02  0.70688783185E+02  0.00000000000E+00 0.  1.
         22    1    1    2    0    0 -0.11184033728E+02  0.52276301667E+02  0.29155056879E+02  0.60892624085E+02  0.00000000000E+00 0.  1.
</event>
<event>
 6    1  0.1293624E-005  0.1936705E+03  0.7818608E-02  0.1155192E+00
          2   -1    0    0  502    0  0.00000000000E+00  0.00000000000E+00  0.19542231599E+03  0.19542231599E+03  0.00000000000E+00 0.  1.
          1   -1    0    0  501    0 -0.00000000000E+00 -0.00000000000E+00 -0.11566869347E+04  0.11566869347E+04  0.00000000000E+00 0. -1.
          2    1    1    2  501    0  0.33971299806E+02  0.18530658625E+02 -0.46215619814E+01  0.38971699408E+02  0.00000000000E+00 0.  1.
          1    1    1    2  502    0 -0.69694437813E+00  0.21986098983E+02 -0.11085673976E+04  0.11087856192E+04  0.00000000000E+00 0. -1.
         22    1    1    2    0    0 -0.15757959250E+02 -0.84197124361E+02  0.12018778225E+03  0.14758920025E+03  0.00000000000E+00 0. -1.
         22    1    1    2    0    0 -0.17516396178E+02  0.43680366753E+02  0.31736558619E+02  0.56762731856E+02  0.00000000000E+00 0.  1.
</event>
<event>
 6    1  0.1293624E-005  0.3387826E+03  0.7818608E-02  0.1067316E+00
          2   -1    0    0  502    0  0.00000000000E+00  0.00000000000E+00  0.44998733769E+03  0.44998733769E+03  0.00000000000E+00 0.  1.
          1   -1    0    0  501    0 -0.00000000000E+00 -0.00000000000E+00 -0.20440228131E+03  0.20440228131E+03  0.00000000000E+00 0.  1.
          2    1    1    2  501    0 -0.11505135448E+03  0.25541134338E+02  0.91463356127E+02  0.14918012343E+03  0.00000000000E+00 0.  1.
          1    1    1    2  502    0  0.15830661784E+03 -0.20278608536E+03  0.46465003692E+02  0.26142336972E+03  0.00000000000E+00 0.  1.
         22    1    1    2    0    0 -0.43213752081E+02  0.25126587636E+02  0.71819728775E+02  0.87503412599E+02  0.00000000000E+00 0.  1.
         22    1    1    2    0    0 -0.41511280722E-01  0.15211836338E+03  0.35836967783E+02  0.15628271325E+03  0.00000000000E+00 0.  1.
</event>
<event>
 6    1  0.1293624E-005  0.2373924E+03  0.7818608E-02  0.1121542E+00
          2   -1    0    0  502    0  0.00000000000E+00  0.00000000000E+00  0.56077241831E+03  0.56077241831E+03  0.00000000000E+00 0. -1.
          1   -1    0    0  501    0 -0.00000000000E+00 -0.00000000000E+00 -0.40280094667E+03  0.40280094667E+03  0.00000000000E+00 0. -1.
          2    1    1    2  501    0  0.11139471007E+01 -0.47996033342E+02  0.21255846054E+02  0.52504010192E+02  0.00000000000E+00 0. -1.
          1    1    1    2  502    0 -0.21719028526E+02 -0.20556597786E+02 -0.37705848440E+03  0.37824250233E+03  0.00000000000E+00 0. -1.
         22    1    1    2    0    0 -0.16740986604E+02 -0.23663636986E+02  0.44401796172E+02  0.53025916788E+02  0.00000000000E+00 0.  1.
         22    1    1    2    0    0  0.37346068029E+02  0.92216268114E+02  0.46937231381E+03  0.47980093567E+03  0.00000000000E+00 0. -1.
</event>
<event>
 6    1  0.1293624E-005  0.1233937E+03  0.7818608E-02  0.1238213E+00
          2   -1    0    0  502    0  0.00000000000E+00  0.00000000000E+00  0.10392588883E+03  0.10392588883E+03  0.00000000000E+00 0. -1.
          1   -1    0    0  501    0 -0.00000000000E+00 -0.00000000000E+00 -0.91919755147E+03  0.91919755147E+03  0.00000000000E+00 0. -1.
          2    1    1    2  501    0 -0.94267323799E+02  0.75688022887E+01  0.35795658762E+01  0.94638408673E+02  0.00000000000E+00 0. -1.
          1    1    1    2  502    0 -0.22160839611E+02 -0.43757436088E+02 -0.73212015276E+03  0.73376136046E+03  0.00000000000E+00 0. -1.
         22    1    1    2    0    0 -0.21000531464E+02 -0.38437104815E+01  0.83036872613E+01  0.22907371175E+02  0.00000000000E+00 0.  1.
         22    1    1    2    0    0  0.13742869487E+03  0.40032344280E+02 -0.95034763019E+02  0.17181630000E+03  0.00000000000E+00 0. -1.
</event>
<event>
 6    1  0.1293624E-005  0.1447002E+03  0.7818608E-02  0.1212153E+00
          2   -1    0    0  502    0  0.00000000000E+00  0.00000000000E+00  0.56757737553E+03  0.56757737553E+03  0.00000000000E+00 0.  1.
          1   -1    0    0  501    0 -0.00000000000E+00 -0.00000000000E+00 -0.11186490329E+03  0.11186490329E+03  0.00000000000E+00 0. -1.
          2    1    1    2  501    0  0.11394097483E+03  0.92977226359E+01  0.15104954866E+03  0.18943325881E+03  0.00000000000E+00 0.  1.
          1    1    1    2  502    0 -0.21624324910E+02  0.39840391252E+02 -0.68780530830E+02  0.82374933227E+02  0.00000000000E+00 0. -1.
         22    1    1    2    0    0 -0.12184017025E+03 -0.23192706332E+02  0.27781040942E+03  0.30423930104E+03  0.00000000000E+00 0.  1.
         22    1    1    2    0    0  0.29523520332E+02 -0.25945407555E+02  0.95633044990E+02  0.10339478575E+03  0.00000000000E+00 0.  1.
</event>
<event>
 6    1  0.1293624E-005  0.2290605E+03  0.7818608E-02  0.1127303E+00
          2   -1    0    0  502    0  0.00000000000E+00  0.00000000000E+00  0.18779134447E+03  0.18779134447E+03  0.00000000000E+00 0. -1.
          1   -1    0    0  501    0 -0.00000000000E+00 -0.00000000000E+00 -0.35838977968E+03  0.35838977968E+03  0.00000000000E+00 0. -1.
          2    1    1    2  501    0 -0.47797350342E+02  0.59518804669E+02 -0.18651360716E+01  0.76358061405E+02  0.00000000000E+00 0. -1.
          1    1    1    2  502    0  0.56265991121E+02 -0.12066714159E+03 -0.26645933969E+03  0.29787077823E+03  0.00000000000E+00 0. -1.
         22    1    1    2    0    0  0.58979419086E+02  0.24835225472E+02  0.34972604770E+02  0.72927658569E+02  0.00000000000E+00 0. -1.
         22    1    1    2    0    0 -0.67448059865E+02  0.36313111445E+02  0.62753435773E+02  0.99024625946E+02  0.00000000000E+00 0. -1.
</event>
<event>
 6    1  0.1293624E-005  0.1727476E+03  0.7818608E-02  0.1175012E+00
          2   -1    0    0  502    0  0.00000000000E+00  0.00000000000E+00  0.36587318084E+02  0.36587318084E+02  0.00000000000E+00 0. -1.
          1   -1    0    0  501    0 -0.00000000000E+00 -0.00000000000E+00 -0.51725472855E+03  0.51725472855E+03  0.00000000000E+00 0.  1.
          2    1    1    2  501    0  0.55746251043E+01  0.24036456456E+02 -0.91171569141E+02  0.94451483332E+02  0.00000000000E+00 0. -1.
          1    1    1    2  502    0  0.13392723742E+02 -0.16026119888E+02 -0.31102623592E+03  0.31172667676E+03  0.00000000000E+00 0.  1.
         22    1    1    2    0    0  0.49343788712E+02  0.15507734258E+02 -0.23134958688E+02  0.56661500331E+02  0.00000000000E+00 0.  1.
         22    1    1    2    0    0 -0.68311137559E+02 -0.23518070826E+02 -0.55334646711E+02  0.91002386214E+02  0.00000000000E+00 0. -1.
</event>
<event>
 6    1  0.1293624E-005  0.9767688E+02  0.7818608E-02  0.1285881E+00
          2   -1    0    0  502    0  0.00000000000E+00  0.00000000000E+00  0.24590796454E+03  0.24590796454E+03  0.00000000000E+00 0.  1.
          1   -1    0    0  501    0 -0.00000000000E+00 -0.00000000000E+00 -0.27999302262E+03  0.27999302262E+03  0.00000000000E+00 0.  1.
          2    1    1    2  501    0 -0.32157395543E+02  0.31657912726E+02  0.34173655205E+02  0.56605302192E+02  0.00000000000E+00 0.  1.
          1    1    1    2  502    0 -0.44200925846E+02  0.29762518830E+02 -0.23490090393E+03  0.24086918449E+03  0.00000000000E+00 0.  1.
         22    1    1    2    0    0  0.87665383058E+02 -0.88904186943E+02  0.14668602970E+03  0.19262908698E+03  0.00000000000E+00 0.  1.
         22    1    1    2    0    0 -0.11307061670E+02  0.27483755387E+02  0.19956160935E+02  0.35797413497E+02  0.00000000000E+00 0.  1.
</event>
<event>
 6    1  0.1293624E-005  0.1727837E+03  0.7818608E-02  0.1174976E+00
          2   -1    0    0  502    0  0.00000000000E+00  0.00000000000E+00  0.28084934016E+03  0.28084934016E+03  0.00000000000E+00 0. -1.
          1   -1    0    0  501    0 -0.00000000000E+00 -0.00000000000E+00 -0.19665776465E+03  0.19665776465E+03  0.00000000000E+00 0. -1.
          2    1    1    2  501    0 -0.48839704916E+01  0.21544173005E+02 -0.37948056609E+02  0.43909675000E+02  0.00000000000E+00 0. -1.
          1    1    1    2  502    0  0.42660680181E+02 -0.90301124758E+02  0.23043191085E+03  0.25114356910E+03  0.00000000000E+00 0. -1.
         22    1    1    2    0    0 -0.11272381786E+02  0.98551560054E+02 -0.10164690793E+03  0.14202665409E+03  0.00000000000E+00 0. -1.
         22    1    1    2    0    0 -0.26504327903E+02 -0.29794608302E+02 -0.66453707878E+01  0.40427206611E+02  0.00000000000E+00 0. -1.
</event>
<event>
 6    1  0.1293624E-005  0.4811286E+03  0.7818608E-02  0.1018825E+00
          2   -1    0    0  502    0  0.00000000000E+00  0.00000000000E+00  0.25603456388E+03  0.25603456388E+03  0.00000000000E+00 0. -1.
          1   -1    0    0  501    0 -0.00000000000E+00 -0.00000000000E+00 -0.11518944341E+04  0.11518944341E+04  0.00000000000E+00 0. -1.
          2    1    1    2  501    0  0.77126237914E+02 -0.22781296052E+02 -0.53638525289E+02  0.96667137228E+02  0.00000000000E+00 0. -1.
          1    1    1    2  502    0 -0.15860728427E+03 -0.33295083104E+03 -0.84763400959E+03  0.92438949623E+03  0.00000000000E+00 0. -1.
         22    1    1    2    0    0  0.71803690448E+02  0.36574120269E+03  0.74759728049E+01  0.37279791774E+03  0.00000000000E+00 0. -1.
         22    1    1    2    0    0  0.96773559060E+01 -0.10009075594E+02 -0.20633081264E+01  0.14074446775E+02  0.00000000000E+00 0. -1.
</event>
<event>
 6    1  0.1293624E-005  0.2170944E+03  0.7818608E-02  0.1189906E+00
          2   -1    0    0  502    0  0.00000000000E+00  0.00000000000E+00  0.69718206295E+03  0.69718206295E+03  0.00000000000E+00 0.  1.
          1   -1    0    0  501    0 -0.00000000000E+00 -0.00000000000E+00 -0.97894076227E+03  0.97894076227E+03  0.00000000000E+00 0.  1.
          2    1    1    2  501    0 -0.46410173877E+02 -0.57269274635E+02  0.25067836950E+03  0.26129163591E+03  0.00000000000E+00 0.  1.
          1    1    1    2  502    0  0.19216099994E+03  0.96217938520E+02 -0.93896944147E+03  0.96324833433E+03  0.00000000000E+00 0.  1.
         22    1    1    2    0    0 -0.83425399295E+02 -0.41075294707E+02  0.36499468496E+03  0.37665381603E+03  0.00000000000E+00 0. -1.
         22    1    1    2    0    0 -0.62325426764E+02  0.21266308227E+01  0.41537687683E+02  0.74929038950E+02  0.00000000000E+00 0.  1.
</event>
<event>
 6    1  0.1293624E-005  0.1107058E+03  0.7818608E-02  0.1263844E+00
          2   -1    0    0  502    0  0.00000000000E+00  0.00000000000E+00  0.73945284588E+03  0.73945284588E+03  0.00000000000E+00 0.  1.
          1   -1    0    0  501    0 -0.00000000000E+00 -0.00000000000E+00 -0.54561155628E+02  0.54561155628E+02  0.00000000000E+00 0. -1.
          2    1    1    2  501    0  0.55525625194E+02 -0.39778700945E+02  0.22010409458E+03  0.23045878710E+03  0.00000000000E+00 0.  1.
          1    1    1    2  502    0  0.20387037351E+02  0.16923341407E+02 -0.34444806970E+02  0.43456593326E+02  0.00000000000E+00 0. -1.
         22    1    1    2    0    0  0.33711655624E+02  0.10968870037E+02  0.13083220246E+03  0.13555020116E+03  0.00000000000E+00 0.  1.
         22    1    1    2    0    0 -0.10962431817E+03  0.11886489501E+02  0.36840020018E+03  0.38454841992E+03  0.00000000000E+00 0.  1.
</event>
<event>
 6    1  0.1293624E-005  0.5499326E+03  0.7818608E-02  0.1001510E+00
          2   -1    0    0  502    0  0.00000000000E+00  0.00000000000E+00  0.47699399555E+03  0.47699399555E+03  0.00000000000E+00 0. -1.
          1   -1    0    0  501    0 -0.00000000000E+00 -0.00000000000E+00 -0.62690585090E+03  0.62690585090E+03  0.00000000000E+00 0. -1.
          2    1    1    2  501    0  0.28435846969E+03  0.57398001677E+02 -0.34931695492E+03  0.45406674055E+03  0.00000000000E+00 0. -1.
          1    1    1    2  502    0 -0.41888304230E+03 -0.82044112150E+02  0.17928500067E+03  0.46296582048E+03  0.00000000000E+00 0. -1.
         22    1    1    2    0    0  0.31973011477E+02 -0.49037107365E+02 -0.24381420951E+01  0.58590578582E+02  0.00000000000E+00 0. -1.
         22    1    1    2    0    0  0.10255156113E+03  0.73683217838E+02  0.22558240986E+02  0.12827670684E+03  0.00000000000E+00 0. -1.
</event>
<event>
 6    1  0.1293624E-005  0.1538153E+03  0.7818608E-02  0.1195862E+00
          2   -1    0    0  502    0  0.00000000000E+00  0.00000000000E+00  0.13346368522E+03  0.13346368522E+03  0.00000000000E+00 0.  1.
          1   -1    0    0  501    0 -0.00000000000E+00 -0.00000000000E+00 -0.42004839048E+03  0.42004839048E+03  0.00000000000E+00 0.  1.
          2    1    1    2  501    0  0.16015216001E+02 -0.22602973827E+02  0.33966667571E+02  0.43830538159E+02  0.00000000000E+00 0.  1.
          1    1    1    2  502    0 -0.26208810619E+02  0.24244303923E+02 -0.37459840852E+03  0.37629596822E+03  0.00000000000E+00 0.  1.
         22    1    1    2    0    0  0.15760874393E+02 -0.30983189555E+02  0.84109648565E+02  0.91009868577E+02  0.00000000000E+00 0.  1.
         22    1    1    2    0    0 -0.55672797758E+01  0.29341859459E+02 -0.30062612871E+02  0.42375700741E+02  0.00000000000E+00 0.  1.
</event>
<event>
 6    1  0.1293624E-005  0.6890999E+02  0.7818608E-02  0.1364884E+00
          2   -1    0    0  502    0  0.00000000000E+00  0.00000000000E+00  0.10679253429E+03  0.10679253429E+03  0.00000000000E+00 0.  1.
          1   -1    0    0  501    0 -0.00000000000E+00 -0.00000000000E+00 -0.10330745799E+04  0.10330745799E+04  0.00000000000E+00 0. -1.
          2    1    1    2  501    0  0.20467282089E+02  0.34196337231E+02 -0.10563123621E+03  0.11289932320E+03  0.00000000000E+00 0.  1.
          1    1    1    2  502    0  0.31932795834E+02 -0.17872015068E+02 -0.87745925894E+03  0.87822198986E+03  0.00000000000E+00 0. -1.
         22    1    1    2    0    0  0.12841910249E+02  0.76759978849E+01 -0.32377862533E+02  0.35667374232E+02  0.00000000000E+00 0.  1.
         22    1    1    2    0    0 -0.65241988172E+02 -0.24000320048E+02  0.89186312036E+02  0.11307842693E+03  0.00000000000E+00 0.  1.
</event>
<event>
 6    1  0.1293624E-005  0.2257941E+03  0.7818608E-02  0.1129636E+00
          2   -1    0    0  502    0  0.00000000000E+00  0.00000000000E+00  0.61313495020E+02  0.61313495020E+02  0.00000000000E+00 0. -1.
          1   -1    0    0  501    0 -0.00000000000E+00 -0.00000000000E+00 -0.37262569624E+03  0.37262569624E+03  0.00000000000E+00 0. -1.
          2    1    1    2  501    0 -0.34668080105E+02 -0.18447016915E+02 -0.14491791094E+03  0.15014449415E+03  0.00000000000E+00 0. -1.
          1    1    1    2  502    0 -0.31952787138E+02  0.68989547008E+02 -0.89286318157E+02  0.11727141515E+03  0.00000000000E+00 0. -1.
         22    1    1    2    0    0  0.86834300995E+02 -0.50824017604E+02 -0.15647992984E+02  0.10182404568E+03  0.00000000000E+00 0. -1.
         22    1    1    2    0    0 -0.20213433751E+02  0.28148751173E+00 -0.61459979140E+02  0.64699236279E+02  0.00000000000E+00 0. -1.
</event>
<event>
 6    1  0.1293624E-005  0.1321468E+03  0.7818608E-02  0.1225930E+00
          2   -1    0    0  502    0  0.00000000000E+00  0.00000000000E+00  0.54442453997E+03  0.54442453997E+03  0.00000000000E+00 0.  1.
          1   -1    0    0  501    0 -0.00000000000E+00 -0.00000000000E+00 -0.74774183730E+02  0.74774183730E+02  0.00000000000E+00 0. -1.
          2    1    1    2  501    0 -0.87380393904E+02  0.25183087348E+02  0.87625614196E+02  0.12628447803E+03  0.00000000000E+00 0.  1.
          1    1    1    2  502    0  0.11506490743E+02  0.59437095064E+02 -0.15265472996E+02  0.62435584923E+02  0.00000000000E+00 0. -1.
         22    1    1    2    0    0  0.99065131177E+02 -0.97515132660E+02  0.34113861320E+03  0.36837298317E+03  0.00000000000E+00 0.  1.
         22    1    1    2    0    0 -0.23191228016E+02  0.12894950248E+02  0.56151601836E+02  0.62105677579E+02  0.00000000000E+00 0. -1.
</event>
<event>
 6    1  0.1293624E-005  0.2779895E+03  0.7818608E-02  0.1096792E+00
          2   -1    0    0  502    0  0.00000000000E+00  0.00000000000E+00  0.24431844917E+03  0.24431844917E+03  0.00000000000E+00 0.  1.
          1   -1    0    0  501    0 -0.00000000000E+00 -0.00000000000E+00 -0.59993233370E+03  0.59993233370E+03  0.00000000000E+00 0.  1.
          2    1    1    2  501    0 -0.67241953005E+01 -0.52962989505E+02 -0.19523279178E+02  0.56845857278E+02  0.00000000000E+00 0.  1.
          1    1    1    2  502    0  0.12732366479E+03  0.15496778591E+03 -0.49440661314E+03  0.53353934194E+03  0.00000000000E+00 0.  1.
         22    1    1    2    0    0 -0.14508872825E+02 -0.23944865007E+02 -0.18370992976E+02  0.33486673973E+02  0.00000000000E+00 0.  1.
         22    1    1    2    0    0 -0.10609059666E+03 -0.78059931394E+02  0.17668700077E+03  0.22037890968E+03  0.00000000000E+00 0.  1.
</event>
<event>
 6    1  0.1293624E-005  0.2280518E+03  0.7818608E-02  0.1128019E+00
          2   -1    0    0  502    0  0.00000000000E+00  0.00000000000E+00  0.84028550658E+03  0.84028550658E+03  0.00000000000E+00 0. -1.
          1   -1    0    0  501    0 -0.00000000000E+00 -0.00000000000E+00 -0.85743887137E+02  0.85743887137E+02  0.00000000000E+00 0.  1.
          2    1    1    2  501    0 -0.22353880615E+02 -0.26551302814E+02  0.12483690924E+03  0.12957207095E+03  0.00000000000E+00 0. -1.
          1    1    1    2  502    0 -0.11325069205E+03 -0.25173996732E+02 -0.20782510491E+02  0.11786162269E+03  0.00000000000E+00 0.  1.
         22    1    1    2    0    0 -0.17936159137E+02 -0.12113999700E+02  0.35982336538E+02  0.41990276685E+02  0.00000000000E+00 0. -1.
         22    1    1    2    0    0  0.15354073180E+03  0.63839299247E+02  0.61450488415E+03  0.63660542339E+03  0.00000000000E+00 0. -1.
</event>
<event>
 6    1  0.1293624E-005  0.3470666E+03  0.7818608E-02  0.1063825E+00
          2   -1    0    0  502    0  0.00000000000E+00  0.00000000000E+00  0.11743365502E+03  0.11743365502E+03  0.00000000000E+00 0.  1.
          1   -1    0    0  501    0 -0.00000000000E+00 -0.00000000000E+00 -0.12587502460E+04  0.12587502460E+04  0.00000000000E+00 0. -1.
          2    1    1    2  501    0 -0.39029026778E+02  0.19972445409E+02 -0.21765467034E+03  0.22202639264E+03  0.00000000000E+00 0.  1.
          1    1    1    2  502    0  0.21538064781E+02  0.26299090066E+01 -0.10019434985E+04  0.10021784167E+04  0.00000000000E+00 0. -1.
         22    1    1    2    0    0  0.92948674811E+01  0.20929475051E+02 -0.28390409413E+02  0.36475372980E+02  0.00000000000E+00 0.  1.
         22    1    1    2    0    0  0.81960945159E+01 -0.43531829466E+02  0.10667198735E+03  0.11550371867E+03  0.00000000000E+00 0.  1.
</event>
<event>
 6    1  0.1293624E-005  0.1864606E+03  0.7818608E-02  0.1161693E+00
          2   -1    0    0  502    0  0.00000000000E+00  0.00000000000E+00  0.58913719955E+02  0.58913719955E+02  0.00000000000E+00 0. -1.
          1   -1    0    0  501    0 -0.00000000000E+00 -0.00000000000E+00 -0.24935296444E+03  0.24935296444E+03  0.00000000000E+00 0. -1.
          2    1    1    2  501    0  0.21451896382E+02 -0.79621011657E+01 -0.75373585982E+02  0.78770275975E+02  0.00000000000E+00 0. -1.
          1    1    1    2  502    0 -0.23573931645E+02 -0.13714696601E+02 -0.94926482805E+02  0.98766696279E+02  0.00000000000E+00 0. -1.
         22    1    1    2    0    0 -0.19214437796E+02  0.32826615862E+02 -0.67569334107E+02  0.77539643025E+02  0.00000000000E+00 0.  1.
         22    1    1    2    0    0  0.21336473059E+02 -0.11149818095E+02  0.47430158407E+02  0.53190069117E+02  0.00000000000E+00 0. -1.
</event>
<event>
 6    1  0.1293624E-005  0.3662913E+03  0.7818608E-02  0.1056120E+00
          2   -1    0    0  502    0  0.00000000000E+00  0.00000000000E+00  0.10713431687E+03  0.10713431687E+03  0.00000000000E+00 0. -1.
          1   -1    0    0  501    0 -0.00000000000E+00 -0.00000000000E+00 -0.84556211076E+03  0.84556211076E+03  0.00000000000E+00 0.  1.
          2    1    1    2  501    0 -0.59631802814E+02 -0.21277138468E+02 -0.23409721180E+03  0.24250808874E+03  0.00000000000E+00 0. -1.
          1    1    1    2  502    0 -0.69702294393E+02  0.37795520550E+02 -0.52044495525E+03  0.52645024709E+03  0.00000000000E+00 0.  1.
         22    1    1    2    0    0  0.13190510284E+02 -0.21290581620E+02 -0.45677521474E+02  0.52093323903E+02  0.00000000000E+00 0.  1.
         22    1    1    2    0    0  0.11614358692E+03  0.47721995383E+01  0.61791894635E+02  0.13164476790E+03  0.00000000000E+00 0. -1.
</event>
<event>
 6    1  0.1293624E-005  0.4013059E+03  0.7818608E-02  0.1043328E+00
          2   -1    0    0  502    0  0.00000000000E+00  0.00000000000E+00  0.46504469003E+03  0.46504469003E+03  0.00000000000E+00 0. -1.
          1   -1    0    0  501    0 -0.00000000000E+00 -0.00000000000E+00 -0.31968909629E+03  0.31968909629E+03  0.00000000000E+00 0. -1.
          2    1    1    2  501    0  0.12930948957E+01 -0.22670106397E+02 -0.15825383171E+02  0.27677582462E+02  0.00000000000E+00 0. -1.
          1    1    1    2  502    0  0.19782844478E+03  0.30263635431E+03  0.11672656780E+02  0.36174729775E+03  0.00000000000E+00 0. -1.
         22    1    1    2    0    0 -0.56836879298E+01 -0.61421772953E+02 -0.10341311757E+02  0.62545033616E+02  0.00000000000E+00 0. -1.
         22    1    1    2    0    0 -0.19343785175E+03 -0.21854447496E+03  0.15984963189E+03  0.33276387250E+03  0.00000000000E+00 0. -1.
</event>
<event>
 6    1  0.1293624E-005  0.1278651E+03  0.7818608E-02  0.1231652E+00
          2   -1    0    0  502    0  0.00000000000E+00  0.00000000000E+00  0.43579590005E+03  0.43579590005E+03  0.00000000000E+00 0. -1.
          1   -1    0    0  501    0 -0.00000000000E+00 -0.00000000000E+00 -0.25959170743E+03  0.25959170743E+03  0.00000000000E+00 0.  1.
          2    1    1    2  501    0  0.20922866336E+02  0.75402692013E+02  0.94155857562E+02  0.12242817409E+03  0.00000000000E+00 0. -1.
          1    1    1    2  502    0  0.70220101757E+01  0.46177158987E+02 -0.21869541703E+03  0.22362764603E+03  0.00000000000E+00 0.  1.
         22    1    1    2    0    0  0.19085621545E+02  0.20531510967E+02  0.47095271568E+02  0.54806646462E+02  0.00000000000E+00 0.  1.
         22    1    1    2    0    0 -0.47030498057E+02 -0.14211136197E+03  0.25364848052E+03  0.29452514089E+03  0.00000000000E+00 0. -1.
</event>
<event>
 6    1  0.1293624E-005  0.2354805E+03  0.7818608E-02  0.1122841E+00
          2   -1    0    0  502    0  0.00000000000E+00  0.00000000000E+00  0.92417026537E+03  0.92417026537E+03  0.00000000000E+00 0. -1.
          1   -1    0    0  501    0 -0.00000000000E+00 -0.00000000000E+00 -0.75220155986E+02  0.75220155986E+02  0.00000000000E+00 0.  1.
          2    1    1    2  501    0 -0.33101033327E+02  0.71010804092E+02  0.45725191497E+03  0.46391543027E+03  0.00000000000E+00 0. -1.
          1    1    1    2  502    0  0.10259425204E+03 -0.48864935883E+02 -0.48220737139E+01  0.11373924084E+03  0.00000000000E+00 0.  1.
         22    1    1    2    0    0 -0.41693275360E+02  0.36407046150E+02  0.30259788312E+03  0.30761872682E+03  0.00000000000E+00 0. -1.
         22    1    1    2    0    0 -0.27799943355E+02 -0.58552914359E+02  0.93922385012E+02  0.11411702343E+03  0.00000000000E+00 0.  1.
</event>
<event>
 6    1  0.1293624E-005  0.1947369E+03  0.7818608E-02  0.1154257E+00
          2   -1    0    0  502    0  0.00000000000E+00  0.00000000000E+00  0.67993082293E+02  0.67993082293E+02  0.00000000000E+00 0. -1.
          1   -1    0    0  501    0 -0.00000000000E+00 -0.00000000000E+00 -0.78948229718E+03  0.78948229718E+03  0.00000000000E+00 0. -1.
          2    1    1    2  501    0  0.31459058981E+02 -0.13353240983E+01 -0.26840519503E+02  0.41374738303E+02  0.00000000000E+00 0. -1.
          1    1    1    2  502    0 -0.10967719244E+03 -0.64475536337E+02 -0.62927758142E+03  0.64200970071E+03  0.00000000000E+00 0. -1.
         22    1    1    2    0    0  0.58221438590E+02 -0.81480673987E+00  0.22145686058E+02  0.62296317969E+02  0.00000000000E+00 0. -1.
         22    1    1    2    0    0  0.19996694867E+02  0.66625667175E+02 -0.87516800025E+02  0.11179462249E+03  0.00000000000E+00 0. -1.
</event>
<event>
 6    1  0.1293624E-005  0.9517584E+02  0.7818608E-02  0.1292839E+00
          2   -1    0    0  502    0  0.00000000000E+00  0.00000000000E+00  0.66815293597E+02  0.66815293597E+02  0.00000000000E+00 0.  1.
          1   -1    0    0  501    0 -0.00000000000E+00 -0.00000000000E+00 -0.20230341162E+03  0.20230341162E+03  0.00000000000E+00 0. -1.
          2    1    1    2  501    0 -0.41495513560E+02  0.30750014920E+02 -0.95803790541E+01  0.52528323084E+02  0.00000000000E+00 0.  1.
          1    1    1    2  502    0 -0.12707016135E+02 -0.16467343291E+02 -0.63848099378E+02  0.67150736767E+02  0.00000000000E+00 0. -1.
         22    1    1    2    0    0 -0.39643082973E+02  0.54933909747E+01 -0.19306216457E+02  0.44435136614E+02  0.00000000000E+00 0.  1.
         22    1    1    2    0    0  0.93845612668E+02 -0.19776062603E+02 -0.42753423135E+02  0.10500450875E+03  0.00000000000E+00 0.  1.
</event>
<event>
 6    1  0.1293624E-005  0.9759533E+02  0.7818608E-02  0.1288498E+00
          2   -1    0    0  502    0  0.00000000000E+00  0.00000000000E+00  0.33768383544E+02  0.33768383544E+02  0.00000000000E+00 0. -1.
          1   -1    0    0  501    0 -0.00000000000E+00 -0.00000000000E+00 -0.56651089958E+03  0.56651089958E+03  0.00000000000E+00 0. -1.
          2    1    1    2  501    0  0.57481660600E+02  0.33401620955E+02 -0.90092198578E+02  0.11196612806E+03  0.00000000000E+00 0. -1.
          1    1    1    2  502    0 -0.22622656571E+02 -0.38583312161E+02 -0.26213643285E+03  0.26592473746E+03  0.00000000000E+00 0. -1.
         22    1    1    2    0    0 -0.73093612779E+02 -0.13178835316E+02 -0.15749678488E+03  0.17413097134E+03  0.00000000000E+00 0.  1.
         22    1    1    2    0    0  0.38234608750E+02  0.18360526522E+02 -0.23017099721E+02  0.48257446265E+02  0.00000000000E+00 0.  1.
</event>
<event>
 6    1  0.1293624E-005  0.1736805E+03  0.7818608E-02  0.1174063E+00
          2   -1    0    0  502    0  0.00000000000E+00  0.00000000000E+00  0.13160153349E+03  0.13160153349E+03  0.00000000000E+00 0. -1.
          1   -1    0    0  501    0 -0.00000000000E+00 -0.00000000000E+00 -0.14866278626E+03  0.14866278626E+03  0.00000000000E+00 0.  1.
          2    1    1    2  501    0 -0.45411866102E+02 -0.11169236524E+01 -0.11240477707E+01  0.45439504671E+02  0.00000000000E+00 0. -1.
          1    1    1    2  502    0  0.58239239130E+02 -0.16892148982E+02 -0.75662735700E+02  0.96963927546E+02  0.00000000000E+00 0.  1.
         22    1    1    2    0    0  0.12107545860E+02  0.64215182942E+02  0.11069400678E+02  0.66277552900E+02  0.00000000000E+00 0.  1.
         22    1    1    2    0    0 -0.24934918888E+02 -0.46206110307E+02  0.48656130023E+02  0.71583334642E+02  0.00000000000E+00 0. -1.
</event>
<event>
 6    1  0.1293624E-005  0.3359123E+02  0.7818608E-02  0.1596340E+00
          2   -1    0    0  502    0  0.00000000000E+00  0.00000000000E+00  0.82962557417E+02  0.82962557417E+02  0.00000000000E+00 0. -1.
          1   -1    0    0  501    0 -0.00000000000E+00 -0.00000000000E+00 -0.20444674140E+03  0.20444674140E+03  0.00000000000E+00 0. -1.
          2    1    1    2  501    0 -0.14534409530E+02  0.19601154490E+02 -0.10616147165E+03  0.10892985073E+03  0.00000000000E+00 0. -1.
          1    1    1    2  502    0  0.22258057264E+02 -0.60478176511E+01 -0.44158691775E+02  0.49819547075E+02  0.00000000000E+00 0. -1.
         22    1    1    2    0    0  0.77182236558E+01 -0.20415865562E+02  0.75730884658E+02  0.78813358222E+02  0.00000000000E+00 0. -1.
         22    1    1    2    0    0 -0.15441871390E+02  0.68625287232E+01 -0.46894905212E+02  0.49846542782E+02  0.00000000000E+00 0. -1.
</event>
<event>
 6    1  0.1293624E-005  0.1780118E+03  0.7818608E-02  0.1169741E+00
          2   -1    0    0  502    0  0.00000000000E+00  0.00000000000E+00  0.47538712824E+02  0.47538712824E+02  0.00000000000E+00 0. -1.
          1   -1    0    0  501    0 -0.00000000000E+00 -0.00000000000E+00 -0.16044550569E+04  0.16044550569E+04  0.00000000000E+00 0. -1.
          2    1    1    2  501    0 -0.27492226620E+02 -0.60632462457E+01 -0.64057049331E+02  0.69970644191E+02  0.00000000000E+00 0. -1.
          1    1    1    2  502    0  0.21537758558E+02 -0.46208625126E+02 -0.14357572889E+04  0.14366621401E+04  0.00000000000E+00 0. -1.
         22    1    1    2    0    0 -0.42176399903E+02  0.44750928175E+02  0.10142877384E+02  0.62324732193E+02  0.00000000000E+00 0. -1.
         22    1    1    2    0    0  0.48130867965E+02  0.75209431961E+01 -0.67244883261E+02  0.83036253302E+02  0.00000000000E+00 0.  1.
</event>
<event>
 6    1  0.1293624E-005  0.1328456E+03  0.7818608E-02  0.1225240E+00
          2   -1    0    0  502    0  0.00000000000E+00  0.00000000000E+00  0.19899821818E+03  0.19899821818E+03  0.00000000000E+00 0.  1.
          1   -1    0    0  501    0 -0.00000000000E+00 -0.00000000000E+00 -0.19294583625E+03  0.19294583625E+03  0.00000000000E+00 0.  1.
          2    1    1    2  501    0  0.10041132908E+03 -0.43231434713E+02 -0.11722774406E+02  0.10994914913E+03  0.00000000000E+00 0.  1.
          1    1    1    2  502    0 -0.68087898701E+02 -0.53248836829E+02 -0.56517184878E+02  0.10327435674E+03  0.00000000000E+00 0.  1.
         22    1    1    2    0    0 -0.60805793977E+02  0.11390976696E+03  0.57580019974E+02  0.14137976620E+03  0.00000000000E+00 0.  1.
         22    1    1    2    0    0  0.28482363597E+02 -0.17429495415E+02  0.16712321238E+02  0.37340782366E+02  0.00000000000E+00 0. -1.
</event>
<event>
 6    1  0.1293624E-005  0.1610145E+03  0.7818608E-02  0.1187556E+00
          2   -1    0    0  502    0  0.00000000000E+00  0.00000000000E+00  0.17267661944E+02  0.17267661944E+02  0.00000000000E+00 0. -1.
          1   -1    0    0  501    0 -0.00000000000E+00 -0.00000000000E+00 -0.13289368264E+04  0.13289368264E+04  0.00000000000E+00 0. -1.
          2    1    1    2  501    0  0.67550421919E+01 -0.22580988127E+02 -0.14661225712E+03  0.14849473242E+03  0.00000000000E+00 0. -1.
          1    1    1    2  502    0  0.11678059197E+02  0.18966389569E+02 -0.95059905376E+03  0.95085995920E+03  0.00000000000E+00 0. -1.
         22    1    1    2    0    0 -0.26090933735E+02 -0.42081440485E+02 -0.18599434998E+03  0.19247203090E+03  0.00000000000E+00 0. -1.
         22    1    1    2    0    0  0.76578323463E+01  0.45696039044E+02 -0.28463503645E+02  0.54377765863E+02  0.00000000000E+00 0. -1.
</event>
<event>
 6    1  0.1293624E-005  0.1842006E+03  0.7818608E-02  0.1163799E+00
          2   -1    0    0  502    0  0.00000000000E+00  0.00000000000E+00  0.66507142945E+02  0.66507142945E+02  0.00000000000E+00 0.  1.
          1   -1    0    0  501    0 -0.00000000000E+00 -0.00000000000E+00 -0.67193341062E+03  0.67193341062E+03  0.00000000000E+00 0.  1.
          2    1    1    2  501    0 -0.30779169905E+01 -0.21544920427E+02  0.55749855627E+01  0.22466366712E+02  0.00000000000E+00 0.  1.
          1    1    1    2  502    0  0.54454038110E+02  0.96750054784E+02 -0.52643978402E+03  0.53801920186E+03  0.00000000000E+00 0.  1.
         22    1    1    2    0    0  0.23665434471E+02 -0.49917073160E+02  0.83563424627E+01  0.55871239837E+02  0.00000000000E+00 0.  1.
         22    1    1    2    0    0 -0.75041555591E+02 -0.25288061197E+02 -0.92917811680E+02  0.12208374516E+03  0.00000000000E+00 0. -1.
</event>
<event>
 6    1  0.1293624E-005  0.2079885E+03  0.7818608E-02  0.1143169E+00
          2   -1    0    0  502    0  0.00000000000E+00  0.00000000000E+00  0.11619743418E+03  0.11619743418E+03  0.00000000000E+00 0.  1.
          1   -1    0    0  501    0 -0.00000000000E+00 -0.00000000000E+00 -0.29043240874E+04  0.29043240874E+04  0.00000000000E+00 0.  1.
          2    1    1    2  501    0 -0.45660204501E+02  0.14856405506E+01 -0.41644246770E+02  0.61816702370E+02  0.00000000000E+00 0.  1.
          1    1    1    2  502    0  0.20193941302E+02 -0.38189971013E+02 -0.28109523331E+04  0.28112842774E+04  0.00000000000E+00 0.  1.
         22    1    1    2    0    0  0.39930244223E+02 -0.10750056022E+02  0.84377384597E+02  0.93965584868E+02  0.00000000000E+00 0.  1.
         22    1    1    2    0    0 -0.14463981024E+02  0.47454386484E+02 -0.19907457946E+02  0.53454956978E+02  0.00000000000E+00 0.  1.
</event>
<event>
 6    1  0.1293624E-005  0.6581191E+02  0.7818608E-02  0.1380776E+00
          2   -1    0    0  502    0  0.00000000000E+00  0.00000000000E+00  0.33958806624E+03  0.33958806624E+03  0.00000000000E+00 0. -1.
          1   -1    0    0  501    0 -0.00000000000E+00 -0.00000000000E+00 -0.19749287195E+03  0.19749287195E+03  0.00000000000E+00 0. -1.
          2    1    1    2  501    0  0.23132093544E+02 -0.85381670437E+01  0.10429247791E+03  0.10716769567E+03  0.00000000000E+00 0. -1.
          1    1    1    2  502    0 -0.12155747449E+02 -0.41241852906E+02 -0.17468125111E+03  0.17989494744E+03  0.00000000000E+00 0. -1.
         22    1    1    2    0    0 -0.50044064761E+02  0.28531718019E+02  0.35801698040E+02  0.67824987530E+02  0.00000000000E+00 0.  1.
         22    1    1    2    0    0  0.39067718666E+02  0.21248301930E+02  0.17668226945E+03  0.18219330754E+03  0.00000000000E+00 0. -1.
</event>
<event>
 6    1  0.1293624E-005  0.7181947E+02  0.7818608E-02  0.1359101E+00
          2   -1    0    0  502    0  0.00000000000E+00  0.00000000000E+00  0.62181717371E+02  0.62181717371E+02  0.00000000000E+00 0.  1.
          1   -1    0    0  501    0 -0.00000000000E+00 -0.00000000000E+00 -0.22881005343E+03  0.22881005343E+03  0.00000000000E+00 0. -1.
          2    1    1    2  501    0 -0.33940162847E+02  0.13112619437E+02 -0.23353209660E+02  0.43234798994E+02  0.00000000000E+00 0.  1.
          1    1    1    2  502    0  0.43701381150E+02  0.36887348586E+02 -0.60133973304E+01  0.57503462049E+02  0.00000000000E+00 0. -1.
         22    1    1    2    0    0 -0.18592696283E+02  0.28749984427E+02 -0.30243821557E+01  0.34371453957E+02  0.00000000000E+00 0.  1.
         22    1    1    2    0    0  0.88314779807E+01 -0.78749952451E+02 -0.13423734691E+03  0.15588205580E+03  0.00000000000E+00 0.  1.
</event>
<event>
 6    1  0.1293624E-005  0.3675558E+03  0.7818608E-02  0.1055632E+00
          2   -1    0    0  502    0  0.00000000000E+00  0.00000000000E+00  0.21627735069E+03  0.21627735069E+03  0.00000000000E+00 0. -1.
          1   -1    0    0  501    0 -0.00000000000E+00 -0.00000000000E+00 -0.78223818646E+03  0.78223818646E+03  0.00000000000E+00 0. -1.
          2    1    1    2  501    0  0.73190885801E+02 -0.80595261509E+02 -0.76219975855E+02  0.13289840729E+03  0.00000000000E+00 0. -1.
          1    1    1    2  502    0 -0.13921580483E+03 -0.68303337923E+02 -0.60901475217E+03  0.62844677948E+03  0.00000000000E+00 0. -1.
         22    1    1    2    0    0  0.68569578658E+02  0.16047563456E+03  0.13271960845E+03  0.21924577732E+03  0.00000000000E+00 0. -1.
         22    1    1    2    0    0 -0.25446596343E+01 -0.11577035127E+02 -0.13445716195E+02  0.17924573049E+02  0.00000000000E+00 0.  1.
</event>
<event>
 6    1  0.1293624E-005  0.2396988E+03  0.7818608E-02  0.1148256E+00
          2   -1    0    0  502    0  0.00000000000E+00  0.00000000000E+00  0.10437924643E+04  0.10437924643E+04  0.00000000000E+00 0. -1.
          1   -1    0    0  501    0 -0.00000000000E+00 -0.00000000000E+00 -0.11656577454E+03  0.11656577454E+03  0.00000000000E+00 0. -1.
          2    1    1    2  501    0 -0.12784761571E+03 -0.44482814126E+02  0.82428954175E+02  0.15848743194E+03  0.00000000000E+00 0. -1.
          1    1    1    2  502    0  0.21889113277E+03  0.20301113674E+03  0.35123699254E+03  0.46097101272E+03  0.00000000000E+00 0. -1.
         22    1    1    2    0    0 -0.61424434279E+02 -0.41889008250E+02  0.75898172047E+02  0.10624585949E+03  0.00000000000E+00 0. -1.
         22    1    1    2    0    0 -0.29619082779E+02 -0.11663931437E+03  0.41766257102E+03  0.43465393470E+03  0.00000000000E+00 0. -1.
</event>
<event>
 6    1  0.1293624E-005  0.1954713E+03  0.7818608E-02  0.1254827E+00
          2   -1    0    0  502    0  0.00000000000E+00  0.00000000000E+00  0.51608703422E+03  0.51608703422E+03  0.00000000000E+00 0.  1.
          1   -1    0    0  501    0 -0.00000000000E+00 -0.00000000000E+00 -0.19065001611E+03  0.19065001611E+03  0.00000000000E+00 0.  1.
          2    1    1    2  501    0  0.23804673093E+01 -0.36710692035E+02  0.33245601552E+02  0.49584388237E+02  0.00000000000E+00 0.  1.
          1    1    1    2  502    0  0.17586982558E+02  0.18359983348E+03 -0.10759463306E+03  0.21352940283E+03  0.00000000000E+00 0.  1.
         22    1    1    2    0    0 -0.19597485608E+02 -0.16884061904E+03  0.36207616738E+03  0.39998795865E+03  0.00000000000E+00 0.  1.
         22    1    1    2    0    0 -0.36996425903E+00  0.21951477594E+02  0.37709882229E+02  0.43635300616E+02  0.00000000000E+00 0. -1.
</event>
<event>
 6    1  0.1293624E-005  0.6971525E+02  0.7818608E-02  0.1420085E+00
          2   -1    0    0  502    0  0.00000000000E+00  0.00000000000E+00  0.12462293109E+03  0.12462293109E+03  0.00000000000E+00 0. -1.
          1   -1    0    0  501    0 -0.00000000000E+00 -0.00000000000E+00 -0.74097324228E+03  0.74097324228E+03  0.00000000000E+00 0. -1.
          2    1    1    2  501    0 -0.20535220890E+02 -0.14225002613E+02 -0.10612070737E+01  0.25003442899E+02  0.00000000000E+00 0. -1.
          1    1    1    2  502    0  0.60013721538E+02 -0.16846884757E+02 -0.68504078197E+03  0.68787087252E+03  0.00000000000E+00 0. -1.
         22    1    1    2    0    0  0.16066348381E+02  0.21714593446E+02  0.89146293986E+02  0.93148874660E+02  0.00000000000E+00 0. -1.
         22    1    1    2    0    0 -0.55544849028E+02  0.93572939237E+01 -0.19394616138E+02  0.59572983292E+02  0.00000000000E+00 0. -1.
</event>
<event>
 6    1  0.1293624E-005  0.2935540E+03  0.7818608E-02  0.1088508E+00
          2   -1    0    0  502    0  0.00000000000E+00  0.00000000000E+00  0.57037277189E+02  0.57037277189E+02  0.00000000000E+00 0. -1.
          1   -1    0    0  501    0 -0.00000000000E+00 -0.00000000000E+00 -0.14367296472E+04  0.14367296472E+04  0.00000000000E+00 0. -1.
          2    1    1    2  501    0 -0.36072248572E+02  0.27850098571E+02 -0.27045746315E+03  0.27427007581E+03  0.00000000000E+00 0. -1.
          1    1    1    2  502    0  0.91406455761E+02  0.60201747736E+02 -0.10360325391E+04  0.10417978752E+04  0.00000000000E+00 0. -1.
         22    1    1    2    0    0 -0.34050395973E+02 -0.86629893340E+02  0.83005108660E+01  0.93450876757E+02  0.00000000000E+00 0. -1.
         22    1    1    2    0    0 -0.21283811216E+02 -0.14219529670E+01 -0.81502878641E+02  0.84248096696E+02  0.00000000000E+00 0.  1.
</event>
<event>
 6    1  0.1293624E-005  0.1057636E+03  0.7818608E-02  0.1313936E+00
          2   -1    0    0  502    0  0.00000000000E+00  0.00000000000E+00  0.22683882101E+03  0.22683882101E+03  0.00000000000E+00 0. -1.
          1   -1    0    0  501    0 -0.00000000000E+00 -0.00000000000E+00 -0.20552719855E+03  0.20552719855E+03  0.00000000000E+00 0. -1.
          2    1    1    2  501    0 -0.40398989671E+02  0.82467533185E+02  0.28380359394E+02  0.96116685313E+02  0.00000000000E+00 0. -1.
          1    1    1    2  502    0  0.11768736515E+02 -0.92555529232E+02 -0.12747312623E+03  0.15796970299E+03  0.00000000000E+00 0. -1.
         22    1    1    2    0    0  0.35021384464E+02 -0.28779478050E+02  0.13005246254E+03  0.13772581000E+03  0.00000000000E+00 0. -1.
         22    1    1    2    0    0 -0.63911313073E+01  0.38867474096E+02 -0.96480732404E+01  0.40553821266E+02  0.00000000000E+00 0. -1.
</event>
<event>
 6    1  0.3823138E-005  0.6095750E+03  0.7818608E-02  0.1088066E+00
          2   -1    0    0  502    0  0.00000000000E+00  0.00000000000E+00  0.47104233469E+03  0.47104233469E+03  0.00000000000E+00 0. -1.
          1   -1    0    0  501    0 -0.00000000000E+00 -0.00000000000E+00 -0.83244900863E+03  0.83244900863E+03  0.00000000000E+00 0. -1.
          2    1    1    2  501    0 -0.13854404312E+03 -0.39283189079E+03 -0.25444748117E+03  0.48811358000E+03  0.00000000000E+00 0. -1.
          1    1    1    2  502    0  0.21001855312E+03  0.55403856383E+03 -0.75615846076E+02  0.59731422137E+03  0.00000000000E+00 0. -1.
         22    1    1    2    0    0 -0.29014138291E+02  0.16078506314E+02 -0.92076531805E+01  0.34425564093E+02  0.00000000000E+00 0.  1.
         22    1    1    2    0    0 -0.42460371716E+02 -0.17728517936E+03 -0.22135693515E+02  0.18363797786E+03  0.00000000000E+00 0.  1.
</event>
<event>
 6    1  0.1293624E-005  0.1413307E+03  0.7818608E-02  0.1213219E+00
          2   -1    0    0  502    0  0.00000000000E+00  0.00000000000E+00  0.58304466657E+03  0.58304466657E+03  0.00000000000E+00 0. -1.
          1   -1    0    0  501    0 -0.00000000000E+00 -0.00000000000E+00 -0.25661221196E+03  0.25661221196E+03  0.00000000000E+00 0. -1.
          2    1    1    2  501    0 -0.11448966410E+03 -0.40068613276E+02  0.32261483224E+03  0.34466462966E+03  0.00000000000E+00 0. -1.
          1    1    1    2  502    0  0.72144991040E+02 -0.87484175957E+02 -0.19510354153E+03  0.22566296261E+03  0.00000000000E+00 0. -1.
         22    1    1    2    0    0  0.73120351833E+02  0.11926169663E+03  0.12034253313E+03  0.18453255381E+03  0.00000000000E+00 0. -1.
         22    1    1    2    0    0 -0.30775678775E+02  0.82910925985E+01  0.78578630770E+02  0.84796732451E+02  0.00000000000E+00 0. -1.
</event>
<event>
 6    1  0.1293624E-005  0.2267069E+03  0.7818608E-02  0.1129236E+00
          2   -1    0    0  502    0  0.00000000000E+00  0.00000000000E+00  0.38081370859E+03  0.38081370859E+03  0.00000000000E+00 0. -1.
          1   -1    0    0  501    0 -0.00000000000E+00 -0.00000000000E+00 -0.72342351413E+03  0.72342351413E+03  0.00000000000E+00 0. -1.
          2    1    1    2  501    0  0.18052675386E+03 -0.24944506829E+02 -0.30193241687E+02  0.18472620042E+03  0.00000000000E+00 0. -1.
          1    1    1    2  502    0  0.27501029513E+02 -0.63275734909E+02 -0.55935724789E+03  0.56359618170E+03  0.00000000000E+00 0. -1.
         22    1    1    2    0    0 -0.22223428083E+03  0.90094569973E+02  0.24217510446E+03  0.34081356830E+03  0.00000000000E+00 0. -1.
         22    1    1    2    0    0  0.14206497462E+02 -0.18743282349E+01  0.47655795730E+01  0.15101272302E+02  0.00000000000E+00 0.  1.
</event>
<event>
 6    1  0.1293624E-005  0.1724758E+03  0.7818608E-02  0.1175290E+00
          2   -1    0    0  502    0  0.00000000000E+00  0.00000000000E+00  0.83969479809E+03  0.83969479809E+03  0.00000000000E+00 0.  1.
          1   -1    0    0  501    0 -0.00000000000E+00 -0.00000000000E+00 -0.34661692413E+02  0.34661692413E+02  0.00000000000E+00 0.  1.
          2    1    1    2  501    0  0.17256875084E+00 -0.27405891473E+02  0.11075708029E+02  0.29559837208E+02  0.00000000000E+00 0.  1.
          1    1    1    2  502    0  0.44736933240E+02  0.60804375430E+02  0.60728744281E+03  0.61196127611E+03  0.00000000000E+00 0.  1.
         22    1    1    2    0    0  0.22374885542E+02 -0.14672300183E+02 -0.64085283826E+01  0.27513290092E+02  0.00000000000E+00 0.  1.
         22    1    1    2    0    0 -0.67284387533E+02 -0.18726183774E+02  0.19307848322E+03  0.20532208709E+03  0.00000000000E+00 0.  1.
</event>
<event>
 6    1  0.1293624E-005  0.9256438E+02  0.7818608E-02  0.1302142E+00
          2   -1    0    0  502    0  0.00000000000E+00  0.00000000000E+00  0.14788435120E+03  0.14788435120E+03  0.00000000000E+00 0. -1.
          1   -1    0    0  501    0 -0.00000000000E+00 -0.00000000000E+00 -0.20250119727E+03  0.20250119727E+03  0.00000000000E+00 0.  1.
          2    1    1    2  501    0 -0.53707014649E+02 -0.14737588547E+02  0.33240670787E+02  0.64858169363E+02  0.00000000000E+00 0. -1.
          1    1    1    2  502    0  0.28873448211E+02 -0.30036904913E+02 -0.13619341576E+03  0.14242379775E+03  0.00000000000E+00 0.  1.
         22    1    1    2    0    0 -0.17928090404E+02 -0.31663381315E+02  0.41586677262E+02  0.55257921310E+02  0.00000000000E+00 0. -1.
         22    1    1    2    0    0  0.42761656842E+02  0.76437874775E+02  0.67492216514E+01  0.87845660046E+02  0.00000000000E+00 0. -1.
</event>
<event>
 6    1  0.1293624E-005  0.2791826E+03  0.7818608E-02  0.1234351E+00
          2   -1    0    0  502    0  0.00000000000E+00  0.00000000000E+00  0.54073352038E+03  0.54073352038E+03  0.00000000000E+00 0. -1.
          1   -1    0    0  501    0 -0.00000000000E+00 -0.00000000000E+00 -0.20619018881E+04  0.20619018881E+04  0.00000000000E+00 0.  1.
          2    1    1    2  501    0  0.12412099304E+02  0.68407161767E+02  0.58501960840E+02  0.90862970524E+02  0.00000000000E+00 0. -1.
          1    1    1    2  502    0 -0.40045145249E+01 -0.26374146476E+03 -0.20078921332E+04  0.20251435541E+04  0.00000000000E+00 0.  1.
         22    1    1    2    0    0 -0.13849216195E+00  0.20316109252E+03  0.42954479376E+03  0.47516647456E+03  0.00000000000E+00 0. -1.
         22    1    1    2    0    0 -0.82690926175E+01 -0.78267895187E+01 -0.13229891964E+01  0.11462409315E+02  0.00000000000E+00 0.  1.
</event>
<event>
 6    1  0.1293624E-005  0.1759248E+03  0.7818608E-02  0.1171806E+00
          2   -1    0    0  502    0  0.00000000000E+00  0.00000000000E+00  0.13159129016E+04  0.13159129016E+04  0.00000000000E+00 0. -1.
          1   -1    0    0  501    0 -0.00000000000E+00 -0.00000000000E+00 -0.12828073775E+02  0.12828073775E+02  0.00000000000E+00 0. -1.
          2    1    1    2  501    0  0.15096051242E+02  0.13425301356E+02  0.18767087370E+02  0.27574137303E+02  0.00000000000E+00 0. -1.
          1    1    1    2  502    0  0.11484449313E+02 -0.55945291961E+02  0.64578045668E+03  0.64830098449E+03  0.00000000000E+00 0. -1.
         22    1    1    2    0    0 -0.75716488465E+02  0.40914690567E+02  0.37127622602E+03  0.38112076110E+03  0.00000000000E+00 0. -1.
         22    1    1    2    0    0  0.49135987909E+02  0.16053000383E+01  0.26726105777E+03  0.27174509249E+03  0.00000000000E+00 0.  1.
</event>
<event>
 6    1  0.1293624E-005  0.2457079E+03  0.7818608E-02  0.1116048E+00
          2   -1    0    0  502    0  0.00000000000E+00  0.00000000000E+00  0.71281409176E+03  0.71281409176E+03  0.00000000000E+00 0. -1.
          1   -1    0    0  501    0 -0.00000000000E+00 -0.00000000000E+00 -0.49257252748E+02  0.49257252748E+02  0.00000000000E+00 0. -1.
          2    1    1    2  501    0  0.62252139906E+02 -0.19283430389E+01  0.22508413632E+02  0.66224437438E+02  0.00000000000E+00 0. -1.
          1    1    1    2  502    0 -0.12450548944E+03 -0.16519806944E+02  0.27532414745E+03  0.30261841830E+03  0.00000000000E+00 0. -1.
         22    1    1    2    0    0 -0.15679533101E+02 -0.94806814871E+01  0.73506432505E-01  0.18323113353E+02  0.00000000000E+00 0. -1.
         22    1    1    2    0    0  0.77932882637E+02  0.27928831470E+02  0.36565077150E+03  0.37490537542E+03  0.00000000000E+00 0. -1.
</event>
<event>
 6    1  0.1293624E-005  0.3512341E+03  0.7818608E-02  0.1062110E+00
          2   -1    0    0  502    0  0.00000000000E+00  0.00000000000E+00  0.87095112655E+03  0.87095112655E+03  0.00000000000E+00 0. -1.
          1   -1    0    0  501    0 -0.00000000000E+00 -0.00000000000E+00 -0.16248652591E+03  0.16248652591E+03  0.00000000000E+00 0. -1.
          2    1    1    2  501    0  0.60049812420E+02  0.93306374835E+02  0.62219383604E+03  0.63201046602E+03  0.00000000000E+00 0. -1.
          1    1    1    2  502    0 -0.22747402977E+02 -0.17567575127E+03 -0.61201520923E+02  0.18741675509E+03  0.00000000000E+00 0. -1.
         22    1    1    2    0    0 -0.63027426429E+02  0.10374681596E+03  0.12047323611E+03  0.17102531662E+03  0.00000000000E+00 0.  1.
         22    1    1    2    0    0  0.25725016987E+02 -0.21377439530E+02  0.26999049405E+02  0.42985114733E+02  0.00000000000E+00 0. -1.
</event>
<event>
 6    1  0.1293624E-005  0.2145619E+03  0.7818608E-02  0.1138004E+00
          2   -1    0    0  502    0  0.00000000000E+00  0.00000000000E+00  0.72465869107E+03  0.72465869107E+03  0.00000000000E+00 0.  1.
          1   -1    0    0  501    0 -0.00000000000E+00 -0.00000000000E+00 -0.10969705264E+03  0.10969705264E+03  0.00000000000E+00 0.  1.
          2    1    1    2  501    0  0.24121192210E+01  0.34107773106E+02  0.73593804773E+02  0.81149285927E+02  0.00000000000E+00 0.  1.
          1    1    1    2  502    0  0.11857116931E+03 -0.72584390398E+02 -0.40391752172E+02  0.14477261331E+03  0.00000000000E+00 0.  1.
         22    1    1    2    0    0 -0.13455728265E+03  0.26186254524E+02  0.57093762150E+03  0.58716364830E+03  0.00000000000E+00 0.  1.
         22    1    1    2    0    0  0.13573994118E+02  0.12290362768E+02  0.10821964329E+02  0.21270196172E+02  0.00000000000E+00 0. -1.
</event>
<event>
 6    1  0.1293624E-005  0.3331565E+03  0.7818608E-02  0.1069749E+00
          2   -1    0    0  502    0  0.00000000000E+00  0.00000000000E+00  0.10349043265E+04  0.10349043265E+04  0.00000000000E+00 0.  1.
          1   -1    0    0  501    0 -0.00000000000E+00 -0.00000000000E+00 -0.82703023477E+02  0.82703023477E+02  0.00000000000E+00 0.  1.
          2    1    1    2  501    0 -0.71272107358E+01 -0.36741199408E+02  0.11661963041E+01  0.37444263654E+02  0.00000000000E+00 0.  1.
          1    1    1    2  502    0  0.18361651947E+03  0.10997179594E+03  0.19168225895E+03  0.28731674250E+03  0.00000000000E+00 0.  1.
         22    1    1    2    0    0 -0.17558789093E+03 -0.51860382492E+02  0.74480679974E+03  0.76697964488E+03  0.00000000000E+00 0.  1.
         22    1    1    2    0    0 -0.90141780552E+00 -0.21370214037E+02  0.14546048055E+02  0.25866698979E+02  0.00000000000E+00 0. -1.
</event>
<event>
 6    1  0.1293624E-005  0.1882827E+03  0.7818608E-02  0.1160308E+00
          2   -1    0    0  502    0  0.00000000000E+00  0.00000000000E+00  0.11196850893E+04  0.11196850893E+04  0.00000000000E+00 0.  1.
          1   -1    0    0  501    0 -0.00000000000E+00 -0.00000000000E+00 -0.12452158635E+03  0.12452158635E+03  0.00000000000E+00 0.  1.
          2    1    1    2  501    0 -0.18589296504E+03 -0.14082354870E+02  0.86505905379E+03  0.88491902100E+03  0.00000000000E+00 0.  1.
          1    1    1    2  502    0  0.98261832035E+02 -0.95211721728E+02  0.14318443347E+02  0.13757062699E+03  0.00000000000E+00 0.  1.
         22    1    1    2    0    0 -0.14913091888E+02 -0.52251117698E+01  0.53623726977E+02  0.55903543694E+02  0.00000000000E+00 0. -1.
         22    1    1    2    0    0  0.10254422489E+03  0.11451918837E+03  0.62162278852E+02  0.16581348400E+03  0.00000000000E+00 0.  1.
</event>
<event>
 6    1  0.1293624E-005  0.1221959E+03  0.7818608E-02  0.1245023E+00
          2   -1    0    0  502    0  0.00000000000E+00  0.00000000000E+00  0.30544272236E+03  0.30544272236E+03  0.00000000000E+00 0. -1.
          1   -1    0    0  501    0 -0.00000000000E+00 -0.00000000000E+00 -0.73211545099E+03  0.73211545099E+03  0.00000000000E+00 0. -1.
          2    1    1    2  501    0 -0.26760624141E+02 -0.10310388899E+03  0.15180983915E+03  0.18545287863E+03  0.00000000000E+00 0. -1.
          1    1    1    2  502    0  0.68173042085E+02  0.58244387037E+02 -0.67432402094E+03  0.68025940457E+03  0.00000000000E+00 0. -1.
         22    1    1    2    0    0 -0.62046432975E+02  0.71577335046E+02  0.32636917209E+02  0.10019103304E+03  0.00000000000E+00 0. -1.
         22    1    1    2    0    0  0.20634015031E+02 -0.26717833092E+02  0.63204535950E+02  0.71654857100E+02  0.00000000000E+00 0.  1.
</event>
<event>
 6    1  0.1293624E-005  0.2036163E+03  0.7818608E-02  0.1146723E+00
          2   -1    0    0  502    0  0.00000000000E+00  0.00000000000E+00  0.27119274894E+02  0.27119274894E+02  0.00000000000E+00 0. -1.
          1   -1    0    0  501    0 -0.00000000000E+00 -0.00000000000E+00 -0.90657367489E+03  0.90657367489E+03  0.00000000000E+00 0. -1.
          2    1    1    2  501    0 -0.96592337546E+01  0.46972260910E+02 -0.38965804654E+02  0.61790193591E+02  0.00000000000E+00 0. -1.
          1    1    1    2  502    0 -0.53880942402E+02 -0.48093120250E+02 -0.47932051707E+03  0.48473112367E+03  0.00000000000E+00 0. -1.
         22    1    1    2    0    0 -0.87250843007E+01  0.64386896255E+01  0.63582924403E+01  0.12570270598E+02  0.00000000000E+00 0. -1.
         22    1    1    2    0    0  0.72265260457E+02 -0.53178302858E+01 -0.36752637071E+03  0.37460136192E+03  0.00000000000E+00 0.  1.
</event>
<event>
 6    1  0.1293624E-005  0.1589355E+03  0.7818608E-02  0.1189904E+00
          2   -1    0    0  502    0  0.00000000000E+00  0.00000000000E+00  0.43686106600E+02  0.43686106600E+02  0.00000000000E+00 0. -1.
          1   -1    0    0  501    0 -0.00000000000E+00 -0.00000000000E+00 -0.90314008959E+03  0.90314008959E+03  0.00000000000E+00 0. -1.
          2    1    1    2  501    0  0.16224274607E+02  0.27176343932E+02 -0.14666420342E+02  0.34883873662E+02  0.00000000000E+00 0. -1.
          1    1    1    2  502    0  0.19263786810E+02 -0.35194350700E+02 -0.75627031603E+03  0.75733382779E+03  0.00000000000E+00 0. -1.
         22    1    1    2    0    0 -0.59807958583E+01  0.37398600328E+02  0.16744247734E+02  0.41410084011E+02  0.00000000000E+00 0. -1.
         22    1    1    2    0    0 -0.29507265558E+02 -0.29380593560E+02 -0.10526149436E+03  0.11319841073E+03  0.00000000000E+00 0. -1.
</event>
<event>
 6    1  0.1293624E-005  0.1797044E+03  0.7818608E-02  0.1168089E+00
          2   -1    0    0  502    0  0.00000000000E+00  0.00000000000E+00  0.27140993046E+03  0.27140993046E+03  0.00000000000E+00 0. -1.
          1   -1    0    0  501    0 -0.00000000000E+00 -0.00000000000E+00 -0.54729016255E+02  0.54729016255E+02  0.00000000000E+00 0. -1.
          2    1    1    2  501    0 -0.28801218888E+02  0.41078150641E+02  0.81574398528E+02  0.95766941920E+02  0.00000000000E+00 0. -1.
          1    1    1    2  502    0 -0.57075622969E+01 -0.19427813470E+02 -0.20336562176E+02  0.28698292018E+02  0.00000000000E+00 0. -1.
         22    1    1    2    0    0  0.49614406061E+02 -0.43652384864E+02  0.28521187622E+02  0.71976233136E+02  0.00000000000E+00 0. -1.
         22    1    1    2    0    0 -0.15105624876E+02  0.22002047693E+02  0.12692189023E+03  0.12969747964E+03  0.00000000000E+00 0. -1.
</event>
<event>
 6    1  0.1293624E-005  0.2723099E+03  0.7818608E-02  0.1099965E+00
          2   -1    0    0  502    0  0.00000000000E+00  0.00000000000E+00  0.10296928283E+04  0.10296928283E+04  0.00000000000E+00 0. -1.
          1   -1    0    0  501    0 -0.00000000000E+00 -0.00000000000E+00 -0.33814103623E+02  0.33814103623E+02  0.00000000000E+00 0. -1.
          2    1    1    2  501    0 -0.59825275827E+02 -0.18033364375E+02  0.69752396482E+03  0.70031703346E+03  0.00000000000E+00 0. -1.
          1    1    1    2  502    0  0.80149877643E+02  0.45065821405E+01  0.10645068273E+03  0.13332689160E+03  0.00000000000E+00 0. -1.
         22    1    1    2    0    0  0.54051510598E+01  0.35843782296E+02  0.13344176615E+01  0.36273586226E+02  0.00000000000E+00 0. -1.
         22    1    1    2    0    0 -0.25729752876E+02 -0.22317000061E+02  0.19056965945E+03  0.19358942063E+03  0.00000000000E+00 0.  1.
</event>
<event>
 6    1  0.1293624E-005  0.2590512E+03  0.7818608E-02  0.1107715E+00
          2   -1    0    0  502    0  0.00000000000E+00  0.00000000000E+00  0.32822418688E+03  0.32822418688E+03  0.00000000000E+00 0. -1.
          1   -1    0    0  501    0 -0.00000000000E+00 -0.00000000000E+00 -0.10003445228E+03  0.10003445228E+03  0.00000000000E+00 0. -1.
          2    1    1    2  501    0 -0.16450172024E+02  0.15192102680E+02 -0.36352290436E+02  0.42695399792E+02  0.00000000000E+00 0. -1.
          1    1    1    2  502    0  0.46251090256E+02  0.38142648788E+02 -0.25982500060E+02  0.65338467351E+02  0.00000000000E+00 0. -1.
         22    1    1    2    0    0 -0.10896603250E+02  0.12992482955E+02 -0.42564990445E+01  0.17483087823E+02  0.00000000000E+00 0. -1.
         22    1    1    2    0    0 -0.18904314982E+02 -0.66327234424E+02  0.29478102414E+03  0.30274168419E+03  0.00000000000E+00 0. -1.
</event>
<event>
 6    1  0.1293624E-005  0.1558307E+03  0.7818608E-02  0.1193486E+00
          2   -1    0    0  502    0  0.00000000000E+00  0.00000000000E+00  0.57879351905E+02  0.57879351905E+02  0.00000000000E+00 0.  1.
          1   -1    0    0  501    0 -0.00000000000E+00 -0.00000000000E+00 -0.43055344612E+03  0.43055344612E+03  0.00000000000E+00 0.  1.
          2    1    1    2  501    0  0.21591490230E+02 -0.26936897579E+01  0.13518208096E+02  0.25616212933E+02  0.00000000000E+00 0.  1.
          1    1    1    2  502    0 -0.25026465949E+02  0.19823633254E+02 -0.32343635604E+03  0.32500827196E+03  0.00000000000E+00 0.  1.
         22    1    1    2    0    0 -0.19188837152E+02 -0.20125645549E+02 -0.94616245136E+02  0.98617883387E+02  0.00000000000E+00 0. -1.
         22    1    1    2    0    0  0.22623812871E+02  0.29957020526E+01  0.31860298867E+02  0.39190429744E+02  0.00000000000E+00 0.  1.
</event>
<event>
 6    1  0.1293624E-005  0.2218967E+03  0.7818608E-02  0.1132477E+00
          2   -1    0    0  502    0  0.00000000000E+00  0.00000000000E+00  0.42009447409E+02  0.42009447409E+02  0.00000000000E+00 0. -1.
          1   -1    0    0  501    0 -0.00000000000E+00 -0.00000000000E+00 -0.14143750442E+04  0.14143750442E+04  0.00000000000E+00 0.  1.
          2    1    1    2  501    0  0.24921479720E+02  0.62388227856E+02 -0.14300131602E+03  0.15799603637E+03  0.00000000000E+00 0. -1.
          1    1    1    2  502    0 -0.23709686185E+02 -0.35260197668E+01 -0.11203317200E+04  0.11205881246E+04  0.00000000000E+00 0.  1.
         22    1    1    2    0    0  0.35200063689E+01 -0.99367204087E+02 -0.81917145313E+02  0.12882798760E+03  0.00000000000E+00 0. -1.
         22    1    1    2    0    0 -0.47317999035E+01  0.40504995997E+02 -0.27115415433E+02  0.48972343064E+02  0.00000000000E+00 0. -1.
</event>
<event>
 6    1  0.1293624E-005  0.2014046E+03  0.7818608E-02  0.1148559E+00
          2   -1    0    0  502    0  0.00000000000E+00  0.00000000000E+00  0.36115368144E+03  0.36115368144E+03  0.00000000000E+00 0.  1.
          1   -1    0    0  501    0 -0.00000000000E+00 -0.00000000000E+00 -0.10979668551E+03  0.10979668551E+03  0.00000000000E+00 0. -1.
          2    1    1    2  501    0  0.14289339877E+02  0.17684685120E+02  0.13674721780E+03  0.13862443831E+03  0.00000000000E+00 0.  1.
          1    1    1    2  502    0 -0.10293931062E+03 -0.27607567332E+02 -0.42466106292E+02  0.11472597626E+03  0.00000000000E+00 0. -1.
         22    1    1    2    0    0  0.58732874394E+02  0.33987608763E+02  0.16498878511E+03  0.17839845094E+03  0.00000000000E+00 0.  1.
         22    1    1    2    0    0  0.29917096351E+02 -0.24064726551E+02 -0.79129006859E+01  0.39201501442E+02  0.00000000000E+00 0. -1.
</event>
<event>
 6    1  0.1293624E-005  0.2539207E+03  0.7818608E-02  0.1110852E+00
          2   -1    0    0  502    0  0.00000000000E+00  0.00000000000E+00  0.61035829171E+03  0.61035829171E+03  0.00000000000E+00 0.  1.
          1   -1    0    0  501    0 -0.00000000000E+00 -0.00000000000E+00 -0.50786692531E+02  0.50786692531E+02  0.00000000000E+00 0.  1.
          2    1    1    2  501    0 -0.23261943505E+02  0.86330542887E+01 -0.11629159306E+02  0.27402280711E+02  0.00000000000E+00 0.  1.
          1    1    1    2  502    0 -0.32320968493E+02 -0.34594192012E+02  0.76120232263E+00  0.47349578185E+02  0.00000000000E+00 0.  1.
         22    1    1    2    0    0 -0.36834100192E+02 -0.71946551494E+01  0.14623875880E+03  0.15097777511E+03  0.00000000000E+00 0.  1.
         22    1    1    2    0    0  0.92417012190E+02  0.33155792873E+02  0.42420079736E+03  0.43541535024E+03  0.00000000000E+00 0.  1.
</event>
<event>
 6    1  0.1293624E-005  0.1756021E+03  0.7818608E-02  0.1208450E+00
          2   -1    0    0  502    0  0.00000000000E+00  0.00000000000E+00  0.44337851678E+03  0.44337851678E+03  0.00000000000E+00 0.  1.
          1   -1    0    0  501    0 -0.00000000000E+00 -0.00000000000E+00 -0.81429503884E+03  0.81429503884E+03  0.00000000000E+00 0. -1.
          2    1    1    2  501    0 -0.37827481156E+02 -0.52992425693E+02  0.15135488222E+03  0.16476472888E+03  0.00000000000E+00 0.  1.
          1    1    1    2  502    0  0.54201190207E+02  0.16098517707E+03 -0.77453375513E+03  0.79294169653E+03  0.00000000000E+00 0. -1.
         22    1    1    2    0    0  0.47941432194E+02 -0.62441758517E+02  0.16216939482E+03  0.18026720929E+03  0.00000000000E+00 0.  1.
         22    1    1    2    0    0 -0.64315141245E+02 -0.45550992856E+02  0.90092956034E+02  0.11969992093E+03  0.00000000000E+00 0. -1.
</event>
<event>
 6    1  0.1293624E-005  0.6796407E+02  0.7818608E-02  0.1369370E+00
          2   -1    0    0  502    0  0.00000000000E+00  0.00000000000E+00  0.20240746711E+03  0.20240746711E+03  0.00000000000E+00 0.  1.
          1   -1    0    0  501    0 -0.00000000000E+00 -0.00000000000E+00 -0.93133546573E+02  0.93133546573E+02  0.00000000000E+00 0. -1.
          2    1    1    2  501    0  0.44150075616E+02 -0.75476104821E+01 -0.14974002197E+02  0.47227283880E+02  0.00000000000E+00 0.  1.
          1    1    1    2  502    0  0.16934150919E+01 -0.20212571362E+02 -0.33136831522E+02  0.38851837782E+02  0.00000000000E+00 0. -1.
         22    1    1    2    0    0 -0.60367182329E+02  0.28042068214E+02  0.17464666262E+03  0.18690107292E+03  0.00000000000E+00 0.  1.
         22    1    1    2    0    0  0.14523691621E+02 -0.28188636974E+00 -0.17261908366E+02  0.22560819105E+02  0.00000000000E+00 0.  1.
</event>
<event>
 6    1  0.1293624E-005  0.2068605E+03  0.7818608E-02  0.1144767E+00
          2   -1    0    0  502    0  0.00000000000E+00  0.00000000000E+00  0.15780251169E+03  0.15780251169E+03  0.00000000000E+00 0. -1.
          1   -1    0    0  501    0 -0.00000000000E+00 -0.00000000000E+00 -0.37037492206E+04  0.37037492206E+04  0.00000000000E+00 0. -1.
          2    1    1    2  501    0 -0.12002717290E+03  0.12822792900E+03  0.81380817878E+00  0.17564050300E+03  0.00000000000E+00 0. -1.
          1    1    1    2  502    0 -0.79259381600E+02  0.32656322161E+02 -0.33191796683E+04  0.33202864568E+04  0.00000000000E+00 0. -1.
         22    1    1    2    0    0  0.21093607261E+03 -0.16178376748E+03 -0.23229221098E+03  0.35302646562E+03  0.00000000000E+00 0.  1.
         22    1    1    2    0    0 -0.11649518106E+02  0.89951631554E+00  0.47113621922E+01  0.12598306847E+02  0.00000000000E+00 0. -1.
</event>
<event>
 6    1  0.1293624E-005  0.1156298E+03  0.7818608E-02  0.1251731E+00
          2   -1    0    0  502    0  0.00000000000E+00  0.00000000000E+00  0.55645274727E+03  0.55645274727E+03  0.00000000000E+00 0. -1.
          1   -1    0    0  501    0 -0.00000000000E+00 -0.00000000000E+00 -0.75639911653E+03  0.75639911653E+03  0.00000000000E+00 0.  1.
          2    1    1    2  501    0  0.52730145157E+02  0.48990487480E+02  0.12734484029E+03  0.14627796970E+03  0.00000000000E+00 0. -1.
          1    1    1    2  502    0  0.36984695087E+02 -0.19866110196E+01 -0.73088787974E+03  0.73182573543E+03  0.00000000000E+00 0.  1.
         22    1    1    2    0    0  0.19047304797E+02  0.14305148962E+02  0.19235714992E+02  0.30617802633E+02  0.00000000000E+00 0.  1.
         22    1    1    2    0    0 -0.10876214504E+03 -0.61309025422E+02  0.38436095519E+03  0.40413035603E+03  0.00000000000E+00 0.  1.
</event>
<event>
 6    1  0.1293624E-005  0.2290290E+03  0.7818608E-02  0.1127325E+00
          2   -1    0    0  502    0  0.00000000000E+00  0.00000000000E+00  0.25633879189E+03  0.25633879189E+03  0.00000000000E+00 0. -1.
          1   -1    0    0  501    0 -0.00000000000E+00 -0.00000000000E+00 -0.95168171187E+03  0.95168171187E+03  0.00000000000E+00 0.  1.
          2    1    1    2  501    0 -0.45338795841E+02 -0.50230834001E+02  0.10959764693E+02  0.68548227802E+02  0.00000000000E+00 0. -1.
          1    1    1    2  502    0 -0.86256061465E+00  0.72384051867E+02 -0.89877719951E+03  0.90168766729E+03  0.00000000000E+00 0.  1.
         22    1    1    2    0    0 -0.78028207667E+01  0.33911048738E+02  0.54691540984E+01  0.35224350739E+02  0.00000000000E+00 0. -1.
         22    1    1    2    0    0  0.54004177222E+02 -0.56064266604E+02  0.18700536074E+03  0.20256025793E+03  0.00000000000E+00 0. -1.
</event>
<event>
 6    1  0.1293624E-005  0.1602590E+03  0.7818608E-02  0.1189651E+00
          2   -1    0    0  502    0  0.00000000000E+00  0.00000000000E+00  0.57065807352E+03  0.57065807352E+03  0.00000000000E+00 0.  1.
          1   -1    0    0  501    0 -0.00000000000E+00 -0.00000000000E+00 -0.78599270604E+02  0.78599270604E+02  0.00000000000E+00 0.  1.
          2    1    1    2  501    0  0.10650407338E+03 -0.81925697031E+02  0.11943707377E+03  0.17977806337E+03  0.00000000000E+00 0.  1.
          1    1    1    2  502    0  0.16341742480E+02  0.32119674958E+02 -0.16771098162E+02  0.39749161001E+02  0.00000000000E+00 0.  1.
         22    1    1    2    0    0 -0.14655742865E+03  0.55569861087E+02  0.34821635074E+03  0.38186609731E+03  0.00000000000E+00 0.  1.
         22    1    1    2    0    0  0.23711612791E+02 -0.57638390143E+01  0.41176476574E+02  0.47864022443E+02  0.00000000000E+00 0.  1.
</event>
<event>
 6    1  0.1293624E-005  0.2345555E+03  0.7818608E-02  0.1123474E+00
          2   -1    0    0  502    0  0.00000000000E+00  0.00000000000E+00  0.54891820174E+02  0.54891820174E+02  0.00000000000E+00 0. -1.
          1   -1    0    0  501    0 -0.00000000000E+00 -0.00000000000E+00 -0.22428621426E+04  0.22428621426E+04  0.00000000000E+00 0. -1.
          2    1    1    2  501    0 -0.13686630112E+02  0.20753601893E+02 -0.10102783061E+02  0.26834717456E+02  0.00000000000E+00 0. -1.
          1    1    1    2  502    0  0.73620157010E+02 -0.17621223649E+03 -0.19645828949E+04  0.19738431120E+04  0.00000000000E+00 0. -1.
         22    1    1    2    0    0 -0.25162297933E+02  0.11536151955E+03 -0.21353100448E+03  0.24400186742E+03  0.00000000000E+00 0. -1.
         22    1    1    2    0    0 -0.34771228965E+02  0.40097115042E+02  0.24636010956E+00  0.53074265815E+02  0.00000000000E+00 0. -1.
</event>
<event>
 6    1  0.1293624E-005  0.4106855E+02  0.7818608E-02  0.1504165E+00
          2   -1    0    0  502    0  0.00000000000E+00  0.00000000000E+00  0.45021180203E+02  0.45021180203E+02  0.00000000000E+00 0.  1.
          1   -1    0    0  501    0 -0.00000000000E+00 -0.00000000000E+00 -0.30929449810E+03  0.30929449810E+03  0.00000000000E+00 0. -1.
          2    1    1    2  501    0  0.17010145897E+02 -0.19670051814E+02 -0.48890115940E+02  0.55375982505E+02  0.00000000000E+00 0.  1.
          1    1    1    2  502    0 -0.19420117325E+02  0.99351537227E+01 -0.16211241168E+03  0.16357347663E+03  0.00000000000E+00 0. -1.
         22    1    1    2    0    0  0.12258089633E+02 -0.27067619963E+02 -0.82280369728E+02  0.87481289740E+02  0.00000000000E+00 0. -1.
         22    1    1    2    0    0 -0.98481182052E+01  0.36802518054E+02  0.29009579445E+02  0.47884929434E+02  0.00000000000E+00 0.  1.
</event>
<event>
 6    1  0.1293624E-005  0.1348626E+03  0.7818608E-02  0.1220987E+00
          2   -1    0    0  502    0  0.00000000000E+00  0.00000000000E+00  0.81299834703E+03  0.81299834703E+03  0.00000000000E+00 0. -1.
          1   -1    0    0  501    0 -0.00000000000E+00 -0.00000000000E+00 -0.12620511865E+04  0.12620511865E+04  0.00000000000E+00 0.  1.
          2    1    1    2  501    0 -0.10514335469E+03 -0.30118390520E+02  0.47407410518E+03  0.48652697735E+03  0.00000000000E+00 0. -1.
          1    1    1    2  502    0 -0.49700510644E+02 -0.47642737474E+02 -0.12196224324E+04  0.12215640993E+04  0.00000000000E+00 0.  1.
         22    1    1    2    0    0 -0.10653116429E+02 -0.10374627955E+02  0.76352513179E+02  0.77787068743E+02  0.00000000000E+00 0. -1.
         22    1    1    2    0    0  0.16549698177E+03  0.88135755948E+02  0.22014297456E+03  0.28917138810E+03  0.00000000000E+00 0.  1.
</event>
<event>
 6    1  0.1293624E-005  0.1626530E+03  0.7818608E-02  0.1185734E+00
          2   -1    0    0  502    0  0.00000000000E+00  0.00000000000E+00  0.12436901538E+03  0.12436901538E+03  0.00000000000E+00 0. -1.
          1   -1    0    0  501    0 -0.00000000000E+00 -0.00000000000E+00 -0.14752869658E+03  0.14752869658E+03  0.00000000000E+00 0. -1.
          2    1    1    2  501    0  0.15974671548E+02 -0.23452717974E+02  0.92331078810E+01  0.29840750537E+02  0.00000000000E+00 0. -1.
          1    1    1    2  502    0 -0.18875953116E+02  0.77715230279E+02 -0.66006635610E+02  0.10369587537E+03  0.00000000000E+00 0. -1.
         22    1    1    2    0    0  0.58142634625E+02 -0.35256474500E+02  0.41116748796E+02  0.79461764308E+02  0.00000000000E+00 0. -1.
         22    1    1    2    0    0 -0.55241353057E+02 -0.19006037805E+02 -0.75029022645E+01  0.58899321754E+02  0.00000000000E+00 0. -1.
</event>
<event>
 6    1  0.1293624E-005  0.2827544E+03  0.7818608E-02  0.1094194E+00
          2   -1    0    0  502    0  0.00000000000E+00  0.00000000000E+00  0.87076893384E+02  0.87076893384E+02  0.00000000000E+00 0. -1.
          1   -1    0    0  501    0 -0.00000000000E+00 -0.00000000000E+00 -0.36690996971E+03  0.36690996971E+03  0.00000000000E+00 0. -1.
          2    1    1    2  501    0 -0.27387005574E+02 -0.94728740761E+01 -0.20459347843E+03  0.20663560882E+03  0.00000000000E+00 0. -1.
          1    1    1    2  502    0  0.63083997471E+02  0.17216268405E+02 -0.97996470522E+02  0.11781043617E+03  0.00000000000E+00 0. -1.
         22    1    1    2    0    0  0.15023594393E+02 -0.20435659890E+02 -0.40306078682E+02  0.47622521588E+02  0.00000000000E+00 0. -1.
         22    1    1    2    0    0 -0.50720586289E+02  0.12692265561E+02  0.63062951302E+02  0.81918296524E+02  0.00000000000E+00 0.  1.
</event>
<event>
 6    1  0.1293624E-005  0.7257935E+03  0.7818608E-02  0.9674111E-01
          2   -1    0    0  502    0  0.00000000000E+00  0.00000000000E+00  0.62388691873E+03  0.62388691873E+03  0.00000000000E+00 0. -1.
          1   -1    0    0  501    0 -0.00000000000E+00 -0.00000000000E+00 -0.23319714703E+04  0.23319714703E+04  0.00000000000E+00 0. -1.
          2    1    1    2  501    0  0.13154997366E+03 -0.13224872967E+03 -0.30528153897E+01  0.18655948583E+03  0.00000000000E+00 0. -1.
          1    1    1    2  502    0 -0.36435946162E+03  0.57014450771E+03 -0.20462018062E+04  0.21551715497E+04  0.00000000000E+00 0. -1.
         22    1    1    2    0    0  0.10589973696E+03 -0.30370000464E+03  0.25428168100E+03  0.41000929306E+03  0.00000000000E+00 0. -1.
         22    1    1    2    0    0  0.12690975099E+03 -0.13419577340E+03  0.86888388944E+02  0.20411806052E+03  0.00000000000E+00 0. -1.
</event>
<event>
 6    1  0.1293624E-005  0.9871465E+02  0.7818608E-02  0.1305201E+00
          2   -1    0    0  502    0  0.00000000000E+00  0.00000000000E+00  0.42370440242E+03  0.42370440242E+03  0.00000000000E+00 0. -1.
          1   -1    0    0  501    0 -0.00000000000E+00 -0.00000000000E+00 -0.62253747042E+03  0.62253747042E+03  0.00000000000E+00 0.  1.
          2    1    1    2  501    0 -0.70050931495E+02 -0.74803966552E+02  0.21389478996E+03  0.23717872499E+03  0.00000000000E+00 0. -1.
          1    1    1    2  502    0  0.42648208440E+02  0.80241447128E+02 -0.58642270056E+03  0.59342155610E+03  0.00000000000E+00 0.  1.
         22    1    1    2    0    0  0.42467583720E+02  0.49648204351E+02  0.61389014666E+02  0.89649601137E+02  0.00000000000E+00 0. -1.
         22    1    1    2    0    0 -0.15064860665E+02 -0.55085684927E+02  0.11230582793E+03  0.12599199061E+03  0.00000000000E+00 0. -1.
</event>
<event>
 6    1  0.1293624E-005  0.1602338E+03  0.7818608E-02  0.1233732E+00
          2   -1    0    0  502    0  0.00000000000E+00  0.00000000000E+00  0.29688716501E+02  0.29688716501E+02  0.00000000000E+00 0.  1.
          1   -1    0    0  501    0 -0.00000000000E+00 -0.00000000000E+00 -0.12396176430E+04  0.12396176430E+04  0.00000000000E+00 0.  1.
          2    1    1    2  501    0 -0.30304186364E+02 -0.36407314019E+02 -0.13207513715E+03  0.14031278659E+03  0.00000000000E+00 0.  1.
          1    1    1    2  502    0  0.97760616234E+02  0.13026687401E+03 -0.54604026076E+03  0.56981274374E+03  0.00000000000E+00 0.  1.
         22    1    1    2    0    0 -0.10273216010E+03 -0.44102500462E+02 -0.34284796070E+03  0.36061565610E+03  0.00000000000E+00 0.  1.
         22    1    1    2    0    0  0.35275730228E+02 -0.49757059529E+02 -0.18896556789E+03  0.19856517309E+03  0.00000000000E+00 0. -1.
</event>
<event>
 6    1  0.1293624E-005  0.2191153E+03  0.7818608E-02  0.1134544E+00
          2   -1    0    0  502    0  0.00000000000E+00  0.00000000000E+00  0.19588548834E+02  0.19588548834E+02  0.00000000000E+00 0.  1.
          1   -1    0    0  501    0 -0.00000000000E+00 -0.00000000000E+00 -0.15801041011E+04  0.15801041011E+04  0.00000000000E+00 0.  1.
          2    1    1    2  501    0  0.10194124100E+01  0.43445664476E+02 -0.34607023444E+03  0.34878814791E+03  0.00000000000E+00 0.  1.
          1    1    1    2  502    0  0.31447937965E+02  0.13300529251E+01 -0.95891032656E+03  0.95942678524E+03  0.00000000000E+00 0.  1.
         22    1    1    2    0    0  0.39322328563E+02  0.12883040316E+02 -0.12548411161E+03  0.13213054347E+03  0.00000000000E+00 0.  1.
         22    1    1    2    0    0 -0.71789678938E+02 -0.57658757718E+02 -0.13005087968E+03  0.15934717333E+03  0.00000000000E+00 0.  1.
</event>
<event>
 6    1  0.1293624E-005  0.1834607E+03  0.7818608E-02  0.1164495E+00
          2   -1    0    0  502    0  0.00000000000E+00  0.00000000000E+00  0.20173434578E+03  0.20173434578E+03  0.00000000000E+00 0. -1.
          1   -1    0    0  501    0 -0.00000000000E+00 -0.00000000000E+00 -0.82095283880E+03  0.82095283880E+03  0.00000000000E+00 0. -1.
          2    1    1    2  501    0  0.30240058782E+02 -0.18339861598E+02  0.53768286062E+01  0.35773201764E+02  0.00000000000E+00 0. -1.
          1    1    1    2  502    0  0.20687033358E+02 -0.13139403771E+02 -0.77900968025E+03  0.77939507260E+03  0.00000000000E+00 0. -1.
         22    1    1    2    0    0  0.10082166394E+02 -0.75112522204E+01 -0.17171559542E+02  0.21282186125E+02  0.00000000000E+00 0. -1.
         22    1    1    2    0    0 -0.61009258535E+02  0.38990517590E+02  0.17158591817E+03  0.18623672409E+03  0.00000000000E+00 0. -1.
</event>
<event>
 6    1  0.1293624E-005  0.7708105E+02  0.7818608E-02  0.1339498E+00
          2   -1    0    0  502    0  0.00000000000E+00  0.00000000000E+00  0.50237580865E+02  0.50237580865E+02  0.00000000000E+00 0. -1.
          1   -1    0    0  501    0 -0.00000000000E+00 -0.00000000000E+00 -0.25657132090E+03  0.25657132090E+03  0.00000000000E+00 0. -1.
          2    1    1    2  501    0  0.17482339939E+02 -0.14848170245E+02 -0.31649015009E+02  0.39086577241E+02  0.00000000000E+00 0. -1.
          1    1    1    2  502    0 -0.32060912525E+02 -0.50948733566E+02 -0.81941347317E+02  0.10167625074E+03  0.00000000000E+00 0. -1.
         22    1    1    2    0    0  0.47083836003E+02 -0.15904557419E+02 -0.36604824864E+02  0.61723218993E+02  0.00000000000E+00 0. -1.
         22    1    1    2    0    0 -0.32505263417E+02  0.81701461230E+02 -0.56138552848E+02  0.10432285480E+03  0.00000000000E+00 0. -1.
</event>
<event>
 6    1  0.1293624E-005  0.8456685E+02  0.7818608E-02  0.1318845E+00
          2   -1    0    0  502    0  0.00000000000E+00  0.00000000000E+00  0.30609994481E+03  0.30609994481E+03  0.00000000000E+00 0.  1.
          1   -1    0    0  501    0 -0.00000000000E+00 -0.00000000000E+00 -0.74322474356E+02  0.74322474356E+02  0.00000000000E+00 0. -1.
          2    1    1    2  501    0 -0.31213436773E+02  0.44401181578E+02  0.52091827766E+01  0.54524115270E+02  0.00000000000E+00 0.  1.
          1    1    1    2  502    0  0.23260527066E+02  0.55455879298E+02  0.15919535618E+02  0.62208024260E+02  0.00000000000E+00 0. -1.
         22    1    1    2    0    0  0.11135974384E+02  0.13039133037E+02 -0.69698419031E+01  0.18509662665E+02  0.00000000000E+00 0.  1.
         22    1    1    2    0    0 -0.31830646759E+01 -0.11289619391E+03  0.21761859397E+03  0.24518061698E+03  0.00000000000E+00 0.  1.
</event>
<event>
 6    1  0.1293624E-005  0.1283687E+03  0.7818608E-02  0.1250386E+00
          2   -1    0    0  502    0  0.00000000000E+00  0.00000000000E+00  0.26694308096E+03  0.26694308096E+03  0.00000000000E+00 0.  1.
          1   -1    0    0  501    0 -0.00000000000E+00 -0.00000000000E+00 -0.24014824726E+03  0.24014824726E+03  0.00000000000E+00 0.  1.
          2    1    1    2  501    0  0.79192334602E+01 -0.48672573796E+02  0.53001295140E+02  0.72393860134E+02  0.00000000000E+00 0.  1.
          1    1    1    2  502    0 -0.51806007522E+02  0.11419355092E+03 -0.17944216603E+03  0.21891441350E+03  0.00000000000E+00 0.  1.
         22    1    1    2    0    0  0.83491334301E+02 -0.14120101837E+02  0.10521993337E+03  0.13506078098E+03  0.00000000000E+00 0.  1.
         22    1    1    2    0    0 -0.39604560240E+02 -0.51400875288E+02  0.48015771211E+02  0.80722273612E+02  0.00000000000E+00 0.  1.
</event>
<event>
 6    1  0.1293624E-005  0.1747885E+03  0.7818608E-02  0.1172944E+00
          2   -1    0    0  502    0  0.00000000000E+00  0.00000000000E+00  0.10580608092E+03  0.10580608092E+03  0.00000000000E+00 0. -1.
          1   -1    0    0  501    0 -0.00000000000E+00 -0.00000000000E+00 -0.42961672186E+03  0.42961672186E+03  0.00000000000E+00 0. -1.
          2    1    1    2  501    0 -0.26153520185E+01 -0.21384846442E+02 -0.13943361354E+02  0.25662600207E+02  0.00000000000E+00 0. -1.
          1    1    1    2  502    0  0.67811276006E+02  0.30724055595E+02 -0.35075598445E+03  0.35856951540E+03  0.00000000000E+00 0. -1.
         22    1    1    2    0    0 -0.55732272657E+02 -0.39243958609E+02  0.77347422613E+02  0.10309606340E+03  0.00000000000E+00 0. -1.
         22    1    1    2    0    0 -0.94636513305E+01  0.29904749456E+02 -0.36458717747E+02  0.48094623777E+02  0.00000000000E+00 0.  1.
</event>
<event>
 6    1  0.1293624E-005  0.1151748E+03  0.7818608E-02  0.1258902E+00
          2   -1    0    0  502    0  0.00000000000E+00  0.00000000000E+00  0.29249631358E+03  0.29249631358E+03  0.00000000000E+00 0.  1.
          1   -1    0    0  501    0 -0.00000000000E+00 -0.00000000000E+00 -0.99775757454E+02  0.99775757454E+02  0.00000000000E+00 0.  1.
          2    1    1    2  501    0  0.19135130828E+02 -0.79790470716E+02 -0.23860843471E+01  0.82087549893E+02  0.00000000000E+00 0.  1.
          1    1    1    2  502    0  0.54090450416E+02  0.79898379457E+02  0.99527037700E+02  0.13861875450E+03  0.00000000000E+00 0.  1.
         22    1    1    2    0    0 -0.62818788178E+02 -0.56800038115E+02  0.53040560484E+02  0.99928702255E+02  0.00000000000E+00 0.  1.
         22    1    1    2    0    0 -0.10406793065E+02  0.56692129373E+02  0.42539042288E+02  0.71637064384E+02  0.00000000000E+00 0.  1.
</event>
<event>
 6    1  0.1293624E-005  0.2061483E+03  0.7818608E-02  0.1144653E+00
          2   -1    0    0  502    0  0.00000000000E+00  0.00000000000E+00  0.64677322659E+03  0.64677322659E+03  0.00000000000E+00 0.  1.
          1   -1    0    0  501    0 -0.00000000000E+00 -0.00000000000E+00 -0.23310896898E+02  0.23310896898E+02  0.00000000000E+00 0.  1.
          2    1    1    2  501    0  0.51999733067E+02  0.35144004116E+02  0.12139643225E+03  0.13666077355E+03  0.00000000000E+00 0.  1.
          1    1    1    2  502    0 -0.24136091177E+02  0.46225127074E+01  0.17923255669E+02  0.30416469467E+02  0.00000000000E+00 0.  1.
         22    1    1    2    0    0 -0.18469676814E+02 -0.86563500739E+02  0.30069643424E+03  0.31345288990E+03  0.00000000000E+00 0.  1.
         22    1    1    2    0    0 -0.93939650760E+01  0.46796983915E+02  0.18344620753E+03  0.18955399057E+03  0.00000000000E+00 0. -1.
</event>
<event>
 6    1  0.1293624E-005  0.2041780E+03  0.7818608E-02  0.1146261E+00
          2   -1    0    0  502    0  0.00000000000E+00  0.00000000000E+00  0.15270584985E+03  0.15270584985E+03  0.00000000000E+00 0. -1.
          1   -1    0    0  501    0 -0.00000000000E+00 -0.00000000000E+00 -0.13697878353E+03  0.13697878353E+03  0.00000000000E+00 0. -1.
          2    1    1    2  501    0  0.41302415304E+02  0.18597261110E+02 -0.10573124328E+02  0.46513853730E+02  0.00000000000E+00 0. -1.
          1    1    1    2  502    0  0.26213032021E+02  0.23705214423E+02 -0.61874723861E+02  0.71256871188E+02  0.00000000000E+00 0. -1.
         22    1    1    2    0    0 -0.53050135084E+02 -0.86325490596E+01  0.11470482170E+03  0.12667294051E+03  0.00000000000E+00 0. -1.
         22    1    1    2    0    0 -0.14465312242E+02 -0.33669926473E+02 -0.26529907188E+02  0.45240967964E+02  0.00000000000E+00 0. -1.
</event>
<event>
 6    1  0.1293624E-005  0.1130433E+03  0.7818608E-02  0.1258020E+00
          2   -1    0    0  502    0  0.00000000000E+00  0.00000000000E+00  0.10701753574E+04  0.10701753574E+04  0.00000000000E+00 0. -1.
          1   -1    0    0  501    0 -0.00000000000E+00 -0.00000000000E+00 -0.37312188097E+02  0.37312188097E+02  0.00000000000E+00 0. -1.
          2    1    1    2  501    0 -0.18140490668E+02  0.86951879787E+02  0.74998310768E+03  0.75522471398E+03  0.00000000000E+00 0. -1.
          1    1    1    2  502    0  0.23250789848E+02 -0.61588853464E+01 -0.91913413183E+01  0.25749016534E+02  0.00000000000E+00 0. -1.
         22    1    1    2    0    0  0.12600017848E+02  0.20736198598E+02  0.14445872128E+03  0.14648232841E+03  0.00000000000E+00 0.  1.
         22    1    1    2    0    0 -0.17710317027E+02 -0.10152919304E+03  0.14761268162E+03  0.18003148653E+03  0.00000000000E+00 0.  1.
</event>
<event>
 6    1  0.1293624E-005  0.2202355E+03  0.7818608E-02  0.1133708E+00
          2   -1    0    0  502    0  0.00000000000E+00  0.00000000000E+00  0.92488017777E+03  0.92488017777E+03  0.00000000000E+00 0. -1.
          1   -1    0    0  501    0 -0.00000000000E+00 -0.00000000000E+00 -0.23966116544E+03  0.23966116544E+03  0.00000000000E+00 0. -1.
          2    1    1    2  501    0  0.34122962919E+02  0.23599622101E+02  0.40932023949E+03  0.41141752177E+03  0.00000000000E+00 0. -1.
          1    1    1    2  502    0  0.13640300654E+02 -0.98989361665E+02 -0.21536601135E+03  0.23741834463E+03  0.00000000000E+00 0. -1.
         22    1    1    2    0    0 -0.82898076545E+02  0.77869246349E+02  0.29231506374E+03  0.31366193124E+03  0.00000000000E+00 0. -1.
         22    1    1    2    0    0  0.35134812973E+02 -0.24795067851E+01  0.19894972044E+03  0.20204354556E+03  0.00000000000E+00 0. -1.
</event>
<event>
 6    1  0.1293624E-005  0.2224838E+03  0.7818608E-02  0.1132045E+00
          2   -1    0    0  502    0  0.00000000000E+00  0.00000000000E+00  0.12582403596E+03  0.12582403596E+03  0.00000000000E+00 0.  1.
          1   -1    0    0  501    0 -0.00000000000E+00 -0.00000000000E+00 -0.21760192692E+04  0.21760192692E+04  0.00000000000E+00 0. -1.
          2    1    1    2  501    0  0.88798858147E+02 -0.78754410883E+01  0.77891816587E+01  0.89487044489E+02  0.00000000000E+00 0.  1.
          1    1    1    2  502    0 -0.43662619783E+02  0.15951718516E+02 -0.20772057783E+04  0.20777258547E+04  0.00000000000E+00 0. -1.
         22    1    1    2    0    0 -0.64660086809E+02  0.35577124710E+02 -0.15654113908E+02  0.75443421920E+02  0.00000000000E+00 0. -1.
         22    1    1    2    0    0  0.19523848445E+02 -0.43653402138E+02  0.34875477268E+02  0.59186984135E+02  0.00000000000E+00 0. -1.
</event>
<event>
 6    1  0.1307823E-005  0.1082119E+03  0.7818608E-02  0.1297878E+00
          2   -1    0    0  502    0  0.00000000000E+00  0.00000000000E+00  0.23476426118E+03  0.23476426118E+03  0.00000000000E+00 0.  1.
          1   -1    0    0  501    0 -0.00000000000E+00 -0.00000000000E+00 -0.54785987361E+03  0.54785987361E+03  0.00000000000E+00 0. -1.
          2    1    1    2  501    0  0.90935872204E+02  0.29009965187E+02 -0.45573587157E+02  0.10577269392E+03  0.00000000000E+00 0.  1.
          1    1    1    2  502    0 -0.10291520283E+03  0.13756570447E+02 -0.44448113116E+03  0.45644743198E+03  0.00000000000E+00 0. -1.
         22    1    1    2    0    0  0.68781911992E+01 -0.56328685028E+02  0.19158702481E+03  0.19981445980E+03  0.00000000000E+00 0.  1.
         22    1    1    2    0    0  0.51011394235E+01  0.13562149394E+02 -0.14627918917E+02  0.20589549083E+02  0.00000000000E+00 0.  1.
</event>
<event>
 6    1  0.1293624E-005  0.6868220E+02  0.7818608E-02  0.1369251E+00
          2   -1    0    0  502    0  0.00000000000E+00  0.00000000000E+00  0.44559266036E+03  0.44559266036E+03  0.00000000000E+00 0. -1.
          1   -1    0    0  501    0 -0.00000000000E+00 -0.00000000000E+00 -0.52000656506E+02  0.52000656506E+02  0.00000000000E+00 0. -1.
          2    1    1    2  501    0 -0.51189552928E+02 -0.27258274884E+02  0.48214967069E+02  0.75419274248E+02  0.00000000000E+00 0. -1.
          1    1    1    2  502    0  0.40855290230E+02  0.35966814801E+02 -0.95166376297E+00  0.54439619494E+02  0.00000000000E+00 0. -1.
         22    1    1    2    0    0 -0.47802454217E+02 -0.10981479745E+02  0.70798081475E+02  0.86128020221E+02  0.00000000000E+00 0. -1.
         22    1    1    2    0    0  0.58136716915E+02  0.22729398287E+01  0.27553061908E+03  0.28160640290E+03  0.00000000000E+00 0.  1.
</event>
<event>
 6    1  0.1293624E-005  0.1567683E+03  0.7818608E-02  0.1192394E+00
          2   -1    0    0  502    0  0.00000000000E+00  0.00000000000E+00  0.11773021255E+03  0.11773021255E+03  0.00000000000E+00 0.  1.
          1   -1    0    0  501    0 -0.00000000000E+00 -0.00000000000E+00 -0.23464465861E+03  0.23464465861E+03  0.00000000000E+00 0. -1.
          2    1    1    2  501    0  0.77909827026E+01  0.22121978651E+02  0.14989755019E+02  0.27834764351E+02  0.00000000000E+00 0.  1.
          1    1    1    2  502    0 -0.28912191104E+02 -0.44700860926E+01 -0.18075412846E+03  0.18310639372E+03  0.00000000000E+00 0. -1.
         22    1    1    2    0    0  0.20177307415E+01 -0.24778264613E+02 -0.41737303120E+02  0.48580202823E+02  0.00000000000E+00 0. -1.
         22    1    1    2    0    0  0.19103477660E+02  0.71263720545E+01  0.90587230510E+02  0.92853510267E+02  0.00000000000E+00 0.  1.
</event>
<event>
 6    1  0.1293624E-005  0.3999511E+03  0.7818608E-02  0.1043797E+00
          2   -1    0    0  502    0  0.00000000000E+00  0.00000000000E+00  0.10422346341E+03  0.10422346341E+03  0.00000000000E+00 0. -1.
          1   -1    0    0  501    0 -0.00000000000E+00 -0.00000000000E+00 -0.12671014591E+04  0.12671014591E+04  0.00000000000E+00 0.  1.
          2    1    1    2  501    0 -0.22901937380E+01 -0.43808261037E+02 -0.34100753581E+03  0.34381760891E+03  0.00000000000E+00 0. -1.
          1    1    1    2  502    0 -0.35485793237E+02  0.12327935207E+03 -0.86030196628E+03  0.86981406826E+03  0.00000000000E+00 0.  1.
         22    1    1    2    0    0  0.15474879388E+01 -0.99312339759E+01 -0.43288057766E+02  0.44439622774E+02  0.00000000000E+00 0. -1.
         22    1    1    2    0    0  0.36228499036E+02 -0.69539857056E+02  0.81719564140E+02  0.11325362257E+03  0.00000000000E+00 0. -1.
</event>
<event>
 6    1  0.1293624E-005  0.2508445E+03  0.7818608E-02  0.1185562E+00
          2   -1    0    0  502    0  0.00000000000E+00  0.00000000000E+00  0.63186832544E+03  0.63186832544E+03  0.00000000000E+00 0. -1.
          1   -1    0    0  501    0 -0.00000000000E+00 -0.00000000000E+00 -0.12626317494E+03  0.12626317494E+03  0.00000000000E+00 0. -1.
          2    1    1    2  501    0 -0.76646257989E+01 -0.31726856153E+02  0.28305631168E+02  0.43203572142E+02  0.00000000000E+00 0. -1.
          1    1    1    2  502    0 -0.27971450133E+02  0.26090886439E+03  0.28821121231E+03  0.38977113855E+03  0.00000000000E+00 0. -1.
         22    1    1    2    0    0 -0.30858955789E+02 -0.32081408226E+02  0.76804495440E+02  0.88771743398E+02  0.00000000000E+00 0. -1.
         22    1    1    2    0    0  0.66495031721E+02 -0.19710060002E+03  0.11228381157E+03  0.23638504629E+03  0.00000000000E+00 0. -1.
</event>
<event>
 6    1  0.1293624E-005  0.1131045E+03  0.7818608E-02  0.1259597E+00
          2   -1    0    0  502    0  0.00000000000E+00  0.00000000000E+00  0.11199370656E+04  0.11199370656E+04  0.00000000000E+00 0.  1.
          1   -1    0    0  501    0 -0.00000000000E+00 -0.00000000000E+00 -0.13014664834E+03  0.13014664834E+03  0.00000000000E+00 0.  1.
          2    1    1    2  501    0 -0.92848997648E+02 -0.22629931988E+02  0.41195488318E+03  0.42289463931E+03  0.00000000000E+00 0.  1.
          1    1    1    2  502    0  0.45513544056E+02 -0.40093367403E+01 -0.11352943878E+03  0.12237847418E+03  0.00000000000E+00 0.  1.
         22    1    1    2    0    0 -0.41298893304E+02  0.20935244333E+02  0.18440397732E+03  0.19012814072E+03  0.00000000000E+00 0. -1.
         22    1    1    2    0    0  0.88634346897E+02  0.57040243947E+01  0.50696099559E+03  0.51468245977E+03  0.00000000000E+00 0.  1.
</event>
<event>
 6    1  0.1293624E-005  0.3676117E+03  0.7818608E-02  0.1055610E+00
          2   -1    0    0  502    0  0.00000000000E+00  0.00000000000E+00  0.19984693824E+03  0.19984693824E+03  0.00000000000E+00 0. -1.
          1   -1    0    0  501    0 -0.00000000000E+00 -0.00000000000E+00 -0.37717022029E+03  0.37717022029E+03  0.00000000000E+00 0.  1.
          2    1    1    2  501    0  0.15736958265E+02 -0.32553737929E+02 -0.14461989650E+03  0.14907150020E+03  0.00000000000E+00 0. -1.
          1    1    1    2  502    0  0.17307782611E+02  0.18899581377E+02 -0.20665427725E+03  0.20823722967E+03  0.00000000000E+00 0.  1.
         22    1    1    2    0    0 -0.32775148651E+01 -0.13248526289E+02 -0.18572906620E+02  0.23048175912E+02  0.00000000000E+00 0. -1.
         22    1    1    2    0    0 -0.29767226011E+02  0.26902682841E+02  0.19252379832E+03  0.19666025274E+03  0.00000000000E+00 0. -1.
</event>
<event>
 6    1  0.1293624E-005  0.1448220E+03  0.7818608E-02  0.1209009E+00
          2   -1    0    0  502    0  0.00000000000E+00  0.00000000000E+00  0.25789835058E+03  0.25789835058E+03  0.00000000000E+00 0.  1.
          1   -1    0    0  501    0 -0.00000000000E+00 -0.00000000000E+00 -0.15283827009E+03  0.15283827009E+03  0.00000000000E+00 0.  1.
          2    1    1    2  501    0  0.27738560254E+02  0.10536824322E+03 -0.39559735365E+02  0.11591750112E+03  0.00000000000E+00 0.  1.
          1    1    1    2  502    0  0.31250186669E+02 -0.63299266785E+00 -0.33161179217E+02  0.45570150907E+02  0.00000000000E+00 0.  1.
         22    1    1    2    0    0  0.19025685676E+02  0.14214197254E+02  0.30633080688E+01  0.23945855077E+02  0.00000000000E+00 0.  1.
         22    1    1    2    0    0 -0.78014432599E+02 -0.11894944781E+03  0.17471768701E+03  0.22530311356E+03  0.00000000000E+00 0.  1.
</event>
<event>
 6    1  0.1293624E-005  0.1083299E+03  0.7818608E-02  0.1269993E+00
          2   -1    0    0  502    0  0.00000000000E+00  0.00000000000E+00  0.12473882951E+03  0.12473882951E+03  0.00000000000E+00 0. -1.
          1   -1    0    0  501    0 -0.00000000000E+00 -0.00000000000E+00 -0.41684775504E+03  0.41684775504E+03  0.00000000000E+00 0. -1.
          2    1    1    2  501    0 -0.71141251691E+02 -0.87624610485E+02 -0.14130346459E+03  0.18084750250E+03  0.00000000000E+00 0. -1.
          1    1    1    2  502    0  0.81448369962E+02  0.16605900310E+02 -0.19667683436E+03  0.21352135741E+03  0.00000000000E+00 0. -1.
         22    1    1    2    0    0  0.69264203097E+01 -0.22571999050E+02 -0.20439718018E+02  0.31229033159E+02  0.00000000000E+00 0.  1.
         22    1    1    2    0    0 -0.17233538581E+02  0.93590709224E+02  0.66311091442E+02  0.11598869149E+03  0.00000000000E+00 0. -1.
</event>
<event>
 6    1  0.1293624E-005  0.2621998E+03  0.7818608E-02  0.1105991E+00
          2   -1    0    0  502    0  0.00000000000E+00  0.00000000000E+00  0.98956508547E+02  0.98956508547E+02  0.00000000000E+00 0. -1.
          1   -1    0    0  501    0 -0.00000000000E+00 -0.00000000000E+00 -0.23167595328E+04  0.23167595328E+04  0.00000000000E+00 0. -1.
          2    1    1    2  501    0 -0.39002600866E+02 -0.23980541924E+03 -0.22277536925E+03  0.32963116830E+03  0.00000000000E+00 0. -1.
          1    1    1    2  502    0  0.14489677465E+03 -0.29565420939E+02 -0.14354003821E+04  0.14429980757E+04  0.00000000000E+00 0. -1.
         22    1    1    2    0    0 -0.10776407957E+03  0.28085164759E+03 -0.55344378253E+03  0.62991329977E+03  0.00000000000E+00 0. -1.
         22    1    1    2    0    0  0.18699057869E+01 -0.11480807408E+02 -0.61834903674E+01  0.13173497619E+02  0.00000000000E+00 0.  1.
</event>
<event>
 6    1  0.1293624E-005  0.9017505E+02  0.7818608E-02  0.1307878E+00
          2   -1    0    0  502    0  0.00000000000E+00  0.00000000000E+00  0.15096093025E+03  0.15096093025E+03  0.00000000000E+00 0. -1.
          1   -1    0    0  501    0 -0.00000000000E+00 -0.00000000000E+00 -0.12946925929E+03  0.12946925929E+03  0.00000000000E+00 0. -1.
          2    1    1    2  501    0  0.25841151995E+02 -0.34860913192E+02  0.44210675649E+02  0.61948625863E+02  0.00000000000E+00 0. -1.
          1    1    1    2  502    0  0.13967782263E+02  0.29604020468E+02 -0.73476260379E+02  0.80437912755E+02  0.00000000000E+00 0. -1.
         22    1    1    2    0    0 -0.63574271627E+02  0.45317101939E+02  0.47419442666E+02  0.91345121839E+02  0.00000000000E+00 0. -1.
         22    1    1    2    0    0  0.23765337370E+02 -0.40060209215E+02  0.33378130227E+01  0.46698529082E+02  0.00000000000E+00 0. -1.
</event>
<event>
 6    1  0.1293624E-005  0.2356080E+03  0.7818608E-02  0.1122754E+00
          2   -1    0    0  502    0  0.00000000000E+00  0.00000000000E+00  0.23361918611E+03  0.23361918611E+03  0.00000000000E+00 0.  1.
          1   -1    0    0  501    0 -0.00000000000E+00 -0.00000000000E+00 -0.12015571865E+03  0.12015571865E+03  0.00000000000E+00 0.  1.
          2    1    1    2  501    0 -0.38865975800E+02 -0.46202378745E+02 -0.99399200471E+01  0.61188445700E+02  0.00000000000E+00 0.  1.
          1    1    1    2  502    0 -0.21351415812E+02  0.20380623612E+02 -0.56169998375E+02  0.63453301675E+02  0.00000000000E+00 0.  1.
         22    1    1    2    0    0 -0.12392797649E+02 -0.36253817932E+02  0.91511050206E+02  0.99207827604E+02  0.00000000000E+00 0. -1.
         22    1    1    2    0    0  0.72610189261E+02  0.62075573065E+02  0.88062335677E+02  0.12992532979E+03  0.00000000000E+00 0.  1.
</event>
<event>
 6    1  0.1293624E-005  0.7575520E+02  0.7818608E-02  0.1348672E+00
          2   -1    0    0  502    0  0.00000000000E+00  0.00000000000E+00  0.41905495249E+02  0.41905495249E+02  0.00000000000E+00 0. -1.
          1   -1    0    0  501    0 -0.00000000000E+00 -0.00000000000E+00 -0.64866082445E+03  0.64866082445E+03  0.00000000000E+00 0.  1.
          2    1    1    2  501    0  0.45323535822E+01 -0.47203004249E+02 -0.12303719569E+02  0.48990278162E+02  0.00000000000E+00 0. -1.
          1    1    1    2  502    0  0.35278229908E+02  0.25204507946E+02 -0.43117676265E+03  0.43335115250E+03  0.00000000000E+00 0.  1.
         22    1    1    2    0    0 -0.18138928610E+02  0.46295441733E+02 -0.16811098898E+03  0.17530999193E+03  0.00000000000E+00 0. -1.
         22    1    1    2    0    0 -0.21671654881E+02 -0.24296945430E+02  0.48361419857E+01  0.32914897111E+02  0.00000000000E+00 0. -1.
</event>
<event>
 6    1  0.1293624E-005  0.4867401E+03  0.7818608E-02  0.1017299E+00
          2   -1    0    0  502    0  0.00000000000E+00  0.00000000000E+00  0.11716671527E+04  0.11716671527E+04  0.00000000000E+00 0. -1.
          1   -1    0    0  501    0 -0.00000000000E+00 -0.00000000000E+00 -0.39488376309E+03  0.39488376309E+03  0.00000000000E+00 0. -1.
          2    1    1    2  501    0 -0.21575756261E+03  0.10303961980E+03  0.57491590422E+03  0.62265302215E+03  0.00000000000E+00 0. -1.
          1    1    1    2  502    0  0.14563673698E+02 -0.35524716745E+02 -0.34321610398E+03  0.34535691700E+03  0.00000000000E+00 0. -1.
         22    1    1    2    0    0  0.21424564186E+03 -0.47649513207E+02  0.45198663312E+03  0.50245754814E+03  0.00000000000E+00 0. -1.
         22    1    1    2    0    0 -0.13051752955E+02 -0.19865389852E+02  0.93096956281E+02  0.96083428529E+02  0.00000000000E+00 0.  1.
</event>
<event>
 6    1  0.1293624E-005  0.4462381E+03  0.7818608E-02  0.1028850E+00
          2   -1    0    0  502    0  0.00000000000E+00  0.00000000000E+00  0.65842350261E+03  0.65842350261E+03  0.00000000000E+00 0. -1.
          1   -1    0    0  501    0 -0.00000000000E+00 -0.00000000000E+00 -0.18166033799E+03  0.18166033799E+03  0.00000000000E+00 0. -1.
          2    1    1    2  501    0 -0.11641241407E+02  0.26792130492E+03  0.16560383574E+03  0.31518561918E+03  0.00000000000E+00 0. -1.
          1    1    1    2  502    0 -0.10814533500E+03 -0.21933192625E+03  0.18955977704E+03  0.30941043361E+03  0.00000000000E+00 0. -1.
         22    1    1    2    0    0  0.13554285212E+03 -0.64586348893E+02  0.84958995702E+02  0.17251461438E+03  0.00000000000E+00 0. -1.
         22    1    1    2    0    0 -0.15756275711E+02  0.15996970224E+02  0.36640556144E+02  0.42973173436E+02  0.00000000000E+00 0. -1.
</event>
<event>
 6    1  0.1293624E-005  0.1938349E+03  0.7818608E-02  0.1156972E+00
          2   -1    0    0  502    0  0.00000000000E+00  0.00000000000E+00  0.14062171354E+04  0.14062171354E+04  0.00000000000E+00 0. -1.
          1   -1    0    0  501    0 -0.00000000000E+00 -0.00000000000E+00 -0.52726991511E+02  0.52726991511E+02  0.00000000000E+00 0. -1.
          2    1    1    2  501    0 -0.63996033101E+02 -0.13955211248E+03  0.35721484514E+03  0.38880937481E+03  0.00000000000E+00 0. -1.
          1    1    1    2  502    0 -0.39064192186E+02 -0.28156387566E+01 -0.10395213604E+02  0.40521591758E+02  0.00000000000E+00 0. -1.
         22    1    1    2    0    0  0.10280900730E+03  0.16427296061E+03  0.88278098386E+03  0.90380172772E+03  0.00000000000E+00 0. -1.
         22    1    1    2    0    0  0.25121798544E+00 -0.21905209372E+02  0.12388952848E+03  0.12581143261E+03  0.00000000000E+00 0. -1.
</event>
<event>
 6    1  0.1293624E-005  0.1967587E+03  0.7818608E-02  0.1152503E+00
          2   -1    0    0  502    0  0.00000000000E+00  0.00000000000E+00  0.11664897192E+03  0.11664897192E+03  0.00000000000E+00 0.  1.
          1   -1    0    0  501    0 -0.00000000000E+00 -0.00000000000E+00 -0.62725892830E+03  0.62725892830E+03  0.00000000000E+00 0. -1.
          2    1    1    2  501    0  0.33514274006E+02 -0.38141171348E+02  0.23608553562E+02  0.55993922128E+02  0.00000000000E+00 0.  1.
          1    1    1    2  502    0  0.36109939144E+02  0.48656135090E+02 -0.54137788800E+03  0.54475807915E+03  0.00000000000E+00 0. -1.
         22    1    1    2    0    0 -0.18075185075E+02  0.46066421762E+02 -0.30210089088E+02  0.57978246025E+02  0.00000000000E+00 0. -1.
         22    1    1    2    0    0 -0.51549028075E+02 -0.56581385504E+02  0.37369467143E+02  0.85177652912E+02  0.00000000000E+00 0.  1.
</event>
<event>
 6    1  0.1293624E-005  0.1098189E+03  0.7818608E-02  0.1261810E+00
          2   -1    0    0  502    0  0.00000000000E+00  0.00000000000E+00  0.30176725854E+03  0.30176725854E+03  0.00000000000E+00 0.  1.
          1   -1    0    0  501    0 -0.00000000000E+00 -0.00000000000E+00 -0.27309792818E+03  0.27309792818E+03  0.00000000000E+00 0.  1.
          2    1    1    2  501    0  0.25893263073E+02  0.82469388297E+02  0.16141113407E+03  0.18309892211E+03  0.00000000000E+00 0.  1.
          1    1    1    2  502    0  0.99753639703E+01 -0.31600337400E+02 -0.22197400114E+03  0.22443383522E+03  0.00000000000E+00 0.  1.
         22    1    1    2    0    0  0.18929800393E+02  0.23265077330E+02  0.65647565185E+02  0.72174815420E+02  0.00000000000E+00 0. -1.
         22    1    1    2    0    0 -0.54798427436E+02 -0.74134128227E+02  0.23584632248E+02  0.95157613966E+02  0.00000000000E+00 0.  1.
</event>
<event>
 6    1  0.1293624E-005  0.2856863E+03  0.7818608E-02  0.1092623E+00
          2   -1    0    0  502    0  0.00000000000E+00  0.00000000000E+00  0.18063569168E+04  0.18063569168E+04  0.00000000000E+00 0. -1.
          1   -1    0    0  501    0 -0.00000000000E+00 -0.00000000000E+00 -0.54179174298E+02  0.54179174298E+02  0.00000000000E+00 0. -1.
          2    1    1    2  501    0  0.95912768791E+02  0.37981638804E+01  0.94029768576E+02  0.13436994695E+03  0.00000000000E+00 0. -1.
          1    1    1    2  502    0 -0.22086643701E+03 -0.50139815962E+02  0.13401564669E+04  0.13591597919E+04  0.00000000000E+00 0. -1.
         22    1    1    2    0    0  0.37585404502E+02  0.80946694413E+02  0.15732466566E+03  0.18087587012E+03  0.00000000000E+00 0. -1.
         22    1    1    2    0    0  0.87368263720E+02 -0.34605042332E+02  0.16066684136E+03  0.18613048212E+03  0.00000000000E+00 0. -1.
</event>
<event>
 6    1  0.1293624E-005  0.1042926E+03  0.7818608E-02  0.1276572E+00
          2   -1    0    0  502    0  0.00000000000E+00  0.00000000000E+00  0.24345429851E+03  0.24345429851E+03  0.00000000000E+00 0.  1.
          1   -1    0    0  501    0 -0.00000000000E+00 -0.00000000000E+00 -0.11195938365E+03  0.11195938365E+03  0.00000000000E+00 0.  1.
          2    1    1    2  501    0  0.38564820444E+02 -0.74778168102E+02 -0.13355496739E+02  0.85190311032E+02  0.00000000000E+00 0.  1.
          1    1    1    2  502    0  0.38786358229E+02  0.63053720449E+02  0.13267942495E+02  0.75207656161E+02  0.00000000000E+00 0.  1.
         22    1    1    2    0    0 -0.10947146748E+03  0.57835805455E+01  0.11299013504E+03  0.15743005625E+03  0.00000000000E+00 0.  1.
         22    1    1    2    0    0  0.32120288805E+02  0.59408671070E+01  0.18592334060E+02  0.37585658710E+02  0.00000000000E+00 0.  1.
</event>
<event>
 6    1  0.1293624E-005  0.8120305E+02  0.7818608E-02  0.1332854E+00
          2   -1    0    0  502    0  0.00000000000E+00  0.00000000000E+00  0.16414188068E+03  0.16414188068E+03  0.00000000000E+00 0. -1.
          1   -1    0    0  501    0 -0.00000000000E+00 -0.00000000000E+00 -0.52173971511E+03  0.52173971511E+03  0.00000000000E+00 0. -1.
          2    1    1    2  501    0 -0.37904684461E+01  0.26253409123E+02  0.10702618310E+02  0.28603412040E+02  0.00000000000E+00 0. -1.
          1    1    1    2  502    0 -0.19284996784E+02 -0.29449874739E+02 -0.48317992944E+03  0.48446057676E+03  0.00000000000E+00 0. -1.
         22    1    1    2    0    0  0.18920348994E+02  0.59270224809E+02  0.94232714841E+02  0.11291919102E+03  0.00000000000E+00 0. -1.
         22    1    1    2    0    0  0.41551162355E+01 -0.56073759194E+02  0.20646761855E+02  0.59898415974E+02  0.00000000000E+00 0.  1.
</event>
<event>
 6    1  0.1293624E-005  0.2658377E+03  0.7818608E-02  0.1103686E+00
          2   -1    0    0  502    0  0.00000000000E+00  0.00000000000E+00  0.11127475283E+03  0.11127475283E+03  0.00000000000E+00 0. -1.
          1   -1    0    0  501    0 -0.00000000000E+00 -0.00000000000E+00 -0.36017820937E+03  0.36017820937E+03  0.00000000000E+00 0. -1.
          2    1    1    2  501    0 -0.12248734702E+03  0.10914198811E+02 -0.15556222168E+03  0.19829744005E+03  0.00000000000E+00 0. -1.
          1    1    1    2  502    0  0.11755560606E+03 -0.47234212940E+02 -0.38454195313E+02  0.13239756993E+03  0.00000000000E+00 0. -1.
         22    1    1    2    0    0  0.15929323998E+01 -0.25428748907E+02  0.27666914593E+02  0.37611392792E+02  0.00000000000E+00 0. -1.
         22    1    1    2    0    0  0.33388085609E+01  0.61748763035E+02 -0.82553954142E+02  0.10314655944E+03  0.00000000000E+00 0.  1.
</event>
<event>
 6    1  0.1293624E-005  0.9822451E+02  0.7818608E-02  0.1299535E+00
          2   -1    0    0  502    0  0.00000000000E+00  0.00000000000E+00  0.14011508134E+03  0.14011508134E+03  0.00000000000E+00 0.  1.
          1   -1    0    0  501    0 -0.00000000000E+00 -0.00000000000E+00 -0.49528983300E+03  0.49528983300E+03  0.00000000000E+00 0. -1.
          2    1    1    2  501    0 -0.13794697556E+02  0.89678156800E+02 -0.12890401068E+03  0.15763473429E+03  0.00000000000E+00 0.  1.
          1    1    1    2  502    0 -0.38645027481E+02 -0.81968739233E+02 -0.30446064340E+03  0.31766113350E+03  0.00000000000E+00 0. -1.
         22    1    1    2    0    0 -0.11648230567E+02  0.28459561708E+02 -0.20533149003E+02  0.36976183361E+02  0.00000000000E+00 0.  1.
         22    1    1    2    0    0  0.64087955604E+02 -0.36168979275E+02  0.98723051414E+02  0.12313286318E+03  0.00000000000E+00 0.  1.
</event>
<event>
 6    1  0.1293624E-005  0.3534826E+03  0.7818608E-02  0.1061195E+00
          2   -1    0    0  502    0  0.00000000000E+00  0.00000000000E+00  0.11088765220E+04  0.11088765220E+04  0.00000000000E+00 0. -1.
          1   -1    0    0  501    0 -0.00000000000E+00 -0.00000000000E+00 -0.10037175898E+03  0.10037175898E+03  0.00000000000E+00 0. -1.
          2    1    1    2  501    0  0.42829684166E+02  0.16486678159E+02  0.31608047757E+02  0.55724869542E+02  0.00000000000E+00 0. -1.
          1    1    1    2  502    0 -0.30865554091E+03  0.32910767004E+01  0.39636817850E+03  0.50238113723E+03  0.00000000000E+00 0. -1.
         22    1    1    2    0    0  0.11324861313E+03  0.46712903501E+02  0.18344308350E+03  0.22058719050E+03  0.00000000000E+00 0. -1.
         22    1    1    2    0    0  0.15257724361E+03 -0.66490658361E+02  0.39708545330E+03  0.43055508375E+03  0.00000000000E+00 0. -1.
</event>
<event>
 6    1  0.1293624E-005  0.1283154E+03  0.7818608E-02  0.1232120E+00
          2   -1    0    0  502    0  0.00000000000E+00  0.00000000000E+00  0.35907666836E+03  0.35907666836E+03  0.00000000000E+00 0.  1.
          1   -1    0    0  501    0 -0.00000000000E+00 -0.00000000000E+00 -0.61084866708E+03  0.61084866708E+03  0.00000000000E+00 0.  1.
          2    1    1    2  501    0 -0.69991510942E+02  0.81247108212E+02 -0.10068585259E+03  0.14709706016E+03  0.00000000000E+00 0.  1.
          1    1    1    2  502    0  0.18172882558E+02  0.14163904837E+02 -0.46654621409E+03  0.46711480360E+03  0.00000000000E+00 0.  1.
         22    1    1    2    0    0 -0.23900523586E+01  0.15150529373E+02 -0.17544127768E+01  0.15437903185E+02  0.00000000000E+00 0. -1.
         22    1    1    2    0    0  0.54208680742E+02 -0.11056154242E+03  0.31721448073E+03  0.34027556850E+03  0.00000000000E+00 0.  1.
</event>
<event>
 6    1  0.1293624E-005  0.9435454E+02  0.7818608E-02  0.1298005E+00
          2   -1    0    0  502    0  0.00000000000E+00  0.00000000000E+00  0.21595542389E+03  0.21595542389E+03  0.00000000000E+00 0. -1.
          1   -1    0    0  501    0 -0.00000000000E+00 -0.00000000000E+00 -0.47478634539E+03  0.47478634539E+03  0.00000000000E+00 0.  1.
          2    1    1    2  501    0  0.25263924452E+01 -0.46367362161E+02  0.22450108649E+02  0.51578312409E+02  0.00000000000E+00 0. -1.
          1    1    1    2  502    0  0.23345248573E+02  0.99021253182E+01 -0.43597402433E+03  0.43671089134E+03  0.00000000000E+00 0.  1.
         22    1    1    2    0    0 -0.53113525498E+02  0.69506886815E+02  0.97264719965E+02  0.13081544120E+03  0.00000000000E+00 0. -1.
         22    1    1    2    0    0  0.27241884480E+02 -0.33041649972E+02  0.57428274223E+02  0.71637124336E+02  0.00000000000E+00 0. -1.
</event>
<event>
 6    1  0.1293624E-005  0.1059028E+03  0.7818608E-02  0.1274681E+00
          2   -1    0    0  502    0  0.00000000000E+00  0.00000000000E+00  0.87534971796E+02  0.87534971796E+02  0.00000000000E+00 0. -1.
          1   -1    0    0  501    0 -0.00000000000E+00 -0.00000000000E+00 -0.23947337799E+03  0.23947337799E+03  0.00000000000E+00 0. -1.
          2    1    1    2  501    0 -0.82835784758E+00 -0.75966300331E+02 -0.39080229494E+02  0.85433186175E+02  0.00000000000E+00 0. -1.
          1    1    1    2  502    0  0.53055199146E+02  0.46527142370E+02 -0.61416626117E+02  0.93550152844E+02  0.00000000000E+00 0. -1.
         22    1    1    2    0    0 -0.82194754781E+02  0.52581759302E+02 -0.21904296858E+02  0.10000308668E+03  0.00000000000E+00 0. -1.
         22    1    1    2    0    0  0.29967913482E+02 -0.23142601341E+02 -0.29537253723E+02  0.48021924085E+02  0.00000000000E+00 0.  1.
</event>
<event>
 6    1  0.1293624E-005  0.9345789E+02  0.7818608E-02  0.1296225E+00
          2   -1    0    0  502    0  0.00000000000E+00  0.00000000000E+00  0.86191872877E+02  0.86191872877E+02  0.00000000000E+00 0. -1.
          1   -1    0    0  501    0 -0.00000000000E+00 -0.00000000000E+00 -0.54279543795E+03  0.54279543795E+03  0.00000000000E+00 0. -1.
          2    1    1    2  501    0  0.39477446531E+02 -0.24937610827E+02 -0.11841404882E+02  0.48172316614E+02  0.00000000000E+00 0. -1.
          1    1    1    2  502    0 -0.13852795538E+02 -0.36316789534E+02 -0.43531804137E+03  0.43704988993E+03  0.00000000000E+00 0. -1.
         22    1    1    2    0    0 -0.53108743843E+02  0.88087548298E+02 -0.17976611594E+02  0.10441797452E+03  0.00000000000E+00 0. -1.
         22    1    1    2    0    0  0.27484092849E+02 -0.26833147937E+02  0.85324927730E+01  0.39347129766E+02  0.00000000000E+00 0. -1.
</event>
<event>
 6    1  0.1293624E-005  0.1089042E+03  0.7818608E-02  0.1307242E+00
          2   -1    0    0  502    0  0.00000000000E+00  0.00000000000E+00  0.15375793658E+03  0.15375793658E+03  0.00000000000E+00 0.  1.
          1   -1    0    0  501    0 -0.00000000000E+00 -0.00000000000E+00 -0.10134770208E+04  0.10134770208E+04  0.00000000000E+00 0.  1.
          2    1    1    2  501    0 -0.17074251490E+02 -0.57018252424E+02  0.10705797360E+02  0.60474997069E+02  0.00000000000E+00 0.  1.
          1    1    1    2  502    0 -0.26522660677E+02  0.95419156311E+02 -0.94563229662E+03  0.95080424238E+03  0.00000000000E+00 0.  1.
         22    1    1    2    0    0  0.18235603283E+02  0.43185476753E+02  0.45964202345E+02  0.65652345934E+02  0.00000000000E+00 0.  1.
         22    1    1    2    0    0  0.25361308884E+02 -0.81586380640E+02  0.29243212742E+02  0.90303371951E+02  0.00000000000E+00 0.  1.
</event>
<event>
 6    1  0.1293624E-005  0.1211397E+03  0.7818608E-02  0.1244391E+00
          2   -1    0    0  502    0  0.00000000000E+00  0.00000000000E+00  0.27978952024E+03  0.27978952024E+03  0.00000000000E+00 0. -1.
          1   -1    0    0  501    0 -0.00000000000E+00 -0.00000000000E+00 -0.89690715431E+03  0.89690715431E+03  0.00000000000E+00 0. -1.
          2    1    1    2  501    0  0.83115205576E+02  0.34868051245E+02 -0.18476349147E+02  0.92007031652E+02  0.00000000000E+00 0. -1.
          1    1    1    2  502    0 -0.10865394353E+02  0.25870429043E+02 -0.81495444150E+03  0.81543735358E+03  0.00000000000E+00 0. -1.
         22    1    1    2    0    0  0.68184417074E+01  0.23561771743E+02  0.61038372267E+00  0.24536112228E+02  0.00000000000E+00 0. -1.
         22    1    1    2    0    0 -0.79068252930E+02 -0.84300252031E+02  0.21570277285E+03  0.24471617709E+03  0.00000000000E+00 0. -1.
</event>
<event>
 6    1  0.1293624E-005  0.2281738E+03  0.7818608E-02  0.1127932E+00
          2   -1    0    0  502    0  0.00000000000E+00  0.00000000000E+00  0.26653032710E+03  0.26653032710E+03  0.00000000000E+00 0.  1.
          1   -1    0    0  501    0 -0.00000000000E+00 -0.00000000000E+00 -0.21605303620E+03  0.21605303620E+03  0.00000000000E+00 0.  1.
          2    1    1    2  501    0  0.15744803520E+02 -0.18779942226E+02 -0.11219342349E+02  0.26952898001E+02  0.00000000000E+00 0.  1.
          1    1    1    2  502    0 -0.11436892542E+03  0.11071934955E+03 -0.11867236305E+03  0.19855013276E+03  0.00000000000E+00 0.  1.
         22    1    1    2    0    0  0.52466163912E+02  0.17375073713E+02  0.98407612892E+02  0.11286562726E+03  0.00000000000E+00 0. -1.
         22    1    1    2    0    0  0.46157957985E+02 -0.10931448103E+03  0.81961383414E+02  0.14421470528E+03  0.00000000000E+00 0.  1.
</event>
<event>
 6    1  0.1293624E-005  0.1873082E+03  0.7818608E-02  0.1196037E+00
          2   -1    0    0  502    0  0.00000000000E+00  0.00000000000E+00  0.18023871731E+03  0.18023871731E+03  0.00000000000E+00 0.  1.
          1   -1    0    0  501    0 -0.00000000000E+00 -0.00000000000E+00 -0.55361253796E+03  0.55361253796E+03  0.00000000000E+00 0.  1.
          2    1    1    2  501    0 -0.20907915719E+02  0.78484923431E+02  0.49821561933E+02  0.95284900059E+02  0.00000000000E+00 0.  1.
          1    1    1    2  502    0 -0.83325640535E+02 -0.15946924243E+03 -0.41938770202E+03  0.45635473730E+03  0.00000000000E+00 0.  1.
         22    1    1    2    0    0  0.20440824564E+02  0.94352002502E+02  0.63719170346E+01  0.96750860522E+02  0.00000000000E+00 0.  1.
         22    1    1    2    0    0  0.83792731690E+02 -0.13367683502E+02 -0.10179597598E+02  0.85460757389E+02  0.00000000000E+00 0. -1.
</event>
<event>
 6    1  0.1293624E-005  0.7169690E+02  0.7818608E-02  0.1355915E+00
          2   -1    0    0  502    0  0.00000000000E+00  0.00000000000E+00  0.16778636205E+03  0.16778636205E+03  0.00000000000E+00 0. -1.
          1   -1    0    0  501    0 -0.00000000000E+00 -0.00000000000E+00 -0.13934267399E+03  0.13934267399E+03  0.00000000000E+00 0. -1.
          2    1    1    2  501    0 -0.23952779582E+02 -0.29927657581E+02  0.48904424575E+02  0.62137292192E+02  0.00000000000E+00 0. -1.
          1    1    1    2  502    0 -0.22159184200E+02 -0.22754973263E+02 -0.84869509653E+02  0.90618165515E+02  0.00000000000E+00 0. -1.
         22    1    1    2    0    0 -0.22698989914E+02 -0.13677103260E+02  0.51488856496E+02  0.57908631826E+02  0.00000000000E+00 0. -1.
         22    1    1    2    0    0  0.68810953696E+02  0.66359734105E+02  0.12919916642E+02  0.96464946509E+02  0.00000000000E+00 0. -1.
</event>
<event>
 6    1  0.1516334E-005  0.6451257E+03  0.7818608E-02  0.9815969E-01
          2   -1    0    0  502    0  0.00000000000E+00  0.00000000000E+00  0.94978116389E+03  0.94978116389E+03  0.00000000000E+00 0. -1.
          1   -1    0    0  501    0 -0.00000000000E+00 -0.00000000000E+00 -0.75488686798E+03  0.75488686798E+03  0.00000000000E+00 0. -1.
          2    1    1    2  501    0 -0.65481006559E+01 -0.10699718854E+03 -0.70588209009E+03  0.71397535048E+03  0.00000000000E+00 0. -1.
          1    1    1    2  502    0 -0.45982360562E+01  0.22472145760E+02  0.81175857969E+03  0.81208258989E+03  0.00000000000E+00 0. -1.
         22    1    1    2    0    0  0.96313324394E+01 -0.87552871942E+01 -0.26858213585E+02  0.29845958778E+02  0.00000000000E+00 0. -1.
         22    1    1    2    0    0  0.15150042727E+01  0.93280329973E+02  0.11587601990E+03  0.14876413273E+03  0.00000000000E+00 0.  1.
</event>
<event>
 6    1  0.1293624E-005  0.8069090E+02  0.7818608E-02  0.1345659E+00
          2   -1    0    0  502    0  0.00000000000E+00  0.00000000000E+00  0.27105037960E+03  0.27105037960E+03  0.00000000000E+00 0. -1.
          1   -1    0    0  501    0 -0.00000000000E+00 -0.00000000000E+00 -0.12014184921E+03  0.12014184921E+03  0.00000000000E+00 0. -1.
          2    1    1    2  501    0 -0.12079484224E+02 -0.38782429182E+02  0.59516414894E+02  0.72056883045E+02  0.00000000000E+00 0. -1.
          1    1    1    2  502    0 -0.14686125760E+02  0.74635599522E+02 -0.74923729838E+02  0.10676947269E+03  0.00000000000E+00 0. -1.
         22    1    1    2    0    0  0.57846797976E+02  0.80240058433E+01  0.29636572712E+02  0.65490175966E+02  0.00000000000E+00 0. -1.
         22    1    1    2    0    0 -0.31081187992E+02 -0.43877176184E+02  0.13667927263E+03  0.14687569711E+03  0.00000000000E+00 0. -1.
</event>
<event>
 6    1  0.1293624E-005  0.4238257E+03  0.7818608E-02  0.1064744E+00
          2   -1    0    0  502    0  0.00000000000E+00  0.00000000000E+00  0.61775453430E+03  0.61775453430E+03  0.00000000000E+00 0.  1.
          1   -1    0    0  501    0 -0.00000000000E+00 -0.00000000000E+00 -0.92985214908E+03  0.92985214908E+03  0.00000000000E+00 0.  1.
          2    1    1    2  501    0  0.72616829316E+02  0.25266149028E+03  0.34389858382E+03  0.43287096059E+03  0.00000000000E+00 0.  1.
          1    1    1    2  502    0  0.11469749382E+01 -0.44014544464E+03 -0.74003533178E+03  0.86103520269E+03  0.00000000000E+00 0.  1.
         22    1    1    2    0    0 -0.82685503120E+02  0.16637393495E+03  0.21419278509E+02  0.18701861979E+03  0.00000000000E+00 0.  1.
         22    1    1    2    0    0  0.89216988661E+01  0.21110019415E+02  0.62619854671E+02  0.66681900314E+02  0.00000000000E+00 0. -1.
</event>
<event>
 6    1  0.1293624E-005  0.9577797E+02  0.7818608E-02  0.1308863E+00
          2   -1    0    0  502    0  0.00000000000E+00  0.00000000000E+00  0.31093363528E+03  0.31093363528E+03  0.00000000000E+00 0. -1.
          1   -1    0    0  501    0 -0.00000000000E+00 -0.00000000000E+00 -0.21077923405E+03  0.21077923405E+03  0.00000000000E+00 0.  1.
          2    1    1    2  501    0 -0.13071944580E+01  0.27118235037E+02  0.55548467105E+02  0.61828307648E+02  0.00000000000E+00 0. -1.
          1    1    1    2  502    0 -0.66002300552E+02 -0.68966336606E+02 -0.17134947648E+03  0.19614612500E+03  0.00000000000E+00 0.  1.
         22    1    1    2    0    0  0.83578035268E+00  0.49463910910E+02  0.18220092951E+03  0.18879765816E+03  0.00000000000E+00 0. -1.
         22    1    1    2    0    0  0.66473714658E+02 -0.76158093404E+01  0.33754481090E+02  0.74940778525E+02  0.00000000000E+00 0.  1.
</event>
<event>
 6    1  0.1293624E-005  0.6859373E+02  0.7818608E-02  0.1367359E+00
          2   -1    0    0  502    0  0.00000000000E+00  0.00000000000E+00  0.11235265869E+02  0.11235265869E+02  0.00000000000E+00 0.  1.
          1   -1    0    0  501    0 -0.00000000000E+00 -0.00000000000E+00 -0.26809570837E+04  0.26809570837E+04  0.00000000000E+00 0. -1.
          2    1    1    2  501    0 -0.50154606698E+01 -0.20345126631E+02 -0.60046467007E+02  0.63597619636E+02  0.00000000000E+00 0.  1.
          1    1    1    2  502    0  0.28964488937E+02  0.39310482316E+02 -0.21884393201E+04  0.21889839911E+04  0.00000000000E+00 0. -1.
         22    1    1    2    0    0  0.12355756082E+02 -0.58150513597E+02 -0.12281740254E+03  0.13644874975E+03  0.00000000000E+00 0.  1.
         22    1    1    2    0    0 -0.36304784349E+02  0.39185157911E+02 -0.29841862819E+03  0.30316198907E+03  0.00000000000E+00 0.  1.
</event>
<event>
 6    1  0.1293624E-005  0.3695037E+03  0.7818608E-02  0.1054883E+00
          2   -1    0    0  502    0  0.00000000000E+00  0.00000000000E+00  0.24095457582E+04  0.24095457582E+04  0.00000000000E+00 0.  1.
          1   -1    0    0  501    0 -0.00000000000E+00 -0.00000000000E+00 -0.46698572084E+03  0.46698572084E+03  0.00000000000E+00 0. -1.
          2    1    1    2  501    0 -0.20062166636E+03  0.14846659894E+02  0.15673081339E+04  0.15801658973E+04  0.00000000000E+00 0.  1.
          1    1    1    2  502    0  0.23584162082E+03 -0.10934561693E+03 -0.41526920411E+03  0.48992473496E+03  0.00000000000E+00 0. -1.
         22    1    1    2    0    0 -0.28560667121E+02 -0.25450777138E+02  0.15385706692E+03  0.15854163744E+03  0.00000000000E+00 0. -1.
         22    1    1    2    0    0 -0.66592873355E+01  0.11994973417E+03  0.63666404064E+03  0.64789920935E+03  0.00000000000E+00 0.  1.
</event>
<event>
 6    1  0.1293624E-005  0.1781531E+03  0.7818608E-02  0.1169603E+00
          2   -1    0    0  502    0  0.00000000000E+00  0.00000000000E+00  0.10327198875E+03  0.10327198875E+03  0.00000000000E+00 0.  1.
          1   -1    0    0  501    0 -0.00000000000E+00 -0.00000000000E+00 -0.32533973768E+03  0.32533973768E+03  0.00000000000E+00 0. -1.
          2    1    1    2  501    0  0.18249933137E+02  0.25528805369E+02  0.10949829268E+02  0.33236707479E+02  0.00000000000E+00 0.  1.
          1    1    1    2  502    0 -0.77031214580E+02  0.27052973867E+02 -0.23618709741E+03  0.24990001280E+03  0.00000000000E+00 0. -1.
         22    1    1    2    0    0  0.65532139571E+01  0.39241143746E+02  0.19071099683E+01  0.39830252875E+02  0.00000000000E+00 0.  1.
         22    1    1    2    0    0  0.52228067486E+02 -0.91822922982E+02  0.12624092366E+01  0.10564475328E+03  0.00000000000E+00 0.  1.
</event>
<event>
 6    1  0.1293624E-005  0.3197962E+03  0.7818608E-02  0.1075743E+00
          2   -1    0    0  502    0  0.00000000000E+00  0.00000000000E+00  0.21322368896E+04  0.21322368896E+04  0.00000000000E+00 0. -1.
          1   -1    0    0  501    0 -0.00000000000E+00 -0.00000000000E+00 -0.21262164269E+02  0.21262164269E+02  0.00000000000E+00 0.  1.
          2    1    1    2  501    0 -0.10570527376E+03 -0.42743213463E+01  0.14174603710E+04  0.14214027501E+04  0.00000000000E+00 0. -1.
          1    1    1    2  502    0  0.28769393867E+02  0.65063463163E+02  0.14308868534E+03  0.15979769752E+03  0.00000000000E+00 0.  1.
         22    1    1    2    0    0  0.78594584383E+02 -0.91867566952E+02  0.48508811000E+03  0.49992722772E+03  0.00000000000E+00 0.  1.
         22    1    1    2    0    0 -0.16587044876E+01  0.31078425136E+02  0.65337558951E+02  0.72371378454E+02  0.00000000000E+00 0. -1.
</event>
<event>
 6    1  0.1293624E-005  0.3179997E+03  0.7818608E-02  0.1076574E+00
          2   -1    0    0  502    0  0.00000000000E+00  0.00000000000E+00  0.20177549091E+03  0.20177549091E+03  0.00000000000E+00 0.  1.
          1   -1    0    0  501    0 -0.00000000000E+00 -0.00000000000E+00 -0.36884678459E+03  0.36884678459E+03  0.00000000000E+00 0.  1.
          2    1    1    2  501    0  0.30041637390E+02 -0.45151570692E+02 -0.96655339725E+02  0.11083058698E+03  0.00000000000E+00 0.  1.
          1    1    1    2  502    0 -0.30294909257E+02  0.13966456605E+03 -0.20550082256E+03  0.25030893034E+03  0.00000000000E+00 0.  1.
         22    1    1    2    0    0  0.40289704954E+02 -0.11000054796E+03  0.96898688124E+02  0.15202873622E+03  0.00000000000E+00 0.  1.
         22    1    1    2    0    0 -0.40036433087E+02  0.15487552604E+02  0.38186180480E+02  0.57454021962E+02  0.00000000000E+00 0.  1.
</event>
<event>
 6    1  0.1293624E-005  0.9975406E+02  0.7818608E-02  0.1282758E+00
          2   -1    0    0  502    0  0.00000000000E+00  0.00000000000E+00  0.52305475265E+03  0.52305475265E+03  0.00000000000E+00 0. -1.
          1   -1    0    0  501    0 -0.00000000000E+00 -0.00000000000E+00 -0.68706558299E+02  0.68706558299E+02  0.00000000000E+00 0. -1.
          2    1    1    2  501    0  0.59478619517E+02  0.44038836737E+02 -0.23574433319E+00  0.74007978598E+02  0.00000000000E+00 0. -1.
          1    1    1    2  502    0 -0.58704837205E+01  0.19213351387E+02 -0.15218668848E+02  0.25203637280E+02  0.00000000000E+00 0. -1.
         22    1    1    2    0    0  0.30907103789E+01  0.15937974711E+02  0.40632098395E+01  0.16735626751E+02  0.00000000000E+00 0. -1.
         22    1    1    2    0    0 -0.56698846176E+02 -0.79190162835E+02  0.46573939770E+03  0.47581406832E+03  0.00000000000E+00 0. -1.
</event>
<event>
 6    1  0.1293624E-005  0.2126384E+03  0.7818608E-02  0.1139494E+00
          2   -1    0    0  502    0  0.00000000000E+00  0.00000000000E+00  0.36749323993E+03  0.36749323993E+03  0.00000000000E+00 0.  1.
          1   -1    0    0  501    0 -0.00000000000E+00 -0.00000000000E+00 -0.59255120581E+02  0.59255120581E+02  0.00000000000E+00 0.  1.
          2    1    1    2  501    0 -0.37874702775E+02  0.58604276922E+01  0.85970710931E+02  0.94126515186E+02  0.00000000000E+00 0.  1.
          1    1    1    2  502    0 -0.29891309690E+02 -0.68810131542E+02  0.12628081432E+03  0.14688488235E+03  0.00000000000E+00 0.  1.
         22    1    1    2    0    0  0.24174335973E+02 -0.26903991466E+02  0.75601535488E+02  0.83808206308E+02  0.00000000000E+00 0. -1.
         22    1    1    2    0    0  0.43591676492E+02  0.89853695316E+02  0.20385058612E+02  0.10192875667E+03  0.00000000000E+00 0.  1.
</event>
<event>
 6    1  0.1293624E-005  0.1248581E+03  0.7818608E-02  0.1236626E+00
          2   -1    0    0  502    0  0.00000000000E+00  0.00000000000E+00  0.77954670223E+03  0.77954670223E+03  0.00000000000E+00 0. -1.
          1   -1    0    0  501    0 -0.00000000000E+00 -0.00000000000E+00 -0.12802599087E+03  0.12802599087E+03  0.00000000000E+00 0. -1.
          2    1    1    2  501    0  0.34276349569E+01 -0.12284195179E+03  0.21344494576E+03  0.24629380558E+03  0.00000000000E+00 0. -1.
          1    1    1    2  502    0 -0.38360806639E+02  0.44028529935E+02 -0.92381531515E+02  0.10929048586E+03  0.00000000000E+00 0. -1.
         22    1    1    2    0    0  0.19841209089E+02  0.11017553299E+03  0.45969720584E+03  0.47313195063E+03  0.00000000000E+00 0. -1.
         22    1    1    2    0    0  0.15091962594E+02 -0.31362111142E+02  0.70760091284E+02  0.78856451028E+02  0.00000000000E+00 0.  1.
</event>
<event>
 6    1  0.1293624E-005  0.2894901E+03  0.7818608E-02  0.1090616E+00
          2   -1    0    0  502    0  0.00000000000E+00  0.00000000000E+00  0.18091419565E+03  0.18091419565E+03  0.00000000000E+00 0.  1.
          1   -1    0    0  501    0 -0.00000000000E+00 -0.00000000000E+00 -0.14380015145E+03  0.14380015145E+03  0.00000000000E+00 0.  1.
          2    1    1    2  501    0 -0.24314305351E+02  0.76907140931E+02  0.10019404507E+03  0.12862635981E+03  0.00000000000E+00 0.  1.
          1    1    1    2  502    0 -0.21721417325E+02 -0.21898049837E+02  0.15227694513E+02  0.34398070257E+02  0.00000000000E+00 0.  1.
         22    1    1    2    0    0  0.45482609812E+02 -0.70153340719E+02 -0.17278451451E+01  0.83625022919E+02  0.00000000000E+00 0.  1.
         22    1    1    2    0    0  0.55311286405E+00  0.15144249624E+02 -0.76579850237E+02  0.78064894113E+02  0.00000000000E+00 0.  1.
</event>
<event>
 6    1  0.1293624E-005  0.1811495E+03  0.7818608E-02  0.1167017E+00
          2   -1    0    0  502    0  0.00000000000E+00  0.00000000000E+00  0.14179988709E+04  0.14179988709E+04  0.00000000000E+00 0. -1.
          1   -1    0    0  501    0 -0.00000000000E+00 -0.00000000000E+00 -0.81567707578E+02  0.81567707578E+02  0.00000000000E+00 0. -1.
          2    1    1    2  501    0  0.13969502464E+03 -0.92719153765E+02  0.10085476751E+03  0.19566099640E+03  0.00000000000E+00 0. -1.
          1    1    1    2  502    0 -0.16443367039E+03 -0.74089450548E+02  0.81288247317E+03  0.83264974259E+03  0.00000000000E+00 0. -1.
         22    1    1    2    0    0  0.22629034101E+02 -0.12993949863E+02  0.32949143464E+02  0.42030488605E+02  0.00000000000E+00 0. -1.
         22    1    1    2    0    0  0.21096116527E+01  0.17980255418E+03  0.38974477923E+03  0.42922535093E+03  0.00000000000E+00 0. -1.
</event>
<event>
 6    1  0.1293624E-005  0.1911989E+03  0.7818608E-02  0.1158537E+00
          2   -1    0    0  502    0  0.00000000000E+00  0.00000000000E+00  0.13886440727E+04  0.13886440727E+04  0.00000000000E+00 0.  1.
          1   -1    0    0  501    0 -0.00000000000E+00 -0.00000000000E+00 -0.53763455268E+02  0.53763455268E+02  0.00000000000E+00 0.  1.
          2    1    1    2  501    0  0.11685620438E+03 -0.12271438538E+03  0.87472665035E+03  0.89098872368E+03  0.00000000000E+00 0.  1.
          1    1    1    2  502    0  0.43809272133E+02  0.19314218918E+02  0.12984420055E+02  0.49607323465E+02  0.00000000000E+00 0.  1.
         22    1    1    2    0    0  0.16556186296E+02  0.56333998322E+00  0.76568562441E+02  0.78340088147E+02  0.00000000000E+00 0.  1.
         22    1    1    2    0    0 -0.17722166281E+03  0.10283682647E+03  0.37060098461E+03  0.42347139270E+03  0.00000000000E+00 0.  1.
</event>
<event>
 6    1  0.1293624E-005  0.7944896E+02  0.7818608E-02  0.1332769E+00
          2   -1    0    0  502    0  0.00000000000E+00  0.00000000000E+00  0.28277619501E+02  0.28277619501E+02  0.00000000000E+00 0.  1.
          1   -1    0    0  501    0 -0.00000000000E+00 -0.00000000000E+00 -0.40288605020E+03  0.40288605020E+03  0.00000000000E+00 0.  1.
          2    1    1    2  501    0 -0.37416448980E+02  0.59510317129E+01 -0.40847457517E+02  0.55712837105E+02  0.00000000000E+00 0.  1.
          1    1    1    2  502    0  0.36024407061E+02 -0.30990732429E+02 -0.77755457323E+02  0.91126804751E+02  0.00000000000E+00 0.  1.
         22    1    1    2    0    0  0.52395255196E+02  0.39357980781E+02 -0.18099693621E+03  0.19249468651E+03  0.00000000000E+00 0. -1.
         22    1    1    2    0    0 -0.51003213278E+02 -0.14318280065E+02 -0.75008579653E+02  0.91829341336E+02  0.00000000000E+00 0. -1.
</event>
<event>
 6    1  0.1293624E-005  0.8471171E+02  0.7818608E-02  0.1321760E+00
          2   -1    0    0  502    0  0.00000000000E+00  0.00000000000E+00  0.57786837656E+02  0.57786837656E+02  0.00000000000E+00 0.  1.
          1   -1    0    0  501    0 -0.00000000000E+00 -0.00000000000E+00 -0.27309209527E+03  0.27309209527E+03  0.00000000000E+00 0.  1.
          2    1    1    2  501    0 -0.39523936364E+02 -0.11616605417E+02  0.11023728580E+02  0.42645159853E+02  0.00000000000E+00 0.  1.
          1    1    1    2  502    0  0.35278408127E+02 -0.10305638417E+02 -0.10452113944E+03  0.11079458855E+03  0.00000000000E+00 0.  1.
         22    1    1    2    0    0 -0.25985667283E+02 -0.37930496341E+02 -0.99803453210E+01  0.47048748650E+02  0.00000000000E+00 0.  1.
         22    1    1    2    0    0  0.30231195521E+02  0.59852740174E+02 -0.11182750144E+03  0.13039043587E+03  0.00000000000E+00 0. -1.
</event>
<event>
 6    1  0.1293624E-005  0.9803352E+02  0.7818608E-02  0.1288757E+00
          2   -1    0    0  502    0  0.00000000000E+00  0.00000000000E+00  0.13470911010E+03  0.13470911010E+03  0.00000000000E+00 0.  1.
          1   -1    0    0  501    0 -0.00000000000E+00 -0.00000000000E+00 -0.79096257002E+03  0.79096257002E+03  0.00000000000E+00 0.  1.
          2    1    1    2  501    0  0.65943226793E+02 -0.18914674424E+02 -0.16468869324E+03  0.17840582879E+03  0.00000000000E+00 0.  1.
          1    1    1    2  502    0  0.89515861885E+01  0.23687112283E+02 -0.57627503276E+03  0.57683110489E+03  0.00000000000E+00 0.  1.
         22    1    1    2    0    0 -0.90115527140E+02  0.11860359196E+02  0.10585607980E+03  0.13952414122E+03  0.00000000000E+00 0.  1.
         22    1    1    2    0    0  0.15220714159E+02 -0.16632797055E+02 -0.21145813719E+02  0.30910605222E+02  0.00000000000E+00 0. -1.
</event>
<event>
 6    1  0.1293624E-005  0.2025362E+03  0.7818608E-02  0.1147617E+00
          2   -1    0    0  502    0  0.00000000000E+00  0.00000000000E+00  0.31527961960E+02  0.31527961960E+02  0.00000000000E+00 0. -1.
          1   -1    0    0  501    0 -0.00000000000E+00 -0.00000000000E+00 -0.89977099954E+03  0.89977099954E+03  0.00000000000E+00 0. -1.
          2    1    1    2  501    0 -0.48841809643E+02  0.29290452653E+02 -0.20530863563E+03  0.21306123264E+03  0.00000000000E+00 0. -1.
          1    1    1    2  502    0  0.83663417896E+02 -0.85511155116E+02 -0.20011840430E+03  0.23315038255E+03  0.00000000000E+00 0. -1.
         22    1    1    2    0    0 -0.73873491655E+02 -0.26267108121E+01 -0.26123457292E+03  0.27149161031E+03  0.00000000000E+00 0. -1.
         22    1    1    2    0    0  0.39051883401E+02  0.58847413275E+02 -0.20158142473E+03  0.21359573601E+03  0.00000000000E+00 0. -1.
</event>
<event>
 6    1  0.1293624E-005  0.4836474E+03  0.7818608E-02  0.1064834E+00
          2   -1    0    0  502    0  0.00000000000E+00  0.00000000000E+00  0.15080933179E+04  0.15080933179E+04  0.00000000000E+00 0.  1.
          1   -1    0    0  501    0 -0.00000000000E+00 -0.00000000000E+00 -0.38269093066E+03  0.38269093066E+03  0.00000000000E+00 0. -1.
          2    1    1    2  501    0  0.29706026147E+03 -0.10187873533E+03  0.90952013326E+03  0.96221148842E+03  0.00000000000E+00 0.  1.
          1    1    1    2  502    0 -0.39957896495E+03  0.27712736012E+03 -0.13441246932E+03  0.50450930107E+03  0.00000000000E+00 0. -1.
         22    1    1    2    0    0  0.39557956955E+01 -0.12465008692E+03  0.14910592298E+03  0.19438587592E+03  0.00000000000E+00 0.  1.
         22    1    1    2    0    0  0.98562907781E+02 -0.50598537881E+02  0.20118880031E+03  0.22967758314E+03  0.00000000000E+00 0.  1.
</event>
<event>
 6    1  0.1293624E-005  0.3516780E+03  0.7818608E-02  0.1061928E+00
          2   -1    0    0  502    0  0.00000000000E+00  0.00000000000E+00  0.47320214409E+03  0.47320214409E+03  0.00000000000E+00 0. -1.
          1   -1    0    0  501    0 -0.00000000000E+00 -0.00000000000E+00 -0.11462491162E+04  0.11462491162E+04  0.00000000000E+00 0. -1.
          2    1    1    2  501    0 -0.30457388672E+02  0.11290629119E+02 -0.46407505763E+02  0.56646159815E+02  0.00000000000E+00 0. -1.
          1    1    1    2  502    0 -0.59103415023E+02  0.44157824599E+02 -0.10794749631E+04  0.10819932177E+04  0.00000000000E+00 0. -1.
         22    1    1    2    0    0  0.94207886808E+02 -0.65381665177E+02  0.45534449912E+03  0.46956203100E+03  0.00000000000E+00 0. -1.
         22    1    1    2    0    0 -0.46470831133E+01  0.99332114592E+01 -0.25090022847E+01  0.11249851724E+02  0.00000000000E+00 0.  1.
</event>
<event>
 6    1  0.1293624E-005  0.4088918E+03  0.7818608E-02  0.1040744E+00
          2   -1    0    0  502    0  0.00000000000E+00  0.00000000000E+00  0.78755308253E+03  0.78755308253E+03  0.00000000000E+00 0. -1.
          1   -1    0    0  501    0 -0.00000000000E+00 -0.00000000000E+00 -0.12378143716E+03  0.12378143716E+03  0.00000000000E+00 0. -1.
          2    1    1    2  501    0  0.57527887859E+02 -0.14071959985E+03  0.14293972871E+03  0.20867014570E+03  0.00000000000E+00 0. -1.
          1    1    1    2  502    0  0.70768694431E+01 -0.32184446609E+02 -0.66593362463E+02  0.74300717418E+02  0.00000000000E+00 0. -1.
         22    1    1    2    0    0 -0.21846254229E+02 -0.15916851522E+02  0.45851511904E+02  0.53225615357E+02  0.00000000000E+00 0. -1.
         22    1    1    2    0    0 -0.42758503073E+02  0.18882089799E+03  0.54157376722E+03  0.57513804121E+03  0.00000000000E+00 0.  1.
</event>
<event>
 6    1  0.1293624E-005  0.2216802E+03  0.7818608E-02  0.1132637E+00
          2   -1    0    0  502    0  0.00000000000E+00  0.00000000000E+00  0.53663330484E+03  0.53663330484E+03  0.00000000000E+00 0. -1.
          1   -1    0    0  501    0 -0.00000000000E+00 -0.00000000000E+00 -0.22672519188E+03  0.22672519188E+03  0.00000000000E+00 0. -1.
          2    1    1    2  501    0 -0.16536698391E+02 -0.23281942724E+02  0.25092409362E+03  0.25254388135E+03  0.00000000000E+00 0. -1.
          1    1    1    2  502    0  0.10612582673E+03  0.60128638130E+00 -0.18936930644E+03  0.21708013927E+03  0.00000000000E+00 0. -1.
         22    1    1    2    0    0  0.13179236893E+02 -0.20242935515E+02  0.12595377857E+03  0.12824906650E+03  0.00000000000E+00 0. -1.
         22    1    1    2    0    0 -0.10276836523E+03  0.42923591857E+02  0.12239954722E+03  0.16548540960E+03  0.00000000000E+00 0.  1.
</event>
<event>
 6    1  0.1293624E-005  0.2338467E+03  0.7818608E-02  0.1175221E+00
          2   -1    0    0  502    0  0.00000000000E+00  0.00000000000E+00  0.32751409452E+03  0.32751409452E+03  0.00000000000E+00 0. -1.
          1   -1    0    0  501    0 -0.00000000000E+00 -0.00000000000E+00 -0.33510654403E+03  0.33510654403E+03  0.00000000000E+00 0.  1.
          2    1    1    2  501    0 -0.12017874307E+03 -0.19363549074E+03  0.11713835965E+03  0.25624017808E+03  0.00000000000E+00 0. -1.
          1    1    1    2  502    0  0.11663517991E+03  0.17997597009E+03 -0.16703861839E+03  0.27184005414E+03  0.00000000000E+00 0.  1.
         22    1    1    2    0    0 -0.49573693755E+02 -0.30865192897E+02  0.18593686146E+02  0.61285694984E+02  0.00000000000E+00 0. -1.
         22    1    1    2    0    0  0.53117256918E+02  0.44524713554E+02  0.23714123092E+02  0.73254711340E+02  0.00000000000E+00 0.  1.
</event>
<event>
 6    1  0.1293624E-005  0.2521097E+03  0.7818608E-02  0.1111979E+00
          2   -1    0    0  502    0  0.00000000000E+00  0.00000000000E+00  0.81193488345E+03  0.81193488345E+03  0.00000000000E+00 0.  1.
          1   -1    0    0  501    0 -0.00000000000E+00 -0.00000000000E+00 -0.63505699655E+02  0.63505699655E+02  0.00000000000E+00 0.  1.
          2    1    1    2  501    0  0.23559939836E+02 -0.28981885823E+02  0.10002476873E+03  0.10677066466E+03  0.00000000000E+00 0.  1.
          1    1    1    2  502    0 -0.19352816472E+03  0.57629203452E+02  0.34251183721E+03  0.39760361450E+03  0.00000000000E+00 0.  1.
         22    1    1    2    0    0  0.17441612661E+03 -0.37927060343E+01  0.29671199872E+03  0.34419962235E+03  0.00000000000E+00 0.  1.
         22    1    1    2    0    0 -0.44479017250E+01 -0.24854611594E+02  0.91805791322E+01  0.26866681605E+02  0.00000000000E+00 0.  1.
</event>
<event>
 6    1  0.1293624E-005  0.4675568E+03  0.7818608E-02  0.1022612E+00
          2   -1    0    0  502    0  0.00000000000E+00  0.00000000000E+00  0.11011430320E+04  0.11011430320E+04  0.00000000000E+00 0. -1.
          1   -1    0    0  501    0 -0.00000000000E+00 -0.00000000000E+00 -0.23047959796E+03  0.23047959796E+03  0.00000000000E+00 0. -1.
          2    1    1    2  501    0  0.53569343627E+00  0.22734402853E+03  0.79185532196E+03  0.82384491574E+03  0.00000000000E+00 0. -1.
          1    1    1    2  502    0 -0.10137321170E+03 -0.26483661094E+03 -0.60235210870E+02  0.28990211999E+03  0.00000000000E+00 0. -1.
         22    1    1    2    0    0  0.86481734349E+02  0.10763869768E+02  0.12856057479E+02  0.88092164704E+02  0.00000000000E+00 0. -1.
         22    1    1    2    0    0  0.14355783912E+02  0.26728712645E+02  0.12618726548E+03  0.12978342953E+03  0.00000000000E+00 0.  1.
</event>
<event>
 6    1  0.1293624E-005  0.1995472E+03  0.7818608E-02  0.1150122E+00
          2   -1    0    0  502    0  0.00000000000E+00  0.00000000000E+00  0.21602163459E+03  0.21602163459E+03  0.00000000000E+00 0. -1.
          1   -1    0    0  501    0 -0.00000000000E+00 -0.00000000000E+00 -0.14939562668E+03  0.14939562668E+03  0.00000000000E+00 0. -1.
          2    1    1    2  501    0 -0.23702076087E+02 -0.39817101507E-01 -0.56581734138E+02  0.61345599959E+02  0.00000000000E+00 0. -1.
          1    1    1    2  502    0 -0.13906563306E+02  0.78212257282E+02  0.13317273383E+03  0.15506620111E+03  0.00000000000E+00 0. -1.
         22    1    1    2    0    0 -0.17098448490E+02 -0.10980503985E+02 -0.49691521065E+02  0.53685898281E+02  0.00000000000E+00 0.  1.
         22    1    1    2    0    0  0.54707087883E+02 -0.67191936195E+02  0.39726529278E+02  0.95319561910E+02  0.00000000000E+00 0. -1.
</event>
<event>
 6    1  0.1293624E-005  0.2365753E+03  0.7818608E-02  0.1122095E+00
          2   -1    0    0  502    0  0.00000000000E+00  0.00000000000E+00  0.19561898959E+02  0.19561898959E+02  0.00000000000E+00 0.  1.
          1   -1    0    0  501    0 -0.00000000000E+00 -0.00000000000E+00 -0.14672691758E+04  0.14672691758E+04  0.00000000000E+00 0. -1.
          2    1    1    2  501    0  0.62810570290E+02  0.55535419866E+01 -0.42222426935E+03  0.42690671486E+03  0.00000000000E+00 0.  1.
          1    1    1    2  502    0 -0.14792546087E+01  0.45849389179E+02 -0.72369902854E+03  0.72515145907E+03  0.00000000000E+00 0. -1.
         22    1    1    2    0    0 -0.93386670756E+02 -0.60879466665E+02 -0.23082642515E+03  0.25633614315E+03  0.00000000000E+00 0.  1.
         22    1    1    2    0    0  0.32055355075E+02  0.94765354995E+01 -0.70957553850E+02  0.78436757725E+02  0.00000000000E+00 0. -1.
</event>
<event>
 6    1  0.1293624E-005  0.1122126E+03  0.7818608E-02  0.1258197E+00
          2   -1    0    0  502    0  0.00000000000E+00  0.00000000000E+00  0.45749705017E+03  0.45749705017E+03  0.00000000000E+00 0.  1.
          1   -1    0    0  501    0 -0.00000000000E+00 -0.00000000000E+00 -0.39335596206E+02  0.39335596206E+02  0.00000000000E+00 0.  1.
          2    1    1    2  501    0 -0.62660845759E+02 -0.34225667992E+02  0.73598667122E+02  0.10254043955E+03  0.00000000000E+00 0.  1.
          1    1    1    2  502    0  0.17595860748E+02 -0.32861724211E+02  0.48165380839E+02  0.60904935309E+02  0.00000000000E+00 0.  1.
         22    1    1    2    0    0 -0.16218536809E+02 -0.29913080559E+02  0.40180025690E+02  0.52652329381E+02  0.00000000000E+00 0.  1.
         22    1    1    2    0    0  0.61283521820E+02  0.97000472762E+02  0.25621738031E+03  0.28073494214E+03  0.00000000000E+00 0.  1.
</event>
<event>
 6    1  0.1293624E-005  0.3053307E+03  0.7818608E-02  0.1082606E+00
          2   -1    0    0  502    0  0.00000000000E+00  0.00000000000E+00  0.10917915988E+04  0.10917915988E+04  0.00000000000E+00 0.  1.
          1   -1    0    0  501    0 -0.00000000000E+00 -0.00000000000E+00 -0.73949250333E+02  0.73949250333E+02  0.00000000000E+00 0.  1.
          2    1    1    2  501    0 -0.11926575647E+03 -0.37391143847E+02  0.21620235306E+03  0.24973160748E+03  0.00000000000E+00 0.  1.
          1    1    1    2  502    0  0.16505918973E+03  0.12229941818E+03  0.17695622468E+03  0.27113684599E+03  0.00000000000E+00 0.  1.
         22    1    1    2    0    0 -0.72399531622E+02 -0.17510361619E+02  0.44393403967E+03  0.45013968556E+03  0.00000000000E+00 0.  1.
         22    1    1    2    0    0  0.26606098361E+02 -0.67397912715E+02  0.18074973108E+03  0.19473271013E+03  0.00000000000E+00 0.  1.
</event>
<event>
 6    1  0.1293624E-005  0.2407063E+03  0.7818608E-02  0.1119323E+00
          2   -1    0    0  502    0  0.00000000000E+00  0.00000000000E+00  0.18336280352E+02  0.18336280352E+02  0.00000000000E+00 0. -1.
          1   -1    0    0  501    0 -0.00000000000E+00 -0.00000000000E+00 -0.17496388659E+04  0.17496388659E+04  0.00000000000E+00 0. -1.
          2    1    1    2  501    0  0.49769266323E+02 -0.40090858261E+02 -0.39750285653E+03  0.40260747353E+03  0.00000000000E+00 0. -1.
          1    1    1    2  502    0  0.60988446740E+01 -0.32091354910E+02 -0.94707933746E+03  0.94764250771E+03  0.00000000000E+00 0. -1.
         22    1    1    2    0    0  0.29165877223E+02 -0.16958790946E+02 -0.65217525870E+02  0.73427342762E+02  0.00000000000E+00 0. -1.
         22    1    1    2    0    0 -0.85033988220E+02  0.89141004116E+02 -0.32150286564E+03  0.34429782222E+03  0.00000000000E+00 0. -1.
</event>
<event>
 6    1  0.1293624E-005  0.2289632E+03  0.7818608E-02  0.1128346E+00
          2   -1    0    0  502    0  0.00000000000E+00  0.00000000000E+00  0.67879020042E+03  0.67879020042E+03  0.00000000000E+00 0.  1.
          1   -1    0    0  501    0 -0.00000000000E+00 -0.00000000000E+00 -0.18468083639E+03  0.18468083639E+03  0.00000000000E+00 0.  1.
          2    1    1    2  501    0  0.25151148809E+03  0.25153398152E+02  0.59558280679E+02  0.25968810307E+03  0.00000000000E+00 0.  1.
          1    1    1    2  502    0 -0.54235496468E+02 -0.68167941353E+02 -0.20994706190E+02  0.89605440647E+02  0.00000000000E+00 0.  1.
         22    1    1    2    0    0 -0.20965450936E+03  0.52415097826E+02  0.44685705442E+03  0.49637040893E+03  0.00000000000E+00 0.  1.
         22    1    1    2    0    0  0.12378517737E+02 -0.94005546252E+01  0.86887351207E+01  0.17807084170E+02  0.00000000000E+00 0.  1.
</event>
<event>
 6    1  0.1293624E-005  0.4208254E+03  0.7818608E-02  0.1036798E+00
          2   -1    0    0  502    0  0.00000000000E+00  0.00000000000E+00  0.34339073822E+03  0.34339073822E+03  0.00000000000E+00 0.  1.
          1   -1    0    0  501    0 -0.00000000000E+00 -0.00000000000E+00 -0.53669109546E+03  0.53669109546E+03  0.00000000000E+00 0.  1.
          2    1    1    2  501    0  0.99304408362E+01  0.22148990386E+03  0.15076108819E+03  0.26811433546E+03  0.00000000000E+00 0.  1.
          1    1    1    2  502    0  0.74925115020E+02 -0.10542120477E+03 -0.39339340121E+03  0.41410840536E+03  0.00000000000E+00 0.  1.
         22    1    1    2    0    0 -0.44279206494E+02 -0.13806245420E+03  0.31441236706E+02  0.14835916134E+03  0.00000000000E+00 0.  1.
         22    1    1    2    0    0 -0.40576349362E+02  0.21993755111E+02  0.17890719068E+02  0.49499931517E+02  0.00000000000E+00 0.  1.
</event>
<event>
 6    1  0.1293624E-005  0.7935134E+02  0.7818608E-02  0.1332266E+00
          2   -1    0    0  502    0  0.00000000000E+00  0.00000000000E+00  0.19123152657E+03  0.19123152657E+03  0.00000000000E+00 0. -1.
          1   -1    0    0  501    0 -0.00000000000E+00 -0.00000000000E+00 -0.60174547540E+02  0.60174547540E+02  0.00000000000E+00 0. -1.
          2    1    1    2  501    0  0.26224217428E+02 -0.96953580186E+00  0.93217363917E+01  0.27848596890E+02  0.00000000000E+00 0. -1.
          1    1    1    2  502    0  0.22695935665E+02 -0.31735077878E+02 -0.31561681384E+01  0.39143097233E+02  0.00000000000E+00 0. -1.
         22    1    1    2    0    0  0.37609690548E+02  0.19590184900E+02  0.17492237165E+02  0.45872023376E+02  0.00000000000E+00 0. -1.
         22    1    1    2    0    0 -0.86529843642E+02  0.13114428780E+02  0.10739917361E+03  0.13854235661E+03  0.00000000000E+00 0. -1.
</event>
<event>
 6    1  0.1293624E-005  0.2729224E+03  0.7818608E-02  0.1099619E+00
          2   -1    0    0  502    0  0.00000000000E+00  0.00000000000E+00  0.46376129083E+03  0.46376129083E+03  0.00000000000E+00 0. -1.
          1   -1    0    0  501    0 -0.00000000000E+00 -0.00000000000E+00 -0.67794408785E+03  0.67794408785E+03  0.00000000000E+00 0. -1.
          2    1    1    2  501    0  0.10188389227E+03  0.39486537615E+02  0.10570630728E+03  0.15203071254E+03  0.00000000000E+00 0. -1.
          1    1    1    2  502    0 -0.12548336020E+02 -0.33909141398E+02 -0.63723365045E+03  0.63825858073E+03  0.00000000000E+00 0. -1.
         22    1    1    2    0    0 -0.11508714776E+03 -0.13265890965E+02  0.20088753045E+03  0.23189832973E+03  0.00000000000E+00 0. -1.
         22    1    1    2    0    0  0.25751591511E+02  0.76884947475E+01  0.11645701570E+03  0.11951775568E+03  0.00000000000E+00 0.  1.
</event>
<event>
 6    1  0.1293624E-005  0.1952504E+03  0.7818608E-02  0.1153809E+00
          2   -1    0    0  502    0  0.00000000000E+00  0.00000000000E+00  0.45299896941E+02  0.45299896941E+02  0.00000000000E+00 0.  1.
          1   -1    0    0  501    0 -0.00000000000E+00 -0.00000000000E+00 -0.54527226305E+03  0.54527226305E+03  0.00000000000E+00 0.  1.
          2    1    1    2  501    0  0.21682408262E+02  0.33670928666E+02 -0.10523257855E+03  0.11259553212E+03  0.00000000000E+00 0.  1.
          1    1    1    2  502    0 -0.34911434935E+02  0.16479052448E+02 -0.32836440181E+03  0.33062599389E+03  0.00000000000E+00 0.  1.
         22    1    1    2    0    0 -0.20094310557E+02  0.24680752359E+02 -0.56493510802E+02  0.64841634900E+02  0.00000000000E+00 0.  1.
         22    1    1    2    0    0  0.33323337229E+02 -0.74830733472E+02 -0.98818749409E+01  0.82508999076E+02  0.00000000000E+00 0.  1.
</event>
<event>
 6    1  0.1293624E-005  0.1928583E+03  0.7818608E-02  0.1156271E+00
          2   -1    0    0  502    0  0.00000000000E+00  0.00000000000E+00  0.10748784498E+04  0.10748784498E+04  0.00000000000E+00 0. -1.
          1   -1    0    0  501    0 -0.00000000000E+00 -0.00000000000E+00 -0.10398357554E+04  0.10398357554E+04  0.00000000000E+00 0. -1.
          2    1    1    2  501    0 -0.13858368930E+03 -0.42601683833E+02  0.23259353821E+03  0.27408045611E+03  0.00000000000E+00 0. -1.
          1    1    1    2  502    0 -0.32256636070E+02 -0.50975567709E+02 -0.10017547537E+04  0.10035694225E+04  0.00000000000E+00 0. -1.
         22    1    1    2    0    0  0.18968382980E+03  0.90841631116E+02  0.76643538218E+03  0.79476748317E+03  0.00000000000E+00 0. -1.
         22    1    1    2    0    0 -0.18843504430E+02  0.27356204265E+01  0.37768527734E+02  0.42296843447E+02  0.00000000000E+00 0.  1.
</event>
<event>
 6    1  0.1293624E-005  0.9009684E+02  0.7818608E-02  0.1304589E+00
          2   -1    0    0  502    0  0.00000000000E+00  0.00000000000E+00  0.53081589494E+02  0.53081589494E+02  0.00000000000E+00 0. -1.
          1   -1    0    0  501    0 -0.00000000000E+00 -0.00000000000E+00 -0.26424431845E+03  0.26424431845E+03  0.00000000000E+00 0. -1.
          2    1    1    2  501    0  0.24937367636E+02 -0.29420228748E+01 -0.27052273977E+02  0.36910070856E+02  0.00000000000E+00 0. -1.
          1    1    1    2  502    0  0.14293596689E+01 -0.52946304599E+02 -0.27286762347E+01  0.53035836128E+02  0.00000000000E+00 0. -1.
         22    1    1    2    0    0 -0.14815562932E+02 -0.31467307793E+02 -0.12620997592E+02  0.36999756012E+02  0.00000000000E+00 0. -1.
         22    1    1    2    0    0 -0.11551164373E+02  0.87355635268E+02 -0.16876078115E+03  0.19038024495E+03  0.00000000000E+00 0. -1.
</event>
<event>
 6    1  0.1293624E-005  0.1900434E+03  0.7818608E-02  0.1158774E+00
          2   -1    0    0  502    0  0.00000000000E+00  0.00000000000E+00  0.39030973467E+03  0.39030973467E+03  0.00000000000E+00 0. -1.
          1   -1    0    0  501    0 -0.00000000000E+00 -0.00000000000E+00 -0.22524162459E+03  0.22524162459E+03  0.00000000000E+00 0. -1.
          2    1    1    2  501    0  0.68196890135E+02  0.14717217984E+03  0.65465887997E+00  0.16220633441E+03  0.00000000000E+00 0. -1.
          1    1    1    2  502    0  0.35074949745E+02 -0.54386319256E+01 -0.10395348239E+03  0.10984606191E+03  0.00000000000E+00 0. -1.
         22    1    1    2    0    0 -0.11425049297E+03 -0.15516721825E+03  0.26153119100E+03  0.32485166558E+03  0.00000000000E+00 0. -1.
         22    1    1    2    0    0  0.10978653093E+02  0.13433670329E+02  0.68357425906E+01  0.18647297365E+02  0.00000000000E+00 0. -1.
</event>
<event>
 6    1  0.1293624E-005  0.5672053E+02  0.7818608E-02  0.1418016E+00
          2   -1    0    0  502    0  0.00000000000E+00  0.00000000000E+00  0.27152732608E+03  0.27152732608E+03  0.00000000000E+00 0.  1.
          1   -1    0    0  501    0 -0.00000000000E+00 -0.00000000000E+00 -0.27314311634E+03  0.27314311634E+03  0.00000000000E+00 0.  1.
          2    1    1    2  501    0 -0.67179697236E+01 -0.25271744695E+02 -0.55445149452E+01  0.26730765853E+02  0.00000000000E+00 0.  1.
          1    1    1    2  502    0 -0.19546427032E+02  0.36433034721E+02 -0.23825772614E+03  0.24181847095E+03  0.00000000000E+00 0.  1.
         22    1    1    2    0    0 -0.26606181077E+02 -0.15999600535E+02  0.30883685107E+01  0.31199585074E+02  0.00000000000E+00 0. -1.
         22    1    1    2    0    0  0.52870577832E+02  0.48383105082E+01  0.23909808231E+03  0.24492162055E+03  0.00000000000E+00 0.  1.
</event>
<event>
 6    1  0.1293624E-005  0.1930728E+03  0.7818608E-02  0.1155719E+00
          2   -1    0    0  502    0  0.00000000000E+00  0.00000000000E+00  0.33714506216E+03  0.33714506216E+03  0.00000000000E+00 0. -1.
          1   -1    0    0  501    0 -0.00000000000E+00 -0.00000000000E+00 -0.13800797971E+04  0.13800797971E+04  0.00000000000E+00 0. -1.
          2    1    1    2  501    0 -0.25054486243E+02  0.15681581291E+02 -0.13182047605E+00  0.29557683423E+02  0.00000000000E+00 0. -1.
          1    1    1    2  502    0  0.14310934118E+02 -0.22189276037E+02 -0.13522985991E+04  0.13525563455E+04  0.00000000000E+00 0. -1.
         22    1    1    2    0    0  0.18805501380E+02  0.65796358630E+02  0.15502973920E+03  0.16946099176E+03  0.00000000000E+00 0. -1.
         22    1    1    2    0    0 -0.80619492551E+01 -0.59288663884E+02  0.15446594545E+03  0.16564983850E+03  0.00000000000E+00 0.  1.
</event>
<event>
 6    1  0.1293624E-005  0.1926748E+03  0.7818608E-02  0.1156071E+00
          2   -1    0    0  502    0  0.00000000000E+00  0.00000000000E+00  0.89713967142E+03  0.89713967142E+03  0.00000000000E+00 0. -1.
          1   -1    0    0  501    0 -0.00000000000E+00 -0.00000000000E+00 -0.55283821591E+03  0.55283821591E+03  0.00000000000E+00 0. -1.
          2    1    1    2  501    0 -0.36675678378E+02 -0.19519474511E+02  0.26588428427E+03  0.26911069821E+03  0.00000000000E+00 0. -1.
          1    1    1    2  502    0  0.11604269324E+03  0.68764068681E+01 -0.53619272572E+03  0.54864909618E+03  0.00000000000E+00 0. -1.
         22    1    1    2    0    0 -0.74556844079E+02  0.61827471286E+02  0.45215992674E+03  0.46241751541E+03  0.00000000000E+00 0. -1.
         22    1    1    2    0    0 -0.48101707823E+01 -0.49184403643E+02  0.16244997022E+03  0.16980057753E+03  0.00000000000E+00 0.  1.
</event>
<event>
 6    1  0.1515953E-005  0.3645882E+03  0.7818608E-02  0.1071500E+00
          2   -1    0    0  502    0  0.00000000000E+00  0.00000000000E+00  0.93699885653E+03  0.93699885653E+03  0.00000000000E+00 0.  1.
          1   -1    0    0  501    0 -0.00000000000E+00 -0.00000000000E+00 -0.39890521137E+03  0.39890521137E+03  0.00000000000E+00 0.  1.
          2    1    1    2  501    0 -0.29889614796E+03  0.22672826208E+03  0.41639571886E+03  0.56047302056E+03  0.00000000000E+00 0.  1.
          1    1    1    2  502    0  0.10812986920E+03 -0.35397233649E+03 -0.15053510683E+03  0.39956138703E+03  0.00000000000E+00 0.  1.
         22    1    1    2    0    0  0.20684826852E+03  0.12615558120E+03  0.24751012624E+03  0.34635631862E+03  0.00000000000E+00 0.  1.
         22    1    1    2    0    0 -0.16081989763E+02  0.10884932075E+01  0.24722906893E+02  0.29513341685E+02  0.00000000000E+00 0.  1.
</event>
<event>
 6    1  0.1293624E-005  0.7850633E+02  0.7818608E-02  0.1335679E+00
          2   -1    0    0  502    0  0.00000000000E+00  0.00000000000E+00  0.44695012754E+03  0.44695012754E+03  0.00000000000E+00 0. -1.
          1   -1    0    0  501    0 -0.00000000000E+00 -0.00000000000E+00 -0.20533021235E+02  0.20533021235E+02  0.00000000000E+00 0.  1.
          2    1    1    2  501    0 -0.15577041810E+02 -0.27315647250E+02  0.59769279895E+02  0.67536328264E+02  0.00000000000E+00 0. -1.
          1    1    1    2  502    0 -0.30272110129E+01  0.31635186520E+02  0.94383147152E+02  0.99589796158E+02  0.00000000000E+00 0.  1.
         22    1    1    2    0    0 -0.35249141546E+02 -0.41144335847E+02  0.17535078544E+03  0.18352998748E+03  0.00000000000E+00 0. -1.
         22    1    1    2    0    0  0.53853394369E+02  0.36824796578E+02  0.96913893821E+02  0.11682703687E+03  0.00000000000E+00 0.  1.
</event>
<event>
 6    1  0.1293624E-005  0.5635905E+02  0.7818608E-02  0.1422354E+00
          2   -1    0    0  502    0  0.00000000000E+00  0.00000000000E+00  0.11844752494E+03  0.11844752494E+03  0.00000000000E+00 0. -1.
          1   -1    0    0  501    0 -0.00000000000E+00 -0.00000000000E+00 -0.19758057655E+04  0.19758057655E+04  0.00000000000E+00 0.  1.
          2    1    1    2  501    0  0.27792425795E+02 -0.38073380526E+02 -0.35125393129E+02  0.58786005807E+02  0.00000000000E+00 0. -1.
          1    1    1    2  502    0 -0.26914332171E+02  0.25337870906E+02 -0.18918109175E+04  0.18921720155E+04  0.00000000000E+00 0.  1.
         22    1    1    2    0    0  0.59778943706E+00  0.47588055209E+02  0.90762190941E+02  0.10248295300E+03  0.00000000000E+00 0. -1.
         22    1    1    2    0    0 -0.14758830616E+01 -0.34852545589E+02 -0.21184120868E+02  0.40812316055E+02  0.00000000000E+00 0. -1.
</event>
<event>
 6    1  0.1293624E-005  0.1134334E+03  0.7818608E-02  0.1255565E+00
          2   -1    0    0  502    0  0.00000000000E+00  0.00000000000E+00  0.27784146736E+03  0.27784146736E+03  0.00000000000E+00 0. -1.
          1   -1    0    0  501    0 -0.00000000000E+00 -0.00000000000E+00 -0.27701496283E+03  0.27701496283E+03  0.00000000000E+00 0.  1.
          2    1    1    2  501    0  0.29149195280E+01 -0.83421008591E+02  0.16089006112E+03  0.18125444325E+03  0.00000000000E+00 0. -1.
          1    1    1    2  502    0  0.49165767612E+02  0.23984329241E+02 -0.21155802574E+03  0.21851617562E+03  0.00000000000E+00 0.  1.
         22    1    1    2    0    0 -0.49333560053E+02  0.92319080083E+02  0.14763133044E+02  0.10570980462E+03  0.00000000000E+00 0.  1.
         22    1    1    2    0    0 -0.27471270874E+01 -0.32882400733E+02  0.36731336105E+02  0.49376006697E+02  0.00000000000E+00 0.  1.
</event>
<event>
 6    1  0.1293624E-005  0.1736113E+03  0.7818608E-02  0.1174133E+00
          2   -1    0    0  502    0  0.00000000000E+00  0.00000000000E+00  0.38197753355E+03  0.38197753355E+03  0.00000000000E+00 0.  1.
          1   -1    0    0  501    0 -0.00000000000E+00 -0.00000000000E+00 -0.40683629610E+03  0.40683629610E+03  0.00000000000E+00 0.  1.
          2    1    1    2  501    0  0.13650094069E+02  0.17858842732E+02  0.31237404992E+02  0.38484266947E+02  0.00000000000E+00 0.  1.
          1    1    1    2  502    0 -0.40893381314E+02  0.52808600422E+02 -0.38407734931E+03  0.38984154110E+03  0.00000000000E+00 0.  1.
         22    1    1    2    0    0  0.77266604627E+02 -0.37670875054E+02  0.23112020835E+03  0.24658826761E+03  0.00000000000E+00 0.  1.
         22    1    1    2    0    0 -0.50023317382E+02 -0.32996568100E+02  0.96860973417E+02  0.11389975399E+03  0.00000000000E+00 0. -1.
</event>
<event>
 6    1  0.1293624E-005  0.9759949E+02  0.7818608E-02  0.1327639E+00
          2   -1    0    0  502    0  0.00000000000E+00  0.00000000000E+00  0.55749293979E+03  0.55749293979E+03  0.00000000000E+00 0.  1.
          1   -1    0    0  501    0 -0.00000000000E+00 -0.00000000000E+00 -0.34470167003E+02  0.34470167003E+02  0.00000000000E+00 0. -1.
          2    1    1    2  501    0 -0.18329796823E+02 -0.84772759138E+01  0.28427997123E+02  0.34871143929E+02  0.00000000000E+00 0.  1.
          1    1    1    2  502    0  0.81718875771E+02  0.49448001947E+02  0.11666602970E+03  0.15077812189E+03  0.00000000000E+00 0. -1.
         22    1    1    2    0    0 -0.83635908119E+02 -0.59384193477E+00  0.13196630947E+03  0.15623835832E+03  0.00000000000E+00 0.  1.
         22    1    1    2    0    0  0.20246829172E+02 -0.40376884099E+02  0.24596243649E+03  0.25007548266E+03  0.00000000000E+00 0. -1.
</event>
<event>
 6    1  0.1293624E-005  0.2144760E+03  0.7818608E-02  0.1138070E+00
          2   -1    0    0  502    0  0.00000000000E+00  0.00000000000E+00  0.10129933501E+04  0.10129933501E+04  0.00000000000E+00 0.  1.
          1   -1    0    0  501    0 -0.00000000000E+00 -0.00000000000E+00 -0.33801447142E+02  0.33801447142E+02  0.00000000000E+00 0.  1.
          2    1    1    2  501    0  0.36896633938E+02 -0.37559874851E+02  0.14752638810E+03  0.15664016401E+03  0.00000000000E+00 0.  1.
          1    1    1    2  502    0 -0.76156194528E+02 -0.41977743532E+02  0.63725143400E+03  0.64315728018E+03  0.00000000000E+00 0.  1.
         22    1    1    2    0    0 -0.38281389297E+02  0.52741281388E+02  0.55190899108E+02  0.85399899726E+02  0.00000000000E+00 0.  1.
         22    1    1    2    0    0  0.77540949886E+02  0.26796336995E+02  0.13922318178E+03  0.16159745336E+03  0.00000000000E+00 0.  1.
</event>
<event>
 6    1  0.1293624E-005  0.1001443E+03  0.7818608E-02  0.1289850E+00
          2   -1    0    0  502    0  0.00000000000E+00  0.00000000000E+00  0.56924156110E+02  0.56924156110E+02  0.00000000000E+00 0.  1.
          1   -1    0    0  501    0 -0.00000000000E+00 -0.00000000000E+00 -0.80436219563E+03  0.80436219563E+03  0.00000000000E+00 0. -1.
          2    1    1    2  501    0  0.24285247952E+02 -0.33191883051E+02 -0.50208256663E+02  0.64902568560E+02  0.00000000000E+00 0.  1.
          1    1    1    2  502    0  0.42630306181E+02  0.90762143505E+02 -0.60990379484E+03  0.61809202281E+03  0.00000000000E+00 0. -1.
         22    1    1    2    0    0 -0.82624957484E+02  0.92126957536E+01 -0.28400403642E+02  0.87854085217E+02  0.00000000000E+00 0.  1.
         22    1    1    2    0    0  0.15709403350E+02 -0.66782956207E+02 -0.58925584371E+02  0.90437675152E+02  0.00000000000E+00 0.  1.
</event>
<event>
 6    1  0.1293624E-005  0.2709238E+03  0.7818608E-02  0.1100752E+00
          2   -1    0    0  502    0  0.00000000000E+00  0.00000000000E+00  0.61802974393E+03  0.61802974393E+03  0.00000000000E+00 0.  1.
          1   -1    0    0  501    0 -0.00000000000E+00 -0.00000000000E+00 -0.61921269192E+02  0.61921269192E+02  0.00000000000E+00 0.  1.
          2    1    1    2  501    0  0.52871919746E+02  0.59763834255E+02  0.26450002548E+02  0.84064013807E+02  0.00000000000E+00 0.  1.
          1    1    1    2  502    0 -0.43699884713E+02 -0.10886772986E+03  0.13098044677E+03  0.17583441064E+03  0.00000000000E+00 0.  1.
         22    1    1    2    0    0 -0.55643141651E+00 -0.28835882840E+02  0.24792595581E+02  0.38032756286E+02  0.00000000000E+00 0.  1.
         22    1    1    2    0    0 -0.86156036171E+01  0.77939778449E+02  0.37388542984E+03  0.38201983239E+03  0.00000000000E+00 0. -1.
</event>
<event>
 6    1  0.1293624E-005  0.1518593E+03  0.7818608E-02  0.1199372E+00
          2   -1    0    0  502    0  0.00000000000E+00  0.00000000000E+00  0.53221941267E+03  0.53221941267E+03  0.00000000000E+00 0. -1.
          1   -1    0    0  501    0 -0.00000000000E+00 -0.00000000000E+00 -0.17510192087E+04  0.17510192087E+04  0.00000000000E+00 0. -1.
          2    1    1    2  501    0 -0.14237444589E+03 -0.24169312395E+02  0.38813627148E+03  0.41413090170E+03  0.00000000000E+00 0. -1.
          1    1    1    2  502    0  0.52599461829E+02  0.74035335068E+02 -0.16876421078E+04  0.16900839678E+04  0.00000000000E+00 0. -1.
         22    1    1    2    0    0  0.10822674768E+03 -0.58697879542E+02  0.33530550365E+02  0.12760394894E+03  0.00000000000E+00 0. -1.
         22    1    1    2    0    0 -0.18451763617E+02  0.88318568692E+01  0.47175489958E+02  0.51419802889E+02  0.00000000000E+00 0. -1.
</event>
<event>
 6    1  0.1802517E-005  0.1638658E+03  0.7818608E-02  0.1184400E+00
          2   -1    0    0  502    0  0.00000000000E+00  0.00000000000E+00  0.64426007869E+02  0.64426007869E+02  0.00000000000E+00 0.  1.
          1   -1    0    0  501    0 -0.00000000000E+00 -0.00000000000E+00 -0.98150214615E+03  0.98150214615E+03  0.00000000000E+00 0.  1.
          2    1    1    2  501    0  0.20973223625E+02 -0.12490876846E+01 -0.35963605460E+02  0.41651137403E+02  0.00000000000E+00 0.  1.
          1    1    1    2  502    0 -0.18497016991E+02  0.23208012450E+02 -0.87664632678E+03  0.87714852433E+03  0.00000000000E+00 0.  1.
         22    1    1    2    0    0 -0.24047054784E+02 -0.33364493706E+02 -0.56368162837E+02  0.69776930755E+02  0.00000000000E+00 0.  1.
         22    1    1    2    0    0  0.21570848151E+02  0.11405568940E+02  0.51901956786E+02  0.57351561539E+02  0.00000000000E+00 0.  1.
</event>
<event>
 6    1  0.1293624E-005  0.1846784E+03  0.7818608E-02  0.1189196E+00
          2   -1    0    0  502    0  0.00000000000E+00  0.00000000000E+00  0.18831835627E+04  0.18831835627E+04  0.00000000000E+00 0.  1.
          1   -1    0    0  501    0 -0.00000000000E+00 -0.00000000000E+00 -0.33462849979E+02  0.33462849979E+02  0.00000000000E+00 0.  1.
          2    1    1    2  501    0 -0.97066762961E+01  0.10739440928E+03  0.26004057957E+03  0.28151177903E+03  0.00000000000E+00 0.  1.
          1    1    1    2  502    0 -0.11330245896E+03 -0.16241175892E+03  0.87315468177E+03  0.89532905959E+03  0.00000000000E+00 0.  1.
         22    1    1    2    0    0  0.21728086811E+02  0.73221954468E+02  0.22457147545E+03  0.23720436749E+03  0.00000000000E+00 0.  1.
         22    1    1    2    0    0  0.10128104845E+03 -0.18204604823E+02  0.49195397590E+03  0.50260120654E+03  0.00000000000E+00 0.  1.
</event>
<event>
 6    1  0.1293624E-005  0.1714424E+03  0.7818608E-02  0.1176352E+00
          2   -1    0    0  502    0  0.00000000000E+00  0.00000000000E+00  0.41566749215E+02  0.41566749215E+02  0.00000000000E+00 0. -1.
          1   -1    0    0  501    0 -0.00000000000E+00 -0.00000000000E+00 -0.82134893010E+03  0.82134893010E+03  0.00000000000E+00 0. -1.
          2    1    1    2  501    0 -0.44713138967E+01  0.38090280857E+02 -0.49535560271E+02  0.62646898367E+02  0.00000000000E+00 0. -1.
          1    1    1    2  502    0 -0.22068865310E+02 -0.13092100411E+02 -0.64321959007E+03  0.64373121640E+03  0.00000000000E+00 0. -1.
         22    1    1    2    0    0 -0.22736050726E+02 -0.60841801120E+02 -0.64602473493E+02  0.91608582281E+02  0.00000000000E+00 0. -1.
         22    1    1    2    0    0  0.49276229932E+02  0.35843620674E+02 -0.22424557043E+02  0.64928982264E+02  0.00000000000E+00 0. -1.
</event>
<event>
 6    1  0.1293624E-005  0.2053954E+03  0.7818608E-02  0.1145265E+00
          2   -1    0    0  502    0  0.00000000000E+00  0.00000000000E+00  0.45368097238E+02  0.45368097238E+02  0.00000000000E+00 0.  1.
          1   -1    0    0  501    0 -0.00000000000E+00 -0.00000000000E+00 -0.71584064578E+03  0.71584064578E+03  0.00000000000E+00 0.  1.
          2    1    1    2  501    0 -0.47662102031E+02 -0.28817505347E+02 -0.74700414200E+02  0.93178733980E+02  0.00000000000E+00 0.  1.
          1    1    1    2  502    0 -0.21261260384E+01 -0.35587867842E+02 -0.47926348277E+03  0.48058766387E+03  0.00000000000E+00 0.  1.
         22    1    1    2    0    0  0.42216979146E+02  0.10930103227E+02  0.14323408796E+02  0.45900986093E+02  0.00000000000E+00 0.  1.
         22    1    1    2    0    0  0.75712489236E+01  0.53475269963E+02 -0.13083206037E+03  0.14154135908E+03  0.00000000000E+00 0.  1.
</event>
<event>
 6    1  0.1293624E-005  0.1982092E+03  0.7818608E-02  0.1183624E+00
          2   -1    0    0  502    0  0.00000000000E+00  0.00000000000E+00  0.92424166570E+02  0.92424166570E+02  0.00000000000E+00 0. -1.
          1   -1    0    0  501    0 -0.00000000000E+00 -0.00000000000E+00 -0.85276901836E+03  0.85276901836E+03  0.00000000000E+00 0. -1.
          2    1    1    2  501    0  0.52020820166E+02  0.16486836789E+03 -0.47809880858E+03  0.50839572699E+03  0.00000000000E+00 0. -1.
          1    1    1    2  502    0 -0.12666477390E+03 -0.13871874938E+03 -0.18185083091E+03  0.26145091523E+03  0.00000000000E+00 0. -1.
         22    1    1    2    0    0  0.72126552526E+02 -0.60610739251E+02 -0.33384770378E+02  0.99952209506E+02  0.00000000000E+00 0. -1.
         22    1    1    2    0    0  0.25174012041E+01  0.34461120734E+02 -0.67010441936E+02  0.75394333205E+02  0.00000000000E+00 0.  1.
</event>
<event>
 6    1  0.1293624E-005  0.7685163E+02  0.7818608E-02  0.1341787E+00
          2   -1    0    0  502    0  0.00000000000E+00  0.00000000000E+00  0.29167588594E+03  0.29167588594E+03  0.00000000000E+00 0.  1.
          1   -1    0    0  501    0 -0.00000000000E+00 -0.00000000000E+00 -0.88978398500E+03  0.88978398500E+03  0.00000000000E+00 0. -1.
          2    1    1    2  501    0 -0.14981763555E+02 -0.33488347940E+02  0.66469563169E+02  0.75921838194E+02  0.00000000000E+00 0.  1.
          1    1    1    2  502    0 -0.15454380088E+02 -0.13825029981E+02 -0.86302393360E+03  0.86327300391E+03  0.00000000000E+00 0. -1.
         22    1    1    2    0    0  0.38441301884E+02  0.77466245987E+02  0.73536132827E+02  0.11351790955E+03  0.00000000000E+00 0.  1.
         22    1    1    2    0    0 -0.80051582408E+01 -0.30152868067E+02  0.12491013855E+03  0.12874711928E+03  0.00000000000E+00 0.  1.
</event>
<event>
 6    1  0.1293624E-005  0.8069009E+02  0.7818608E-02  0.1328361E+00
          2   -1    0    0  502    0  0.00000000000E+00  0.00000000000E+00  0.57640060071E+03  0.57640060071E+03  0.00000000000E+00 0.  1.
          1   -1    0    0  501    0 -0.00000000000E+00 -0.00000000000E+00 -0.26814387824E+02  0.26814387824E+02  0.00000000000E+00 0.  1.
          2    1    1    2  501    0  0.62581413503E+01  0.45076859019E+02  0.24080539567E+03  0.24506800308E+03  0.00000000000E+00 0.  1.
          1    1    1    2  502    0  0.26941508533E+02  0.15250275921E+02  0.17860782904E+02  0.35741059912E+02  0.00000000000E+00 0.  1.
         22    1    1    2    0    0 -0.90331132346E+01  0.30520825879E+02  0.14769062602E+03  0.15108156394E+03  0.00000000000E+00 0.  1.
         22    1    1    2    0    0 -0.24166536648E+02 -0.90847960820E+02  0.14322940829E+03  0.17132436160E+03  0.00000000000E+00 0.  1.
</event>
<event>
 6    1  0.1293624E-005  0.1992062E+03  0.7818608E-02  0.1150410E+00
          2   -1    0    0  502    0  0.00000000000E+00  0.00000000000E+00  0.15375786578E+03  0.15375786578E+03  0.00000000000E+00 0. -1.
          1   -1    0    0  501    0 -0.00000000000E+00 -0.00000000000E+00 -0.12683938893E+03  0.12683938893E+03  0.00000000000E+00 0.  1.
          2    1    1    2  501    0  0.32318434176E+02  0.12011471236E+02  0.21010925659E+02  0.40375928793E+02  0.00000000000E+00 0. -1.
          1    1    1    2  502    0  0.70042368646E+02  0.24836043601E+02 -0.17835731286E+02  0.76425622521E+02  0.00000000000E+00 0.  1.
         22    1    1    2    0    0  0.78641954896E+01  0.21615927534E+02  0.31247012167E+02  0.38800382256E+02  0.00000000000E+00 0. -1.
         22    1    1    2    0    0 -0.11022499831E+03 -0.58463442371E+02 -0.75037296888E+01  0.12499532114E+03  0.00000000000E+00 0.  1.
</event>
<event>
 6    1  0.1293624E-005  0.1067407E+03  0.7818608E-02  0.1280431E+00
          2   -1    0    0  502    0  0.00000000000E+00  0.00000000000E+00  0.33631540727E+03  0.33631540727E+03  0.00000000000E+00 0.  1.
          1   -1    0    0  501    0 -0.00000000000E+00 -0.00000000000E+00 -0.12674303662E+03  0.12674303662E+03  0.00000000000E+00 0.  1.
          2    1    1    2  501    0 -0.60396288500E+01  0.50298650012E+02 -0.10249394266E+02  0.51686375308E+02  0.00000000000E+00 0.  1.
          1    1    1    2  502    0  0.20439912375E+02 -0.16308602594E+03  0.17032748003E+03  0.23669873749E+03  0.00000000000E+00 0.  1.
         22    1    1    2    0    0 -0.30200303980E+02  0.32308284065E+02 -0.35388385406E+02  0.56641163488E+02  0.00000000000E+00 0.  1.
         22    1    1    2    0    0  0.15800020455E+02  0.80479091865E+02  0.84882670288E+02  0.11803216760E+03  0.00000000000E+00 0.  1.
</event>
<event>
 6    1  0.1293624E-005  0.7721817E+02  0.7818608E-02  0.1340766E+00
          2   -1    0    0  502    0  0.00000000000E+00  0.00000000000E+00  0.10990678982E+03  0.10990678982E+03  0.00000000000E+00 0. -1.
          1   -1    0    0  501    0 -0.00000000000E+00 -0.00000000000E+00 -0.14129686041E+03  0.14129686041E+03  0.00000000000E+00 0.  1.
          2    1    1    2  501    0 -0.20583962972E+02 -0.21872730281E+02  0.80503580951E+01  0.31095403632E+02  0.00000000000E+00 0. -1.
          1    1    1    2  502    0  0.68577957405E+01  0.46621408101E+02 -0.74738939303E+02  0.88354366637E+02  0.00000000000E+00 0.  1.
         22    1    1    2    0    0  0.68762995040E+02 -0.15446548934E+02  0.13096947357E+02  0.71683159744E+02  0.00000000000E+00 0.  1.
         22    1    1    2    0    0 -0.55036827808E+02 -0.93021288869E+01  0.22201563260E+02  0.60070720223E+02  0.00000000000E+00 0. -1.
</event>
<event>
 6    1  0.1293624E-005  0.2552251E+03  0.7818608E-02  0.1110047E+00
          2   -1    0    0  502    0  0.00000000000E+00  0.00000000000E+00  0.59233896106E+03  0.59233896106E+03  0.00000000000E+00 0. -1.
          1   -1    0    0  501    0 -0.00000000000E+00 -0.00000000000E+00 -0.45128652240E+03  0.45128652240E+03  0.00000000000E+00 0. -1.
          2    1    1    2  501    0  0.59705511722E+02  0.50798350662E+02  0.12046727743E+03  0.14372746951E+03  0.00000000000E+00 0. -1.
          1    1    1    2  502    0 -0.50487149998E+02  0.68020928583E+02 -0.41936085738E+03  0.42783095698E+03  0.00000000000E+00 0. -1.
         22    1    1    2    0    0 -0.13077268725E+02  0.21069484889E+02  0.12490910529E+03  0.12734685994E+03  0.00000000000E+00 0.  1.
         22    1    1    2    0    0  0.38589070009E+01 -0.13988876413E+03  0.31503691332E+03  0.34472019705E+03  0.00000000000E+00 0. -1.
</event>
<event>
 6    1  0.1293624E-005  0.7027088E+02  0.7818608E-02  0.1362467E+00
          2   -1    0    0  502    0  0.00000000000E+00  0.00000000000E+00  0.74620738634E+03  0.74620738634E+03  0.00000000000E+00 0.  1.
          1   -1    0    0  501    0 -0.00000000000E+00 -0.00000000000E+00 -0.15184894337E+02  0.15184894337E+02  0.00000000000E+00 0.  1.
          2    1    1    2  501    0  0.15833607741E+02 -0.18488068437E+02  0.58723570313E+02  0.63568620552E+02  0.00000000000E+00 0.  1.
          1    1    1    2  502    0 -0.24116967097E+01  0.53905389722E+02  0.14174851305E+03  0.15167151438E+03  0.00000000000E+00 0.  1.
         22    1    1    2    0    0  0.31478114516E+02 -0.67340203320E+02  0.29026018955E+03  0.29962735575E+03  0.00000000000E+00 0.  1.
         22    1    1    2    0    0 -0.44900025548E+02  0.31922882034E+02  0.24029021908E+03  0.24652478999E+03  0.00000000000E+00 0.  1.
</event>
<event>
 6    1  0.1293624E-005  0.2126674E+03  0.7818608E-02  0.1139471E+00
          2   -1    0    0  502    0  0.00000000000E+00  0.00000000000E+00  0.31053470313E+03  0.31053470313E+03  0.00000000000E+00 0.  1.
          1   -1    0    0  501    0 -0.00000000000E+00 -0.00000000000E+00 -0.21118428544E+03  0.21118428544E+03  0.00000000000E+00 0.  1.
          2    1    1    2  501    0 -0.25868817953E+02 -0.53912420420E+00 -0.13577060946E+02  0.29220249505E+02  0.00000000000E+00 0.  1.
          1    1    1    2  502    0  0.16687986284E+02 -0.50236795598E+02 -0.17027655201E+03  0.17831525084E+03  0.00000000000E+00 0.  1.
         22    1    1    2    0    0 -0.20878649995E+02 -0.89030989865E+01 -0.51318088815E+00  0.22703448015E+02  0.00000000000E+00 0.  1.
         22    1    1    2    0    0  0.30059481664E+02  0.59679018788E+02  0.28371721153E+03  0.29148004021E+03  0.00000000000E+00 0.  1.
</event>
<event>
 6    1  0.1293624E-005  0.2918712E+03  0.7818608E-02  0.1089376E+00
          2   -1    0    0  502    0  0.00000000000E+00  0.00000000000E+00  0.59538276165E+03  0.59538276165E+03  0.00000000000E+00 0. -1.
          1   -1    0    0  501    0 -0.00000000000E+00 -0.00000000000E+00 -0.16778788757E+03  0.16778788757E+03  0.00000000000E+00 0. -1.
          2    1    1    2  501    0  0.45184980672E+02  0.85636569349E+02  0.18379319382E+02  0.98555080382E+02  0.00000000000E+00 0. -1.
          1    1    1    2  502    0 -0.22610755120E+02 -0.23319402625E+03  0.40819850862E+03  0.47065563055E+03  0.00000000000E+00 0. -1.
         22    1    1    2    0    0  0.21195433890E+00 -0.19722821539E+02 -0.14416458952E+02  0.24430900573E+02  0.00000000000E+00 0. -1.
         22    1    1    2    0    0 -0.22786179891E+02  0.16728027844E+03  0.15433505028E+02  0.16952903771E+03  0.00000000000E+00 0. -1.
</event>
<event>
 6    1  0.1293624E-005  0.9234984E+02  0.7818608E-02  0.1298292E+00
          2   -1    0    0  502    0  0.00000000000E+00  0.00000000000E+00  0.29506625618E+03  0.29506625618E+03  0.00000000000E+00 0.  1.
          1   -1    0    0  501    0 -0.00000000000E+00 -0.00000000000E+00 -0.25954901769E+03  0.25954901769E+03  0.00000000000E+00 0. -1.
          2    1    1    2  501    0 -0.10424239230E+02  0.69315664751E+02  0.15489994530E+03  0.17002152569E+03  0.00000000000E+00 0.  1.
          1    1    1    2  502    0  0.42732805355E+02  0.31135028824E+01 -0.20783975388E+03  0.21221015491E+03  0.00000000000E+00 0. -1.
         22    1    1    2    0    0 -0.35679698992E+02 -0.93134637898E+02  0.21243671068E+02  0.10197252207E+03  0.00000000000E+00 0.  1.
         22    1    1    2    0    0  0.33711328677E+01  0.20705470265E+02  0.67213375998E+02  0.70411071208E+02  0.00000000000E+00 0.  1.
</event>
<event>
 6    1  0.1293624E-005  0.1271838E+03  0.7818608E-02  0.1239386E+00
          2   -1    0    0  502    0  0.00000000000E+00  0.00000000000E+00  0.43414096616E+03  0.43414096616E+03  0.00000000000E+00 0. -1.
          1   -1    0    0  501    0 -0.00000000000E+00 -0.00000000000E+00 -0.85391789928E+02  0.85391789928E+02  0.00000000000E+00 0. -1.
          2    1    1    2  501    0  0.41563144044E+01 -0.62996181251E+02  0.16854629250E+02  0.65344260106E+02  0.00000000000E+00 0. -1.
          1    1    1    2  502    0  0.11877869495E+03  0.68840530579E+02  0.14611571735E+03  0.20049239357E+03  0.00000000000E+00 0. -1.
         22    1    1    2    0    0 -0.27356655035E+02 -0.57547948060E+02  0.60663482704E+02  0.87978469152E+02  0.00000000000E+00 0. -1.
         22    1    1    2    0    0 -0.95578354316E+02  0.51703598732E+02  0.12511534694E+03  0.16571763326E+03  0.00000000000E+00 0. -1.
</event>
<event>
 6    1  0.1293624E-005  0.1615208E+03  0.7818608E-02  0.1188056E+00
          2   -1    0    0  502    0  0.00000000000E+00  0.00000000000E+00  0.12743116758E+04  0.12743116758E+04  0.00000000000E+00 0.  1.
          1   -1    0    0  501    0 -0.00000000000E+00 -0.00000000000E+00 -0.48300349541E+02  0.48300349541E+02  0.00000000000E+00 0.  1.
          2    1    1    2  501    0  0.76994451872E+02 -0.17425025705E+02  0.49762665097E+03  0.50384924421E+03  0.00000000000E+00 0.  1.
          1    1    1    2  502    0  0.10969393790E+03 -0.46173666557E+02  0.13252423620E+03  0.17812198258E+03  0.00000000000E+00 0.  1.
         22    1    1    2    0    0 -0.20608336622E+03  0.64111930078E+02  0.55122203562E+03  0.59196826432E+03  0.00000000000E+00 0.  1.
         22    1    1    2    0    0  0.19394976444E+02 -0.51323781581E+00  0.44638403488E+02  0.48672534249E+02  0.00000000000E+00 0.  1.
</event>
<event>
 6    1  0.1293624E-005  0.2404543E+03  0.7818608E-02  0.1119491E+00
          2   -1    0    0  502    0  0.00000000000E+00  0.00000000000E+00  0.11605014475E+03  0.11605014475E+03  0.00000000000E+00 0.  1.
          1   -1    0    0  501    0 -0.00000000000E+00 -0.00000000000E+00 -0.12338614435E+04  0.12338614435E+04  0.00000000000E+00 0.  1.
          2    1    1    2  501    0  0.21923532483E+02 -0.24525041742E+01 -0.32000348491E+01  0.22291170366E+02  0.00000000000E+00 0.  1.
          1    1    1    2  502    0 -0.19549527957E+03 -0.31162435420E+02 -0.10900267567E+04  0.11078573157E+04  0.00000000000E+00 0.  1.
         22    1    1    2    0    0  0.94438260720E+02  0.68787503323E+02  0.25695414481E+02  0.11962675297E+03  0.00000000000E+00 0.  1.
         22    1    1    2    0    0  0.79133486370E+02 -0.35172563729E+02 -0.50279921727E+02  0.10013634921E+03  0.00000000000E+00 0.  1.
</event>
<event>
 6    1  0.1293624E-005  0.2336570E+03  0.7818608E-02  0.1124092E+00
          2   -1    0    0  502    0  0.00000000000E+00  0.00000000000E+00  0.10352486175E+04  0.10352486175E+04  0.00000000000E+00 0. -1.
          1   -1    0    0  501    0 -0.00000000000E+00 -0.00000000000E+00 -0.29537380471E+02  0.29537380471E+02  0.00000000000E+00 0. -1.
          2    1    1    2  501    0 -0.36865413478E+02  0.54469600127E+02  0.92253329725E+02  0.11329904189E+03  0.00000000000E+00 0. -1.
          1    1    1    2  502    0  0.96253120933E+02 -0.56254656736E+02  0.24893967109E+03  0.27276401804E+03  0.00000000000E+00 0. -1.
         22    1    1    2    0    0 -0.91634920101E+02 -0.21515678826E+02  0.53551114714E+03  0.54372058240E+03  0.00000000000E+00 0. -1.
         22    1    1    2    0    0  0.32247212646E+02  0.23300735434E+02  0.12900708903E+03  0.13500235559E+03  0.00000000000E+00 0.  1.
</event>
<event>
 6    1  0.1293624E-005  0.2248210E+03  0.7818608E-02  0.1130339E+00
          2   -1    0    0  502    0  0.00000000000E+00  0.00000000000E+00  0.27640362971E+02  0.27640362971E+02  0.00000000000E+00 0.  1.
          1   -1    0    0  501    0 -0.00000000000E+00 -0.00000000000E+00 -0.17752858862E+04  0.17752858862E+04  0.00000000000E+00 0.  1.
          2    1    1    2  501    0  0.33103237710E+02 -0.17049507685E+02 -0.19690700177E+03  0.20039679989E+03  0.00000000000E+00 0.  1.
          1    1    1    2  502    0  0.71854333420E+02  0.49425830253E+02 -0.12909505513E+04  0.12938930728E+04  0.00000000000E+00 0.  1.
         22    1    1    2    0    0  0.25484481857E+02 -0.47248593681E+01 -0.84567335907E+02  0.88450084307E+02  0.00000000000E+00 0.  1.
         22    1    1    2    0    0 -0.13044205299E+03 -0.27651463200E+02 -0.17522063434E+03  0.22018629227E+03  0.00000000000E+00 0.  1.
</event>
<event>
 6    1  0.1293624E-005  0.8057680E+02  0.7818608E-02  0.1328764E+00
          2   -1    0    0  502    0  0.00000000000E+00  0.00000000000E+00  0.36428696163E+02  0.36428696163E+02  0.00000000000E+00 0.  1.
          1   -1    0    0  501    0 -0.00000000000E+00 -0.00000000000E+00 -0.91573762906E+03  0.91573762906E+03  0.00000000000E+00 0.  1.
          2    1    1    2  501    0  0.38212491917E+02 -0.23116599343E+02 -0.26301308170E+02  0.51829822642E+02  0.00000000000E+00 0.  1.
          1    1    1    2  502    0 -0.12596135153E+02 -0.25329258788E+02 -0.66426825559E+03  0.66487032522E+03  0.00000000000E+00 0.  1.
         22    1    1    2    0    0 -0.48026825295E+02  0.72900045694E+02 -0.18166278065E+03  0.20154989081E+03  0.00000000000E+00 0.  1.
         22    1    1    2    0    0  0.22410468532E+02 -0.24454187563E+02 -0.70765884855E+01  0.33916286556E+02  0.00000000000E+00 0.  1.
</event>
<event>
 6    1  0.1293624E-005  0.7832772E+02  0.7818608E-02  0.1337334E+00
          2   -1    0    0  502    0  0.00000000000E+00  0.00000000000E+00  0.67597135106E+02  0.67597135106E+02  0.00000000000E+00 0. -1.
          1   -1    0    0  501    0 -0.00000000000E+00 -0.00000000000E+00 -0.95313585736E+03  0.95313585736E+03  0.00000000000E+00 0.  1.
          2    1    1    2  501    0  0.22960040426E+01  0.29628790752E+02 -0.14387080687E+02  0.33017040550E+02  0.00000000000E+00 0. -1.
          1    1    1    2  502    0 -0.86112169333E+00 -0.22772940972E+02 -0.86359405798E+03  0.86389469575E+03  0.00000000000E+00 0.  1.
         22    1    1    2    0    0 -0.18656800254E+02  0.55485817461E+02  0.12229139746E+01  0.58551239556E+02  0.00000000000E+00 0. -1.
         22    1    1    2    0    0  0.17221917905E+02 -0.62341667241E+02 -0.87804975647E+01  0.65270016609E+02  0.00000000000E+00 0. -1.
</event>
<event>
 6    1  0.1293624E-005  0.2592110E+03  0.7818608E-02  0.1107618E+00
          2   -1    0    0  502    0  0.00000000000E+00  0.00000000000E+00  0.20410187346E+04  0.20410187346E+04  0.00000000000E+00 0. -1.
          1   -1    0    0  501    0 -0.00000000000E+00 -0.00000000000E+00 -0.28986141474E+02  0.28986141474E+02  0.00000000000E+00 0. -1.
          2    1    1    2  501    0  0.62484447354E+02 -0.10236838573E+03  0.23306539393E+03  0.26211270554E+03  0.00000000000E+00 0. -1.
          1    1    1    2  502    0 -0.10106644953E+03  0.11718519601E+03  0.13531168457E+04  0.13619368544E+04  0.00000000000E+00 0. -1.
         22    1    1    2    0    0  0.76033737700E+02  0.22392356634E+02  0.27094003937E+03  0.28229603582E+03  0.00000000000E+00 0.  1.
         22    1    1    2    0    0 -0.37451735520E+02 -0.37209166908E+02  0.15491031414E+03  0.16365928028E+03  0.00000000000E+00 0.  1.
</event>
<event>
 6    1  0.1293624E-005  0.2791945E+03  0.7818608E-02  0.1096130E+00
          2   -1    0    0  502    0  0.00000000000E+00  0.00000000000E+00  0.55824351332E+02  0.55824351332E+02  0.00000000000E+00 0.  1.
          1   -1    0    0  501    0 -0.00000000000E+00 -0.00000000000E+00 -0.24977152937E+04  0.24977152937E+04  0.00000000000E+00 0. -1.
          2    1    1    2  501    0  0.96048671382E+02  0.24523678067E+02 -0.16306959344E+03  0.19083618725E+03  0.00000000000E+00 0.  1.
          1    1    1    2  502    0 -0.32126961164E+01  0.47922861950E+02 -0.21466745858E+04  0.21472118432E+04  0.00000000000E+00 0. -1.
         22    1    1    2    0    0 -0.97349083261E+02 -0.10144682418E+03 -0.10461553521E+03  0.17525042755E+03  0.00000000000E+00 0.  1.
         22    1    1    2    0    0  0.45131079953E+01  0.29000284168E+02 -0.27531227915E+02  0.40241187061E+02  0.00000000000E+00 0. -1.
</event>
<event>
 6    1  0.1293624E-005  0.1497395E+03  0.7818608E-02  0.1200793E+00
          2   -1    0    0  502    0  0.00000000000E+00  0.00000000000E+00  0.20852117476E+03  0.20852117476E+03  0.00000000000E+00 0.  1.
          1   -1    0    0  501    0 -0.00000000000E+00 -0.00000000000E+00 -0.15693309110E+04  0.15693309110E+04  0.00000000000E+00 0.  1.
          2    1    1    2  501    0  0.22186319427E+02  0.67677749360E+01  0.20753620186E+02  0.31124721655E+02  0.00000000000E+00 0.  1.
          1    1    1    2  502    0 -0.45808832567E+02 -0.99207889225E+01 -0.15420467836E+04  0.15427589423E+04  0.00000000000E+00 0.  1.
         22    1    1    2    0    0 -0.26170088716E+02  0.50676748041E+02  0.74652415164E+02  0.93946737172E+02  0.00000000000E+00 0.  1.
         22    1    1    2    0    0  0.49792601857E+02 -0.47523734055E+02  0.85831011942E+02  0.11002168472E+03  0.00000000000E+00 0.  1.
</event>
<event>
 6    1  0.1293624E-005  0.2049607E+03  0.7818608E-02  0.1145620E+00
          2   -1    0    0  502    0  0.00000000000E+00  0.00000000000E+00  0.26764423559E+02  0.26764423559E+02  0.00000000000E+00 0.  1.
          1   -1    0    0  501    0 -0.00000000000E+00 -0.00000000000E+00 -0.78327403846E+03  0.78327403846E+03  0.00000000000E+00 0. -1.
          2    1    1    2  501    0  0.33697378369E+02  0.11629951975E+01 -0.17127920971E+03  0.17456641586E+03  0.00000000000E+00 0.  1.
          1    1    1    2  502    0  0.23714746407E+02  0.75908008748E+02 -0.28544158557E+03  0.29631286465E+03  0.00000000000E+00 0. -1.
         22    1    1    2    0    0 -0.20777269458E+02  0.23526239986E+02 -0.16017777476E+03  0.16322407427E+03  0.00000000000E+00 0. -1.
         22    1    1    2    0    0 -0.36634855318E+02 -0.10059724393E+03 -0.13961104487E+03  0.17593510724E+03  0.00000000000E+00 0.  1.
</event>
<event>
 6    1  0.1293624E-005  0.1283208E+03  0.7818608E-02  0.1258300E+00
          2   -1    0    0  502    0  0.00000000000E+00  0.00000000000E+00  0.57820389615E+03  0.57820389615E+03  0.00000000000E+00 0.  1.
          1   -1    0    0  501    0 -0.00000000000E+00 -0.00000000000E+00 -0.24822302068E+03  0.24822302068E+03  0.00000000000E+00 0. -1.
          2    1    1    2  501    0  0.22093610172E+01  0.26281392910E+02  0.58890953852E+02  0.64527027942E+02  0.00000000000E+00 0.  1.
          1    1    1    2  502    0  0.14984672580E+01 -0.12604662192E+03 -0.21532419686E+03  0.24950852902E+03  0.00000000000E+00 0. -1.
         22    1    1    2    0    0  0.59427321433E+02  0.64216132346E+02  0.23561848632E+03  0.25133919169E+03  0.00000000000E+00 0.  1.
         22    1    1    2    0    0 -0.63135149708E+02  0.35549096662E+02  0.25079563216E+03  0.26105216818E+03  0.00000000000E+00 0. -1.
</event>
<event>
 6    1  0.1293624E-005  0.7715699E+02  0.7818608E-02  0.1339833E+00
          2   -1    0    0  502    0  0.00000000000E+00  0.00000000000E+00  0.32424585194E+02  0.32424585194E+02  0.00000000000E+00 0. -1.
          1   -1    0    0  501    0 -0.00000000000E+00 -0.00000000000E+00 -0.12293190739E+04  0.12293190739E+04  0.00000000000E+00 0. -1.
          2    1    1    2  501    0 -0.49031613438E+01 -0.24198765051E+02 -0.73396975907E+01  0.25758345869E+02  0.00000000000E+00 0. -1.
          1    1    1    2  502    0 -0.13787364824E+02  0.35473936122E+02 -0.10284334943E+04  0.10291374756E+04  0.00000000000E+00 0. -1.
         22    1    1    2    0    0  0.51938628788E+02  0.37961802259E+02 -0.11447077022E+03  0.13130985045E+03  0.00000000000E+00 0. -1.
         22    1    1    2    0    0 -0.33248102620E+02 -0.49236973330E+02 -0.46650526637E+02  0.75537987172E+02  0.00000000000E+00 0. -1.
</event>
<event>
 6    1  0.1293624E-005  0.1159434E+03  0.7818608E-02  0.1276857E+00
          2   -1    0    0  502    0  0.00000000000E+00  0.00000000000E+00  0.44730360666E+02  0.44730360666E+02  0.00000000000E+00 0.  1.
          1   -1    0    0  501    0 -0.00000000000E+00 -0.00000000000E+00 -0.89211869092E+03  0.89211869092E+03  0.00000000000E+00 0.  1.
          2    1    1    2  501    0 -0.77906687396E+02  0.67447835764E+02 -0.15620989087E+03  0.18713682828E+03  0.00000000000E+00 0.  1.
          1    1    1    2  502    0  0.88120490988E+02 -0.24253825758E+02 -0.55450743809E+03  0.56198929518E+03  0.00000000000E+00 0.  1.
         22    1    1    2    0    0 -0.48159090737E+02  0.13847383080E+02 -0.23306695781E+02  0.55265270352E+02  0.00000000000E+00 0. -1.
         22    1    1    2    0    0  0.37945287146E+02 -0.57041393086E+02 -0.11336430551E+03  0.13245765779E+03  0.00000000000E+00 0.  1.
</event>
<event>
 6    1  0.1293624E-005  0.2316883E+03  0.7818608E-02  0.1125457E+00
          2   -1    0    0  502    0  0.00000000000E+00  0.00000000000E+00  0.18136464026E+03  0.18136464026E+03  0.00000000000E+00 0. -1.
          1   -1    0    0  501    0 -0.00000000000E+00 -0.00000000000E+00 -0.48063567196E+03  0.48063567196E+03  0.00000000000E+00 0.  1.
          2    1    1    2  501    0  0.11057475962E+02  0.38517356433E+02 -0.14360296699E+02  0.42568446560E+02  0.00000000000E+00 0. -1.
          1    1    1    2  502    0  0.10900322112E+03 -0.36704547848E+01 -0.39613782291E+03  0.41087753552E+03  0.00000000000E+00 0.  1.
         22    1    1    2    0    0 -0.42330337749E+02 -0.77077554469E+02  0.57037559254E+02  0.10481455081E+03  0.00000000000E+00 0. -1.
         22    1    1    2    0    0 -0.77730359330E+02  0.42230652820E+02  0.54189528650E+02  0.10373977933E+03  0.00000000000E+00 0. -1.
</event>
<event>
 6    1  0.1293624E-005  0.4355704E+02  0.7818608E-02  0.1502965E+00
          2   -1    0    0  502    0  0.00000000000E+00  0.00000000000E+00  0.67059776681E+02  0.67059776681E+02  0.00000000000E+00 0. -1.
          1   -1    0    0  501    0 -0.00000000000E+00 -0.00000000000E+00 -0.15177664681E+03  0.15177664681E+03  0.00000000000E+00 0. -1.
          2    1    1    2  501    0  0.34773016853E+01 -0.22248290829E+02 -0.41635856068E+02  0.47335215034E+02  0.00000000000E+00 0. -1.
          1    1    1    2  502    0 -0.20142626330E+02  0.30788235198E+02 -0.30701411112E+02  0.47918863367E+02  0.00000000000E+00 0. -1.
         22    1    1    2    0    0 -0.12029087819E+02 -0.25391160183E+02 -0.59555933297E+02  0.65850733937E+02  0.00000000000E+00 0. -1.
         22    1    1    2    0    0  0.28694412464E+02  0.16851215814E+02  0.47176330349E+02  0.57731611152E+02  0.00000000000E+00 0. -1.
</event>
<event>
 6    1  0.1293624E-005  0.1264833E+03  0.7818608E-02  0.1266733E+00
          2   -1    0    0  502    0  0.00000000000E+00  0.00000000000E+00  0.66238703675E+02  0.66238703675E+02  0.00000000000E+00 0.  1.
          1   -1    0    0  501    0 -0.00000000000E+00 -0.00000000000E+00 -0.11410767943E+04  0.11410767943E+04  0.00000000000E+00 0.  1.
          2    1    1    2  501    0  0.20590297314E+02  0.16180519299E+02 -0.15818299675E+02  0.30593923463E+02  0.00000000000E+00 0.  1.
          1    1    1    2  502    0 -0.91764572081E+02 -0.80688171016E+02 -0.99699181481E+03  0.10044520877E+04  0.00000000000E+00 0.  1.
         22    1    1    2    0    0  0.56265265290E+02 -0.30805903499E+02 -0.27693301611E+02  0.69869182926E+02  0.00000000000E+00 0.  1.
         22    1    1    2    0    0  0.14909009477E+02  0.95313555216E+02 -0.34334674563E+02  0.10240030395E+03  0.00000000000E+00 0.  1.
</event>
<event>
 6    1  0.1293624E-005  0.8374721E+02  0.7818608E-02  0.1321877E+00
          2   -1    0    0  502    0  0.00000000000E+00  0.00000000000E+00  0.48751207268E+03  0.48751207268E+03  0.00000000000E+00 0.  1.
          1   -1    0    0  501    0 -0.00000000000E+00 -0.00000000000E+00 -0.10426792813E+03  0.10426792813E+03  0.00000000000E+00 0. -1.
          2    1    1    2  501    0 -0.28715446603E+02 -0.24136680385E+01  0.35307838582E+02  0.45574621582E+02  0.00000000000E+00 0.  1.
          1    1    1    2  502    0 -0.27170817710E+01 -0.22184068343E+02 -0.88167344281E+02  0.90956011451E+02  0.00000000000E+00 0. -1.
         22    1    1    2    0    0  0.71517271102E+02  0.44228828640E+02  0.31994335526E+03  0.33080909891E+03  0.00000000000E+00 0.  1.
         22    1    1    2    0    0 -0.40084742728E+02 -0.19631092258E+02  0.11616029499E+03  0.12444026886E+03  0.00000000000E+00 0.  1.
</event>
<event>
 6    1  0.1293624E-005  0.5397603E+02  0.7818608E-02  0.1428188E+00
          2   -1    0    0  502    0  0.00000000000E+00  0.00000000000E+00  0.72098761935E+02  0.72098761935E+02  0.00000000000E+00 0.  1.
          1   -1    0    0  501    0 -0.00000000000E+00 -0.00000000000E+00 -0.15132425226E+03  0.15132425226E+03  0.00000000000E+00 0.  1.
          2    1    1    2  501    0  0.32883513068E+02 -0.24049084025E+00  0.18449241038E+02  0.37706203235E+02  0.00000000000E+00 0.  1.
          1    1    1    2  502    0  0.13377623066E+02  0.18596112012E+02 -0.45931154976E+01  0.23363922848E+02  0.00000000000E+00 0.  1.
         22    1    1    2    0    0 -0.63159508400E+02 -0.10594676219E+02 -0.11620276703E+03  0.13268177618E+03  0.00000000000E+00 0.  1.
         22    1    1    2    0    0  0.16898372267E+02 -0.77609449528E+01  0.23121151166E+02  0.29671111929E+02  0.00000000000E+00 0.  1.
</event>
<event>
 6    1  0.1293624E-005  0.2321134E+03  0.7818608E-02  0.1125161E+00
          2   -1    0    0  502    0  0.00000000000E+00  0.00000000000E+00  0.17867180464E+03  0.17867180464E+03  0.00000000000E+00 0. -1.
          1   -1    0    0  501    0 -0.00000000000E+00 -0.00000000000E+00 -0.10718005857E+04  0.10718005857E+04  0.00000000000E+00 0. -1.
          2    1    1    2  501    0 -0.85184028225E+02 -0.16271485106E+01  0.52744032155E+02  0.10020428736E+03  0.00000000000E+00 0. -1.
          1    1    1    2  502    0  0.20014819533E+02 -0.23437901082E+02 -0.99607664311E+03  0.99655336392E+03  0.00000000000E+00 0. -1.
         22    1    1    2    0    0  0.97548410924E+01 -0.11839581150E+02  0.79506597905E+02  0.80973030800E+02  0.00000000000E+00 0. -1.
         22    1    1    2    0    0  0.55414367599E+02  0.36904630743E+02 -0.29302768018E+02  0.72741708257E+02  0.00000000000E+00 0. -1.
</event>
<event>
 6    1  0.1293624E-005  0.2176576E+03  0.7818608E-02  0.1135642E+00
          2   -1    0    0  502    0  0.00000000000E+00  0.00000000000E+00  0.12031766201E+03  0.12031766201E+03  0.00000000000E+00 0. -1.
          1   -1    0    0  501    0 -0.00000000000E+00 -0.00000000000E+00 -0.36127930914E+03  0.36127930914E+03  0.00000000000E+00 0. -1.
          2    1    1    2  501    0 -0.39316260319E+02 -0.52861662995E+02  0.17122720496E+02  0.68068430989E+02  0.00000000000E+00 0. -1.
          1    1    1    2  502    0 -0.17521896147E+02 -0.13177035051E+02 -0.26200855380E+03  0.26292419699E+03  0.00000000000E+00 0. -1.
         22    1    1    2    0    0  0.17470177509E+02  0.90642819121E+02 -0.25340605274E+02  0.95726036354E+02  0.00000000000E+00 0. -1.
         22    1    1    2    0    0  0.39367978957E+02 -0.24604121074E+02  0.29264791443E+02  0.54878306818E+02  0.00000000000E+00 0. -1.
</event>
<event>
 6    1  0.1293624E-005  0.9044938E+02  0.7818608E-02  0.1310075E+00
          2   -1    0    0  502    0  0.00000000000E+00  0.00000000000E+00  0.23239696125E+03  0.23239696125E+03  0.00000000000E+00 0.  1.
          1   -1    0    0  501    0 -0.00000000000E+00 -0.00000000000E+00 -0.23464478591E+04  0.23464478591E+04  0.00000000000E+00 0. -1.
          2    1    1    2  501    0 -0.54586913160E+02 -0.50953949659E+00  0.53359831521E+02  0.76336507248E+02  0.00000000000E+00 0.  1.
          1    1    1    2  502    0  0.47193539548E+02  0.18846428044E+02 -0.23121325934E+04  0.23126909753E+04  0.00000000000E+00 0. -1.
         22    1    1    2    0    0  0.52999322043E+02  0.24153412082E+02  0.51923595387E+02  0.78028041178E+02  0.00000000000E+00 0.  1.
         22    1    1    2    0    0 -0.45605948430E+02 -0.42490300630E+02  0.92798268607E+02  0.11178929661E+03  0.00000000000E+00 0.  1.
</event>
<event>
 6    1  0.1293624E-005  0.6687409E+02  0.7818608E-02  0.1378432E+00
          2   -1    0    0  502    0  0.00000000000E+00  0.00000000000E+00  0.23303868139E+03  0.23303868139E+03  0.00000000000E+00 0. -1.
          1   -1    0    0  501    0 -0.00000000000E+00 -0.00000000000E+00 -0.23458625368E+03  0.23458625368E+03  0.00000000000E+00 0. -1.
          2    1    1    2  501    0 -0.54392863707E+02 -0.28390073300E+02 -0.89150212301E+02  0.10822356600E+03  0.00000000000E+00 0. -1.
          1    1    1    2  502    0  0.25093386425E+02 -0.42492054092E+01 -0.11534667473E+03  0.11812107839E+03  0.00000000000E+00 0. -1.
         22    1    1    2    0    0  0.33467326576E+02  0.48431988195E+02  0.21374340556E+03  0.22170241958E+03  0.00000000000E+00 0. -1.
         22    1    1    2    0    0 -0.41678492939E+01 -0.15792709486E+02 -0.10794090818E+02  0.19577871111E+02  0.00000000000E+00 0. -1.
</event>
<event>
 6    1  0.1293624E-005  0.1715437E+03  0.7818608E-02  0.1232488E+00
          2   -1    0    0  502    0  0.00000000000E+00  0.00000000000E+00  0.44378519369E+03  0.44378519369E+03  0.00000000000E+00 0. -1.
          1   -1    0    0  501    0 -0.00000000000E+00 -0.00000000000E+00 -0.17875177569E+03  0.17875177569E+03  0.00000000000E+00 0. -1.
          2    1    1    2  501    0 -0.42312934927E+02 -0.83012906055E+02  0.16296073804E+02  0.94589053570E+02  0.00000000000E+00 0. -1.
          1    1    1    2  502    0  0.61500779284E+02  0.16625821286E+03 -0.57904322750E+02  0.18648605789E+03  0.00000000000E+00 0. -1.
         22    1    1    2    0    0 -0.37636364629E+02 -0.34407203394E+02  0.27653310563E+03  0.28119550156E+03  0.00000000000E+00 0. -1.
         22    1    1    2    0    0  0.18448520273E+02 -0.48838103410E+02  0.30108561318E+02  0.60266356365E+02  0.00000000000E+00 0. -1.
</event>
<event>
 6    1  0.1293624E-005  0.7494233E+03  0.7818608E-02  0.9636256E-01
          2   -1    0    0  502    0  0.00000000000E+00  0.00000000000E+00  0.14979969603E+04  0.14979969603E+04  0.00000000000E+00 0. -1.
          1   -1    0    0  501    0 -0.00000000000E+00 -0.00000000000E+00 -0.28299885485E+03  0.28299885485E+03  0.00000000000E+00 0. -1.
          2    1    1    2  501    0  0.96103628242E+02  0.28796379031E+03  0.22336633936E+03  0.37689729828E+03  0.00000000000E+00 0. -1.
          1    1    1    2  502    0  0.26068598439E+03 -0.41616445351E+03  0.22719404703E+03  0.54107963354E+03  0.00000000000E+00 0. -1.
         22    1    1    2    0    0 -0.36159182390E+03  0.10459944758E+03  0.71536535125E+03  0.80835467297E+03  0.00000000000E+00 0. -1.
         22    1    1    2    0    0  0.48022112659E+01  0.23601215625E+02  0.49072367801E+02  0.54664210354E+02  0.00000000000E+00 0. -1.
</event>
<event>
 6    1  0.1293624E-005  0.7447669E+02  0.7818608E-02  0.1349938E+00
          2   -1    0    0  502    0  0.00000000000E+00  0.00000000000E+00  0.93394970627E+02  0.93394970627E+02  0.00000000000E+00 0. -1.
          1   -1    0    0  501    0 -0.00000000000E+00 -0.00000000000E+00 -0.33252622664E+03  0.33252622664E+03  0.00000000000E+00 0. -1.
          2    1    1    2  501    0 -0.27548624347E+02 -0.23553679342E+01  0.54280600207E+01  0.28176910709E+02  0.00000000000E+00 0. -1.
          1    1    1    2  502    0  0.24078821440E+02  0.13435941599E+02 -0.27093561041E+03  0.27233512289E+03  0.00000000000E+00 0. -1.
         22    1    1    2    0    0  0.48598996724E+02 -0.43288829183E+02  0.25665709234E+02  0.69960802205E+02  0.00000000000E+00 0. -1.
         22    1    1    2    0    0 -0.45129193817E+02  0.32208255518E+02  0.71058514418E+00  0.55448361467E+02  0.00000000000E+00 0. -1.
</event>
<event>
 6    1  0.1293624E-005  0.7395172E+02  0.7818608E-02  0.1381309E+00
          2   -1    0    0  502    0  0.00000000000E+00  0.00000000000E+00  0.25592649063E+03  0.25592649063E+03  0.00000000000E+00 0.  1.
          1   -1    0    0  501    0 -0.00000000000E+00 -0.00000000000E+00 -0.11798020499E+04  0.11798020499E+04  0.00000000000E+00 0. -1.
          2    1    1    2  501    0 -0.31000631385E+02 -0.12220772228E+02  0.38605089850E+02  0.50997444862E+02  0.00000000000E+00 0.  1.
          1    1    1    2  502    0  0.62904948025E+02  0.12835469947E+02 -0.11525195016E+04  0.11543062779E+04  0.00000000000E+00 0. -1.
         22    1    1    2    0    0  0.20493685016E+02  0.36428821057E+02  0.15696251812E+02  0.44647759743E+02  0.00000000000E+00 0.  1.
         22    1    1    2    0    0 -0.52398001656E+02 -0.37043518775E+02  0.17434260066E+03  0.18577705797E+03  0.00000000000E+00 0.  1.
</event>
<event>
 6    1  0.1293624E-005  0.2559075E+03  0.7818608E-02  0.1109627E+00
          2   -1    0    0  502    0  0.00000000000E+00  0.00000000000E+00  0.51225953754E+03  0.51225953754E+03  0.00000000000E+00 0.  1.
          1   -1    0    0  501    0 -0.00000000000E+00 -0.00000000000E+00 -0.47596483626E+03  0.47596483626E+03  0.00000000000E+00 0. -1.
          2    1    1    2  501    0  0.53439854126E+02 -0.47193182635E+02  0.39798221100E+02  0.81651165937E+02  0.00000000000E+00 0.  1.
          1    1    1    2  502    0 -0.58141964428E+02 -0.13999716002E+02 -0.44186365806E+03  0.44589233274E+03  0.00000000000E+00 0. -1.
         22    1    1    2    0    0  0.50410247978E+02  0.61372314950E+02  0.37013097576E+03  0.37855606370E+03  0.00000000000E+00 0.  1.
         22    1    1    2    0    0 -0.45708137676E+02 -0.17941631361E+00  0.68229162477E+02  0.82124811429E+02  0.00000000000E+00 0.  1.
</event>
<event>
 6    1  0.1293624E-005  0.1967618E+03  0.7818608E-02  0.1152500E+00
          2   -1    0    0  502    0  0.00000000000E+00  0.00000000000E+00  0.89746329355E+02  0.89746329355E+02  0.00000000000E+00 0. -1.
          1   -1    0    0  501    0 -0.00000000000E+00 -0.00000000000E+00 -0.34657045981E+03  0.34657045981E+03  0.00000000000E+00 0. -1.
          2    1    1    2  501    0  0.65005225445E+02  0.22436720492E+02 -0.20699822791E+02  0.71816212830E+02  0.00000000000E+00 0. -1.
          1    1    1    2  502    0 -0.31178530080E+02 -0.10251093444E+02 -0.23620866393E+03  0.23847792051E+03  0.00000000000E+00 0. -1.
         22    1    1    2    0    0 -0.26262174724E+01 -0.58526548704E+02  0.26412477542E+02  0.64264087104E+02  0.00000000000E+00 0. -1.
         22    1    1    2    0    0 -0.31200477893E+02  0.46340921656E+02 -0.26328121273E+02  0.61758568721E+02  0.00000000000E+00 0.  1.
</event>
<event>
 6    1  0.1293624E-005  0.5869803E+02  0.7818608E-02  0.1405969E+00
          2   -1    0    0  502    0  0.00000000000E+00  0.00000000000E+00  0.33075351192E+03  0.33075351192E+03  0.00000000000E+00 0.  1.
          1   -1    0    0  501    0 -0.00000000000E+00 -0.00000000000E+00 -0.38573534194E+02  0.38573534194E+02  0.00000000000E+00 0.  1.
          2    1    1    2  501    0  0.32587444628E+01  0.27306795677E+02  0.91217873227E+02  0.95273190886E+02  0.00000000000E+00 0.  1.
          1    1    1    2  502    0  0.19279288663E+02 -0.34571846785E+02  0.42779733429E+01  0.39814628184E+02  0.00000000000E+00 0.  1.
         22    1    1    2    0    0 -0.31680776204E+02 -0.25426548161E+02  0.66088657959E+01  0.41156506647E+02  0.00000000000E+00 0. -1.
         22    1    1    2    0    0  0.91427430782E+01  0.32691599269E+02  0.19007526536E+03  0.19308272040E+03  0.00000000000E+00 0.  1.
</event>
<event>
 6    1  0.1293624E-005  0.2477979E+03  0.7818608E-02  0.1114704E+00
          2   -1    0    0  502    0  0.00000000000E+00  0.00000000000E+00  0.18657096800E+03  0.18657096800E+03  0.00000000000E+00 0. -1.
          1   -1    0    0  501    0 -0.00000000000E+00 -0.00000000000E+00 -0.15444893010E+04  0.15444893010E+04  0.00000000000E+00 0. -1.
          2    1    1    2  501    0 -0.31176200918E+02  0.62364906044E+01 -0.46990089910E+02  0.56735508004E+02  0.00000000000E+00 0. -1.
          1    1    1    2  502    0 -0.54690068914E+02  0.13420943892E+02 -0.14614277912E+04  0.14625123297E+04  0.00000000000E+00 0. -1.
         22    1    1    2    0    0 -0.13262426689E+02 -0.24255966077E+01 -0.13710524740E+02  0.19228987733E+02  0.00000000000E+00 0. -1.
         22    1    1    2    0    0  0.99128696521E+02 -0.17231837889E+02  0.16421007289E+03  0.19258344360E+03  0.00000000000E+00 0. -1.
</event>
<event>
 6    1  0.1293624E-005  0.6795867E+02  0.7818608E-02  0.1369209E+00
          2   -1    0    0  502    0  0.00000000000E+00  0.00000000000E+00  0.14122156657E+03  0.14122156657E+03  0.00000000000E+00 0. -1.
          1   -1    0    0  501    0 -0.00000000000E+00 -0.00000000000E+00 -0.51919439489E+03  0.51919439489E+03  0.00000000000E+00 0. -1.
          2    1    1    2  501    0  0.27531864156E+02 -0.61958902213E+01 -0.24981965857E+02  0.37689404581E+02  0.00000000000E+00 0. -1.
          1    1    1    2  502    0  0.38093449295E+01  0.27755979166E+02 -0.45662959000E+03  0.45748823805E+03  0.00000000000E+00 0. -1.
         22    1    1    2    0    0 -0.63838091986E+02 -0.21891219766E+02  0.11282297368E+03  0.13146691934E+03  0.00000000000E+00 0. -1.
         22    1    1    2    0    0  0.32496882900E+02  0.33113082143E+00 -0.91842461383E+01  0.33771399482E+02  0.00000000000E+00 0.  1.
</event>
<event>
 6    1  0.1293624E-005  0.2462067E+03  0.7818608E-02  0.1115726E+00
          2   -1    0    0  502    0  0.00000000000E+00  0.00000000000E+00  0.22296863725E+03  0.22296863725E+03  0.00000000000E+00 0.  1.
          1   -1    0    0  501    0 -0.00000000000E+00 -0.00000000000E+00 -0.12515347908E+03  0.12515347908E+03  0.00000000000E+00 0.  1.
          2    1    1    2  501    0 -0.29762293831E+02  0.23510737351E+02 -0.59451859543E+02  0.70520014946E+02  0.00000000000E+00 0.  1.
          1    1    1    2  502    0  0.56120060364E+02 -0.67630081590E+02  0.26837582361E+02  0.91888763938E+02  0.00000000000E+00 0.  1.
         22    1    1    2    0    0 -0.40251457932E+02 -0.36080702259E+01 -0.56807763656E+01  0.40810161192E+02  0.00000000000E+00 0.  1.
         22    1    1    2    0    0  0.13893691400E+02  0.47727414465E+02  0.13611021172E+03  0.14490317625E+03  0.00000000000E+00 0.  1.
</event>
<event>
 6    1  0.1293624E-005  0.9541623E+02  0.7818608E-02  0.1301453E+00
          2   -1    0    0  502    0  0.00000000000E+00  0.00000000000E+00  0.96544873578E+03  0.96544873578E+03  0.00000000000E+00 0.  1.
          1   -1    0    0  501    0 -0.00000000000E+00 -0.00000000000E+00 -0.15430823396E+03  0.15430823396E+03  0.00000000000E+00 0.  1.
          2    1    1    2  501    0  0.48462998407E+02  0.53452294402E+02  0.32598431398E+03  0.33387360325E+03  0.00000000000E+00 0.  1.
          1    1    1    2  502    0 -0.52211817494E+02 -0.28272226532E+02 -0.13815522962E+03  0.15037373491E+03  0.00000000000E+00 0.  1.
         22    1    1    2    0    0  0.60997483841E+02 -0.18849556600E+01  0.26778451380E+03  0.27465030843E+03  0.00000000000E+00 0.  1.
         22    1    1    2    0    0 -0.57248664754E+02 -0.23295112210E+02  0.35552690367E+03  0.36085932315E+03  0.00000000000E+00 0.  1.
</event>
<event>
 6    1  0.1293624E-005  0.2016222E+03  0.7818608E-02  0.1148378E+00
          2   -1    0    0  502    0  0.00000000000E+00  0.00000000000E+00  0.69623810217E+03  0.69623810217E+03  0.00000000000E+00 0. -1.
          1   -1    0    0  501    0 -0.00000000000E+00 -0.00000000000E+00 -0.10437792616E+03  0.10437792616E+03  0.00000000000E+00 0.  1.
          2    1    1    2  501    0  0.12828475757E+02  0.24055607523E+02  0.18985667512E+03  0.19180406443E+03  0.00000000000E+00 0. -1.
          1    1    1    2  502    0 -0.24598549716E+02  0.78270042492E+02 -0.70546667391E+02  0.10820406868E+03  0.00000000000E+00 0.  1.
         22    1    1    2    0    0 -0.45131998886E+02 -0.33229225940E+02  0.31015189564E+03  0.31517499448E+03  0.00000000000E+00 0. -1.
         22    1    1    2    0    0  0.56902072845E+02 -0.69096424075E+02  0.16239827264E+03  0.18543290073E+03  0.00000000000E+00 0. -1.
</event>
<event>
 6    1  0.1293624E-005  0.2900045E+03  0.7818608E-02  0.1090347E+00
          2   -1    0    0  502    0  0.00000000000E+00  0.00000000000E+00  0.30058547785E+03  0.30058547785E+03  0.00000000000E+00 0.  1.
          1   -1    0    0  501    0 -0.00000000000E+00 -0.00000000000E+00 -0.18985813208E+03  0.18985813208E+03  0.00000000000E+00 0. -1.
          2    1    1    2  501    0 -0.52787090206E+02 -0.84000051889E+02  0.26771491472E+02  0.10275796011E+03  0.00000000000E+00 0.  1.
          1    1    1    2  502    0 -0.82792348045E+02  0.11854873268E+03 -0.57002484160E+02  0.15542734031E+03  0.00000000000E+00 0. -1.
         22    1    1    2    0    0 -0.19767794489E+02 -0.20690564834E+02  0.22869309722E+02  0.36631550599E+02  0.00000000000E+00 0.  1.
         22    1    1    2    0    0  0.15534723274E+03 -0.13858115960E+02  0.11808902874E+03  0.19562675892E+03  0.00000000000E+00 0. -1.
</event>
<event>
 6    1  0.1293624E-005  0.7946894E+02  0.7818608E-02  0.1334324E+00
          2   -1    0    0  502    0  0.00000000000E+00  0.00000000000E+00  0.12037237775E+02  0.12037237775E+02  0.00000000000E+00 0.  1.
          1   -1    0    0  501    0 -0.00000000000E+00 -0.00000000000E+00 -0.11733131191E+04  0.11733131191E+04  0.00000000000E+00 0.  1.
          2    1    1    2  501    0 -0.20370989732E+02 -0.57109529972E+01 -0.17876313636E+03  0.18001069726E+03  0.00000000000E+00 0.  1.
          1    1    1    2  502    0 -0.12580035523E+02  0.28400336233E+02 -0.60338359378E+03  0.60418258634E+03  0.00000000000E+00 0.  1.
         22    1    1    2    0    0  0.72931325058E+02 -0.38885439577E+02 -0.19046849689E+03  0.20762780135E+03  0.00000000000E+00 0.  1.
         22    1    1    2    0    0 -0.39980299802E+02  0.16196056341E+02 -0.18866065430E+03  0.19352927193E+03  0.00000000000E+00 0.  1.
</event>
<event>
 6    1  0.1293624E-005  0.2044113E+03  0.7818608E-02  0.1191718E+00
          2   -1    0    0  502    0  0.00000000000E+00  0.00000000000E+00  0.31985404193E+03  0.31985404193E+03  0.00000000000E+00 0.  1.
          1   -1    0    0  501    0 -0.00000000000E+00 -0.00000000000E+00 -0.54350936380E+03  0.54350936380E+03  0.00000000000E+00 0.  1.
          2    1    1    2  501    0 -0.12113538244E+02 -0.45083159364E+02  0.82043674574E+02  0.94394881242E+02  0.00000000000E+00 0.  1.
          1    1    1    2  502    0  0.29055346386E+02  0.19921624389E+03 -0.46930476354E+03  0.51066455336E+03  0.00000000000E+00 0.  1.
         22    1    1    2    0    0  0.53837838782E+02 -0.47469588763E+02  0.54930170147E+02  0.90383617622E+02  0.00000000000E+00 0.  1.
         22    1    1    2    0    0 -0.70779646924E+02 -0.10666349576E+03  0.10867559695E+03  0.16792035350E+03  0.00000000000E+00 0.  1.
</event>
<event>
 6    1  0.1293624E-005  0.7439291E+02  0.7818608E-02  0.1362781E+00
          2   -1    0    0  502    0  0.00000000000E+00  0.00000000000E+00  0.23871378900E+03  0.23871378900E+03  0.00000000000E+00 0. -1.
          1   -1    0    0  501    0 -0.00000000000E+00 -0.00000000000E+00 -0.23231696051E+03  0.23231696051E+03  0.00000000000E+00 0. -1.
          2    1    1    2  501    0 -0.47567370820E+02 -0.31511091574E+01  0.77945824768E+01  0.48304655796E+02  0.00000000000E+00 0. -1.
          1    1    1    2  502    0  0.51135332777E+02 -0.53307119428E+02 -0.18123863756E+03  0.19571385997E+03  0.00000000000E+00 0. -1.
         22    1    1    2    0    0 -0.23384320002E+02  0.43518511791E+01 -0.12419349905E+02  0.26832914167E+02  0.00000000000E+00 0. -1.
         22    1    1    2    0    0  0.19816358045E+02  0.52106377407E+02  0.19226023348E+03  0.20017931958E+03  0.00000000000E+00 0. -1.
</event>
<event>
 6    1  0.1293624E-005  0.2873958E+03  0.7818608E-02  0.1170485E+00
          2   -1    0    0  502    0  0.00000000000E+00  0.00000000000E+00  0.11019971245E+03  0.11019971245E+03  0.00000000000E+00 0. -1.
          1   -1    0    0  501    0 -0.00000000000E+00 -0.00000000000E+00 -0.25805807467E+04  0.25805807467E+04  0.00000000000E+00 0.  1.
          2    1    1    2  501    0 -0.18171044130E+03  0.58116760946E+01 -0.10457515715E+03  0.20973417354E+03  0.00000000000E+00 0. -1.
          1    1    1    2  502    0  0.27273183445E+03 -0.24827986125E+02 -0.22888598596E+04  0.23051851421E+04  0.00000000000E+00 0.  1.
         22    1    1    2    0    0 -0.41143957738E+02 -0.60584638938E+01  0.32645410036E+02  0.52870152634E+02  0.00000000000E+00 0. -1.
         22    1    1    2    0    0 -0.49877435410E+02  0.25074773924E+02 -0.10959142752E+03  0.12299099087E+03  0.00000000000E+00 0. -1.
</event>
<event>
 6    1  0.1293624E-005  0.2330881E+03  0.7818608E-02  0.1175835E+00
          2   -1    0    0  502    0  0.00000000000E+00  0.00000000000E+00  0.66971449659E+03  0.66971449659E+03  0.00000000000E+00 0. -1.
          1   -1    0    0  501    0 -0.00000000000E+00 -0.00000000000E+00 -0.10488237659E+03  0.10488237659E+03  0.00000000000E+00 0. -1.
          2    1    1    2  501    0 -0.61674702051E+02 -0.13969990317E+03  0.16701849682E+03  0.22630733549E+03  0.00000000000E+00 0. -1.
          1    1    1    2  502    0  0.82837752790E+02  0.21199667605E+03  0.21207180094E+03  0.31109344689E+03  0.00000000000E+00 0. -1.
         22    1    1    2    0    0 -0.69641163183E+02 -0.23164537068E+02  0.64613305641E+02  0.97782240990E+02  0.00000000000E+00 0. -1.
         22    1    1    2    0    0  0.48478112444E+02 -0.49132235816E+02  0.12112851660E+03  0.13941384980E+03  0.00000000000E+00 0. -1.
</event>
<event>
 6    1  0.1293624E-005  0.2649297E+03  0.7818608E-02  0.1104217E+00
          2   -1    0    0  502    0  0.00000000000E+00  0.00000000000E+00  0.74933993313E+02  0.74933993313E+02  0.00000000000E+00 0. -1.
          1   -1    0    0  501    0 -0.00000000000E+00 -0.00000000000E+00 -0.93194443472E+03  0.93194443472E+03  0.00000000000E+00 0.  1.
          2    1    1    2  501    0 -0.23228922451E+02 -0.15303184117E+02 -0.16352617582E+03  0.16587519544E+03  0.00000000000E+00 0. -1.
          1    1    1    2  502    0 -0.51239634782E+02  0.34499509693E+02 -0.69202401305E+03  0.69477546804E+03  0.00000000000E+00 0.  1.
         22    1    1    2    0    0  0.14461486441E+01 -0.29619771848E+02 -0.49853920356E+02  0.58007203045E+02  0.00000000000E+00 0. -1.
         22    1    1    2    0    0  0.73022408589E+02  0.10423446273E+02  0.48393667825E+02  0.88220561514E+02  0.00000000000E+00 0. -1.
</event>
<event>
 6    1  0.1427994E-005  0.4448552E+03  0.7818608E-02  0.1029267E+00
          2   -1    0    0  502    0  0.00000000000E+00  0.00000000000E+00  0.33965244866E+03  0.33965244866E+03  0.00000000000E+00 0. -1.
          1   -1    0    0  501    0 -0.00000000000E+00 -0.00000000000E+00 -0.51216366981E+03  0.51216366981E+03  0.00000000000E+00 0. -1.
          2    1    1    2  501    0 -0.23067033603E+03 -0.19128626404E+03 -0.24796249016E+03  0.38895325588E+03  0.00000000000E+00 0. -1.
          1    1    1    2  502    0  0.25136078902E+03  0.20535070775E+03  0.87998148172E+02  0.33629575304E+03  0.00000000000E+00 0. -1.
         22    1    1    2    0    0 -0.44279003540E+02 -0.13983252638E+02  0.44821884746E+02  0.64538072957E+02  0.00000000000E+00 0. -1.
         22    1    1    2    0    0  0.23588550550E+02 -0.81191077591E-01 -0.57368763902E+02  0.62029036593E+02  0.00000000000E+00 0. -1.
</event>
<event>
 6    1  0.1293624E-005  0.1837938E+03  0.7818608E-02  0.1164181E+00
          2   -1    0    0  502    0  0.00000000000E+00  0.00000000000E+00  0.28013717881E+03  0.28013717881E+03  0.00000000000E+00 0. -1.
          1   -1    0    0  501    0 -0.00000000000E+00 -0.00000000000E+00 -0.12289861740E+04  0.12289861740E+04  0.00000000000E+00 0.  1.
          2    1    1    2  501    0 -0.38123414765E+02 -0.35009476682E+02  0.65405649856E+02  0.83408376342E+02  0.00000000000E+00 0. -1.
          1    1    1    2  502    0 -0.12489188633E+02  0.22700619828E+02 -0.11986850375E+04  0.11989650191E+04  0.00000000000E+00 0.  1.
         22    1    1    2    0    0 -0.30488406216E+02  0.26139238438E+02  0.10488955311E+03  0.11231483006E+03  0.00000000000E+00 0. -1.
         22    1    1    2    0    0  0.81101009614E+02 -0.13830381584E+02  0.79540839390E+02  0.11443512724E+03  0.00000000000E+00 0. -1.
</event>
<event>
 6    1  0.1293624E-005  0.8281731E+02  0.7818608E-02  0.1322337E+00
          2   -1    0    0  502    0  0.00000000000E+00  0.00000000000E+00  0.10051913021E+03  0.10051913021E+03  0.00000000000E+00 0. -1.
          1   -1    0    0  501    0 -0.00000000000E+00 -0.00000000000E+00 -0.80821952250E+03  0.80821952250E+03  0.00000000000E+00 0. -1.
          2    1    1    2  501    0 -0.10599287029E+01 -0.54735013490E+02 -0.35372962575E+02  0.65178920150E+02  0.00000000000E+00 0. -1.
          1    1    1    2  502    0 -0.20881306722E+02  0.91755543543E+00 -0.70486251354E+03  0.70517234338E+03  0.00000000000E+00 0. -1.
         22    1    1    2    0    0 -0.68740860661E+01 -0.23408062423E+02 -0.27240195596E+02  0.36568001063E+02  0.00000000000E+00 0. -1.
         22    1    1    2    0    0  0.28815321491E+02  0.77225520478E+02  0.59775279424E+02  0.10181938811E+03  0.00000000000E+00 0. -1.
</event>
<event>
 6    1  0.1293624E-005  0.1770017E+03  0.7818608E-02  0.1170737E+00
          2   -1    0    0  502    0  0.00000000000E+00  0.00000000000E+00  0.32129378443E+03  0.32129378443E+03  0.00000000000E+00 0. -1.
          1   -1    0    0  501    0 -0.00000000000E+00 -0.00000000000E+00 -0.10596345416E+03  0.10596345416E+03  0.00000000000E+00 0.  1.
          2    1    1    2  501    0 -0.29950837021E+02 -0.17321272237E+02  0.12509485885E+03  0.12979138192E+03  0.00000000000E+00 0. -1.
          1    1    1    2  502    0 -0.28577145521E+01  0.31376909072E+02 -0.78301538377E+02  0.84402653203E+02  0.00000000000E+00 0.  1.
         22    1    1    2    0    0  0.23522219596E+02 -0.43133979956E+02  0.17508150848E+03  0.18184435558E+03  0.00000000000E+00 0. -1.
         22    1    1    2    0    0  0.92863319777E+01  0.29078343120E+02 -0.65444986917E+01  0.31218847886E+02  0.00000000000E+00 0.  1.
</event>
<event>
 6    1  0.1293624E-005  0.2072170E+03  0.7818608E-02  0.1143789E+00
          2   -1    0    0  502    0  0.00000000000E+00  0.00000000000E+00  0.45003507314E+03  0.45003507314E+03  0.00000000000E+00 0.  1.
          1   -1    0    0  501    0 -0.00000000000E+00 -0.00000000000E+00 -0.36102832958E+02  0.36102832958E+02  0.00000000000E+00 0.  1.
          2    1    1    2  501    0  0.20824157379E+02  0.82270652966E+01 -0.67208101999E+01  0.23377327129E+02  0.00000000000E+00 0.  1.
          1    1    1    2  502    0  0.46442059994E+02  0.45399449919E+01  0.60029356656E+02  0.76032885632E+02  0.00000000000E+00 0.  1.
         22    1    1    2    0    0 -0.81609474704E+02  0.32588037110E+01  0.35530663533E+03  0.36457308084E+03  0.00000000000E+00 0.  1.
         22    1    1    2    0    0  0.14343257331E+02 -0.16025813999E+02  0.53170584036E+01  0.22154612506E+02  0.00000000000E+00 0. -1.
</event>
<event>
 6    1  0.1293624E-005  0.4897603E+02  0.7818608E-02  0.1454849E+00
          2   -1    0    0  502    0  0.00000000000E+00  0.00000000000E+00  0.62133683749E+02  0.62133683749E+02  0.00000000000E+00 0.  1.
          1   -1    0    0  501    0 -0.00000000000E+00 -0.00000000000E+00 -0.21868368040E+03  0.21868368040E+03  0.00000000000E+00 0. -1.
          2    1    1    2  501    0 -0.34869538189E+02  0.28668174251E+01 -0.30359817560E+02  0.46323016503E+02  0.00000000000E+00 0.  1.
          1    1    1    2  502    0  0.33346112261E+02  0.62912868577E+01 -0.10198786980E+03  0.10748520400E+03  0.00000000000E+00 0. -1.
         22    1    1    2    0    0 -0.41616496948E+02 -0.65672999768E+01 -0.58320784563E+02  0.71947037182E+02  0.00000000000E+00 0. -1.
         22    1    1    2    0    0  0.43139922876E+02 -0.25908043059E+01  0.34118475274E+02  0.55062106459E+02  0.00000000000E+00 0.  1.
</event>
<event>
 6    1  0.1293624E-005  0.4274044E+02  0.7818608E-02  0.1517734E+00
          2   -1    0    0  502    0  0.00000000000E+00  0.00000000000E+00  0.11983633052E+03  0.11983633052E+03  0.00000000000E+00 0. -1.
          1   -1    0    0  501    0 -0.00000000000E+00 -0.00000000000E+00 -0.42547592771E+03  0.42547592771E+03  0.00000000000E+00 0. -1.
          2    1    1    2  501    0  0.12441464229E+01 -0.46484462880E+02 -0.38861945127E+02  0.60602012909E+02  0.00000000000E+00 0. -1.
          1    1    1    2  502    0  0.24397772858E-01  0.37752948627E+02 -0.34034968314E+03  0.34243713663E+03  0.00000000000E+00 0. -1.
         22    1    1    2    0    0  0.68373828484E+01 -0.18938399245E+02 -0.29235886357E+02  0.35498589004E+02  0.00000000000E+00 0. -1.
         22    1    1    2    0    0 -0.81059270441E+01  0.27669913497E+02  0.10280791744E+03  0.10677451969E+03  0.00000000000E+00 0. -1.
</event>
<event>
 6    1  0.1293624E-005  0.2631651E+03  0.7818608E-02  0.1105256E+00
          2   -1    0    0  502    0  0.00000000000E+00  0.00000000000E+00  0.27163378276E+03  0.27163378276E+03  0.00000000000E+00 0.  1.
          1   -1    0    0  501    0 -0.00000000000E+00 -0.00000000000E+00 -0.89882150495E+02  0.89882150495E+02  0.00000000000E+00 0.  1.
          2    1    1    2  501    0 -0.19369796954E+02  0.24859769226E+02 -0.42289142573E+02  0.52740579629E+02  0.00000000000E+00 0.  1.
          1    1    1    2  502    0 -0.67650840125E+01  0.26101142599E+02 -0.16872833276E+02  0.31807680038E+02  0.00000000000E+00 0.  1.
         22    1    1    2    0    0  0.52074980503E+02 -0.22651186538E+02  0.23020419682E+03  0.23710514984E+03  0.00000000000E+00 0.  1.
         22    1    1    2    0    0 -0.25940099537E+02 -0.28309725286E+02  0.10709411301E+02  0.39862523756E+02  0.00000000000E+00 0.  1.
</event>
<event>
 6    1  0.1293624E-005  0.3308505E+03  0.7818608E-02  0.1070761E+00
          2   -1    0    0  502    0  0.00000000000E+00  0.00000000000E+00  0.10255941847E+04  0.10255941847E+04  0.00000000000E+00 0. -1.
          1   -1    0    0  501    0 -0.00000000000E+00 -0.00000000000E+00 -0.32540719286E+03  0.32540719286E+03  0.00000000000E+00 0.  1.
          2    1    1    2  501    0  0.54426179321E+02 -0.11126783161E+03  0.30109714994E+03  0.32557984128E+03  0.00000000000E+00 0. -1.
          1    1    1    2  502    0 -0.10698846222E+03 -0.40201402290E+02 -0.28749426015E+03  0.30937943275E+03  0.00000000000E+00 0.  1.
         22    1    1    2    0    0 -0.17420387847E+02 -0.14722835362E+02  0.85702601075E+02  0.88685780285E+02  0.00000000000E+00 0.  1.
         22    1    1    2    0    0  0.69982670745E+02  0.16619206927E+03  0.60088150101E+03  0.62735632327E+03  0.00000000000E+00 0. -1.
</event>
<event>
 6    1  0.1293624E-005  0.1793636E+03  0.7818608E-02  0.1168420E+00
          2   -1    0    0  502    0  0.00000000000E+00  0.00000000000E+00  0.25645881000E+03  0.25645881000E+03  0.00000000000E+00 0.  1.
          1   -1    0    0  501    0 -0.00000000000E+00 -0.00000000000E+00 -0.26280077863E+03  0.26280077863E+03  0.00000000000E+00 0.  1.
          2    1    1    2  501    0 -0.24738171243E+02  0.56920889525E+01  0.34280958122E+01  0.25615011887E+02  0.00000000000E+00 0.  1.
          1    1    1    2  502    0 -0.15262829364E+02 -0.56609695358E+02 -0.22725728833E+03  0.23469871467E+03  0.00000000000E+00 0.  1.
         22    1    1    2    0    0  0.68776919165E+02  0.56108546575E+02  0.21112060772E+03  0.22902040217E+03  0.00000000000E+00 0.  1.
         22    1    1    2    0    0 -0.28775918558E+02 -0.51909401699E+01  0.63666161771E+01  0.29925459901E+02  0.00000000000E+00 0.  1.
</event>
<event>
 6    1  0.1293624E-005  0.1835311E+03  0.7818608E-02  0.1164429E+00
          2   -1    0    0  502    0  0.00000000000E+00  0.00000000000E+00  0.25381363834E+02  0.25381363834E+02  0.00000000000E+00 0. -1.
          1   -1    0    0  501    0 -0.00000000000E+00 -0.00000000000E+00 -0.98111788937E+03  0.98111788937E+03  0.00000000000E+00 0. -1.
          2    1    1    2  501    0 -0.92912103038E+01  0.22574663929E+02 -0.29535544095E+02  0.38318277694E+02  0.00000000000E+00 0. -1.
          1    1    1    2  502    0 -0.66012185100E+01 -0.10963264814E+03 -0.55460333490E+03  0.56537399366E+03  0.00000000000E+00 0. -1.
         22    1    1    2    0    0 -0.25578977073E+02  0.18202596277E+02 -0.10855708728E+02  0.33218443541E+02  0.00000000000E+00 0.  1.
         22    1    1    2    0    0  0.41471405886E+02  0.68855387933E+02 -0.36074193782E+03  0.36958853831E+03  0.00000000000E+00 0.  1.
</event>
<event>
 6    1  0.1293624E-005  0.7676468E+02  0.7818608E-02  0.1339947E+00
          2   -1    0    0  502    0  0.00000000000E+00  0.00000000000E+00  0.10450393218E+03  0.10450393218E+03  0.00000000000E+00 0. -1.
          1   -1    0    0  501    0 -0.00000000000E+00 -0.00000000000E+00 -0.13695354212E+04  0.13695354212E+04  0.00000000000E+00 0. -1.
          2    1    1    2  501    0  0.49595523095E+01 -0.23462082356E+02  0.21790625099E+00  0.23981533535E+02  0.00000000000E+00 0. -1.
          1    1    1    2  502    0 -0.11365450052E+02 -0.17741683554E+02 -0.13130735963E+04  0.13132426318E+04  0.00000000000E+00 0. -1.
         22    1    1    2    0    0  0.29124199091E+02 -0.36373926948E+02  0.10434057485E+02  0.47750927634E+02  0.00000000000E+00 0. -1.
         22    1    1    2    0    0 -0.22718301348E+02  0.77577692858E+02  0.37390143527E+02  0.89064260387E+02  0.00000000000E+00 0. -1.
</event>
<event>
 6    1  0.1293624E-005  0.6283647E+02  0.7818608E-02  0.1387334E+00
          2   -1    0    0  502    0  0.00000000000E+00  0.00000000000E+00  0.22204946361E+03  0.22204946361E+03  0.00000000000E+00 0.  1.
          1   -1    0    0  501    0 -0.00000000000E+00 -0.00000000000E+00 -0.87764571440E+02  0.87764571440E+02  0.00000000000E+00 0.  1.
          2    1    1    2  501    0 -0.13200249841E+02  0.18499029512E+02 -0.10446191539E+02  0.25011669405E+02  0.00000000000E+00 0.  1.
          1    1    1    2  502    0  0.34345899892E+02  0.24928790130E+02 -0.38004294005E+02  0.56968515687E+02  0.00000000000E+00 0.  1.
         22    1    1    2    0    0 -0.23235804078E+02  0.21408198986E+02 -0.23774214367E+01  0.31683839850E+02  0.00000000000E+00 0.  1.
         22    1    1    2    0    0  0.20901540273E+01 -0.64836018628E+02  0.18511279915E+03  0.19615001011E+03  0.00000000000E+00 0.  1.
</event>
<event>
 6    1  0.1293624E-005  0.1773528E+03  0.7818608E-02  0.1170390E+00
          2   -1    0    0  502    0  0.00000000000E+00  0.00000000000E+00  0.10562269276E+02  0.10562269276E+02  0.00000000000E+00 0. -1.
          1   -1    0    0  501    0 -0.00000000000E+00 -0.00000000000E+00 -0.12557512934E+04  0.12557512934E+04  0.00000000000E+00 0. -1.
          2    1    1    2  501    0 -0.30102073414E+02 -0.33077414724E+02 -0.26368189089E+03  0.26744791973E+03  0.00000000000E+00 0. -1.
          1    1    1    2  502    0  0.47081474480E+02 -0.16848532818E+02 -0.36737546891E+03  0.37076309613E+03  0.00000000000E+00 0. -1.
         22    1    1    2    0    0 -0.33426724742E+02  0.84620280620E+02 -0.48170541820E+03  0.49022244720E+03  0.00000000000E+00 0. -1.
         22    1    1    2    0    0  0.16447323676E+02 -0.34694333078E+02 -0.13242624614E+03  0.13788009962E+03  0.00000000000E+00 0.  1.
</event>
<event>
 6    1  0.1293624E-005  0.1681494E+03  0.7818608E-02  0.1179792E+00
          2   -1    0    0  502    0  0.00000000000E+00  0.00000000000E+00  0.24818278066E+03  0.24818278066E+03  0.00000000000E+00 0.  1.
          1   -1    0    0  501    0 -0.00000000000E+00 -0.00000000000E+00 -0.74700455905E+02  0.74700455905E+02  0.00000000000E+00 0. -1.
          2    1    1    2  501    0 -0.17209573735E+02 -0.10573834234E+02  0.27775465123E+02  0.34343148681E+02  0.00000000000E+00 0.  1.
          1    1    1    2  502    0  0.69769513145E+02 -0.35569168550E+02 -0.39746923621E+01  0.78413958548E+02  0.00000000000E+00 0. -1.
         22    1    1    2    0    0 -0.28978429307E+01 -0.37879802948E+02  0.92368430481E+01  0.39097266331E+02  0.00000000000E+00 0.  1.
         22    1    1    2    0    0 -0.49662096479E+02  0.84022805732E+02  0.14044470895E+03  0.17102886300E+03  0.00000000000E+00 0.  1.
</event>
<event>
 6    1  0.1293624E-005  0.1305939E+03  0.7818608E-02  0.1318949E+00
          2   -1    0    0  502    0  0.00000000000E+00  0.00000000000E+00  0.19050564594E+03  0.19050564594E+03  0.00000000000E+00 0. -1.
          1   -1    0    0  501    0 -0.00000000000E+00 -0.00000000000E+00 -0.29292679792E+03  0.29292679792E+03  0.00000000000E+00 0. -1.
          2    1    1    2  501    0 -0.41143594168E+01 -0.28706987505E+02  0.16248257284E+02  0.33241915556E+02  0.00000000000E+00 0. -1.
          1    1    1    2  502    0  0.67006450580E+02  0.10521637624E+03 -0.22566368560E+03  0.25784578579E+03  0.00000000000E+00 0. -1.
         22    1    1    2    0    0  0.57380564621E+01  0.21242594287E+02  0.60150148102E+02  0.64048523954E+02  0.00000000000E+00 0. -1.
         22    1    1    2    0    0 -0.68630147625E+02 -0.97751983021E+02  0.46844128241E+02  0.12829621857E+03  0.00000000000E+00 0. -1.
</event>
<event>
 6    1  0.1293624E-005  0.1084135E+03  0.7818608E-02  0.1274893E+00
          2   -1    0    0  502    0  0.00000000000E+00  0.00000000000E+00  0.65686166044E+03  0.65686166044E+03  0.00000000000E+00 0. -1.
          1   -1    0    0  501    0 -0.00000000000E+00 -0.00000000000E+00 -0.96306781631E+03  0.96306781631E+03  0.00000000000E+00 0.  1.
          2    1    1    2  501    0 -0.23163166113E+02 -0.98406001487E+02  0.34546095924E+03  0.35994936832E+03  0.00000000000E+00 0. -1.
          1    1    1    2  502    0  0.88300119471E+02  0.53039108410E+02 -0.93538739110E+03  0.94104177885E+03  0.00000000000E+00 0.  1.
         22    1    1    2    0    0 -0.34588650079E+02  0.79840760835E+02  0.11599125632E+03  0.14499963223E+03  0.00000000000E+00 0.  1.
         22    1    1    2    0    0 -0.30548303280E+02 -0.34473867759E+02  0.16772901967E+03  0.17393869734E+03  0.00000000000E+00 0. -1.
</event>
<event>
 6    1  0.1293624E-005  0.1799457E+03  0.7818608E-02  0.1167856E+00
          2   -1    0    0  502    0  0.00000000000E+00  0.00000000000E+00  0.33589455086E+03  0.33589455086E+03  0.00000000000E+00 0.  1.
          1   -1    0    0  501    0 -0.00000000000E+00 -0.00000000000E+00 -0.11206970089E+03  0.11206970089E+03  0.00000000000E+00 0.  1.
          2    1    1    2  501    0  0.22902738337E+02 -0.40410581879E+02  0.88623954993E+02  0.10005876248E+03  0.00000000000E+00 0.  1.
          1    1    1    2  502    0 -0.13955855867E+02  0.75623320199E+02 -0.69624401205E+02  0.10373625072E+03  0.00000000000E+00 0.  1.
         22    1    1    2    0    0 -0.45065437332E+02 -0.52718371416E+02  0.18847304180E+03  0.20082880225E+03  0.00000000000E+00 0.  1.
         22    1    1    2    0    0  0.36118554861E+02  0.17505633097E+02  0.16352254376E+02  0.43340436299E+02  0.00000000000E+00 0.  1.
</event>
<event>
 6    1  0.1293624E-005  0.1124679E+03  0.7818608E-02  0.1280486E+00
          2   -1    0    0  502    0  0.00000000000E+00  0.00000000000E+00  0.19666911192E+03  0.19666911192E+03  0.00000000000E+00 0. -1.
          1   -1    0    0  501    0 -0.00000000000E+00 -0.00000000000E+00 -0.18424511017E+04  0.18424511017E+04  0.00000000000E+00 0. -1.
          2    1    1    2  501    0 -0.96597840181E+02 -0.39404933317E+02  0.10781542541E+02  0.10488151962E+03  0.00000000000E+00 0. -1.
          1    1    1    2  502    0  0.10894561145E+03 -0.58881887984E+01 -0.17611222599E+04  0.17644986346E+04  0.00000000000E+00 0. -1.
         22    1    1    2    0    0 -0.28689447416E+02 -0.22813361561E+02 -0.76711580088E+01  0.37448371446E+02  0.00000000000E+00 0. -1.
         22    1    1    2    0    0  0.16341676148E+02  0.68106483676E+02  0.11222988558E+03  0.13229168801E+03  0.00000000000E+00 0. -1.
</event>
<event>
 6    1  0.1293624E-005  0.4715259E+03  0.7818608E-02  0.1021490E+00
          2   -1    0    0  502    0  0.00000000000E+00  0.00000000000E+00  0.18796763140E+03  0.18796763140E+03  0.00000000000E+00 0.  1.
          1   -1    0    0  501    0 -0.00000000000E+00 -0.00000000000E+00 -0.12143658021E+04  0.12143658021E+04  0.00000000000E+00 0. -1.
          2    1    1    2  501    0  0.36965478499E+02  0.29975248328E+03 -0.10470133385E+03  0.31965663945E+03  0.00000000000E+00 0.  1.
          1    1    1    2  502    0 -0.43226527042E+02 -0.38959489085E+03 -0.77377505163E+03  0.86739872154E+03  0.00000000000E+00 0. -1.
         22    1    1    2    0    0 -0.25190426276E+02 -0.26015139194E+02 -0.38277154380E+02  0.52692367481E+02  0.00000000000E+00 0. -1.
         22    1    1    2    0    0  0.31451474820E+02  0.11585754676E+03 -0.10964463088E+03  0.16258570506E+03  0.00000000000E+00 0. -1.
</event>
<event>
 6    1  0.1293624E-005  0.1308044E+03  0.7818608E-02  0.1226636E+00
          2   -1    0    0  502    0  0.00000000000E+00  0.00000000000E+00  0.60198455164E+03  0.60198455164E+03  0.00000000000E+00 0.  1.
          1   -1    0    0  501    0 -0.00000000000E+00 -0.00000000000E+00 -0.15992735232E+03  0.15992735232E+03  0.00000000000E+00 0. -1.
          2    1    1    2  501    0 -0.51441725089E+02 -0.74419550134E+02  0.10684478615E+02  0.91097083409E+02  0.00000000000E+00 0.  1.
          1    1    1    2  502    0  0.24947682318E+02 -0.40750407938E+02 -0.10053323064E+03  0.11130998636E+03  0.00000000000E+00 0. -1.
         22    1    1    2    0    0 -0.72971904659E+01 -0.15486432649E+02  0.87570837885E+01  0.19229277193E+02  0.00000000000E+00 0.  1.
         22    1    1    2    0    0  0.33791233237E+02  0.13065639072E+03  0.52314886755E+03  0.54027555701E+03  0.00000000000E+00 0.  1.
</event>
<event>
 6    1  0.1293624E-005  0.7913377E+02  0.7818608E-02  0.1333956E+00
          2   -1    0    0  502    0  0.00000000000E+00  0.00000000000E+00  0.59803843714E+03  0.59803843714E+03  0.00000000000E+00 0. -1.
          1   -1    0    0  501    0 -0.00000000000E+00 -0.00000000000E+00 -0.97185681978E+03  0.97185681978E+03  0.00000000000E+00 0.  1.
          2    1    1    2  501    0  0.26842234985E+02 -0.80498105580E+01  0.12895828721E+03  0.13196796911E+03  0.00000000000E+00 0. -1.
          1    1    1    2  502    0  0.29111446935E+02 -0.20257180128E+02 -0.95989068991E+03  0.96054566069E+03  0.00000000000E+00 0.  1.
         22    1    1    2    0    0  0.38668389148E+02  0.14680794694E+02  0.16042484136E+03  0.16567105896E+03  0.00000000000E+00 0.  1.
         22    1    1    2    0    0 -0.94622071067E+02  0.13626195992E+02  0.29668917870E+03  0.31171056817E+03  0.00000000000E+00 0.  1.
</event>
<event>
 6    1  0.1293624E-005  0.1087712E+03  0.7818608E-02  0.1263867E+00
          2   -1    0    0  502    0  0.00000000000E+00  0.00000000000E+00  0.25296619712E+03  0.25296619712E+03  0.00000000000E+00 0. -1.
          1   -1    0    0  501    0 -0.00000000000E+00 -0.00000000000E+00 -0.32913923537E+03  0.32913923537E+03  0.00000000000E+00 0. -1.
          2    1    1    2  501    0  0.61353433534E+02 -0.62101899912E+02  0.15909566658E+03  0.18147264506E+03  0.00000000000E+00 0. -1.
          1    1    1    2  502    0 -0.32898053880E+01  0.40107096079E+02 -0.25424181964E+03  0.25740688575E+03  0.00000000000E+00 0. -1.
         22    1    1    2    0    0 -0.83193377213E+02  0.31444302154E+02 -0.24392814735E+02  0.92221968970E+02  0.00000000000E+00 0. -1.
         22    1    1    2    0    0  0.25129749067E+02 -0.94494983217E+01  0.43365929547E+02  0.51003932713E+02  0.00000000000E+00 0. -1.
</event>
<event>
 6    1  0.1293624E-005  0.7277057E+02  0.7818608E-02  0.1354171E+00
          2   -1    0    0  502    0  0.00000000000E+00  0.00000000000E+00  0.13573650159E+03  0.13573650159E+03  0.00000000000E+00 0.  1.
          1   -1    0    0  501    0 -0.00000000000E+00 -0.00000000000E+00 -0.13316775393E+03  0.13316775393E+03  0.00000000000E+00 0. -1.
          2    1    1    2  501    0  0.88114407184E+01  0.28075101834E+02  0.81787132793E-01  0.29425490984E+02  0.00000000000E+00 0.  1.
          1    1    1    2  502    0  0.20843994789E+02 -0.12535628860E+02 -0.83555024191E+02  0.87023308242E+02  0.00000000000E+00 0. -1.
         22    1    1    2    0    0 -0.13675858414E+02  0.49191900757E+02  0.11293904676E+02  0.52291724835E+02  0.00000000000E+00 0.  1.
         22    1    1    2    0    0 -0.15979577094E+02 -0.64731373730E+02  0.74748080047E+02  0.10016373146E+03  0.00000000000E+00 0.  1.
</event>
<event>
 6    1  0.1293624E-005  0.2352040E+03  0.7818608E-02  0.1123030E+00
          2   -1    0    0  502    0  0.00000000000E+00  0.00000000000E+00  0.36351738875E+02  0.36351738875E+02  0.00000000000E+00 0. -1.
          1   -1    0    0  501    0 -0.00000000000E+00 -0.00000000000E+00 -0.96735117796E+03  0.96735117796E+03  0.00000000000E+00 0.  1.
          2    1    1    2  501    0 -0.92952248334E+02 -0.70578098669E+01 -0.19232296542E+03  0.21372425267E+03  0.00000000000E+00 0. -1.
          1    1    1    2  502    0  0.46295716904E+02  0.20490116609E+02 -0.57374545083E+03  0.57597480903E+03  0.00000000000E+00 0.  1.
         22    1    1    2    0    0  0.78803959416E+02 -0.24939829040E+02 -0.15920360411E+03  0.17938184595E+03  0.00000000000E+00 0.  1.
         22    1    1    2    0    0 -0.32147427987E+02  0.11507522298E+02 -0.57274187217E+01  0.34622009197E+02  0.00000000000E+00 0. -1.
</event>
<event>
 6    1  0.1293624E-005  0.1798303E+03  0.7818608E-02  0.1167967E+00
          2   -1    0    0  502    0  0.00000000000E+00  0.00000000000E+00  0.38504452870E+02  0.38504452870E+02  0.00000000000E+00 0.  1.
          1   -1    0    0  501    0 -0.00000000000E+00 -0.00000000000E+00 -0.42040532223E+03  0.42040532223E+03  0.00000000000E+00 0.  1.
          2    1    1    2  501    0 -0.21773472259E+02 -0.34910528031E+02 -0.23557917397E+02  0.47411017007E+02  0.00000000000E+00 0.  1.
          1    1    1    2  502    0  0.99400236269E+01  0.63659421138E+02 -0.16514091798E+03  0.17726491125E+03  0.00000000000E+00 0.  1.
         22    1    1    2    0    0 -0.29579871585E+02  0.33300557530E+02 -0.27071735433E+02  0.52122689821E+02  0.00000000000E+00 0. -1.
         22    1    1    2    0    0  0.41413320217E+02 -0.62049450637E+02 -0.16613029856E+03  0.18211115703E+03  0.00000000000E+00 0.  1.
</event>
<event>
 6    1  0.1293624E-005  0.2050656E+03  0.7818608E-02  0.1177842E+00
          2   -1    0    0  502    0  0.00000000000E+00  0.00000000000E+00  0.62696507643E+02  0.62696507643E+02  0.00000000000E+00 0. -1.
          1   -1    0    0  501    0 -0.00000000000E+00 -0.00000000000E+00 -0.14973699836E+04  0.14973699836E+04  0.00000000000E+00 0.  1.
          2    1    1    2  501    0  0.72934700687E+02  0.17347374833E+02 -0.57099758988E+02  0.94237914103E+02  0.00000000000E+00 0. -1.
          1    1    1    2  502    0 -0.21217531441E+03 -0.94155180752E+01 -0.11615322101E+04  0.11807896049E+04  0.00000000000E+00 0.  1.
         22    1    1    2    0    0  0.45420384238E+02 -0.32034893971E+02 -0.87956470208E+01  0.56272632270E+02  0.00000000000E+00 0.  1.
         22    1    1    2    0    0  0.93820229481E+02  0.24103037213E+02 -0.20724585985E+03  0.22876633993E+03  0.00000000000E+00 0. -1.
</event>
<event>
 6    1  0.1293624E-005  0.7016515E+02  0.7818608E-02  0.1369704E+00
          2   -1    0    0  502    0  0.00000000000E+00  0.00000000000E+00  0.54022203801E+03  0.54022203801E+03  0.00000000000E+00 0.  1.
          1   -1    0    0  501    0 -0.00000000000E+00 -0.00000000000E+00 -0.96516033916E+02  0.96516033916E+02  0.00000000000E+00 0.  1.
          2    1    1    2  501    0  0.90254789545E+01 -0.21794106133E+02  0.72558401360E+02  0.76296552612E+02  0.00000000000E+00 0.  1.
          1    1    1    2  502    0  0.31356809760E+00  0.24173214389E+02 -0.84689337078E+02  0.88072279598E+02  0.00000000000E+00 0.  1.
         22    1    1    2    0    0  0.26340607049E+02  0.47263783341E+02  0.30238150900E+03  0.30718442308E+03  0.00000000000E+00 0.  1.
         22    1    1    2    0    0 -0.35679654101E+02 -0.49642891598E+02  0.15345543081E+03  0.16518481663E+03  0.00000000000E+00 0.  1.
</event>
<event>
 6    1  0.1351387E-005  0.4363507E+03  0.7818608E-02  0.1031872E+00
          2   -1    0    0  502    0  0.00000000000E+00  0.00000000000E+00  0.58200604438E+03  0.58200604438E+03  0.00000000000E+00 0. -1.
          1   -1    0    0  501    0 -0.00000000000E+00 -0.00000000000E+00 -0.56915657336E+03  0.56915657336E+03  0.00000000000E+00 0. -1.
          2    1    1    2  501    0 -0.16099546898E+03 -0.13978654023E+03 -0.14767051827E+03  0.25935766776E+03  0.00000000000E+00 0. -1.
          1    1    1    2  502    0  0.23777055598E+03  0.29682705101E+03  0.41135292627E+03  0.56022528099E+03  0.00000000000E+00 0. -1.
         22    1    1    2    0    0 -0.10817003396E+03 -0.14943445739E+03 -0.21018254975E+03  0.27965714280E+03  0.00000000000E+00 0. -1.
         22    1    1    2    0    0  0.31394946962E+02 -0.76060533900E+01 -0.40650387248E+02  0.51922526194E+02  0.00000000000E+00 0.  1.
</event>
<event>
 6    1  0.1293624E-005  0.8692036E+02  0.7818608E-02  0.1370121E+00
          2   -1    0    0  502    0  0.00000000000E+00  0.00000000000E+00  0.14292648745E+03  0.14292648745E+03  0.00000000000E+00 0. -1.
          1   -1    0    0  501    0 -0.00000000000E+00 -0.00000000000E+00 -0.69079676582E+03  0.69079676582E+03  0.00000000000E+00 0. -1.
          2    1    1    2  501    0 -0.20237041700E+02  0.28044618958E+02 -0.27221351632E+00  0.34584860987E+02  0.00000000000E+00 0. -1.
          1    1    1    2  502    0  0.37645215606E+02 -0.76758264474E+02 -0.63511200183E+03  0.64084026738E+03  0.00000000000E+00 0. -1.
         22    1    1    2    0    0 -0.38743718273E+02  0.26318639568E+02 -0.16595766503E+02  0.49690702955E+02  0.00000000000E+00 0. -1.
         22    1    1    2    0    0  0.21335544367E+02  0.22395005947E+02  0.10410970348E+03  0.10860742195E+03  0.00000000000E+00 0. -1.
</event>
<event>
 6    1  0.1293624E-005  0.2712254E+03  0.7818608E-02  0.1100580E+00
          2   -1    0    0  502    0  0.00000000000E+00  0.00000000000E+00  0.66308846843E+03  0.66308846843E+03  0.00000000000E+00 0.  1.
          1   -1    0    0  501    0 -0.00000000000E+00 -0.00000000000E+00 -0.63981592517E+02  0.63981592517E+02  0.00000000000E+00 0.  1.
          2    1    1    2  501    0  0.81119600110E+02 -0.11150935326E+03  0.21658325930E+03  0.25675481221E+03  0.00000000000E+00 0.  1.
          1    1    1    2  502    0 -0.42656757952E+02  0.13063516681E+03  0.24647053289E+03  0.28219296482E+03  0.00000000000E+00 0.  1.
         22    1    1    2    0    0  0.27525312775E+02 -0.16652010695E+02  0.11407800316E+03  0.11852730955E+03  0.00000000000E+00 0.  1.
         22    1    1    2    0    0 -0.65988154933E+02 -0.24738028602E+01  0.21975080562E+02  0.69594974371E+02  0.00000000000E+00 0.  1.
</event>
<event>
 6    1  0.1293624E-005  0.1514722E+03  0.7818608E-02  0.1198676E+00
          2   -1    0    0  502    0  0.00000000000E+00  0.00000000000E+00  0.60384947644E+03  0.60384947644E+03  0.00000000000E+00 0. -1.
          1   -1    0    0  501    0 -0.00000000000E+00 -0.00000000000E+00 -0.48266137370E+02  0.48266137370E+02  0.00000000000E+00 0. -1.
          2    1    1    2  501    0  0.52275642859E+01  0.20501742520E+02  0.35382674024E+01  0.21451531669E+02  0.00000000000E+00 0. -1.
          1    1    1    2  502    0  0.22200580692E+02 -0.47867482587E+02  0.47989276325E+03  0.48278486502E+03  0.00000000000E+00 0. -1.
         22    1    1    2    0    0 -0.64361106330E+02  0.31967060291E+02  0.61741397912E+01  0.72127421649E+02  0.00000000000E+00 0. -1.
         22    1    1    2    0    0  0.36932961351E+02 -0.46013202245E+01  0.65978168626E+02  0.75751795472E+02  0.00000000000E+00 0. -1.
</event>
<event>
 6    1  0.1293624E-005  0.2426780E+03  0.7818608E-02  0.1200955E+00
          2   -1    0    0  502    0  0.00000000000E+00  0.00000000000E+00  0.86102807464E+02  0.86102807464E+02  0.00000000000E+00 0. -1.
          1   -1    0    0  501    0 -0.00000000000E+00 -0.00000000000E+00 -0.80844502464E+03  0.80844502464E+03  0.00000000000E+00 0. -1.
          2    1    1    2  501    0 -0.90760681618E+02  0.10010479949E+03 -0.17046668020E+03  0.21752554164E+03  0.00000000000E+00 0. -1.
          1    1    1    2  502    0  0.17010321819E+03 -0.12624332692E+03 -0.45247478164E+03  0.49960575502E+03  0.00000000000E+00 0. -1.
         22    1    1    2    0    0 -0.10954904391E+03  0.83531353378E+01 -0.61987566416E+02  0.12614763685E+03  0.00000000000E+00 0.  1.
         22    1    1    2    0    0  0.30206507339E+02  0.17785392099E+02 -0.37413188921E+02  0.51268898593E+02  0.00000000000E+00 0. -1.
</event>
<event>
 6    1  0.1293624E-005  0.7373986E+02  0.7818608E-02  0.1351560E+00
          2   -1    0    0  502    0  0.00000000000E+00  0.00000000000E+00  0.21116103762E+03  0.21116103762E+03  0.00000000000E+00 0. -1.
          1   -1    0    0  501    0 -0.00000000000E+00 -0.00000000000E+00 -0.60553897009E+02  0.60553897009E+02  0.00000000000E+00 0. -1.
          2    1    1    2  501    0  0.66222288081E+01 -0.28601502982E+02  0.35028598221E+02  0.45704513788E+02  0.00000000000E+00 0. -1.
          1    1    1    2  502    0  0.16680997957E+02  0.22832935844E+02 -0.26030585320E+02  0.38434229850E+02  0.00000000000E+00 0. -1.
         22    1    1    2    0    0 -0.56773045219E+01 -0.48561932940E+02  0.11419177157E+03  0.12421857273E+03  0.00000000000E+00 0. -1.
         22    1    1    2    0    0 -0.17625922244E+02  0.54330500079E+02  0.27417356142E+02  0.63357618260E+02  0.00000000000E+00 0. -1.
</event>
<event>
 6    1  0.1293624E-005  0.8384880E+02  0.7818608E-02  0.1320278E+00
          2   -1    0    0  502    0  0.00000000000E+00  0.00000000000E+00  0.23843369211E+02  0.23843369211E+02  0.00000000000E+00 0.  1.
          1   -1    0    0  501    0 -0.00000000000E+00 -0.00000000000E+00 -0.10472281175E+04  0.10472281175E+04  0.00000000000E+00 0. -1.
          2    1    1    2  501    0 -0.22505119792E+01  0.30274394023E+02 -0.82904580205E+02  0.88288012531E+02  0.00000000000E+00 0.  1.
          1    1    1    2  502    0 -0.86488699338E+01  0.23404073930E+02 -0.75237568312E+03  0.75278929468E+03  0.00000000000E+00 0. -1.
         22    1    1    2    0    0  0.45249627071E+01 -0.92684215671E+02 -0.12995169633E+03  0.15968181644E+03  0.00000000000E+00 0.  1.
         22    1    1    2    0    0  0.63744192059E+01  0.39005747718E+02 -0.58152788677E+02  0.70312363110E+02  0.00000000000E+00 0. -1.
</event>
<event>
 6    1  0.1293624E-005  0.1011082E+03  0.7818608E-02  0.1279243E+00
          2   -1    0    0  502    0  0.00000000000E+00  0.00000000000E+00  0.41971946348E+03  0.41971946348E+03  0.00000000000E+00 0. -1.
          1   -1    0    0  501    0 -0.00000000000E+00 -0.00000000000E+00 -0.88450937794E+02  0.88450937794E+02  0.00000000000E+00 0. -1.
          2    1    1    2  501    0  0.57767250630E+01  0.53351295960E+02  0.71557117631E+02  0.89443571131E+02  0.00000000000E+00 0. -1.
          1    1    1    2  502    0 -0.32341780174E+02  0.23699308850E+02 -0.56529573288E+02  0.69305415668E+02  0.00000000000E+00 0. -1.
         22    1    1    2    0    0  0.20883680742E+02  0.31490462332E+02  0.57799042138E+02  0.69054374309E+02  0.00000000000E+00 0.  1.
         22    1    1    2    0    0  0.56813743697E+01 -0.10854106714E+03  0.25844193921E+03  0.28036704017E+03  0.00000000000E+00 0. -1.
</event>
<event>
 6    1  0.1697385E-005  0.1252343E+03  0.7818608E-02  0.1270982E+00
          2   -1    0    0  502    0  0.00000000000E+00  0.00000000000E+00  0.66465935938E+03  0.66465935938E+03  0.00000000000E+00 0. -1.
          1   -1    0    0  501    0 -0.00000000000E+00 -0.00000000000E+00 -0.29186420215E+03  0.29186420215E+03  0.00000000000E+00 0. -1.
          2    1    1    2  501    0  0.69290194494E+02  0.46843735626E+02 -0.15325790022E+03  0.17459510475E+03  0.00000000000E+00 0. -1.
          1    1    1    2  502    0 -0.11995568492E+03 -0.13353714001E+03  0.58279240084E+03  0.60981022998E+03  0.00000000000E+00 0. -1.
         22    1    1    2    0    0  0.20098393014E+02  0.34063032960E+02 -0.93147802511E+02  0.10119658457E+03  0.00000000000E+00 0.  1.
         22    1    1    2    0    0  0.30567097416E+02  0.52630371426E+02  0.36408459116E+02  0.70921642226E+02  0.00000000000E+00 0. -1.
</event>
<event>
 6    1  0.1293624E-005  0.4005938E+03  0.7818608E-02  0.1043574E+00
          2   -1    0    0  502    0  0.00000000000E+00  0.00000000000E+00  0.14057917337E+04  0.14057917337E+04  0.00000000000E+00 0.  1.
          1   -1    0    0  501    0 -0.00000000000E+00 -0.00000000000E+00 -0.22214778544E+03  0.22214778544E+03  0.00000000000E+00 0.  1.
          2    1    1    2  501    0 -0.64262537256E+01 -0.13933204673E+03  0.94763462216E+03  0.95784450361E+03  0.00000000000E+00 0.  1.
          1    1    1    2  502    0 -0.43927127796E+00  0.28142147219E+03 -0.87864628197E+02  0.29481931901E+03  0.00000000000E+00 0.  1.
         22    1    1    2    0    0 -0.30512396746E+02 -0.13162281680E+03  0.30169984225E+03  0.33057278634E+03  0.00000000000E+00 0. -1.
         22    1    1    2    0    0  0.37377921750E+02 -0.10466608665E+02  0.22174111999E+02  0.44702910132E+02  0.00000000000E+00 0. -1.
</event>
<event>
 6    1  0.1293624E-005  0.7247802E+02  0.7818608E-02  0.1359909E+00
          2   -1    0    0  502    0  0.00000000000E+00  0.00000000000E+00  0.49382298410E+03  0.49382298410E+03  0.00000000000E+00 0.  1.
          1   -1    0    0  501    0 -0.00000000000E+00 -0.00000000000E+00 -0.40021099134E+02  0.40021099134E+02  0.00000000000E+00 0.  1.
          2    1    1    2  501    0  0.24968257201E+02 -0.17464800211E+02  0.52921988427E+02  0.61066930274E+02  0.00000000000E+00 0.  1.
          1    1    1    2  502    0 -0.26078175940E+02 -0.11945876076E+01 -0.20803315804E+02  0.33380776629E+02  0.00000000000E+00 0.  1.
         22    1    1    2    0    0 -0.56985885675E+02  0.73103489613E+01  0.28019871824E+03  0.28602823999E+03  0.00000000000E+00 0. -1.
         22    1    1    2    0    0  0.58095804415E+02  0.11349038857E+02  0.14148449411E+03  0.15336813635E+03  0.00000000000E+00 0.  1.
</event>
<event>
 6    1  0.1293624E-005  0.1707320E+03  0.7818608E-02  0.1195410E+00
          2   -1    0    0  502    0  0.00000000000E+00  0.00000000000E+00  0.14817171271E+04  0.14817171271E+04  0.00000000000E+00 0.  1.
          1   -1    0    0  501    0 -0.00000000000E+00 -0.00000000000E+00 -0.12484366849E+03  0.12484366849E+03  0.00000000000E+00 0. -1.
          2    1    1    2  501    0 -0.88452428829E+02  0.53815710440E+02  0.57949265527E+03  0.58866943216E+03  0.00000000000E+00 0.  1.
          1    1    1    2  502    0  0.78077689485E+02 -0.15179853584E+03 -0.47993039197E+02  0.17731963481E+03  0.00000000000E+00 0. -1.
         22    1    1    2    0    0 -0.45503497097E+02 -0.91388911132E+00  0.24139014070E+03  0.24564324430E+03  0.00000000000E+00 0.  1.
         22    1    1    2    0    0  0.55878236441E+02  0.98896714508E+02  0.58398370179E+03  0.59492848428E+03  0.00000000000E+00 0.  1.
</event>
<event>
 6    1  0.1293624E-005  0.9196352E+02  0.7818608E-02  0.1299572E+00
          2   -1    0    0  502    0  0.00000000000E+00  0.00000000000E+00  0.45765959385E+03  0.45765959385E+03  0.00000000000E+00 0.  1.
          1   -1    0    0  501    0 -0.00000000000E+00 -0.00000000000E+00 -0.39701873615E+03  0.39701873615E+03  0.00000000000E+00 0. -1.
          2    1    1    2  501    0 -0.20583637873E+01 -0.30288286789E+02  0.76024932444E+01  0.31295608024E+02  0.00000000000E+00 0.  1.
          1    1    1    2  502    0 -0.64217412854E+01 -0.45218904286E+02 -0.37189148890E+03  0.37468555828E+03  0.00000000000E+00 0. -1.
         22    1    1    2    0    0  0.18305729458E+02  0.10031771583E+03  0.39772335530E+03  0.41058812841E+03  0.00000000000E+00 0.  1.
         22    1    1    2    0    0 -0.98256243857E+01 -0.24810524758E+02  0.27206498069E+02  0.38109035287E+02  0.00000000000E+00 0. -1.
</event>
<event>
 6    1  0.1293624E-005  0.2836218E+03  0.7818608E-02  0.1093727E+00
          2   -1    0    0  502    0  0.00000000000E+00  0.00000000000E+00  0.11943478475E+03  0.11943478475E+03  0.00000000000E+00 0. -1.
          1   -1    0    0  501    0 -0.00000000000E+00 -0.00000000000E+00 -0.26629142374E+03  0.26629142374E+03  0.00000000000E+00 0. -1.
          2    1    1    2  501    0 -0.14763248322E+02 -0.21756628099E+02 -0.13395997237E+03  0.13651585463E+03  0.00000000000E+00 0. -1.
          1    1    1    2  502    0 -0.11179815893E+02  0.19802073195E+02 -0.94645236343E+02  0.97338744335E+02  0.00000000000E+00 0. -1.
         22    1    1    2    0    0  0.39805911460E+02  0.14776739166E+02  0.10998859936E+03  0.11789976504E+03  0.00000000000E+00 0. -1.
         22    1    1    2    0    0 -0.13862847245E+02 -0.12822184262E+02 -0.28240029636E+02  0.33971844472E+02  0.00000000000E+00 0.  1.
</event>
<event>
 6    1  0.1293624E-005  0.7772997E+02  0.7818608E-02  0.1341815E+00
          2   -1    0    0  502    0  0.00000000000E+00  0.00000000000E+00  0.49607521546E+03  0.49607521546E+03  0.00000000000E+00 0. -1.
          1   -1    0    0  501    0 -0.00000000000E+00 -0.00000000000E+00 -0.28074522008E+02  0.28074522008E+02  0.00000000000E+00 0. -1.
          2    1    1    2  501    0 -0.22016928953E+02 -0.22948941308E+02  0.99945149028E+02  0.10488294371E+03  0.00000000000E+00 0. -1.
          1    1    1    2  502    0  0.48316998437E+02  0.24709925607E+02  0.38414739114E+02  0.66489134020E+02  0.00000000000E+00 0. -1.
         22    1    1    2    0    0  0.27146804193E+01 -0.58590368625E+02  0.19771097362E+03  0.20622761666E+03  0.00000000000E+00 0. -1.
         22    1    1    2    0    0 -0.29014749903E+02  0.56829384326E+02  0.13192983170E+03  0.14655004308E+03  0.00000000000E+00 0.  1.
</event>
<event>
 6    1  0.1293624E-005  0.7990727E+02  0.7818608E-02  0.1331346E+00
          2   -1    0    0  502    0  0.00000000000E+00  0.00000000000E+00  0.92516220682E+03  0.92516220682E+03  0.00000000000E+00 0.  1.
          1   -1    0    0  501    0 -0.00000000000E+00 -0.00000000000E+00 -0.11519031837E+02  0.11519031837E+02  0.00000000000E+00 0.  1.
          2    1    1    2  501    0 -0.49202917102E+01 -0.33301290870E+02  0.26125242497E+03  0.26341225256E+03  0.00000000000E+00 0.  1.
          1    1    1    2  502    0 -0.32436784057E+02  0.39772952596E+01  0.80511856971E+02  0.86891443482E+02  0.00000000000E+00 0.  1.
         22    1    1    2    0    0 -0.22025778278E+02 -0.34837204004E+02  0.21780107951E+03  0.22166658730E+03  0.00000000000E+00 0.  1.
         22    1    1    2    0    0  0.59382854045E+02  0.64161199615E+02  0.35407781354E+03  0.36471095532E+03  0.00000000000E+00 0.  1.
</event>
<event>
 6    1  0.1293624E-005  0.9015445E+02  0.7818608E-02  0.1304291E+00
          2   -1    0    0  502    0  0.00000000000E+00  0.00000000000E+00  0.26140297565E+03  0.26140297565E+03  0.00000000000E+00 0. -1.
          1   -1    0    0  501    0 -0.00000000000E+00 -0.00000000000E+00 -0.74206876748E+02  0.74206876748E+02  0.00000000000E+00 0. -1.
          2    1    1    2  501    0  0.70096738537E+02 -0.26029085563E+02  0.12857991451E+03  0.14874091725E+03  0.00000000000E+00 0. -1.
          1    1    1    2  502    0 -0.33264448341E+02 -0.18855225130E+02  0.33127663045E+02  0.50591353974E+02  0.00000000000E+00 0. -1.
         22    1    1    2    0    0 -0.53827633574E+02  0.47081110486E+02 -0.30485263081E+02  0.77739284572E+02  0.00000000000E+00 0. -1.
         22    1    1    2    0    0  0.16995343377E+02 -0.21967997927E+01  0.55973784425E+02  0.58538296599E+02  0.00000000000E+00 0.  1.
</event>
<event>
 6    1  0.1293624E-005  0.1613251E+03  0.7818608E-02  0.1220176E+00
          2   -1    0    0  502    0  0.00000000000E+00  0.00000000000E+00  0.11042892107E+04  0.11042892107E+04  0.00000000000E+00 0. -1.
          1   -1    0    0  501    0 -0.00000000000E+00 -0.00000000000E+00 -0.53230266942E+02  0.53230266942E+02  0.00000000000E+00 0. -1.
          2    1    1    2  501    0 -0.32327916352E+02  0.92965239089E+02  0.85633225466E+02  0.13046332495E+03  0.00000000000E+00 0. -1.
          1    1    1    2  502    0  0.87684456749E+02 -0.16571392036E+03  0.63414433134E+03  0.66127808093E+03  0.00000000000E+00 0. -1.
         22    1    1    2    0    0 -0.76559151199E+02  0.20209206967E+02  0.27399590841E+03  0.28520777252E+03  0.00000000000E+00 0.  1.
         22    1    1    2    0    0  0.21202610801E+02  0.52539474305E+02  0.57285478504E+02  0.80570299196E+02  0.00000000000E+00 0. -1.
</event>
<event>
 6    1  0.1293624E-005  0.7647639E+02  0.7818608E-02  0.1344255E+00
          2   -1    0    0  502    0  0.00000000000E+00  0.00000000000E+00  0.15860191718E+03  0.15860191718E+03  0.00000000000E+00 0.  1.
          1   -1    0    0  501    0 -0.00000000000E+00 -0.00000000000E+00 -0.99400736539E+03  0.99400736539E+03  0.00000000000E+00 0.  1.
          2    1    1    2  501    0  0.50781622333E+01 -0.33236803782E+02  0.39516614253E+02  0.51884830725E+02  0.00000000000E+00 0.  1.
          1    1    1    2  502    0 -0.36452968872E+02 -0.30733503942E+01 -0.95016515216E+03  0.95086911865E+03  0.00000000000E+00 0.  1.
         22    1    1    2    0    0 -0.25103280453E+02 -0.28784984418E+02  0.43809641227E+02  0.58120862708E+02  0.00000000000E+00 0.  1.
         22    1    1    2    0    0  0.56478087092E+02  0.65095138595E+02  0.31433448474E+02  0.91734470474E+02  0.00000000000E+00 0.  1.
</event>
<event>
 6    1  0.1293624E-005  0.2802749E+03  0.7818608E-02  0.1096405E+00
          2   -1    0    0  502    0  0.00000000000E+00  0.00000000000E+00  0.59700987814E+03  0.59700987814E+03  0.00000000000E+00 0.  1.
          1   -1    0    0  501    0 -0.00000000000E+00 -0.00000000000E+00 -0.79237998556E+03  0.79237998556E+03  0.00000000000E+00 0.  1.
          2    1    1    2  501    0 -0.13243780725E+03 -0.24680723591E+03  0.19426916484E+03  0.34087254641E+03  0.00000000000E+00 0.  1.
          1    1    1    2  502    0  0.21399403533E+02  0.26136119810E+02 -0.66066163408E+03  0.66152462235E+03  0.00000000000E+00 0.  1.
         22    1    1    2    0    0 -0.76328963660E+01 -0.10363837169E+02  0.30063552369E+02  0.32703018345E+02  0.00000000000E+00 0. -1.
         22    1    1    2    0    0  0.11867130008E+03  0.23103495327E+03  0.24095880945E+03  0.35428967660E+03  0.00000000000E+00 0.  1.
</event>
<event>
 6    1  0.1293624E-005  0.2133847E+03  0.7818608E-02  0.1138913E+00
          2   -1    0    0  502    0  0.00000000000E+00  0.00000000000E+00  0.10614651612E+03  0.10614651612E+03  0.00000000000E+00 0. -1.
          1   -1    0    0  501    0 -0.00000000000E+00 -0.00000000000E+00 -0.14799397592E+04  0.14799397592E+04  0.00000000000E+00 0.  1.
          2    1    1    2  501    0  0.27338784049E+02  0.81352626887E+02 -0.22338241271E+02  0.88682895971E+02  0.00000000000E+00 0. -1.
          1    1    1    2  502    0 -0.39969592897E+02 -0.66237332911E+02 -0.13704943221E+04  0.13726760869E+04  0.00000000000E+00 0.  1.
         22    1    1    2    0    0  0.62363421931E+02 -0.10977029069E+02  0.34976467301E+02  0.72339787303E+02  0.00000000000E+00 0.  1.
         22    1    1    2    0    0 -0.49732613083E+02 -0.41382649072E+01 -0.15937147013E+02  0.52387505146E+02  0.00000000000E+00 0. -1.
</event>
<event>
 6    1  0.1293624E-005  0.3505250E+03  0.7818608E-02  0.1062400E+00
          2   -1    0    0  502    0  0.00000000000E+00  0.00000000000E+00  0.24914989655E+03  0.24914989655E+03  0.00000000000E+00 0. -1.
          1   -1    0    0  501    0 -0.00000000000E+00 -0.00000000000E+00 -0.21820912719E+03  0.21820912719E+03  0.00000000000E+00 0. -1.
          2    1    1    2  501    0 -0.85242884306E+02 -0.64152935425E+02 -0.57322411683E+02  0.12111072343E+03  0.00000000000E+00 0. -1.
          1    1    1    2  502    0  0.26324303087E+02 -0.46593860379E+02 -0.83020204156E+02  0.98774040396E+02  0.00000000000E+00 0. -1.
         22    1    1    2    0    0  0.45999939993E+01 -0.25499339481E+02  0.61970182478E+01  0.26641683391E+02  0.00000000000E+00 0. -1.
         22    1    1    2    0    0  0.54318587220E+02  0.13624613528E+03  0.16508636696E+03  0.22083257652E+03  0.00000000000E+00 0. -1.
</event>
<event>
 6    1  0.1679947E-005  0.1437683E+03  0.7818608E-02  0.1278812E+00
          2   -1    0    0  502    0  0.00000000000E+00  0.00000000000E+00  0.32959321197E+03  0.32959321197E+03  0.00000000000E+00 0. -1.
          1   -1    0    0  501    0 -0.00000000000E+00 -0.00000000000E+00 -0.16485802046E+04  0.16485802046E+04  0.00000000000E+00 0.  1.
          2    1    1    2  501    0 -0.63425796845E+02 -0.16178059991E+02  0.11340101453E+03  0.13093644041E+03  0.00000000000E+00 0. -1.
          1    1    1    2  502    0  0.13112697209E+03  0.34898749486E+02 -0.16131529020E+04  0.16188497431E+04  0.00000000000E+00 0.  1.
         22    1    1    2    0    0 -0.16532515918E+02 -0.30413307420E+02 -0.53368694181E+01  0.35025355473E+02  0.00000000000E+00 0. -1.
         22    1    1    2    0    0 -0.51168659325E+02  0.11692617925E+02  0.18610176429E+03  0.19336187754E+03  0.00000000000E+00 0. -1.
</event>
<event>
 6    1  0.1293624E-005  0.7941243E+02  0.7818608E-02  0.1332517E+00
          2   -1    0    0  502    0  0.00000000000E+00  0.00000000000E+00  0.46176844278E+02  0.46176844278E+02  0.00000000000E+00 0. -1.
          1   -1    0    0  501    0 -0.00000000000E+00 -0.00000000000E+00 -0.51590029274E+03  0.51590029274E+03  0.00000000000E+00 0.  1.
          2    1    1    2  501    0 -0.46485522103E+01  0.22364629199E+02 -0.42474389799E+02  0.48227165225E+02  0.00000000000E+00 0. -1.
          1    1    1    2  502    0  0.17985261296E+02  0.42485467727E+02 -0.34703218337E+03  0.35008544798E+03  0.00000000000E+00 0.  1.
         22    1    1    2    0    0  0.15126674127E+02 -0.87684644701E+02 -0.16731833332E+02  0.90539314296E+02  0.00000000000E+00 0. -1.
         22    1    1    2    0    0 -0.28463383213E+02  0.22834547775E+02 -0.63485041959E+02  0.73225209515E+02  0.00000000000E+00 0. -1.
</event>
<event>
 6    1  0.1293624E-005  0.2661213E+03  0.7818608E-02  0.1103520E+00
          2   -1    0    0  502    0  0.00000000000E+00  0.00000000000E+00  0.16243268116E+03  0.16243268116E+03  0.00000000000E+00 0. -1.
          1   -1    0    0  501    0 -0.00000000000E+00 -0.00000000000E+00 -0.35700349586E+03  0.35700349586E+03  0.00000000000E+00 0.  1.
          2    1    1    2  501    0 -0.45928238853E+02  0.12537852614E+03  0.39215093732E+01  0.13358351761E+03  0.00000000000E+00 0. -1.
          1    1    1    2  502    0  0.23532701415E+02 -0.16389072189E+03 -0.19169400834E+03  0.25329932805E+03  0.00000000000E+00 0.  1.
         22    1    1    2    0    0  0.49362921507E+02  0.30329146213E+02 -0.52943674549E+02  0.78483041508E+02  0.00000000000E+00 0.  1.
         22    1    1    2    0    0 -0.26967384069E+02  0.81830495350E+01  0.46145358823E+02  0.54070289847E+02  0.00000000000E+00 0. -1.
</event>
<event>
 6    1  0.1293624E-005  0.7483882E+02  0.7818608E-02  0.1345877E+00
          2   -1    0    0  502    0  0.00000000000E+00  0.00000000000E+00  0.53941212820E+03  0.53941212820E+03  0.00000000000E+00 0.  1.
          1   -1    0    0  501    0 -0.00000000000E+00 -0.00000000000E+00 -0.21535743151E+02  0.21535743151E+02  0.00000000000E+00 0.  1.
          2    1    1    2  501    0 -0.18414819947E+02  0.11457548388E+02  0.54832428086E+02  0.58965889958E+02  0.00000000000E+00 0.  1.
          1    1    1    2  502    0 -0.17443670118E+02  0.20227125665E+02  0.73984834913E+01  0.27715623713E+02  0.00000000000E+00 0.  1.
         22    1    1    2    0    0 -0.28546420211E+02  0.29847591552E+02  0.17582204248E+03  0.18060777240E+03  0.00000000000E+00 0.  1.
         22    1    1    2    0    0  0.64404910277E+02 -0.61532265605E+02  0.27982343099E+03  0.29365858528E+03  0.00000000000E+00 0.  1.
</event>
<event>
 6    1  0.1293624E-005  0.1729925E+03  0.7818608E-02  0.1174763E+00
          2   -1    0    0  502    0  0.00000000000E+00  0.00000000000E+00  0.47844992881E+03  0.47844992881E+03  0.00000000000E+00 0. -1.
          1   -1    0    0  501    0 -0.00000000000E+00 -0.00000000000E+00 -0.68974083013E+02  0.68974083013E+02  0.00000000000E+00 0.  1.
          2    1    1    2  501    0 -0.32133947656E+01 -0.29772995068E+02  0.14185508166E+03  0.14498145169E+03  0.00000000000E+00 0. -1.
          1    1    1    2  502    0  0.89092017292E+01  0.86498804314E+02 -0.15736185656E+02  0.88368798579E+02  0.00000000000E+00 0.  1.
         22    1    1    2    0    0 -0.53737329590E+02 -0.21497440659E+02  0.21838312881E+03  0.22592262280E+03  0.00000000000E+00 0. -1.
         22    1    1    2    0    0  0.48041522626E+02 -0.35228368587E+02  0.64973820982E+02  0.88151138748E+02  0.00000000000E+00 0.  1.
</event>
<event>
 6    1  0.1293624E-005  0.1054901E+03  0.7818608E-02  0.1283460E+00
          2   -1    0    0  502    0  0.00000000000E+00  0.00000000000E+00  0.91333139723E+03  0.91333139723E+03  0.00000000000E+00 0.  1.
          1   -1    0    0  501    0 -0.00000000000E+00 -0.00000000000E+00 -0.87365901329E+02  0.87365901329E+02  0.00000000000E+00 0.  1.
          2    1    1    2  501    0 -0.60657522514E+02 -0.32764795148E+02  0.30561889392E+03  0.31329822080E+03  0.00000000000E+00 0.  1.
          1    1    1    2  502    0  0.56873443557E+02  0.79115227111E+02 -0.44156932135E+02  0.10697496155E+03  0.00000000000E+00 0.  1.
         22    1    1    2    0    0  0.56450274241E+02 -0.56999107458E+02  0.30165691950E+03  0.31214168064E+03  0.00000000000E+00 0.  1.
         22    1    1    2    0    0 -0.52666195285E+02  0.10648675495E+02  0.26284661461E+03  0.26828243556E+03  0.00000000000E+00 0.  1.
</event>
<event>
 6    1  0.1293624E-005  0.8857676E+02  0.7818608E-02  0.1310525E+00
          2   -1    0    0  502    0  0.00000000000E+00  0.00000000000E+00  0.51980458353E+03  0.51980458353E+03  0.00000000000E+00 0.  1.
          1   -1    0    0  501    0 -0.00000000000E+00 -0.00000000000E+00 -0.30193796421E+02  0.30193796421E+02  0.00000000000E+00 0.  1.
          2    1    1    2  501    0  0.25046812765E+02  0.50475831183E+02  0.82019724448E+02  0.99510740936E+02  0.00000000000E+00 0.  1.
          1    1    1    2  502    0 -0.17644300342E+02 -0.17902960982E+02  0.12286292388E+01  0.25166383853E+02  0.00000000000E+00 0.  1.
         22    1    1    2    0    0  0.37835692480E+02  0.27915496683E+02  0.11302755198E+03  0.12241749094E+03  0.00000000000E+00 0. -1.
         22    1    1    2    0    0 -0.45238204903E+02 -0.60488366883E+02  0.29333488144E+03  0.30290376422E+03  0.00000000000E+00 0.  1.
</event>
<event>
 6    1  0.1293624E-005  0.4166911E+03  0.7818608E-02  0.1038149E+00
          2   -1    0    0  502    0  0.00000000000E+00  0.00000000000E+00  0.51032870520E+03  0.51032870520E+03  0.00000000000E+00 0.  1.
          1   -1    0    0  501    0 -0.00000000000E+00 -0.00000000000E+00 -0.13703334598E+03  0.13703334598E+03  0.00000000000E+00 0.  1.
          2    1    1    2  501    0 -0.27644924055E+02 -0.12874242378E+03 -0.74557019987E+01  0.13188798656E+03  0.00000000000E+00 0.  1.
          1    1    1    2  502    0  0.22595611274E+02  0.13318315538E+02 -0.48068330836E+02  0.54758593909E+02  0.00000000000E+00 0.  1.
         22    1    1    2    0    0 -0.17467690393E+01 -0.23947947159E+02  0.31516659581E+02  0.39621398339E+02  0.00000000000E+00 0.  1.
         22    1    1    2    0    0  0.67960818199E+01  0.13937205540E+03  0.39730273248E+03  0.42109407237E+03  0.00000000000E+00 0. -1.
</event>
<event>
 6    1  0.1293624E-005  0.1012972E+03  0.7818608E-02  0.1297431E+00
          2   -1    0    0  502    0  0.00000000000E+00  0.00000000000E+00  0.40273693453E+02  0.40273693453E+02  0.00000000000E+00 0.  1.
          1   -1    0    0  501    0 -0.00000000000E+00 -0.00000000000E+00 -0.12178763958E+04  0.12178763958E+04  0.00000000000E+00 0. -1.
          2    1    1    2  501    0 -0.80527311625E+01 -0.50296591926E+02 -0.18733841796E+03  0.19413983745E+03  0.00000000000E+00 0.  1.
          1    1    1    2  502    0  0.12719641679E+01  0.12880913650E+03 -0.84535784259E+03  0.85511595329E+03  0.00000000000E+00 0. -1.
         22    1    1    2    0    0 -0.19949054294E+02 -0.14083288657E+02 -0.13646364007E+03  0.13863126937E+03  0.00000000000E+00 0. -1.
         22    1    1    2    0    0  0.26729821288E+02 -0.64429255919E+02 -0.84428017272E+01  0.70263029151E+02  0.00000000000E+00 0.  1.
</event>
<event>
 6    1  0.1293624E-005  0.8648860E+02  0.7818608E-02  0.1312532E+00
          2   -1    0    0  502    0  0.00000000000E+00  0.00000000000E+00  0.67314216857E+03  0.67314216857E+03  0.00000000000E+00 0.  1.
          1   -1    0    0  501    0 -0.00000000000E+00 -0.00000000000E+00 -0.10201382276E+03  0.10201382276E+03  0.00000000000E+00 0. -1.
          2    1    1    2  501    0 -0.11203360190E+02 -0.33830308363E+02  0.48451551124E+02  0.60146137447E+02  0.00000000000E+00 0.  1.
          1    1    1    2  502    0 -0.54920318618E+02  0.40611172437E+01 -0.79123095276E+02  0.96401235866E+02  0.00000000000E+00 0. -1.
         22    1    1    2    0    0 -0.24552518934E+01 -0.36156506311E+02  0.75094093460E+02  0.83381317350E+02  0.00000000000E+00 0. -1.
         22    1    1    2    0    0  0.68578930701E+02  0.65925697430E+02  0.52670579650E+03  0.53522730067E+03  0.00000000000E+00 0.  1.
</event>
<event>
 6    1  0.1293624E-005  0.7238342E+02  0.7818608E-02  0.1358263E+00
          2   -1    0    0  502    0  0.00000000000E+00  0.00000000000E+00  0.11640746188E+03  0.11640746188E+03  0.00000000000E+00 0. -1.
          1   -1    0    0  501    0 -0.00000000000E+00 -0.00000000000E+00 -0.50643858921E+03  0.50643858921E+03  0.00000000000E+00 0. -1.
          2    1    1    2  501    0  0.42245506458E+02  0.52592892817E+01 -0.24308470041E+03  0.24678434820E+03  0.00000000000E+00 0. -1.
          1    1    1    2  502    0 -0.21880849361E+02  0.15619026328E+01  0.98407823892E+02  0.10082316654E+03  0.00000000000E+00 0. -1.
         22    1    1    2    0    0 -0.50156388873E+02 -0.37553750142E+02 -0.66641104025E+02  0.91471220830E+02  0.00000000000E+00 0. -1.
         22    1    1    2    0    0  0.29791731776E+02  0.30732558227E+02 -0.17871314679E+03  0.18376731552E+03  0.00000000000E+00 0. -1.
</event>
<event>
 6    1  0.1293624E-005  0.1684110E+03  0.7818608E-02  0.1186992E+00
          2   -1    0    0  502    0  0.00000000000E+00  0.00000000000E+00  0.14462131635E+03  0.14462131635E+03  0.00000000000E+00 0.  1.
          1   -1    0    0  501    0 -0.00000000000E+00 -0.00000000000E+00 -0.71456915425E+03  0.71456915425E+03  0.00000000000E+00 0.  1.
          2    1    1    2  501    0 -0.90265518410E+02  0.56671895532E+02 -0.26916825947E+03  0.28950150166E+03  0.00000000000E+00 0.  1.
          1    1    1    2  502    0  0.86517706789E+02 -0.24204865479E+03 -0.11759409858E+03  0.28266806840E+03  0.00000000000E+00 0.  1.
         22    1    1    2    0    0  0.24202610026E+02  0.14041985231E+03 -0.60566870811E+02  0.15482844408E+03  0.00000000000E+00 0.  1.
         22    1    1    2    0    0 -0.20454798405E+02  0.44956906947E+02 -0.12261860904E+03  0.13219245645E+03  0.00000000000E+00 0.  1.
</event>
<event>
 6    1  0.1293624E-005  0.2144096E+03  0.7818608E-02  0.1138121E+00
          2   -1    0    0  502    0  0.00000000000E+00  0.00000000000E+00  0.38677202402E+03  0.38677202402E+03  0.00000000000E+00 0. -1.
          1   -1    0    0  501    0 -0.00000000000E+00 -0.00000000000E+00 -0.30266837383E+03  0.30266837383E+03  0.00000000000E+00 0. -1.
          2    1    1    2  501    0 -0.49561900757E+02 -0.39380213295E+02  0.57347170957E+02  0.85415930730E+02  0.00000000000E+00 0. -1.
          1    1    1    2  502    0 -0.94175215915E+01  0.22137901729E+02 -0.27238257115E+03  0.27344294007E+03  0.00000000000E+00 0. -1.
         22    1    1    2    0    0  0.52711549858E+02  0.66327768483E+02  0.23339035856E+03  0.24829204545E+03  0.00000000000E+00 0. -1.
         22    1    1    2    0    0  0.62678724900E+01 -0.49085456917E+02  0.65748691822E+02  0.82289481604E+02  0.00000000000E+00 0. -1.
</event>
<event>
 6    1  0.1293624E-005  0.4812688E+02  0.7818608E-02  0.1458283E+00
          2   -1    0    0  502    0  0.00000000000E+00  0.00000000000E+00  0.26838299875E+03  0.26838299875E+03  0.00000000000E+00 0.  1.
          1   -1    0    0  501    0 -0.00000000000E+00 -0.00000000000E+00 -0.90737676911E+02  0.90737676911E+02  0.00000000000E+00 0.  1.
          2    1    1    2  501    0 -0.26664465755E+02  0.29640900561E+02 -0.69400214486E+01  0.40469008115E+02  0.00000000000E+00 0.  1.
          1    1    1    2  502    0 -0.88810960925E+01 -0.30607868169E+02 -0.43662182694E+02  0.54056467321E+02  0.00000000000E+00 0.  1.
         22    1    1    2    0    0  0.43247584817E+02 -0.16241999106E+02  0.23863754198E+03  0.24306795875E+03  0.00000000000E+00 0.  1.
         22    1    1    2    0    0 -0.77020229696E+01  0.17208966714E+02 -0.10390015998E+02  0.21527241477E+02  0.00000000000E+00 0.  1.
</event>
<event>
 6    1  0.1293624E-005  0.1688073E+03  0.7818608E-02  0.1179097E+00
          2   -1    0    0  502    0  0.00000000000E+00  0.00000000000E+00  0.53361422811E+02  0.53361422811E+02  0.00000000000E+00 0.  1.
          1   -1    0    0  501    0 -0.00000000000E+00 -0.00000000000E+00 -0.15966483198E+04  0.15966483198E+04  0.00000000000E+00 0. -1.
          2    1    1    2  501    0  0.15446466984E+02 -0.23807871866E+02  0.85049189093E+01  0.29626706714E+02  0.00000000000E+00 0.  1.
          1    1    1    2  502    0 -0.13273424868E+02 -0.16238909372E+02 -0.14628805340E+04  0.14630308755E+04  0.00000000000E+00 0. -1.
         22    1    1    2    0    0  0.11984347043E+02  0.13986724377E+02  0.29777807401E+02  0.35013866488E+02  0.00000000000E+00 0.  1.
         22    1    1    2    0    0 -0.14157389159E+02  0.26060056860E+02 -0.11868908929E+03  0.12233829387E+03  0.00000000000E+00 0.  1.
</event>
<event>
 6    1  0.1293624E-005  0.7957064E+02  0.7818608E-02  0.1332199E+00
          2   -1    0    0  502    0  0.00000000000E+00  0.00000000000E+00  0.13504811090E+03  0.13504811090E+03  0.00000000000E+00 0.  1.
          1   -1    0    0  501    0 -0.00000000000E+00 -0.00000000000E+00 -0.12546144927E+03  0.12546144927E+03  0.00000000000E+00 0.  1.
          2    1    1    2  501    0 -0.18670450651E+02  0.44047882727E+02 -0.36035939385E+02  0.59894829723E+02  0.00000000000E+00 0.  1.
          1    1    1    2  502    0 -0.44593189594E+02 -0.37340671234E+02  0.24059350531E+02  0.62942280181E+02  0.00000000000E+00 0.  1.
         22    1    1    2    0    0  0.62145760083E+02 -0.48148489933E+02  0.44456740896E+02  0.90314862510E+02  0.00000000000E+00 0.  1.
         22    1    1    2    0    0  0.11178801631E+01  0.41441278440E+02 -0.22893490408E+02  0.47357587754E+02  0.00000000000E+00 0.  1.
</event>
<event>
 6    1  0.1293624E-005  0.2119013E+03  0.7818608E-02  0.1140069E+00
          2   -1    0    0  502    0  0.00000000000E+00  0.00000000000E+00  0.71424549983E+03  0.71424549983E+03  0.00000000000E+00 0. -1.
          1   -1    0    0  501    0 -0.00000000000E+00 -0.00000000000E+00 -0.79995822990E+02  0.79995822990E+02  0.00000000000E+00 0. -1.
          2    1    1    2  501    0 -0.58069876790E+02  0.16327799335E+02  0.88400444877E+02  0.10702030777E+03  0.00000000000E+00 0. -1.
          1    1    1    2  502    0  0.22559950017E+02 -0.10171519442E+02 -0.61842751445E+02  0.66610337477E+02  0.00000000000E+00 0. -1.
         22    1    1    2    0    0 -0.44083334815E+02  0.64995783448E+01  0.18371586401E+03  0.18904259736E+03  0.00000000000E+00 0. -1.
         22    1    1    2    0    0  0.79593261587E+02 -0.12655858238E+02  0.42397611940E+03  0.43156808022E+03  0.00000000000E+00 0. -1.
</event>
<event>
 6    1  0.1293624E-005  0.2293069E+03  0.7818608E-02  0.1127129E+00
          2   -1    0    0  502    0  0.00000000000E+00  0.00000000000E+00  0.93873677979E+02  0.93873677979E+02  0.00000000000E+00 0. -1.
          1   -1    0    0  501    0 -0.00000000000E+00 -0.00000000000E+00 -0.44655605670E+03  0.44655605670E+03  0.00000000000E+00 0. -1.
          2    1    1    2  501    0  0.11879117306E+02 -0.16343181632E+02 -0.95174377464E+02  0.97295298651E+02  0.00000000000E+00 0. -1.
          1    1    1    2  502    0 -0.60052939913E+02 -0.11094678865E+00 -0.29893602179E+03  0.30490836824E+03  0.00000000000E+00 0. -1.
         22    1    1    2    0    0  0.27425085308E+02 -0.10848576654E+02 -0.40101036549E+02  0.49778710830E+02  0.00000000000E+00 0.  1.
         22    1    1    2    0    0  0.20748737299E+02  0.27302705075E+02  0.81529057082E+02  0.88447356956E+02  0.00000000000E+00 0. -1.
</event>
<event>
 6    1  0.1293624E-005  0.2576724E+03  0.7818608E-02  0.1191690E+00
          2   -1    0    0  502    0  0.00000000000E+00  0.00000000000E+00  0.12403114183E+03  0.12403114183E+03  0.00000000000E+00 0.  1.
          1   -1    0    0  501    0 -0.00000000000E+00 -0.00000000000E+00 -0.15850702792E+04  0.15850702792E+04  0.00000000000E+00 0.  1.
          2    1    1    2  501    0 -0.14913187613E+02 -0.13003415472E+03 -0.55082153326E+02  0.14200467659E+03  0.00000000000E+00 0.  1.
          1    1    1    2  502    0  0.11691117275E+03  0.21444174608E+03 -0.13579270127E+04  0.13797170930E+04  0.00000000000E+00 0.  1.
         22    1    1    2    0    0 -0.82857672144E+02 -0.11472828433E+03 -0.22346431985E+02  0.14327364056E+03  0.00000000000E+00 0. -1.
         22    1    1    2    0    0 -0.19140312994E+02  0.30320692962E+02 -0.25683539307E+02  0.44106010866E+02  0.00000000000E+00 0. -1.
</event>
<event>
 6    1  0.1293624E-005  0.9729890E+02  0.7818608E-02  0.1287789E+00
          2   -1    0    0  502    0  0.00000000000E+00  0.00000000000E+00  0.61484458696E+03  0.61484458696E+03  0.00000000000E+00 0. -1.
          1   -1    0    0  501    0 -0.00000000000E+00 -0.00000000000E+00 -0.75686925749E+02  0.75686925749E+02  0.00000000000E+00 0. -1.
          2    1    1    2  501    0 -0.26452549411E+02  0.42156115251E+02  0.95795348419E+02  0.10795195321E+03  0.00000000000E+00 0. -1.
          1    1    1    2  502    0 -0.27659946108E+02  0.63484985678E+01 -0.56349937495E+02  0.63092721517E+02  0.00000000000E+00 0. -1.
         22    1    1    2    0    0 -0.30124479121E+02  0.13033136816E+02  0.70307509633E+02  0.77591834675E+02  0.00000000000E+00 0. -1.
         22    1    1    2    0    0  0.84236974639E+02 -0.61537750634E+02  0.42940474065E+03  0.44189500330E+03  0.00000000000E+00 0. -1.
</event>
<event>
 6    1  0.1293624E-005  0.2147177E+03  0.7818608E-02  0.1137884E+00
          2   -1    0    0  502    0  0.00000000000E+00  0.00000000000E+00  0.78499023676E+03  0.78499023676E+03  0.00000000000E+00 0.  1.
          1   -1    0    0  501    0 -0.00000000000E+00 -0.00000000000E+00 -0.18562791953E+03  0.18562791953E+03  0.00000000000E+00 0. -1.
          2    1    1    2  501    0  0.63857814503E+02 -0.86956700284E+01  0.39258349373E+03  0.39783820166E+03  0.00000000000E+00 0.  1.
          1    1    1    2  502    0 -0.83465550544E+01 -0.22068772932E+02 -0.17011557166E+03  0.17174400555E+03  0.00000000000E+00 0. -1.
         22    1    1    2    0    0 -0.84145305576E+02 -0.12381011746E+02  0.22341595642E+03  0.23905733932E+03  0.00000000000E+00 0.  1.
         22    1    1    2    0    0  0.28634046127E+02  0.43145454706E+02  0.15347843874E+03  0.16197860976E+03  0.00000000000E+00 0.  1.
</event>
<event>
 6    1  0.1293624E-005  0.8342174E+02  0.7818608E-02  0.1381066E+00
          2   -1    0    0  502    0  0.00000000000E+00  0.00000000000E+00  0.83475232227E+02  0.83475232227E+02  0.00000000000E+00 0. -1.
          1   -1    0    0  501    0 -0.00000000000E+00 -0.00000000000E+00 -0.85518689486E+03  0.85518689486E+03  0.00000000000E+00 0. -1.
          2    1    1    2  501    0 -0.26804887032E+02 -0.42932385304E+02 -0.19353431300E+03  0.20004305033E+03  0.00000000000E+00 0. -1.
          1    1    1    2  502    0  0.23310893941E+02  0.90067500744E+02 -0.59697684702E+03  0.60418284347E+03  0.00000000000E+00 0. -1.
         22    1    1    2    0    0  0.50873322112E+01 -0.28787224166E+02  0.72229594127E+02  0.77921110695E+02  0.00000000000E+00 0. -1.
         22    1    1    2    0    0 -0.15933391195E+01 -0.18347891274E+02 -0.53430096732E+02  0.56515122583E+02  0.00000000000E+00 0.  1.
</event>
<event>
 6    1  0.1293624E-005  0.1811818E+03  0.7818608E-02  0.1166664E+00
          2   -1    0    0  502    0  0.00000000000E+00  0.00000000000E+00  0.58190979509E+03  0.58190979509E+03  0.00000000000E+00 0.  1.
          1   -1    0    0  501    0 -0.00000000000E+00 -0.00000000000E+00 -0.78502852023E+02  0.78502852023E+02  0.00000000000E+00 0.  1.
          2    1    1    2  501    0 -0.93947966680E+01 -0.35953308799E+02 -0.83417122667E+01  0.38085256748E+02  0.00000000000E+00 0.  1.
          1    1    1    2  502    0  0.62428500443E+02  0.68715628745E+02  0.46632284690E+03  0.47547466057E+03  0.00000000000E+00 0.  1.
         22    1    1    2    0    0 -0.32021093477E+02 -0.80800893316E+02  0.32990989725E+02  0.92965263358E+02  0.00000000000E+00 0.  1.
         22    1    1    2    0    0 -0.21012610298E+02  0.48038573370E+02  0.12434818710E+02  0.53887466439E+02  0.00000000000E+00 0.  1.
</event>
<event>
 6    1  0.1293624E-005  0.7992322E+02  0.7818608E-02  0.1333090E+00
          2   -1    0    0  502    0  0.00000000000E+00  0.00000000000E+00  0.18770137659E+02  0.18770137659E+02  0.00000000000E+00 0.  1.
          1   -1    0    0  501    0 -0.00000000000E+00 -0.00000000000E+00 -0.24147490610E+04  0.24147490610E+04  0.00000000000E+00 0. -1.
          2    1    1    2  501    0 -0.29585391310E+02  0.37146517264E+01 -0.39809433820E+02  0.49738164798E+02  0.00000000000E+00 0.  1.
          1    1    1    2  502    0 -0.15895401815E+02 -0.22447099905E+02 -0.20186163900E+04  0.20188037711E+04  0.00000000000E+00 0. -1.
         22    1    1    2    0    0 -0.31591579741E+02  0.38128487458E+02 -0.69118227573E+02  0.85024342686E+02  0.00000000000E+00 0. -1.
         22    1    1    2    0    0  0.77072372867E+02 -0.19396039280E+02 -0.26843487191E+03  0.27995292008E+03  0.00000000000E+00 0. -1.
</event>
<event>
 6    1  0.1293624E-005  0.7748265E+02  0.7818608E-02  0.1341737E+00
          2   -1    0    0  502    0  0.00000000000E+00  0.00000000000E+00  0.15097030249E+03  0.15097030249E+03  0.00000000000E+00 0. -1.
          1   -1    0    0  501    0 -0.00000000000E+00 -0.00000000000E+00 -0.15121411473E+04  0.15121411473E+04  0.00000000000E+00 0. -1.
          2    1    1    2  501    0 -0.37090706760E+02 -0.74760615582E+01  0.29185630350E+02  0.47785071344E+02  0.00000000000E+00 0. -1.
          1    1    1    2  502    0  0.16520856386E+02  0.15424149626E+02 -0.14657640665E+04  0.14659383145E+04  0.00000000000E+00 0. -1.
         22    1    1    2    0    0  0.56675728826E+02  0.67744920108E+01 -0.76920633726E+01  0.57595137111E+02  0.00000000000E+00 0. -1.
         22    1    1    2    0    0 -0.36105878451E+02 -0.14722580079E+02  0.83099654697E+02  0.91792926926E+02  0.00000000000E+00 0. -1.
</event>
<event>
 6    1  0.1293624E-005  0.7591793E+02  0.7818608E-02  0.1342467E+00
          2   -1    0    0  502    0  0.00000000000E+00  0.00000000000E+00  0.14140147556E+03  0.14140147556E+03  0.00000000000E+00 0. -1.
          1   -1    0    0  501    0 -0.00000000000E+00 -0.00000000000E+00 -0.96621602440E+03  0.96621602440E+03  0.00000000000E+00 0. -1.
          2    1    1    2  501    0 -0.69219539855E+00 -0.41645001838E+02 -0.10531994429E+03  0.11325668182E+03  0.00000000000E+00 0. -1.
          1    1    1    2  502    0 -0.48411344894E+02  0.11372364256E+01 -0.82222654831E+03  0.82365129051E+03  0.00000000000E+00 0. -1.
         22    1    1    2    0    0 -0.22515428828E+01 -0.16117541032E+02 -0.20204620813E+02  0.25943617259E+02  0.00000000000E+00 0.  1.
         22    1    1    2    0    0  0.51355083175E+02  0.56625306444E+02  0.12293656457E+03  0.14476591037E+03  0.00000000000E+00 0. -1.
</event>
<event>
 6    1  0.1293624E-005  0.4003064E+03  0.7818608E-02  0.1065095E+00
          2   -1    0    0  502    0  0.00000000000E+00  0.00000000000E+00  0.18271902366E+04  0.18271902366E+04  0.00000000000E+00 0. -1.
          1   -1    0    0  501    0 -0.00000000000E+00 -0.00000000000E+00 -0.53454672664E+03  0.53454672664E+03  0.00000000000E+00 0. -1.
          2    1    1    2  501    0  0.70094664662E+02  0.17573654100E+03  0.38670693912E+03  0.43050998899E+03  0.00000000000E+00 0. -1.
          1    1    1    2  502    0 -0.20070667783E+03 -0.38411300191E+03 -0.40416712715E+03  0.59260191986E+03  0.00000000000E+00 0. -1.
         22    1    1    2    0    0  0.10268958800E+03  0.19270516004E+03  0.12625671114E+04  0.12813103219E+04  0.00000000000E+00 0.  1.
         22    1    1    2    0    0  0.27922425162E+02  0.15671300870E+02  0.47536586593E+02  0.57314732511E+02  0.00000000000E+00 0.  1.
</event>
<event>
 6    1  0.1293624E-005  0.6923907E+03  0.7818608E-02  0.1030589E+00
          2   -1    0    0  502    0  0.00000000000E+00  0.00000000000E+00  0.32821372315E+04  0.32821372315E+04  0.00000000000E+00 0.  1.
          1   -1    0    0  501    0 -0.00000000000E+00 -0.00000000000E+00 -0.23700607707E+03  0.23700607707E+03  0.00000000000E+00 0. -1.
          2    1    1    2  501    0  0.49320772690E+03  0.35529647313E+03  0.15877026712E+04  0.17000850620E+04  0.00000000000E+00 0.  1.
          1    1    1    2  502    0 -0.45755490700E+03 -0.50771893003E+03  0.51578499694E+03  0.85625298125E+03  0.00000000000E+00 0. -1.
         22    1    1    2    0    0 -0.79407546680E+02  0.81018901159E+02  0.62856529298E+03  0.63872055576E+03  0.00000000000E+00 0. -1.
         22    1    1    2    0    0  0.43754726777E+02  0.71403555742E+02  0.31307819324E+03  0.32408470956E+03  0.00000000000E+00 0.  1.
</event>
<event>
 6    1  0.1293624E-005  0.2337932E+03  0.7818608E-02  0.1123998E+00
          2   -1    0    0  502    0  0.00000000000E+00  0.00000000000E+00  0.56819624615E+03  0.56819624615E+03  0.00000000000E+00 0.  1.
          1   -1    0    0  501    0 -0.00000000000E+00 -0.00000000000E+00 -0.61019670267E+03  0.61019670267E+03  0.00000000000E+00 0.  1.
          2    1    1    2  501    0  0.43722225178E+02  0.22260693655E+02  0.73678841855E+02  0.88519733357E+02  0.00000000000E+00 0.  1.
          1    1    1    2  502    0 -0.58059641859E+02 -0.15337468559E+03 -0.57417060677E+03  0.59713198028E+03  0.00000000000E+00 0.  1.
         22    1    1    2    0    0  0.49404553853E+02  0.64044022894E+01  0.10388048794E+03  0.11520842888E+03  0.00000000000E+00 0. -1.
         22    1    1    2    0    0 -0.35067137172E+02  0.12470958965E+03  0.35461082045E+03  0.37753280631E+03  0.00000000000E+00 0.  1.
</event>
<event>
 6    1  0.1293624E-005  0.1702901E+03  0.7818608E-02  0.1205601E+00
          2   -1    0    0  502    0  0.00000000000E+00  0.00000000000E+00  0.11560190457E+03  0.11560190457E+03  0.00000000000E+00 0.  1.
          1   -1    0    0  501    0 -0.00000000000E+00 -0.00000000000E+00 -0.65925957564E+03  0.65925957564E+03  0.00000000000E+00 0.  1.
          2    1    1    2  501    0  0.79727424912E+02 -0.66366578948E+02 -0.64756071908E+01  0.10393708950E+03  0.00000000000E+00 0.  1.
          1    1    1    2  502    0 -0.86593337561E+02  0.14079611179E+03 -0.49705452989E+03  0.52381786614E+03  0.00000000000E+00 0.  1.
         22    1    1    2    0    0  0.48209956001E+02  0.74949461372E+01 -0.22216339220E+02  0.53609139180E+02  0.00000000000E+00 0.  1.
         22    1    1    2    0    0 -0.41344043352E+02 -0.81924478984E+02 -0.17911194768E+02  0.93497385393E+02  0.00000000000E+00 0. -1.
</event>
<event>
 6    1  0.1293624E-005  0.1181388E+03  0.7818608E-02  0.1246864E+00
          2   -1    0    0  502    0  0.00000000000E+00  0.00000000000E+00  0.16318107357E+03  0.16318107357E+03  0.00000000000E+00 0.  1.
          1   -1    0    0  501    0 -0.00000000000E+00 -0.00000000000E+00 -0.14047757024E+03  0.14047757024E+03  0.00000000000E+00 0.  1.
          2    1    1    2  501    0  0.30164487034E+02 -0.70124488701E+02 -0.24182594031E+02  0.80075826862E+02  0.00000000000E+00 0.  1.
          1    1    1    2  502    0 -0.30176910375E+02 -0.28103390109E+02 -0.25348294167E+02  0.48404364190E+02  0.00000000000E+00 0.  1.
         22    1    1    2    0    0  0.22818831553E+00 -0.27417851706E+02 -0.47446066440E+01  0.27826281719E+02  0.00000000000E+00 0.  1.
         22    1    1    2    0    0 -0.21576497423E+00  0.12564573052E+03  0.76978998168E+02  0.14735217104E+03  0.00000000000E+00 0.  1.
</event>
<event>
 6    1  0.1293624E-005  0.2814661E+03  0.7818608E-02  0.1094891E+00
          2   -1    0    0  502    0  0.00000000000E+00  0.00000000000E+00  0.74065664718E+03  0.74065664718E+03  0.00000000000E+00 0.  1.
          1   -1    0    0  501    0 -0.00000000000E+00 -0.00000000000E+00 -0.59392442635E+02  0.59392442635E+02  0.00000000000E+00 0.  1.
          2    1    1    2  501    0  0.45974742862E+02  0.40513834964E+02  0.63743761843E+02  0.88421236016E+02  0.00000000000E+00 0.  1.
          1    1    1    2  502    0  0.53663119187E+02  0.84849383328E+02  0.57438005398E+02  0.11566448321E+03  0.00000000000E+00 0.  1.
         22    1    1    2    0    0  0.20264992457E+02  0.84888281075E+01  0.38977636555E+02  0.44743561250E+02  0.00000000000E+00 0.  1.
         22    1    1    2    0    0 -0.11990285451E+03 -0.13385204640E+03  0.52110480075E+03  0.55121980934E+03  0.00000000000E+00 0.  1.
</event>
<event>
 6    1  0.1293624E-005  0.9835014E+02  0.7818608E-02  0.1286629E+00
          2   -1    0    0  502    0  0.00000000000E+00  0.00000000000E+00  0.28369353151E+02  0.28369353151E+02  0.00000000000E+00 0.  1.
          1   -1    0    0  501    0 -0.00000000000E+00 -0.00000000000E+00 -0.69417356632E+03  0.69417356632E+03  0.00000000000E+00 0.  1.
          2    1    1    2  501    0 -0.47960127797E+02  0.36977629077E+02 -0.81995062243E+02  0.10193482792E+03  0.00000000000E+00 0.  1.
          1    1    1    2  502    0 -0.30295295146E+02 -0.52430219265E+02 -0.14836733813E+03  0.16024855638E+03  0.00000000000E+00 0.  1.
         22    1    1    2    0    0  0.11181345453E+03  0.14597475501E+02 -0.37013123731E+03  0.38692695401E+03  0.00000000000E+00 0.  1.
         22    1    1    2    0    0 -0.33558031587E+02  0.85511468644E+00 -0.65310575481E+02  0.73432581153E+02  0.00000000000E+00 0. -1.
</event>
<event>
 6    1  0.1293624E-005  0.7712516E+02  0.7818608E-02  0.1339697E+00
          2   -1    0    0  502    0  0.00000000000E+00  0.00000000000E+00  0.19470823872E+03  0.19470823872E+03  0.00000000000E+00 0.  1.
          1   -1    0    0  501    0 -0.00000000000E+00 -0.00000000000E+00 -0.14252567328E+03  0.14252567328E+03  0.00000000000E+00 0.  1.
          2    1    1    2  501    0  0.30110337930E+02 -0.10634507893E+02  0.39861269576E+02  0.51074905977E+02  0.00000000000E+00 0.  1.
          1    1    1    2  502    0  0.95053207404E+01  0.59311320135E+02 -0.94743933583E+02  0.11218108918E+03  0.00000000000E+00 0.  1.
         22    1    1    2    0    0 -0.77610981743E+02 -0.58367928378E+02  0.67436049728E+02  0.11822817073E+03  0.00000000000E+00 0.  1.
         22    1    1    2    0    0  0.37995323072E+02  0.96911161357E+01  0.39629179713E+02  0.55749746116E+02  0.00000000000E+00 0.  1.
</event>
<event>
 6    1  0.1293624E-005  0.3533288E+03  0.7818608E-02  0.1061257E+00
          2   -1    0    0  502    0  0.00000000000E+00  0.00000000000E+00  0.62715535882E+03  0.62715535882E+03  0.00000000000E+00 0.  1.
          1   -1    0    0  501    0 -0.00000000000E+00 -0.00000000000E+00 -0.40803325206E+03  0.40803325206E+03  0.00000000000E+00 0.  1.
          2    1    1    2  501    0 -0.39152423328E+02 -0.83681256899E+02  0.27079159937E+03  0.28611807929E+03  0.00000000000E+00 0.  1.
          1    1    1    2  502    0  0.10180245766E+03  0.27242127351E+03 -0.29311727788E+03  0.41291019512E+03  0.00000000000E+00 0.  1.
         22    1    1    2    0    0 -0.23219094345E+02 -0.21083680610E+02 -0.86144906831E+01  0.32524719522E+02  0.00000000000E+00 0.  1.
         22    1    1    2    0    0 -0.39430939984E+02 -0.16765633600E+03  0.25006227595E+03  0.30363561695E+03  0.00000000000E+00 0.  1.
</event>
<event>
 6    1  0.1293624E-005  0.6855376E+02  0.7818608E-02  0.1371714E+00
          2   -1    0    0  502    0  0.00000000000E+00  0.00000000000E+00  0.51230910423E+02  0.51230910423E+02  0.00000000000E+00 0.  1.
          1   -1    0    0  501    0 -0.00000000000E+00 -0.00000000000E+00 -0.64766432538E+03  0.64766432538E+03  0.00000000000E+00 0. -1.
          2    1    1    2  501    0  0.64587338707E+02 -0.28441624613E+02 -0.10601086917E+03  0.12735287478E+03  0.00000000000E+00 0.  1.
          1    1    1    2  502    0 -0.35852711642E+02  0.12340208872E+02 -0.42440441629E+03  0.42609483247E+03  0.00000000000E+00 0. -1.
         22    1    1    2    0    0  0.23157174342E+02 -0.91002211854E+01 -0.81914269526E+02  0.85609674109E+02  0.00000000000E+00 0.  1.
         22    1    1    2    0    0 -0.51891801407E+02  0.25201636927E+02  0.15896140032E+02  0.59837854448E+02  0.00000000000E+00 0.  1.
</event>
<event>
 6    1  0.1293624E-005  0.3485891E+03  0.7818608E-02  0.1063196E+00
          2   -1    0    0  502    0  0.00000000000E+00  0.00000000000E+00  0.13801909396E+04  0.13801909396E+04  0.00000000000E+00 0. -1.
          1   -1    0    0  501    0 -0.00000000000E+00 -0.00000000000E+00 -0.99554326268E+02  0.99554326268E+02  0.00000000000E+00 0. -1.
          2    1    1    2  501    0  0.23379664696E+02  0.55305010052E+02  0.10027449876E+03  0.11687697789E+03  0.00000000000E+00 0. -1.
          1    1    1    2  502    0  0.12324666439E+03  0.13014108459E+03  0.30370702389E+02  0.18179334902E+03  0.00000000000E+00 0. -1.
         22    1    1    2    0    0 -0.15935521813E+03 -0.19517124338E+03  0.11035333133E+04  0.11319327159E+04  0.00000000000E+00 0. -1.
         22    1    1    2    0    0  0.12728889046E+02  0.97251487385E+01  0.46458098809E+02  0.49142222978E+02  0.00000000000E+00 0. -1.
</event>
<event>
 6    1  0.1293624E-005  0.1680680E+03  0.7818608E-02  0.1179878E+00
          2   -1    0    0  502    0  0.00000000000E+00  0.00000000000E+00  0.34367600847E+03  0.34367600847E+03  0.00000000000E+00 0. -1.
          1   -1    0    0  501    0 -0.00000000000E+00 -0.00000000000E+00 -0.10426718629E+04  0.10426718629E+04  0.00000000000E+00 0.  1.
          2    1    1    2  501    0 -0.13806257139E+02  0.16678734429E+02  0.28102206797E+02  0.35475723322E+02  0.00000000000E+00 0. -1.
          1    1    1    2  502    0 -0.31652360851E+02 -0.68714178765E+02 -0.10206402123E+04  0.10234402539E+04  0.00000000000E+00 0.  1.
         22    1    1    2    0    0 -0.25933828534E+02 -0.24241452326E+02  0.11726418564E+03  0.12251979720E+03  0.00000000000E+00 0. -1.
         22    1    1    2    0    0  0.71392446524E+02  0.76276896661E+02  0.17627796543E+03  0.20491209696E+03  0.00000000000E+00 0. -1.
</event>
<event>
 6    1  0.1293624E-005  0.2041336E+03  0.7818608E-02  0.1146298E+00
          2   -1    0    0  502    0  0.00000000000E+00  0.00000000000E+00  0.45464118672E+02  0.45464118672E+02  0.00000000000E+00 0. -1.
          1   -1    0    0  501    0 -0.00000000000E+00 -0.00000000000E+00 -0.13334057146E+04  0.13334057146E+04  0.00000000000E+00 0. -1.
          2    1    1    2  501    0 -0.18280249123E+02 -0.14365394447E+02 -0.48248718803E+02  0.53558107992E+02  0.00000000000E+00 0. -1.
          1    1    1    2  502    0 -0.71105402665E+02  0.10051040284E+03 -0.10817096580E+04  0.10886937602E+04  0.00000000000E+00 0. -1.
         22    1    1    2    0    0  0.11359498898E+03 -0.93882418260E+02 -0.11602374986E+03  0.18756129801E+03  0.00000000000E+00 0. -1.
         22    1    1    2    0    0 -0.24209337193E+02  0.77374098625E+01 -0.41959469214E+02  0.49056666982E+02  0.00000000000E+00 0. -1.
</event>
<event>
 6    1  0.1293624E-005  0.7523554E+02  0.7818608E-02  0.1344943E+00
          2   -1    0    0  502    0  0.00000000000E+00  0.00000000000E+00  0.56921074923E+03  0.56921074923E+03  0.00000000000E+00 0.  1.
          1   -1    0    0  501    0 -0.00000000000E+00 -0.00000000000E+00 -0.13214048104E+03  0.13214048104E+03  0.00000000000E+00 0. -1.
          2    1    1    2  501    0  0.94871336896E+01 -0.25605675341E+02  0.16660295287E+03  0.16882594653E+03  0.00000000000E+00 0.  1.
          1    1    1    2  502    0 -0.56670411162E+02 -0.17038314847E+02 -0.11037900236E+03  0.12524122259E+03  0.00000000000E+00 0. -1.
         22    1    1    2    0    0  0.11151148919E+02  0.78766647935E+02  0.13936498551E+03  0.16047159292E+03  0.00000000000E+00 0.  1.
         22    1    1    2    0    0  0.36032128553E+02 -0.36122657746E+02  0.24148133217E+03  0.24681246823E+03  0.00000000000E+00 0.  1.
</event>
<event>
 6    1  0.1293624E-005  0.6596624E+02  0.7818608E-02  0.1375729E+00
          2   -1    0    0  502    0  0.00000000000E+00  0.00000000000E+00  0.96856321447E+02  0.96856321447E+02  0.00000000000E+00 0.  1.
          1   -1    0    0  501    0 -0.00000000000E+00 -0.00000000000E+00 -0.10595195205E+03  0.10595195205E+03  0.00000000000E+00 0.  1.
          2    1    1    2  501    0  0.23284303079E+02  0.22677391196E+02 -0.25872050984E+02  0.41542578922E+02  0.00000000000E+00 0.  1.
          1    1    1    2  502    0 -0.21088757745E+02  0.19216526715E+02 -0.11402724970E+02  0.30725115768E+02  0.00000000000E+00 0.  1.
         22    1    1    2    0    0  0.10719131670E+02  0.23836230872E+02 -0.31426524632E+02  0.40874101047E+02  0.00000000000E+00 0. -1.
         22    1    1    2    0    0 -0.12914677004E+02 -0.65730148783E+02  0.59605669979E+02  0.89666477765E+02  0.00000000000E+00 0.  1.
</event>
<event>
 6    1  0.1293624E-005  0.4413176E+03  0.7818608E-02  0.1030343E+00
          2   -1    0    0  502    0  0.00000000000E+00  0.00000000000E+00  0.91293123399E+03  0.91293123399E+03  0.00000000000E+00 0.  1.
          1   -1    0    0  501    0 -0.00000000000E+00 -0.00000000000E+00 -0.40245533774E+03  0.40245533774E+03  0.00000000000E+00 0. -1.
          2    1    1    2  501    0 -0.73468518511E+02 -0.55890164969E+02  0.61157569956E+01  0.92513438138E+02  0.00000000000E+00 0.  1.
          1    1    1    2  502    0 -0.64855249186E+02  0.88974151251E+02 -0.33991497859E+03  0.35730210692E+03  0.00000000000E+00 0. -1.
         22    1    1    2    0    0  0.14313114188E+03 -0.19064542163E+02  0.83642959603E+03  0.84880177289E+03  0.00000000000E+00 0.  1.
         22    1    1    2    0    0 -0.48073741839E+01 -0.14019444119E+02  0.78455218101E+01  0.16769253782E+02  0.00000000000E+00 0.  1.
</event>
<event>
 6    1  0.1293624E-005  0.2024727E+03  0.7818608E-02  0.1173341E+00
          2   -1    0    0  502    0  0.00000000000E+00  0.00000000000E+00  0.36237110069E+03  0.36237110069E+03  0.00000000000E+00 0. -1.
          1   -1    0    0  501    0 -0.00000000000E+00 -0.00000000000E+00 -0.40635449683E+03  0.40635449683E+03  0.00000000000E+00 0. -1.
          2    1    1    2  501    0  0.73915503875E+02  0.10144044955E+02  0.89334322627E+02  0.11639168596E+03  0.00000000000E+00 0. -1.
          1    1    1    2  502    0 -0.20865841951E+03  0.19152316180E+02 -0.32434610727E+03  0.38614187101E+03  0.00000000000E+00 0. -1.
         22    1    1    2    0    0  0.80513891739E+02 -0.77046133323E+02  0.13303219921E+03  0.17354008024E+03  0.00000000000E+00 0. -1.
         22    1    1    2    0    0  0.54229023898E+02  0.47749772189E+02  0.57996189290E+02  0.92651960310E+02  0.00000000000E+00 0.  1.
</event>
<event>
 6    1  0.1293624E-005  0.7653104E+02  0.7818608E-02  0.1341281E+00
          2   -1    0    0  502    0  0.00000000000E+00  0.00000000000E+00  0.28691353473E+03  0.28691353473E+03  0.00000000000E+00 0.  1.
          1   -1    0    0  501    0 -0.00000000000E+00 -0.00000000000E+00 -0.40393095875E+02  0.40393095875E+02  0.00000000000E+00 0. -1.
          2    1    1    2  501    0  0.29535301123E+00 -0.24502918407E+02  0.30797482471E+02  0.39356894827E+02  0.00000000000E+00 0.  1.
          1    1    1    2  502    0 -0.21413094570E+02 -0.13456070000E+01 -0.13736476955E+02  0.25475911689E+02  0.00000000000E+00 0. -1.
         22    1    1    2    0    0  0.10405606299E+02  0.74541022520E+02  0.11276469841E+03  0.13557476863E+03  0.00000000000E+00 0.  1.
         22    1    1    2    0    0  0.10712135260E+02 -0.48692497114E+02  0.11669473493E+03  0.12689905546E+03  0.00000000000E+00 0.  1.
</event>
<event>
 6    1  0.1293624E-005  0.3044062E+03  0.7818608E-02  0.1083059E+00
          2   -1    0    0  502    0  0.00000000000E+00  0.00000000000E+00  0.65003940844E+03  0.65003940844E+03  0.00000000000E+00 0.  1.
          1   -1    0    0  501    0 -0.00000000000E+00 -0.00000000000E+00 -0.12292348618E+03  0.12292348618E+03  0.00000000000E+00 0. -1.
          2    1    1    2  501    0 -0.40009749452E+02 -0.14659538421E+02 -0.80902689154E+01  0.43372048246E+02  0.00000000000E+00 0.  1.
          1    1    1    2  502    0 -0.30849425815E+02 -0.53241436957E+02 -0.75756221025E+02  0.97597862202E+02  0.00000000000E+00 0. -1.
         22    1    1    2    0    0  0.77053411130E+02  0.83576259844E+02  0.60250567927E+03  0.61313563991E+03  0.00000000000E+00 0.  1.
         22    1    1    2    0    0 -0.61942358627E+01 -0.15675284467E+02  0.84567329275E+01  0.18857344268E+02  0.00000000000E+00 0. -1.
</event>
<event>
 6    1  0.1293624E-005  0.2508481E+03  0.7818608E-02  0.1113653E+00
          2   -1    0    0  502    0  0.00000000000E+00  0.00000000000E+00  0.16425219792E+04  0.16425219792E+04  0.00000000000E+00 0.  1.
          1   -1    0    0  501    0 -0.00000000000E+00 -0.00000000000E+00 -0.72604364225E+02  0.72604364225E+02  0.00000000000E+00 0.  1.
          2    1    1    2  501    0 -0.24772434952E+03  0.34254722438E+02  0.31363992500E+03  0.40113681196E+03  0.00000000000E+00 0.  1.
          1    1    1    2  502    0  0.26943618061E+02  0.12619680067E+02 -0.20625954696E+01  0.29823969878E+02  0.00000000000E+00 0.  1.
         22    1    1    2    0    0 -0.14541712833E+02  0.18131332784E+01  0.47478821389E+02  0.49688905651E+02  0.00000000000E+00 0.  1.
         22    1    1    2    0    0  0.23532244429E+03 -0.48687535784E+02  0.12108614641E+04  0.12344766559E+04  0.00000000000E+00 0.  1.
</event>
<event>
 6    1  0.1293624E-005  0.4682233E+02  0.7818608E-02  0.1467382E+00
          2   -1    0    0  502    0  0.00000000000E+00  0.00000000000E+00  0.10268248796E+03  0.10268248796E+03  0.00000000000E+00 0.  1.
          1   -1    0    0  501    0 -0.00000000000E+00 -0.00000000000E+00 -0.10347862391E+04  0.10347862391E+04  0.00000000000E+00 0.  1.
          2    1    1    2  501    0 -0.45266238228E+02 -0.13266509991E+02 -0.58521334124E+02  0.75165012860E+02  0.00000000000E+00 0.  1.
          1    1    1    2  502    0  0.24218401029E+02  0.93352873331E+01 -0.92171389189E+03  0.92207926830E+03  0.00000000000E+00 0.  1.
         22    1    1    2    0    0  0.38605197574E+02  0.18864621325E+02  0.85860588987E+02  0.96011853220E+02  0.00000000000E+00 0.  1.
         22    1    1    2    0    0 -0.17557360375E+02 -0.14933398667E+02 -0.37729114134E+02  0.44212592690E+02  0.00000000000E+00 0.  1.
</event>
<event>
 6    1  0.1293624E-005  0.2337376E+03  0.7818608E-02  0.1124036E+00
          2   -1    0    0  502    0  0.00000000000E+00  0.00000000000E+00  0.84555994837E+02  0.84555994837E+02  0.00000000000E+00 0. -1.
          1   -1    0    0  501    0 -0.00000000000E+00 -0.00000000000E+00 -0.27086662617E+03  0.27086662617E+03  0.00000000000E+00 0.  1.
          2    1    1    2  501    0  0.45490895632E+02  0.13870536074E+02 -0.94719218908E+02  0.10598841346E+03  0.00000000000E+00 0. -1.
          1    1    1    2  502    0 -0.68174720719E+01  0.37337109287E+02 -0.98801415596E+02  0.10584071702E+03  0.00000000000E+00 0.  1.
         22    1    1    2    0    0 -0.19307374683E+02  0.42690272246E+02 -0.42073533993E+01  0.47041852474E+02  0.00000000000E+00 0.  1.
         22    1    1    2    0    0 -0.19366048878E+02 -0.93897917606E+02  0.11417356574E+02  0.96551638054E+02  0.00000000000E+00 0. -1.
</event>
<event>
 6    1  0.1293624E-005  0.1448535E+03  0.7818608E-02  0.1207943E+00
          2   -1    0    0  502    0  0.00000000000E+00  0.00000000000E+00  0.47544722671E+02  0.47544722671E+02  0.00000000000E+00 0.  1.
          1   -1    0    0  501    0 -0.00000000000E+00 -0.00000000000E+00 -0.19261445560E+04  0.19261445560E+04  0.00000000000E+00 0. -1.
          2    1    1    2  501    0 -0.58237980525E+02  0.11406457738E+03 -0.10798151747E+03  0.16751835214E+03  0.00000000000E+00 0.  1.
          1    1    1    2  502    0 -0.14648082451E+02 -0.20431273080E+02 -0.13525543709E+04  0.13527879839E+04  0.00000000000E+00 0. -1.
         22    1    1    2    0    0  0.85099900812E+02 -0.10564531786E+03 -0.41416226040E+03  0.43581338236E+03  0.00000000000E+00 0. -1.
         22    1    1    2    0    0 -0.12213837836E+02  0.12012013560E+02 -0.39016845594E+01  0.17569560235E+02  0.00000000000E+00 0. -1.
</event>
<event>
 6    1  0.1293624E-005  0.9918549E+02  0.7818608E-02  0.1287158E+00
          2   -1    0    0  502    0  0.00000000000E+00  0.00000000000E+00  0.48560900675E+03  0.48560900675E+03  0.00000000000E+00 0.  1.
          1   -1    0    0  501    0 -0.00000000000E+00 -0.00000000000E+00 -0.23390045883E+03  0.23390045883E+03  0.00000000000E+00 0.  1.
          2    1    1    2  501    0  0.41921825323E+02  0.92633112886E+02 -0.49673885747E+02  0.11316283828E+03  0.00000000000E+00 0.  1.
          1    1    1    2  502    0 -0.42118073119E+01 -0.25747717872E+02 -0.13933071537E+03  0.14175236344E+03  0.00000000000E+00 0.  1.
         22    1    1    2    0    0 -0.31479294237E+02 -0.83019593824E+02  0.43821508813E+03  0.44711929325E+03  0.00000000000E+00 0.  1.
         22    1    1    2    0    0 -0.62307237747E+01  0.16134198810E+02  0.24980608981E+01  0.17474970622E+02  0.00000000000E+00 0.  1.
</event>
<event>
 6    1  0.1293624E-005  0.9196978E+02  0.7818608E-02  0.1299490E+00
          2   -1    0    0  502    0  0.00000000000E+00  0.00000000000E+00  0.23937699314E+02  0.23937699314E+02  0.00000000000E+00 0.  1.
          1   -1    0    0  501    0 -0.00000000000E+00 -0.00000000000E+00 -0.63509641500E+03  0.63509641500E+03  0.00000000000E+00 0.  1.
          2    1    1    2  501    0 -0.33187623578E+02  0.32659883093E+02 -0.13117959552E+03  0.13919832113E+03  0.00000000000E+00 0.  1.
          1    1    1    2  502    0  0.44409068788E+02  0.30865087579E+02 -0.17678911484E+03  0.18487620222E+03  0.00000000000E+00 0.  1.
         22    1    1    2    0    0 -0.45381243635E+02  0.21896351767E+02 -0.10726290937E+03  0.11850839304E+03  0.00000000000E+00 0.  1.
         22    1    1    2    0    0  0.34159798425E+02 -0.85421322439E+02 -0.19592709596E+03  0.21645119793E+03  0.00000000000E+00 0.  1.
</event>
<event>
 6    1  0.1293624E-005  0.2030124E+03  0.7818608E-02  0.1147222E+00
          2   -1    0    0  502    0  0.00000000000E+00  0.00000000000E+00  0.19343154162E+03  0.19343154162E+03  0.00000000000E+00 0. -1.
          1   -1    0    0  501    0 -0.00000000000E+00 -0.00000000000E+00 -0.94818986158E+03  0.94818986158E+03  0.00000000000E+00 0.  1.
          2    1    1    2  501    0 -0.10118916737E+02  0.19164818003E+02  0.91586444866E+01  0.23527930080E+02  0.00000000000E+00 0. -1.
          1    1    1    2  502    0 -0.12373348632E+03 -0.29034752071E+02 -0.88912990774E+03  0.89816757084E+03  0.00000000000E+00 0.  1.
         22    1    1    2    0    0  0.11454007128E+03 -0.44290524725E+02  0.92745143105E+02  0.15389197535E+03  0.00000000000E+00 0. -1.
         22    1    1    2    0    0  0.19312331782E+02  0.54160458792E+02  0.32467800192E+02  0.66033926922E+02  0.00000000000E+00 0. -1.
</event>
<event>
 6    1  0.1293624E-005  0.3875492E+03  0.7818608E-02  0.1048178E+00
          2   -1    0    0  502    0  0.00000000000E+00  0.00000000000E+00  0.12973869862E+03  0.12973869862E+03  0.00000000000E+00 0. -1.
          1   -1    0    0  501    0 -0.00000000000E+00 -0.00000000000E+00 -0.13192452326E+04  0.13192452326E+04  0.00000000000E+00 0.  1.
          2    1    1    2  501    0 -0.12533654393E+03  0.42376431825E+02 -0.13673405104E+03  0.19026616077E+03  0.00000000000E+00 0. -1.
          1    1    1    2  502    0  0.34431317835E+03 -0.61793659065E+02 -0.89893848693E+03  0.96460376548E+03  0.00000000000E+00 0.  1.
         22    1    1    2    0    0 -0.41176490131E+02  0.28970266555E+02 -0.93356422790E+02  0.10606696639E+03  0.00000000000E+00 0.  1.
         22    1    1    2    0    0 -0.17780014428E+03 -0.95530393158E+01 -0.60477573254E+02  0.18804703862E+03  0.00000000000E+00 0. -1.
</event>
<event>
 6    1  0.3374168E-005  0.6482225E+03  0.7818608E-02  0.9810120E-01
          2   -1    0    0  502    0  0.00000000000E+00  0.00000000000E+00  0.13628670571E+04  0.13628670571E+04  0.00000000000E+00 0. -1.
          1   -1    0    0  501    0 -0.00000000000E+00 -0.00000000000E+00 -0.45159377988E+03  0.45159377988E+03  0.00000000000E+00 0. -1.
          2    1    1    2  501    0 -0.41791837283E+03 -0.30989160027E+03  0.81180585828E+03  0.96421850315E+03  0.00000000000E+00 0. -1.
          1    1    1    2  502    0  0.43770156460E+03  0.31139830346E+03 -0.16161299247E+03  0.56095483097E+03  0.00000000000E+00 0. -1.
         22    1    1    2    0    0  0.91977430686E+01 -0.58748918536E+02  0.14367268254E+03  0.15549235870E+03  0.00000000000E+00 0. -1.
         22    1    1    2    0    0 -0.28980934839E+02  0.57242215351E+02  0.11740772884E+03  0.13379514414E+03  0.00000000000E+00 0. -1.
</event>
<event>
 6    1  0.1293624E-005  0.6646759E+02  0.7818608E-02  0.1375674E+00
          2   -1    0    0  502    0  0.00000000000E+00  0.00000000000E+00  0.15538882932E+03  0.15538882932E+03  0.00000000000E+00 0.  1.
          1   -1    0    0  501    0 -0.00000000000E+00 -0.00000000000E+00 -0.36725705779E+03  0.36725705779E+03  0.00000000000E+00 0. -1.
          2    1    1    2  501    0  0.13532932552E+02 -0.25337167436E+02 -0.21522743459E+02  0.35893464629E+02  0.00000000000E+00 0.  1.
          1    1    1    2  502    0  0.47462797887E+02  0.12188122469E+02 -0.30407198032E+03  0.30799518946E+03  0.00000000000E+00 0. -1.
         22    1    1    2    0    0 -0.53976319594E+02  0.39738107362E+02  0.13038563699E+03  0.14660482457E+03  0.00000000000E+00 0.  1.
         22    1    1    2    0    0 -0.70194108450E+01 -0.26589062395E+02 -0.16659141677E+02  0.32152408449E+02  0.00000000000E+00 0. -1.
</event>
<event>
 6    1  0.1293624E-005  0.7075000E+02  0.7818608E-02  0.1360860E+00
          2   -1    0    0  502    0  0.00000000000E+00  0.00000000000E+00  0.98387233465E+02  0.98387233465E+02  0.00000000000E+00 0. -1.
          1   -1    0    0  501    0 -0.00000000000E+00 -0.00000000000E+00 -0.37344726410E+03  0.37344726410E+03  0.00000000000E+00 0. -1.
          2    1    1    2  501    0 -0.43290957764E+02  0.32921593662E+01 -0.20603353093E+03  0.21055821334E+03  0.00000000000E+00 0. -1.
          1    1    1    2  502    0  0.21971092757E+01  0.30933066260E+02 -0.11565301700E+03  0.11973847427E+03  0.00000000000E+00 0. -1.
         22    1    1    2    0    0  0.52054153911E+02 -0.43438985894E+02  0.80212622238E+02  0.10502687847E+03  0.00000000000E+00 0. -1.
         22    1    1    2    0    0 -0.10960305423E+02  0.92137602678E+01 -0.33586104932E+02  0.36510931483E+02  0.00000000000E+00 0.  1.
</event>
<event>
 6    1  0.1293624E-005  0.9683375E+02  0.7818608E-02  0.1288783E+00
          2   -1    0    0  502    0  0.00000000000E+00  0.00000000000E+00  0.87412473662E+02  0.87412473662E+02  0.00000000000E+00 0.  1.
          1   -1    0    0  501    0 -0.00000000000E+00 -0.00000000000E+00 -0.16546229580E+03  0.16546229580E+03  0.00000000000E+00 0.  1.
          2    1    1    2  501    0  0.96091585867E+01  0.60609488391E+02 -0.29259833222E+00  0.61367186880E+02  0.00000000000E+00 0.  1.
          1    1    1    2  502    0 -0.23895639649E+02 -0.88335614540E+01 -0.46301653296E+02  0.52847672609E+02  0.00000000000E+00 0.  1.
         22    1    1    2    0    0 -0.59595284171E+01 -0.86197679927E+02 -0.43786676386E+02  0.96865004169E+02  0.00000000000E+00 0.  1.
         22    1    1    2    0    0  0.20246009479E+02  0.34421752990E+02  0.12331105879E+02  0.41794905801E+02  0.00000000000E+00 0.  1.
</event>
<event>
 6    1  0.1293624E-005  0.2020088E+03  0.7818608E-02  0.1148055E+00
          2   -1    0    0  502    0  0.00000000000E+00  0.00000000000E+00  0.85030330365E+03  0.85030330365E+03  0.00000000000E+00 0.  1.
          1   -1    0    0  501    0 -0.00000000000E+00 -0.00000000000E+00 -0.20820235955E+03  0.20820235955E+03  0.00000000000E+00 0.  1.
          2    1    1    2  501    0 -0.24444143844E+01  0.45871887682E+02  0.24183014543E+03  0.24615447280E+03  0.00000000000E+00 0.  1.
          1    1    1    2  502    0  0.51707165707E+02  0.26252938297E+02 -0.19185742304E+03  0.20042983443E+03  0.00000000000E+00 0.  1.
         22    1    1    2    0    0  0.30631815487E+02  0.81807693247E+01  0.59920356561E+02  0.67791461388E+02  0.00000000000E+00 0. -1.
         22    1    1    2    0    0 -0.79894566809E+02 -0.80305595304E+02  0.53220786515E+03  0.54412989458E+03  0.00000000000E+00 0.  1.
</event>
<event>
 6    1  0.1293624E-005  0.1542021E+03  0.7818608E-02  0.1195403E+00
          2   -1    0    0  502    0  0.00000000000E+00  0.00000000000E+00  0.13914700562E+02  0.13914700562E+02  0.00000000000E+00 0. -1.
          1   -1    0    0  501    0 -0.00000000000E+00 -0.00000000000E+00 -0.12413119176E+04  0.12413119176E+04  0.00000000000E+00 0. -1.
          2    1    1    2  501    0 -0.19460915569E+02  0.13386916999E+02 -0.51198431029E+02  0.56384537964E+02  0.00000000000E+00 0. -1.
          1    1    1    2  502    0 -0.28523074698E+02 -0.83788152433E+01 -0.80523172914E+03  0.80578030998E+03  0.00000000000E+00 0. -1.
         22    1    1    2    0    0 -0.22918827159E+02  0.29724025584E+02 -0.21497903137E+03  0.21823101123E+03  0.00000000000E+00 0. -1.
         22    1    1    2    0    0  0.70902817426E+02 -0.34732127339E+02 -0.15598802550E+03  0.17483075898E+03  0.00000000000E+00 0. -1.
</event>
<event>
 6    1  0.1293624E-005  0.3240778E+03  0.7818608E-02  0.1073788E+00
          2   -1    0    0  502    0  0.00000000000E+00  0.00000000000E+00  0.10223727599E+03  0.10223727599E+03  0.00000000000E+00 0.  1.
          1   -1    0    0  501    0 -0.00000000000E+00 -0.00000000000E+00 -0.25554356985E+04  0.25554356985E+04  0.00000000000E+00 0. -1.
          2    1    1    2  501    0  0.59377854995E+01 -0.90038361693E+02 -0.36507792407E+01  0.90307763022E+02  0.00000000000E+00 0.  1.
          1    1    1    2  502    0  0.16692404359E+03  0.27255391110E+02 -0.22874030138E+04  0.22936475406E+04  0.00000000000E+00 0. -1.
         22    1    1    2    0    0 -0.17232436070E+03  0.80033807541E+02 -0.16981590388E+03  0.25483040801E+03  0.00000000000E+00 0.  1.
         22    1    1    2    0    0 -0.53746839254E+00 -0.17250836958E+02  0.76712744298E+01  0.18887262888E+02  0.00000000000E+00 0.  1.
</event>
<event>
 6    1  0.1293624E-005  0.8494893E+02  0.7818608E-02  0.1316517E+00
          2   -1    0    0  502    0  0.00000000000E+00  0.00000000000E+00  0.80070124269E+02  0.80070124269E+02  0.00000000000E+00 0.  1.
          1   -1    0    0  501    0 -0.00000000000E+00 -0.00000000000E+00 -0.40843230269E+03  0.40843230269E+03  0.00000000000E+00 0. -1.
          2    1    1    2  501    0 -0.28587629969E+02  0.55627859108E+02  0.21321377660E+02  0.66078078373E+02  0.00000000000E+00 0.  1.
          1    1    1    2  502    0 -0.39378940477E+02 -0.11397675191E+02 -0.21940304683E+03  0.22320014541E+03  0.00000000000E+00 0. -1.
         22    1    1    2    0    0  0.82471965088E+02 -0.57962667010E+02 -0.14343016678E+03  0.17530975026E+03  0.00000000000E+00 0.  1.
         22    1    1    2    0    0 -0.14505394641E+02  0.13732483092E+02  0.13149657525E+02  0.23914452923E+02  0.00000000000E+00 0.  1.
</event>
<event>
 6    1  0.1293624E-005  0.1078582E+03  0.7818608E-02  0.1267462E+00
          2   -1    0    0  502    0  0.00000000000E+00  0.00000000000E+00  0.80178360270E+03  0.80178360270E+03  0.00000000000E+00 0. -1.
          1   -1    0    0  501    0 -0.00000000000E+00 -0.00000000000E+00 -0.44768920809E+02  0.44768920809E+02  0.00000000000E+00 0.  1.
          2    1    1    2  501    0  0.67604476205E+02 -0.17310468280E+02  0.14008734988E+03  0.15650713438E+03  0.00000000000E+00 0. -1.
          1    1    1    2  502    0 -0.68808166435E+02 -0.82048458758E+02  0.92669935124E+02  0.14161295925E+03  0.00000000000E+00 0.  1.
         22    1    1    2    0    0  0.55897944929E+02  0.13273080566E+02  0.15338779861E+03  0.16379429684E+03  0.00000000000E+00 0.  1.
         22    1    1    2    0    0 -0.54694254699E+02  0.86085846472E+02  0.37086959828E+03  0.38463813304E+03  0.00000000000E+00 0. -1.
</event>
<event>
 6    1  0.1293624E-005  0.8670487E+02  0.7818608E-02  0.1312130E+00
          2   -1    0    0  502    0  0.00000000000E+00  0.00000000000E+00  0.77433111471E+02  0.77433111471E+02  0.00000000000E+00 0.  1.
          1   -1    0    0  501    0 -0.00000000000E+00 -0.00000000000E+00 -0.25235731768E+03  0.25235731768E+03  0.00000000000E+00 0.  1.
          2    1    1    2  501    0 -0.15803886342E+02 -0.53572711838E+02 -0.11963686809E+03  0.13203324765E+03  0.00000000000E+00 0.  1.
          1    1    1    2  502    0 -0.24318721732E+02 -0.45422481733E+01 -0.51832990611E+02  0.57434233353E+02  0.00000000000E+00 0.  1.
         22    1    1    2    0    0  0.52999864557E+02  0.69791309911E+02  0.37888542835E+02  0.95474364414E+02  0.00000000000E+00 0.  1.
         22    1    1    2    0    0 -0.12877256483E+02 -0.11676349900E+02 -0.41342890343E+02  0.44848583739E+02  0.00000000000E+00 0.  1.
</event>
<event>
 6    1  0.1293624E-005  0.1862468E+03  0.7818608E-02  0.1161891E+00
          2   -1    0    0  502    0  0.00000000000E+00  0.00000000000E+00  0.11029467768E+03  0.11029467768E+03  0.00000000000E+00 0. -1.
          1   -1    0    0  501    0 -0.00000000000E+00 -0.00000000000E+00 -0.14604628738E+03  0.14604628738E+03  0.00000000000E+00 0. -1.
          2    1    1    2  501    0  0.15916406419E+02  0.19178180721E+02 -0.21914615707E+02  0.33187120856E+02  0.00000000000E+00 0. -1.
          1    1    1    2  502    0  0.60812559761E+02  0.18748145765E+02 -0.29101784866E+02  0.69975526270E+02  0.00000000000E+00 0. -1.
         22    1    1    2    0    0  0.24450351072E+02  0.20247409720E+02 -0.10910687043E+02  0.33568145013E+02  0.00000000000E+00 0. -1.
         22    1    1    2    0    0 -0.10117931725E+03 -0.58173736206E+02  0.26175477913E+02  0.11961017293E+03  0.00000000000E+00 0. -1.
</event>
<event>
 6    1  0.1293624E-005  0.1784438E+03  0.7818608E-02  0.1169318E+00
          2   -1    0    0  502    0  0.00000000000E+00  0.00000000000E+00  0.75578516756E+02  0.75578516756E+02  0.00000000000E+00 0. -1.
          1   -1    0    0  501    0 -0.00000000000E+00 -0.00000000000E+00 -0.99925665864E+03  0.99925665864E+03  0.00000000000E+00 0.  1.
          2    1    1    2  501    0  0.14276040112E+02  0.19188450103E+02  0.34286244844E+02  0.41803690317E+02  0.00000000000E+00 0. -1.
          1    1    1    2  502    0 -0.13528299994E+02 -0.19414114108E+02 -0.89355306243E+03  0.89386632004E+03  0.00000000000E+00 0.  1.
         22    1    1    2    0    0  0.17146588386E+02  0.30390671726E+01  0.34480351981E+02  0.38628177479E+02  0.00000000000E+00 0. -1.
         22    1    1    2    0    0 -0.17894328504E+02 -0.28134031675E+01 -0.98891676276E+02  0.10053698756E+03  0.00000000000E+00 0. -1.
</event>
<event>
 6    1  0.1293624E-005  0.1115575E+03  0.7818608E-02  0.1259651E+00
          2   -1    0    0  502    0  0.00000000000E+00  0.00000000000E+00  0.66502104603E+03  0.66502104603E+03  0.00000000000E+00 0.  1.
          1   -1    0    0  501    0 -0.00000000000E+00 -0.00000000000E+00 -0.29300176919E+03  0.29300176919E+03  0.00000000000E+00 0.  1.
          2    1    1    2  501    0  0.78094697014E+02  0.53656130095E+01  0.35165671675E+02  0.85814893632E+02  0.00000000000E+00 0.  1.
          1    1    1    2  502    0  0.15407536873E+02  0.39234601745E+02 -0.25509213372E+03  0.25855123835E+03  0.00000000000E+00 0.  1.
         22    1    1    2    0    0 -0.10625704072E+03 -0.32296284072E+02  0.58359094714E+03  0.59406397151E+03  0.00000000000E+00 0.  1.
         22    1    1    2    0    0  0.12754806836E+02 -0.12303930682E+02  0.83547917487E+01  0.19592711727E+02  0.00000000000E+00 0.  1.
</event>
<event>
 6    1  0.1293624E-005  0.3007299E+03  0.7818608E-02  0.1084876E+00
          2   -1    0    0  502    0  0.00000000000E+00  0.00000000000E+00  0.17425370083E+03  0.17425370083E+03  0.00000000000E+00 0. -1.
          1   -1    0    0  501    0 -0.00000000000E+00 -0.00000000000E+00 -0.46699846034E+03  0.46699846034E+03  0.00000000000E+00 0. -1.
          2    1    1    2  501    0  0.19314058931E+02  0.20602237348E+02 -0.10467692514E+03  0.10841929585E+03  0.00000000000E+00 0. -1.
          1    1    1    2  502    0 -0.13928544293E+02  0.16709507834E+02 -0.33663431859E+03  0.33733644400E+03  0.00000000000E+00 0. -1.
         22    1    1    2    0    0  0.20559893027E+02  0.19119392480E+02 -0.61823442237E+01  0.28748595621E+02  0.00000000000E+00 0. -1.
         22    1    1    2    0    0 -0.25945407665E+02 -0.56431137662E+02  0.15474882844E+03  0.16674782571E+03  0.00000000000E+00 0. -1.
</event>
<event>
 6    1  0.1293624E-005  0.1590135E+03  0.7818608E-02  0.1189815E+00
          2   -1    0    0  502    0  0.00000000000E+00  0.00000000000E+00  0.43949522205E+03  0.43949522205E+03  0.00000000000E+00 0.  1.
          1   -1    0    0  501    0 -0.00000000000E+00 -0.00000000000E+00 -0.22619577346E+02  0.22619577346E+02  0.00000000000E+00 0.  1.
          2    1    1    2  501    0 -0.38633379447E+01  0.26165090259E+02  0.27435934643E+02  0.38108632067E+02  0.00000000000E+00 0.  1.
          1    1    1    2  502    0 -0.68050059358E+01 -0.27355698954E+02  0.19985039868E+02  0.34554944503E+02  0.00000000000E+00 0.  1.
         22    1    1    2    0    0 -0.33074450720E+02  0.39300915633E+02  0.26531624497E+03  0.27024283729E+03  0.00000000000E+00 0.  1.
         22    1    1    2    0    0  0.43742794601E+02 -0.38110306938E+02  0.10413842522E+03  0.11920838553E+03  0.00000000000E+00 0.  1.
</event>
<event>
 6    1  0.1293624E-005  0.8357036E+02  0.7818608E-02  0.1321237E+00
          2   -1    0    0  502    0  0.00000000000E+00  0.00000000000E+00  0.34914007182E+03  0.34914007182E+03  0.00000000000E+00 0. -1.
          1   -1    0    0  501    0 -0.00000000000E+00 -0.00000000000E+00 -0.72498016731E+02  0.72498016731E+02  0.00000000000E+00 0.  1.
          2    1    1    2  501    0 -0.40359264676E+02  0.74095487984E+01  0.10374939606E+03  0.11156930063E+03  0.00000000000E+00 0. -1.
          1    1    1    2  502    0 -0.12663322993E+02 -0.18524665750E+02 -0.45337410994E+02  0.50586597297E+02  0.00000000000E+00 0.  1.
         22    1    1    2    0    0 -0.35820560216E+02 -0.13439084175E+02  0.11446867448E+03  0.12069299464E+03  0.00000000000E+00 0. -1.
         22    1    1    2    0    0  0.88843147886E+02  0.24554201127E+02  0.10376139554E+03  0.13878919599E+03  0.00000000000E+00 0.  1.
</event>
<event>
 6    1  0.1293624E-005  0.3939581E+03  0.7818608E-02  0.1045892E+00
          2   -1    0    0  502    0  0.00000000000E+00  0.00000000000E+00  0.10087311432E+04  0.10087311432E+04  0.00000000000E+00 0. -1.
          1   -1    0    0  501    0 -0.00000000000E+00 -0.00000000000E+00 -0.76658933124E+02  0.76658933124E+02  0.00000000000E+00 0. -1.
          2    1    1    2  501    0  0.52026991427E+02 -0.13283828949E+03  0.66145784000E+02  0.15725165733E+03  0.00000000000E+00 0. -1.
          1    1    1    2  502    0 -0.10224816495E+03  0.12504383420E+03  0.24722133965E+03  0.29531176489E+03  0.00000000000E+00 0. -1.
         22    1    1    2    0    0  0.80866797531E+02  0.37962937451E+02  0.44491970879E+03  0.45379970343E+03  0.00000000000E+00 0. -1.
         22    1    1    2    0    0 -0.30645624007E+02 -0.30168482152E+02  0.17378537768E+03  0.17902695071E+03  0.00000000000E+00 0. -1.
</event>
<event>
 6    1  0.1293624E-005  0.3189295E+03  0.7818608E-02  0.1076143E+00
          2   -1    0    0  502    0  0.00000000000E+00  0.00000000000E+00  0.50659691434E+03  0.50659691434E+03  0.00000000000E+00 0. -1.
          1   -1    0    0  501    0 -0.00000000000E+00 -0.00000000000E+00 -0.18187358725E+03  0.18187358725E+03  0.00000000000E+00 0. -1.
          2    1    1    2  501    0 -0.37973927468E+02  0.20014495730E+02  0.63832146352E+01  0.43397518774E+02  0.00000000000E+00 0. -1.
          1    1    1    2  502    0 -0.17447863612E+03  0.54275691516E+02 -0.56660586847E+02  0.19130882691E+03  0.00000000000E+00 0. -1.
         22    1    1    2    0    0 -0.11208494012E+02  0.10321873696E+02  0.13669508295E+02  0.20470145863E+02  0.00000000000E+00 0.  1.
         22    1    1    2    0    0  0.22366105760E+03 -0.84612060942E+02  0.36133119101E+03  0.43329401005E+03  0.00000000000E+00 0. -1.
</event>
<event>
 6    1  0.1293624E-005  0.1074226E+03  0.7818608E-02  0.1358092E+00
          2   -1    0    0  502    0  0.00000000000E+00  0.00000000000E+00  0.81194193567E+02  0.81194193567E+02  0.00000000000E+00 0.  1.
          1   -1    0    0  501    0 -0.00000000000E+00 -0.00000000000E+00 -0.20986123412E+04  0.20986123412E+04  0.00000000000E+00 0. -1.
          2    1    1    2  501    0 -0.57838146938E+02  0.24430681639E+02 -0.25714665697E+02  0.67848017499E+02  0.00000000000E+00 0.  1.
          1    1    1    2  502    0  0.88108830056E+02 -0.41373165038E+02 -0.19776873160E+04  0.19800813177E+04  0.00000000000E+00 0. -1.
         22    1    1    2    0    0  0.14211592172E+02  0.14118039655E+02  0.50005132445E+02  0.53868373528E+02  0.00000000000E+00 0.  1.
         22    1    1    2    0    0 -0.44482275290E+02  0.28244437441E+01 -0.64021298340E+02  0.78008826030E+02  0.00000000000E+00 0.  1.
</event>
<event>
 6    1  0.1293624E-005  0.5014710E+03  0.7818608E-02  0.1013396E+00
          2   -1    0    0  502    0  0.00000000000E+00  0.00000000000E+00  0.16297255729E+04  0.16297255729E+04  0.00000000000E+00 0.  1.
          1   -1    0    0  501    0 -0.00000000000E+00 -0.00000000000E+00 -0.36882012600E+03  0.36882012600E+03  0.00000000000E+00 0. -1.
          2    1    1    2  501    0 -0.71758940748E+02  0.13304846057E+03  0.11301580679E+04  0.11402230031E+04  0.00000000000E+00 0.  1.
          1    1    1    2  502    0 -0.13669378554E+03 -0.18491090868E+03 -0.28912247940E+03  0.36941716697E+03  0.00000000000E+00 0. -1.
         22    1    1    2    0    0  0.88111926882E+00  0.21915669626E+02  0.12589067634E+03  0.12778707030E+03  0.00000000000E+00 0. -1.
         22    1    1    2    0    0  0.20757160701E+03  0.29946778482E+02  0.29397918202E+03  0.36111845846E+03  0.00000000000E+00 0. -1.
</event>
<event>
 6    1  0.1293624E-005  0.3441963E+03  0.7818608E-02  0.1065023E+00
          2   -1    0    0  502    0  0.00000000000E+00  0.00000000000E+00  0.16700294665E+04  0.16700294665E+04  0.00000000000E+00 0. -1.
          1   -1    0    0  501    0 -0.00000000000E+00 -0.00000000000E+00 -0.69342668769E+02  0.69342668769E+02  0.00000000000E+00 0. -1.
          2    1    1    2  501    0  0.58113815775E+02  0.38950184527E+02  0.16659406752E+02  0.71915702680E+02  0.00000000000E+00 0. -1.
          1    1    1    2  502    0 -0.93516196847E+02 -0.23413237529E+03  0.11208291490E+04  0.11488347268E+04  0.00000000000E+00 0. -1.
         22    1    1    2    0    0  0.19667175692E+02 -0.13553045546E+02  0.43971419563E+02  0.50039670079E+02  0.00000000000E+00 0. -1.
         22    1    1    2    0    0  0.15735205380E+02  0.20873523631E+03  0.41922682246E+03  0.46858203576E+03  0.00000000000E+00 0. -1.
</event>
<event>
 6    1  0.1293624E-005  0.6738552E+02  0.7818608E-02  0.1372591E+00
          2   -1    0    0  502    0  0.00000000000E+00  0.00000000000E+00  0.85350441236E+02  0.85350441236E+02  0.00000000000E+00 0.  1.
          1   -1    0    0  501    0 -0.00000000000E+00 -0.00000000000E+00 -0.24791195757E+03  0.24791195757E+03  0.00000000000E+00 0. -1.
          2    1    1    2  501    0 -0.25095563046E+02 -0.27992435426E+02 -0.53259302293E+02  0.65191387517E+02  0.00000000000E+00 0.  1.
          1    1    1    2  502    0  0.18485424176E+02 -0.27662045096E+02 -0.12543969365E+03  0.12977679449E+03  0.00000000000E+00 0. -1.
         22    1    1    2    0    0  0.29614989699E+02  0.58533299875E+02  0.59859772235E+02  0.88805332842E+02  0.00000000000E+00 0.  1.
         22    1    1    2    0    0 -0.23004850828E+02 -0.28788193534E+01 -0.43722292625E+02  0.49488883953E+02  0.00000000000E+00 0.  1.
</event>
<event>
 6    1  0.1293624E-005  0.2759714E+03  0.7818608E-02  0.1194557E+00
          2   -1    0    0  502    0  0.00000000000E+00  0.00000000000E+00  0.85910840872E+03  0.85910840872E+03  0.00000000000E+00 0. -1.
          1   -1    0    0  501    0 -0.00000000000E+00 -0.00000000000E+00 -0.10519984168E+03  0.10519984168E+03  0.00000000000E+00 0. -1.
          2    1    1    2  501    0  0.14726748769E+02  0.46175363270E+02  0.52046984346E+02  0.71119124586E+02  0.00000000000E+00 0. -1.
          1    1    1    2  502    0 -0.23095199676E+03 -0.15575769463E+03  0.31569096559E+03  0.42102264784E+03  0.00000000000E+00 0. -1.
         22    1    1    2    0    0  0.18969633439E+03  0.10271376333E+03  0.23689649190E+03  0.32039782199E+03  0.00000000000E+00 0. -1.
         22    1    1    2    0    0  0.26528913600E+02  0.68685680331E+01  0.14927412521E+03  0.15176865599E+03  0.00000000000E+00 0. -1.
</event>
<event>
 6    1  0.1293624E-005  0.5840515E+02  0.7818608E-02  0.1407588E+00
          2   -1    0    0  502    0  0.00000000000E+00  0.00000000000E+00  0.38051670555E+02  0.38051670555E+02  0.00000000000E+00 0. -1.
          1   -1    0    0  501    0 -0.00000000000E+00 -0.00000000000E+00 -0.25459476685E+03  0.25459476685E+03  0.00000000000E+00 0. -1.
          2    1    1    2  501    0 -0.13594474878E+02 -0.17727403315E+02 -0.52009739878E+01  0.22937321246E+02  0.00000000000E+00 0. -1.
          1    1    1    2  502    0 -0.10014319233E+02 -0.19776830089E+02 -0.80521733816E+02  0.83517418632E+02  0.00000000000E+00 0. -1.
         22    1    1    2    0    0 -0.29789137629E+02 -0.12000880147E+02  0.45928870412E+01  0.32442386724E+02  0.00000000000E+00 0. -1.
         22    1    1    2    0    0  0.53397931741E+02  0.49505113551E+02 -0.13541327554E+03  0.15374931081E+03  0.00000000000E+00 0. -1.
</event>
<event>
 6    1  0.1293624E-005  0.7519314E+02  0.7818608E-02  0.1348453E+00
          2   -1    0    0  502    0  0.00000000000E+00  0.00000000000E+00  0.31025488556E+02  0.31025488556E+02  0.00000000000E+00 0. -1.
          1   -1    0    0  501    0 -0.00000000000E+00 -0.00000000000E+00 -0.37772803622E+03  0.37772803622E+03  0.00000000000E+00 0. -1.
          2    1    1    2  501    0  0.17694589596E+02  0.18936161612E+02 -0.14930124587E+03  0.15153395242E+03  0.00000000000E+00 0. -1.
          1    1    1    2  502    0 -0.14823340893E+02 -0.31031141992E+02 -0.71011495847E+02  0.78900543414E+02  0.00000000000E+00 0. -1.
         22    1    1    2    0    0 -0.17568439994E+02  0.55060666465E+02 -0.17574110370E+02  0.60408413575E+02  0.00000000000E+00 0. -1.
         22    1    1    2    0    0  0.14697191290E+02 -0.42965686085E+02 -0.10881569558E+03  0.11791061537E+03  0.00000000000E+00 0. -1.
</event>
<event>
 6    1  0.1293624E-005  0.2622245E+03  0.7818608E-02  0.1105814E+00
          2   -1    0    0  502    0  0.00000000000E+00  0.00000000000E+00  0.22354664450E+03  0.22354664450E+03  0.00000000000E+00 0.  1.
          1   -1    0    0  501    0 -0.00000000000E+00 -0.00000000000E+00 -0.12860543829E+04  0.12860543829E+04  0.00000000000E+00 0. -1.
          2    1    1    2  501    0 -0.38319162794E+02 -0.17763612741E+01 -0.41803989852E+02  0.56737000839E+02  0.00000000000E+00 0.  1.
          1    1    1    2  502    0  0.38538095598E+02 -0.87373096086E+02 -0.12066148549E+04  0.12103878101E+04  0.00000000000E+00 0. -1.
         22    1    1    2    0    0 -0.23715831136E+01 -0.14834879501E+02 -0.11782686884E+02  0.19092662635E+02  0.00000000000E+00 0. -1.
         22    1    1    2    0    0  0.21526503099E+01  0.10398433686E+03  0.19769379327E+03  0.22338355381E+03  0.00000000000E+00 0.  1.
</event>
<event>
 6    1  0.1293624E-005  0.1776104E+03  0.7818608E-02  0.1170136E+00
          2   -1    0    0  502    0  0.00000000000E+00  0.00000000000E+00  0.36323353910E+02  0.36323353910E+02  0.00000000000E+00 0.  1.
          1   -1    0    0  501    0 -0.00000000000E+00 -0.00000000000E+00 -0.15979789997E+04  0.15979789997E+04  0.00000000000E+00 0.  1.
          2    1    1    2  501    0  0.75240587239E+01  0.19173782578E+02 -0.24618016752E+02  0.32098164228E+02  0.00000000000E+00 0.  1.
          1    1    1    2  502    0 -0.60045992022E+01  0.72252327155E+02 -0.13740407774E+04  0.13759522201E+04  0.00000000000E+00 0.  1.
         22    1    1    2    0    0  0.35352023520E+02  0.73827733935E+01 -0.52453820918E+01  0.36493628803E+02  0.00000000000E+00 0.  1.
         22    1    1    2    0    0 -0.36871483041E+02 -0.98808883126E+02 -0.15775146958E+03  0.18975834053E+03  0.00000000000E+00 0. -1.
</event>
<event>
 6    1  0.1293624E-005  0.5215309E+02  0.7818608E-02  0.1441109E+00
          2   -1    0    0  502    0  0.00000000000E+00  0.00000000000E+00  0.64089374103E+02  0.64089374103E+02  0.00000000000E+00 0.  1.
          1   -1    0    0  501    0 -0.00000000000E+00 -0.00000000000E+00 -0.74087343330E+03  0.74087343330E+03  0.00000000000E+00 0.  1.
          2    1    1    2  501    0  0.36253991332E+02  0.14747805566E+02 -0.51917371598E+02  0.65017406362E+02  0.00000000000E+00 0.  1.
          1    1    1    2  502    0 -0.43881007534E+02  0.37708597054E+01 -0.61230426573E+03  0.61388620773E+03  0.00000000000E+00 0.  1.
         22    1    1    2    0    0  0.17123471713E+02  0.26865365218E+02 -0.54767895362E+02  0.63359951816E+02  0.00000000000E+00 0.  1.
         22    1    1    2    0    0 -0.94964555110E+01 -0.45384030489E+02  0.42205473498E+02  0.62699241493E+02  0.00000000000E+00 0.  1.
</event>
<event>
 6    1  0.1293624E-005  0.3764527E+03  0.7818608E-02  0.1052253E+00
          2   -1    0    0  502    0  0.00000000000E+00  0.00000000000E+00  0.53001832891E+03  0.53001832891E+03  0.00000000000E+00 0. -1.
          1   -1    0    0  501    0 -0.00000000000E+00 -0.00000000000E+00 -0.10355252197E+03  0.10355252197E+03  0.00000000000E+00 0. -1.
          2    1    1    2  501    0  0.90482065697E+02 -0.62738250926E+02  0.13910242406E+02  0.11098012068E+03  0.00000000000E+00 0. -1.
          1    1    1    2  502    0  0.73895885359E+02  0.30146537638E+02  0.25982899799E+02  0.83931678683E+02  0.00000000000E+00 0. -1.
         22    1    1    2    0    0 -0.56061690811E+02  0.76564723503E+01  0.27759421905E+02  0.63024759023E+02  0.00000000000E+00 0. -1.
         22    1    1    2    0    0 -0.10831626024E+03  0.24935240938E+02  0.35881324283E+03  0.37563429250E+03  0.00000000000E+00 0. -1.
</event>
<event>
 6    1  0.1293624E-005  0.2550915E+03  0.7818608E-02  0.1110129E+00
          2   -1    0    0  502    0  0.00000000000E+00  0.00000000000E+00  0.18980203197E+02  0.18980203197E+02  0.00000000000E+00 0. -1.
          1   -1    0    0  501    0 -0.00000000000E+00 -0.00000000000E+00 -0.14645933838E+04  0.14645933838E+04  0.00000000000E+00 0. -1.
          2    1    1    2  501    0  0.82042639525E+02 -0.33606475830E+00 -0.16082929054E+03  0.18054685911E+03  0.00000000000E+00 0. -1.
          1    1    1    2  502    0  0.21716543094E+01  0.41189291434E+02 -0.57184178878E+03  0.57332739792E+03  0.00000000000E+00 0. -1.
         22    1    1    2    0    0  0.13733852444E+02  0.25340289192E+02 -0.65620567945E+02  0.71671527796E+02  0.00000000000E+00 0. -1.
         22    1    1    2    0    0 -0.97948146278E+02 -0.66193515868E+02 -0.64732153332E+03  0.65802780215E+03  0.00000000000E+00 0. -1.
</event>
<event>
 6    1  0.1293624E-005  0.1814350E+03  0.7818608E-02  0.1166421E+00
          2   -1    0    0  502    0  0.00000000000E+00  0.00000000000E+00  0.55034265232E+02  0.55034265232E+02  0.00000000000E+00 0. -1.
          1   -1    0    0  501    0 -0.00000000000E+00 -0.00000000000E+00 -0.29131914426E+03  0.29131914426E+03  0.00000000000E+00 0. -1.
          2    1    1    2  501    0 -0.38596253812E+02 -0.13487859444E+02 -0.86738615087E+02  0.95891503836E+02  0.00000000000E+00 0. -1.
          1    1    1    2  502    0  0.70957599494E+02 -0.10615774069E+02 -0.63670864860E+02  0.95925255366E+02  0.00000000000E+00 0. -1.
         22    1    1    2    0    0 -0.21060971073E+02  0.61110658150E+02 -0.94883191480E+02  0.11480808799E+03  0.00000000000E+00 0. -1.
         22    1    1    2    0    0 -0.11300374609E+02 -0.37007024637E+02  0.90077923987E+01  0.39728562303E+02  0.00000000000E+00 0.  1.
</event>
<event>
 6    1  0.1293624E-005  0.6324609E+03  0.7818608E-02  0.9840258E-01
          2   -1    0    0  502    0  0.00000000000E+00  0.00000000000E+00  0.48470182016E+03  0.48470182016E+03  0.00000000000E+00 0. -1.
          1   -1    0    0  501    0 -0.00000000000E+00 -0.00000000000E+00 -0.52976641709E+03  0.52976641709E+03  0.00000000000E+00 0. -1.
          2    1    1    2  501    0 -0.90509152746E+02  0.16806589110E+03  0.84709915717E+02  0.20883922118E+03  0.00000000000E+00 0. -1.
          1    1    1    2  502    0  0.20257038148E+03  0.23330198998E+03 -0.19384010042E+03  0.36474451677E+03  0.00000000000E+00 0. -1.
         22    1    1    2    0    0 -0.12351026022E+02  0.47981850788E+01  0.14643509542E+02  0.19748488437E+02  0.00000000000E+00 0.  1.
         22    1    1    2    0    0 -0.99710202710E+02 -0.40616606616E+03  0.49422078235E+02  0.42113601086E+03  0.00000000000E+00 0. -1.
</event>
<event>
 6    1  0.1293624E-005  0.1488159E+03  0.7818608E-02  0.1201936E+00
          2   -1    0    0  502    0  0.00000000000E+00  0.00000000000E+00  0.17617491258E+03  0.17617491258E+03  0.00000000000E+00 0. -1.
          1   -1    0    0  501    0 -0.00000000000E+00 -0.00000000000E+00 -0.11826446315E+03  0.11826446315E+03  0.00000000000E+00 0.  1.
          2    1    1    2  501    0 -0.94002080608E+01 -0.18302122959E+02  0.31099741277E+01  0.20808737479E+02  0.00000000000E+00 0. -1.
          1    1    1    2  502    0  0.26391615389E+02  0.33805377925E+02 -0.80496640266E+02  0.91208716873E+02  0.00000000000E+00 0.  1.
         22    1    1    2    0    0  0.36421472414E+02  0.69180893876E+01  0.20520166902E+01  0.37129427494E+02  0.00000000000E+00 0. -1.
         22    1    1    2    0    0 -0.53412879742E+02 -0.22421344354E+02  0.13324509888E+03  0.14529249389E+03  0.00000000000E+00 0. -1.
</event>
<event>
 6    1  0.1293624E-005  0.1563882E+03  0.7818608E-02  0.1195504E+00
          2   -1    0    0  502    0  0.00000000000E+00  0.00000000000E+00  0.12208640968E+04  0.12208640968E+04  0.00000000000E+00 0. -1.
          1   -1    0    0  501    0 -0.00000000000E+00 -0.00000000000E+00 -0.19490845134E+03  0.19490845134E+03  0.00000000000E+00 0. -1.
          2    1    1    2  501    0  0.10728484148E+03  0.56511777021E+02  0.28775712169E+03  0.31226235642E+03  0.00000000000E+00 0. -1.
          1    1    1    2  502    0 -0.60821937069E+02  0.80908046451E+02 -0.15747573197E+03  0.18720049725E+03  0.00000000000E+00 0. -1.
         22    1    1    2    0    0  0.35989321818E+02 -0.40456193333E+01  0.14755072552E+03  0.15193029626E+03  0.00000000000E+00 0. -1.
         22    1    1    2    0    0 -0.82452226227E+02 -0.13337420414E+03  0.74812353018E+03  0.76437939817E+03  0.00000000000E+00 0. -1.
</event>
<event>
 6    1  0.1293624E-005  0.9395210E+02  0.7818608E-02  0.1295448E+00
          2   -1    0    0  502    0  0.00000000000E+00  0.00000000000E+00  0.12227600824E+03  0.12227600824E+03  0.00000000000E+00 0.  1.
          1   -1    0    0  501    0 -0.00000000000E+00 -0.00000000000E+00 -0.14549283187E+04  0.14549283187E+04  0.00000000000E+00 0.  1.
          2    1    1    2  501    0 -0.23198350034E+02 -0.60584511852E+02  0.10556278679E+02  0.65727327195E+02  0.00000000000E+00 0.  1.
          1    1    1    2  502    0  0.56343244041E+02  0.19404912441E+02 -0.13710075574E+04  0.13723020200E+04  0.00000000000E+00 0.  1.
         22    1    1    2    0    0 -0.37435404435E+02 -0.39400195398E+02  0.17359983593E+01  0.54376452559E+02  0.00000000000E+00 0.  1.
         22    1    1    2    0    0  0.42905104275E+01  0.80579794809E+02  0.26062969872E+02  0.84798527167E+02  0.00000000000E+00 0.  1.
</event>
<event>
 6    1  0.1293624E-005  0.3403941E+03  0.7818608E-02  0.1066628E+00
          2   -1    0    0  502    0  0.00000000000E+00  0.00000000000E+00  0.93533076990E+03  0.93533076990E+03  0.00000000000E+00 0.  1.
          1   -1    0    0  501    0 -0.00000000000E+00 -0.00000000000E+00 -0.22544908465E+03  0.22544908465E+03  0.00000000000E+00 0. -1.
          2    1    1    2  501    0 -0.14679168438E+02  0.91811678360E+02  0.21181174427E+03  0.23132029155E+03  0.00000000000E+00 0.  1.
          1    1    1    2  502    0  0.22798262569E+03 -0.83767730450E+02 -0.11477091511E+03  0.26863632152E+03  0.00000000000E+00 0. -1.
         22    1    1    2    0    0 -0.10812301121E+02  0.36147141257E+02  0.13036995514E+03  0.13571973652E+03  0.00000000000E+00 0. -1.
         22    1    1    2    0    0 -0.20249115614E+03 -0.44191089167E+02  0.48247090094E+03  0.52510350497E+03  0.00000000000E+00 0.  1.
</event>
<event>
 6    1  0.1293624E-005  0.1516655E+03  0.7818608E-02  0.1208301E+00
          2   -1    0    0  502    0  0.00000000000E+00  0.00000000000E+00  0.13345998905E+03  0.13345998905E+03  0.00000000000E+00 0. -1.
          1   -1    0    0  501    0 -0.00000000000E+00 -0.00000000000E+00 -0.15387626605E+04  0.15387626605E+04  0.00000000000E+00 0. -1.
          2    1    1    2  501    0  0.26498751851E+02  0.19147515225E+03 -0.35078421744E+03  0.40051777112E+03  0.00000000000E+00 0. -1.
          1    1    1    2  502    0  0.47398459101E+02 -0.11548991130E+03 -0.10927484361E+04  0.10998562079E+04  0.00000000000E+00 0. -1.
         22    1    1    2    0    0 -0.62616077848E+02 -0.10537858602E+03  0.57012144978E+02  0.13518803302E+03  0.00000000000E+00 0. -1.
         22    1    1    2    0    0 -0.11281133105E+02  0.29393345065E+02 -0.18782162908E+02  0.36660637498E+02  0.00000000000E+00 0. -1.
</event>
<event>
 6    1  0.1293624E-005  0.8204087E+02  0.7818608E-02  0.1324504E+00
          2   -1    0    0  502    0  0.00000000000E+00  0.00000000000E+00  0.55403955485E+03  0.55403955485E+03  0.00000000000E+00 0. -1.
          1   -1    0    0  501    0 -0.00000000000E+00 -0.00000000000E+00 -0.31057657820E+02  0.31057657820E+02  0.00000000000E+00 0. -1.
          2    1    1    2  501    0  0.19052962432E+02 -0.23522481661E+02  0.65384880526E+02  0.72052100055E+02  0.00000000000E+00 0. -1.
          1    1    1    2  502    0 -0.20506681978E+02 -0.18507342697E+02 -0.80928040551E+01  0.28784357157E+02  0.00000000000E+00 0. -1.
         22    1    1    2    0    0  0.16588481707E+02 -0.42810378960E+02  0.13848830290E+03  0.14590036433E+03  0.00000000000E+00 0. -1.
         22    1    1    2    0    0 -0.15134762161E+02  0.84840203319E+02  0.32720151766E+03  0.33836039113E+03  0.00000000000E+00 0. -1.
</event>
<event>
 6    1  0.1293624E-005  0.1840282E+03  0.7818608E-02  0.1163961E+00
          2   -1    0    0  502    0  0.00000000000E+00  0.00000000000E+00  0.10002020946E+03  0.10002020946E+03  0.00000000000E+00 0.  1.
          1   -1    0    0  501    0 -0.00000000000E+00 -0.00000000000E+00 -0.25632069614E+03  0.25632069614E+03  0.00000000000E+00 0.  1.
          2    1    1    2  501    0  0.20629580538E+02 -0.61495279884E+00 -0.17910443188E+02  0.27326575624E+02  0.00000000000E+00 0.  1.
          1    1    1    2  502    0 -0.12406608168E+03  0.16916460320E+02 -0.18799657920E+02  0.12661748059E+03  0.00000000000E+00 0.  1.
         22    1    1    2    0    0  0.11052187923E+03 -0.55268758040E+02 -0.93708045799E+02  0.15508358795E+03  0.00000000000E+00 0.  1.
         22    1    1    2    0    0 -0.70853780845E+01  0.38967250519E+02 -0.25882339771E+02  0.47313261435E+02  0.00000000000E+00 0.  1.
</event>
<event>
 6    1  0.1293624E-005  0.1023132E+03  0.7818608E-02  0.1276618E+00
          2   -1    0    0  502    0  0.00000000000E+00  0.00000000000E+00  0.90519622709E+02  0.90519622709E+02  0.00000000000E+00 0.  1.
          1   -1    0    0  501    0 -0.00000000000E+00 -0.00000000000E+00 -0.28942757093E+03  0.28942757093E+03  0.00000000000E+00 0. -1.
          2    1    1    2  501    0  0.11971892135E+02  0.77965265396E+02  0.10688088114E+02  0.79599899730E+02  0.00000000000E+00 0.  1.
          1    1    1    2  502    0  0.10548882642E+02 -0.21948349308E+02 -0.15114036879E+03  0.15308958175E+03  0.00000000000E+00 0. -1.
         22    1    1    2    0    0  0.32706497810E+01  0.27206239333E+02  0.16788516912E+02  0.32136130892E+02  0.00000000000E+00 0. -1.
         22    1    1    2    0    0 -0.25791424558E+02 -0.83223155421E+02 -0.75244184459E+02  0.11512158127E+03  0.00000000000E+00 0. -1.
</event>
<event>
 6    1  0.1293624E-005  0.1008355E+03  0.7818608E-02  0.1282669E+00
          2   -1    0    0  502    0  0.00000000000E+00  0.00000000000E+00  0.89151098412E+03  0.89151098412E+03  0.00000000000E+00 0.  1.
          1   -1    0    0  501    0 -0.00000000000E+00 -0.00000000000E+00 -0.28886859101E+02  0.28886859101E+02  0.00000000000E+00 0.  1.
          2    1    1    2  501    0 -0.12584586898E+02 -0.58656188390E+02  0.14849591442E+03  0.16015603911E+03  0.00000000000E+00 0.  1.
          1    1    1    2  502    0 -0.71150844430E+02  0.61641761204E+02  0.16249911866E+03  0.18779806430E+03  0.00000000000E+00 0.  1.
         22    1    1    2    0    0  0.11432778459E+03  0.18168331252E+02  0.41950027999E+03  0.43517975079E+03  0.00000000000E+00 0.  1.
         22    1    1    2    0    0 -0.30592353264E+02 -0.21153904067E+02  0.13212881196E+03  0.13726398903E+03  0.00000000000E+00 0.  1.
</event>
<event>
 6    1  0.1293624E-005  0.2338018E+03  0.7818608E-02  0.1123992E+00
          2   -1    0    0  502    0  0.00000000000E+00  0.00000000000E+00  0.18048499035E+03  0.18048499035E+03  0.00000000000E+00 0.  1.
          1   -1    0    0  501    0 -0.00000000000E+00 -0.00000000000E+00 -0.14489659786E+03  0.14489659786E+03  0.00000000000E+00 0.  1.
          2    1    1    2  501    0  0.50961783394E+02  0.64223283539E+02  0.59208888275E+02  0.10113073700E+03  0.00000000000E+00 0.  1.
          1    1    1    2  502    0 -0.43976301444E+02  0.10130609545E+02 -0.58048065455E+02  0.73526337060E+02  0.00000000000E+00 0.  1.
         22    1    1    2    0    0 -0.19340293624E+02 -0.48663965808E+02 -0.43290548194E+02  0.67943359415E+02  0.00000000000E+00 0.  1.
         22    1    1    2    0    0  0.12354811674E+02 -0.25689927276E+02  0.77718117864E+02  0.82781154734E+02  0.00000000000E+00 0.  1.
</event>
<event>
 6    1  0.1293624E-005  0.1594084E+03  0.7818608E-02  0.1190893E+00
          2   -1    0    0  502    0  0.00000000000E+00  0.00000000000E+00  0.40004229552E+03  0.40004229552E+03  0.00000000000E+00 0. -1.
          1   -1    0    0  501    0 -0.00000000000E+00 -0.00000000000E+00 -0.42187647739E+03  0.42187647739E+03  0.00000000000E+00 0. -1.
          2    1    1    2  501    0 -0.59056187342E+02  0.10651225981E+03  0.34848588591E+02  0.12667643380E+03  0.00000000000E+00 0. -1.
          1    1    1    2  502    0  0.32313774616E+02  0.27498885472E+02 -0.34745674607E+03  0.35003793955E+03  0.00000000000E+00 0. -1.
         22    1    1    2    0    0 -0.18247550564E+02  0.18380577962E+02  0.28137999312E+02  0.38243506025E+02  0.00000000000E+00 0.  1.
         22    1    1    2    0    0  0.44989963291E+02 -0.15239172324E+03  0.26263597631E+03  0.30696089354E+03  0.00000000000E+00 0. -1.
</event>
<event>
 6    1  0.1293624E-005  0.7729102E+02  0.7818608E-02  0.1338395E+00
          2   -1    0    0  502    0  0.00000000000E+00  0.00000000000E+00  0.12158849624E+03  0.12158849624E+03  0.00000000000E+00 0. -1.
          1   -1    0    0  501    0 -0.00000000000E+00 -0.00000000000E+00 -0.24488358687E+03  0.24488358687E+03  0.00000000000E+00 0. -1.
          2    1    1    2  501    0 -0.20173773494E+02 -0.67422879993E+01  0.45157572691E+01  0.21744692414E+02  0.00000000000E+00 0. -1.
          1    1    1    2  502    0 -0.39004709267E+02  0.18406502170E+02 -0.18921481815E+03  0.19406806557E+03  0.00000000000E+00 0. -1.
         22    1    1    2    0    0 -0.36228887457E+02  0.11035207957E+02  0.70145553042E+01  0.38516387254E+02  0.00000000000E+00 0. -1.
         22    1    1    2    0    0  0.95407370218E+02 -0.22699422127E+02  0.54389414947E+02  0.11214293787E+03  0.00000000000E+00 0. -1.
</event>
<event>
 6    1  0.1293624E-005  0.1023421E+03  0.7818608E-02  0.1293805E+00
          2   -1    0    0  502    0  0.00000000000E+00  0.00000000000E+00  0.15057208105E+03  0.15057208105E+03  0.00000000000E+00 0.  1.
          1   -1    0    0  501    0 -0.00000000000E+00 -0.00000000000E+00 -0.17205721110E+03  0.17205721110E+03  0.00000000000E+00 0.  1.
          2    1    1    2  501    0 -0.22188255667E+02  0.21503799374E+02 -0.39480535897E+02  0.50134267640E+02  0.00000000000E+00 0.  1.
          1    1    1    2  502    0 -0.27988257219E+02 -0.10774100594E+03 -0.10536054330E+02  0.11181446840E+03  0.00000000000E+00 0.  1.
         22    1    1    2    0    0  0.68645337908E+02  0.22849251325E+02  0.53618644791E+02  0.90051261912E+02  0.00000000000E+00 0. -1.
         22    1    1    2    0    0 -0.18468825023E+02  0.63387955238E+02 -0.25087184611E+02  0.70629294196E+02  0.00000000000E+00 0.  1.
</event>
<event>
 6    1  0.1293624E-005  0.2672516E+03  0.7818608E-02  0.1102863E+00
          2   -1    0    0  502    0  0.00000000000E+00  0.00000000000E+00  0.26027410846E+03  0.26027410846E+03  0.00000000000E+00 0. -1.
          1   -1    0    0  501    0 -0.00000000000E+00 -0.00000000000E+00 -0.26431469465E+04  0.26431469465E+04  0.00000000000E+00 0. -1.
          2    1    1    2  501    0 -0.53601727438E+02 -0.51228344564E+02  0.46706036221E+02  0.87629574291E+02  0.00000000000E+00 0. -1.
          1    1    1    2  502    0 -0.40878863199E+02  0.16630631641E+03 -0.25709348995E+04  0.25766325174E+04  0.00000000000E+00 0. -1.
         22    1    1    2    0    0 -0.25666089882E+02 -0.43729163115E+02  0.55410358445E+02  0.75108559429E+02  0.00000000000E+00 0. -1.
         22    1    1    2    0    0  0.12014668052E+03 -0.71348808727E+02  0.85945666816E+02  0.16405040381E+03  0.00000000000E+00 0. -1.
</event>
<event>
 6    1  0.1293624E-005  0.2277610E+03  0.7818608E-02  0.1220281E+00
          2   -1    0    0  502    0  0.00000000000E+00  0.00000000000E+00  0.13836486572E+03  0.13836486572E+03  0.00000000000E+00 0. -1.
          1   -1    0    0  501    0 -0.00000000000E+00 -0.00000000000E+00 -0.17336353962E+04  0.17336353962E+04  0.00000000000E+00 0.  1.
          2    1    1    2  501    0 -0.78382252620E+02 -0.38325706947E+02  0.12842057123E+02  0.88190451694E+02  0.00000000000E+00 0. -1.
          1    1    1    2  502    0  0.20899186258E+03  0.12886737641E+02 -0.15858272407E+04  0.15995911052E+04  0.00000000000E+00 0.  1.
         22    1    1    2    0    0 -0.10544973798E+03  0.12978304182E+02 -0.71145516410E+02  0.12786621182E+03  0.00000000000E+00 0. -1.
         22    1    1    2    0    0 -0.25159871977E+02  0.12460665124E+02  0.48860169455E+02  0.56352493223E+02  0.00000000000E+00 0. -1.
</event>
<event>
 6    1  0.1293624E-005  0.5992734E+02  0.7818608E-02  0.1474403E+00
          2   -1    0    0  502    0  0.00000000000E+00  0.00000000000E+00  0.58135490034E+02  0.58135490034E+02  0.00000000000E+00 0. -1.
          1   -1    0    0  501    0 -0.00000000000E+00 -0.00000000000E+00 -0.11258657353E+04  0.11258657353E+04  0.00000000000E+00 0.  1.
          2    1    1    2  501    0 -0.17323802624E+02 -0.44408612579E+02 -0.92549238909E+02  0.10410379739E+03  0.00000000000E+00 0. -1.
          1    1    1    2  502    0  0.22947147705E+02  0.50675545821E+02 -0.94881710265E+03  0.95044646184E+03  0.00000000000E+00 0.  1.
         22    1    1    2    0    0  0.13407792762E+02  0.13514376533E+02  0.47220456054E+02  0.50913443704E+02  0.00000000000E+00 0. -1.
         22    1    1    2    0    0 -0.19031137844E+02 -0.19781309775E+02 -0.73584359774E+02  0.78537522417E+02  0.00000000000E+00 0. -1.
</event>
<event>
 6    1  0.1293624E-005  0.2210326E+03  0.7818608E-02  0.1133116E+00
          2   -1    0    0  502    0  0.00000000000E+00  0.00000000000E+00  0.18818213418E+02  0.18818213418E+02  0.00000000000E+00 0.  1.
          1   -1    0    0  501    0 -0.00000000000E+00 -0.00000000000E+00 -0.77711083611E+03  0.77711083611E+03  0.00000000000E+00 0.  1.
          2    1    1    2  501    0  0.52825294226E+02  0.10882721954E+02 -0.36783902631E+03  0.37177210039E+03  0.00000000000E+00 0.  1.
          1    1    1    2  502    0  0.16630648117E+02  0.11277298172E+02 -0.82316973251E+02  0.84733936508E+02  0.00000000000E+00 0.  1.
         22    1    1    2    0    0 -0.10174311210E+03 -0.18408672004E+02 -0.18357381429E+03  0.21068907270E+03  0.00000000000E+00 0.  1.
         22    1    1    2    0    0  0.32287169758E+02 -0.37513481222E+01 -0.12456280884E+03  0.12873393992E+03  0.00000000000E+00 0. -1.
</event>
<event>
 6    1  0.1293624E-005  0.2307145E+03  0.7818608E-02  0.1126138E+00
          2   -1    0    0  502    0  0.00000000000E+00  0.00000000000E+00  0.63852651952E+02  0.63852651952E+02  0.00000000000E+00 0. -1.
          1   -1    0    0  501    0 -0.00000000000E+00 -0.00000000000E+00 -0.69488087020E+03  0.69488087020E+03  0.00000000000E+00 0.  1.
          2    1    1    2  501    0  0.20128848215E+01 -0.63831547648E+02 -0.74361487257E+01  0.64294746972E+02  0.00000000000E+00 0. -1.
          1    1    1    2  502    0  0.84118498580E+01 -0.27540558193E+02 -0.48464286444E+03  0.48549762885E+03  0.00000000000E+00 0.  1.
         22    1    1    2    0    0  0.15330108142E+02  0.10389515051E+03 -0.14561711890E+03  0.17953707091E+03  0.00000000000E+00 0.  1.
         22    1    1    2    0    0 -0.25754842822E+02 -0.12523044668E+02  0.66679138194E+01  0.29404075419E+02  0.00000000000E+00 0. -1.
</event>
<event>
 6    1  0.1293624E-005  0.1479450E+03  0.7818608E-02  0.1203445E+00
          2   -1    0    0  502    0  0.00000000000E+00  0.00000000000E+00  0.50435417285E+03  0.50435417285E+03  0.00000000000E+00 0. -1.
          1   -1    0    0  501    0 -0.00000000000E+00 -0.00000000000E+00 -0.50875406256E+03  0.50875406256E+03  0.00000000000E+00 0.  1.
          2    1    1    2  501    0  0.47895403207E+02  0.12250988645E+03  0.29105788519E+03  0.31940152545E+03  0.00000000000E+00 0. -1.
          1    1    1    2  502    0  0.45631263280E+02 -0.28466370432E+02 -0.45216709536E+03  0.45535439886E+03  0.00000000000E+00 0.  1.
         22    1    1    2    0    0 -0.10326532536E+03 -0.10808877196E+03  0.10183812636E+03  0.18088093881E+03  0.00000000000E+00 0. -1.
         22    1    1    2    0    0  0.97386588744E+01  0.14045255937E+02  0.54871194101E+02  0.57471372291E+02  0.00000000000E+00 0. -1.
</event>
<event>
 6    1  0.1293624E-005  0.3054479E+03  0.7818608E-02  0.1082549E+00
          2   -1    0    0  502    0  0.00000000000E+00  0.00000000000E+00  0.20162101468E+02  0.20162101468E+02  0.00000000000E+00 0. -1.
          1   -1    0    0  501    0 -0.00000000000E+00 -0.00000000000E+00 -0.15630154050E+04  0.15630154050E+04  0.00000000000E+00 0. -1.
          2    1    1    2  501    0 -0.36624888864E+02 -0.24206241123E+01 -0.98213299136E+03  0.98281862754E+03  0.00000000000E+00 0. -1.
          1    1    1    2  502    0  0.19057770862E+02 -0.31241895975E+02 -0.34727117964E+03  0.34919411064E+03  0.00000000000E+00 0. -1.
         22    1    1    2    0    0  0.49938214047E+02  0.91170595875E+01 -0.21781752867E+02  0.55239394961E+02  0.00000000000E+00 0. -1.
         22    1    1    2    0    0 -0.32371096045E+02  0.24545460500E+02 -0.19166737966E+03  0.19592537333E+03  0.00000000000E+00 0. -1.
</event>
<event>
 6    1  0.1293624E-005  0.1401546E+03  0.7818608E-02  0.1231923E+00
          2   -1    0    0  502    0  0.00000000000E+00  0.00000000000E+00  0.42800890038E+03  0.42800890038E+03  0.00000000000E+00 0. -1.
          1   -1    0    0  501    0 -0.00000000000E+00 -0.00000000000E+00 -0.11950543031E+03  0.11950543031E+03  0.00000000000E+00 0. -1.
          2    1    1    2  501    0  0.73727708245E+01  0.26452345044E+02  0.17774760029E+02  0.32711258032E+02  0.00000000000E+00 0. -1.
          1    1    1    2  502    0 -0.17622511585E+02 -0.20434869961E+03  0.14300555864E+03  0.25003906445E+03  0.00000000000E+00 0. -1.
         22    1    1    2    0    0  0.20129041833E+02  0.83817880712E+02 -0.36341784665E+01  0.86277590980E+02  0.00000000000E+00 0. -1.
         22    1    1    2    0    0 -0.98793010722E+01  0.94078473858E+02  0.15135732986E+03  0.17848641723E+03  0.00000000000E+00 0. -1.
</event>
<event>
 6    1  0.1293624E-005  0.8466330E+02  0.7818608E-02  0.1320940E+00
          2   -1    0    0  502    0  0.00000000000E+00  0.00000000000E+00  0.43339450396E+02  0.43339450396E+02  0.00000000000E+00 0.  1.
          1   -1    0    0  501    0 -0.00000000000E+00 -0.00000000000E+00 -0.30119001263E+03  0.30119001263E+03  0.00000000000E+00 0.  1.
          2    1    1    2  501    0 -0.55458470413E+01 -0.33613082469E+02 -0.35439545484E+02  0.49158489771E+02  0.00000000000E+00 0.  1.
          1    1    1    2  502    0 -0.52362222846E+02  0.95427824769E+01 -0.46871944486E+02  0.70921409029E+02  0.00000000000E+00 0.  1.
         22    1    1    2    0    0 -0.11108641505E+02 -0.32851207382E+02 -0.10483358130E+03  0.11042048502E+03  0.00000000000E+00 0.  1.
         22    1    1    2    0    0  0.69016711392E+02  0.56921507374E+02 -0.70705490961E+02  0.11402907921E+03  0.00000000000E+00 0. -1.
</event>
<event>
 6    1  0.1293624E-005  0.1612956E+03  0.7818608E-02  0.1187242E+00
          2   -1    0    0  502    0  0.00000000000E+00  0.00000000000E+00  0.31908071085E+03  0.31908071085E+03  0.00000000000E+00 0. -1.
          1   -1    0    0  501    0 -0.00000000000E+00 -0.00000000000E+00 -0.68863451195E+02  0.68863451195E+02  0.00000000000E+00 0. -1.
          2    1    1    2  501    0  0.74681281640E+01  0.20667626916E+02  0.13284722968E+01  0.22015643966E+02  0.00000000000E+00 0. -1.
          1    1    1    2  502    0 -0.56617260170E+02 -0.60563492390E+02  0.20392997753E+03  0.22013833491E+03  0.00000000000E+00 0. -1.
         22    1    1    2    0    0 -0.29576170223E+02  0.22923617985E+02 -0.19903581349E+02  0.42383896200E+02  0.00000000000E+00 0. -1.
         22    1    1    2    0    0  0.78725302230E+02  0.16972247490E+02  0.64862391173E+02  0.10340628697E+03  0.00000000000E+00 0. -1.
</event>
<event>
 6    1  0.1293624E-005  0.3142717E+03  0.7818608E-02  0.1078316E+00
          2   -1    0    0  502    0  0.00000000000E+00  0.00000000000E+00  0.22767932536E+03  0.22767932536E+03  0.00000000000E+00 0. -1.
          1   -1    0    0  501    0 -0.00000000000E+00 -0.00000000000E+00 -0.24822914067E+03  0.24822914067E+03  0.00000000000E+00 0. -1.
          2    1    1    2  501    0 -0.47358909778E+02  0.10805443859E+03 -0.11169343361E+02  0.11850477739E+03  0.00000000000E+00 0. -1.
          1    1    1    2  502    0  0.12707398022E+03  0.11423415489E+02  0.74289050617E+02  0.14763859222E+03  0.00000000000E+00 0. -1.
         22    1    1    2    0    0 -0.18668089807E+02 -0.13131583966E+02  0.33253619273E+02  0.40332855952E+02  0.00000000000E+00 0. -1.
         22    1    1    2    0    0 -0.61046980639E+02 -0.10634627011E+03 -0.11692314183E+03  0.16943224046E+03  0.00000000000E+00 0. -1.
</event>
<event>
 6    1  0.1293624E-005  0.1826073E+03  0.7818608E-02  0.1165303E+00
          2   -1    0    0  502    0  0.00000000000E+00  0.00000000000E+00  0.52313231811E+02  0.52313231811E+02  0.00000000000E+00 0. -1.
          1   -1    0    0  501    0 -0.00000000000E+00 -0.00000000000E+00 -0.52714574457E+03  0.52714574457E+03  0.00000000000E+00 0. -1.
          2    1    1    2  501    0  0.36483554583E+02 -0.66748288578E+01 -0.71230723765E+02  0.80308275436E+02  0.00000000000E+00 0. -1.
          1    1    1    2  502    0 -0.74802272691E+02  0.21939169254E+02 -0.34923262957E+03  0.35782696475E+03  0.00000000000E+00 0. -1.
         22    1    1    2    0    0  0.77049719898E+02  0.17081084940E+02 -0.24271030392E+02  0.82568188278E+02  0.00000000000E+00 0. -1.
         22    1    1    2    0    0 -0.38731001791E+02 -0.32345425336E+02 -0.30098129036E+02  0.58755547920E+02  0.00000000000E+00 0. -1.
</event>
<event>
 6    1  0.1293624E-005  0.1627655E+03  0.7818608E-02  0.1185609E+00
          2   -1    0    0  502    0  0.00000000000E+00  0.00000000000E+00  0.54453365163E+03  0.54453365163E+03  0.00000000000E+00 0.  1.
          1   -1    0    0  501    0 -0.00000000000E+00 -0.00000000000E+00 -0.29199581026E+02  0.29199581026E+02  0.00000000000E+00 0. -1.
          2    1    1    2  501    0  0.23383475827E+02  0.39590840836E+01  0.46060944227E+02  0.51808029027E+02  0.00000000000E+00 0.  1.
          1    1    1    2  502    0 -0.65016927530E+02  0.41383682334E+02  0.90986797137E+02  0.11924096310E+03  0.00000000000E+00 0. -1.
         22    1    1    2    0    0  0.39155048591E+02 -0.84687511108E+02  0.31106069204E+03  0.32475197690E+03  0.00000000000E+00 0.  1.
         22    1    1    2    0    0  0.24784031117E+01  0.39344744690E+02  0.67225637196E+02  0.77932263621E+02  0.00000000000E+00 0. -1.
</event>
<event>
 6    1  0.1293624E-005  0.2956818E+03  0.7818608E-02  0.1087419E+00
          2   -1    0    0  502    0  0.00000000000E+00  0.00000000000E+00  0.29317428756E+03  0.29317428756E+03  0.00000000000E+00 0.  1.
          1   -1    0    0  501    0 -0.00000000000E+00 -0.00000000000E+00 -0.35107445239E+03  0.35107445239E+03  0.00000000000E+00 0.  1.
          2    1    1    2  501    0  0.45800726910E+01  0.71126134016E+02  0.86989302387E+02  0.11245907138E+03  0.00000000000E+00 0.  1.
          1    1    1    2  502    0  0.16638086191E+03 -0.69233165424E+02 -0.23762482884E+03  0.29823041710E+03  0.00000000000E+00 0.  1.
         22    1    1    2    0    0 -0.15145974002E+03 -0.45818498514E+02  0.96517091173E+02  0.18535084715E+03  0.00000000000E+00 0.  1.
         22    1    1    2    0    0 -0.19501194580E+02  0.43925529922E+02 -0.37817295514E+01  0.48208404323E+02  0.00000000000E+00 0.  1.
</event>
<event>
 6    1  0.1293624E-005  0.1282908E+03  0.7818608E-02  0.1242837E+00
          2   -1    0    0  502    0  0.00000000000E+00  0.00000000000E+00  0.80676158505E+03  0.80676158505E+03  0.00000000000E+00 0.  1.
          1   -1    0    0  501    0 -0.00000000000E+00 -0.00000000000E+00 -0.81661921043E+02  0.81661921043E+02  0.00000000000E+00 0.  1.
          2    1    1    2  501    0 -0.70164577885E+02  0.27549061407E+02  0.32554971572E+03  0.33416258944E+03  0.00000000000E+00 0.  1.
          1    1    1    2  502    0  0.92197401199E+02  0.83728207003E+02  0.54716529150E+01  0.12466239377E+03  0.00000000000E+00 0.  1.
         22    1    1    2    0    0  0.29436606545E+02 -0.94233675660E+02  0.15001547438E+03  0.17958602949E+03  0.00000000000E+00 0.  1.
         22    1    1    2    0    0 -0.51469429858E+02 -0.17043592750E+02  0.24406282098E+03  0.25001249339E+03  0.00000000000E+00 0.  1.
</event>
<event>
 6    1  0.1293624E-005  0.7096091E+02  0.7818608E-02  0.1362193E+00
          2   -1    0    0  502    0  0.00000000000E+00  0.00000000000E+00  0.18510583688E+03  0.18510583688E+03  0.00000000000E+00 0.  1.
          1   -1    0    0  501    0 -0.00000000000E+00 -0.00000000000E+00 -0.17746897750E+03  0.17746897750E+03  0.00000000000E+00 0.  1.
          2    1    1    2  501    0 -0.22442446209E+02  0.22322989168E+01 -0.50954484723E+01  0.23121638035E+02  0.00000000000E+00 0.  1.
          1    1    1    2  502    0  0.25902818047E+01 -0.26973160134E+02 -0.13737966724E+03  0.14002654712E+03  0.00000000000E+00 0.  1.
         22    1    1    2    0    0 -0.23115086570E+02 -0.28682681460E+02  0.28014954706E+01  0.36943900982E+02  0.00000000000E+00 0.  1.
         22    1    1    2    0    0  0.42967250974E+02  0.53423542677E+02  0.14731047962E+03  0.16248272824E+03  0.00000000000E+00 0.  1.
</event>
<event>
 6    1  0.1293624E-005  0.8827621E+02  0.7818608E-02  0.1308454E+00
          2   -1    0    0  502    0  0.00000000000E+00  0.00000000000E+00  0.46187223359E+03  0.46187223359E+03  0.00000000000E+00 0.  1.
          1   -1    0    0  501    0 -0.00000000000E+00 -0.00000000000E+00 -0.30007830325E+03  0.30007830325E+03  0.00000000000E+00 0. -1.
          2    1    1    2  501    0  0.56529399707E+02  0.39091586344E+02  0.26466198730E+03  0.27344047374E+03  0.00000000000E+00 0.  1.
          1    1    1    2  502    0 -0.10331019362E+02 -0.53241295377E+02 -0.26769791604E+03  0.27313648556E+03  0.00000000000E+00 0. -1.
         22    1    1    2    0    0  0.17102792514E+02  0.18287061096E+02  0.14750378003E+03  0.14961379361E+03  0.00000000000E+00 0.  1.
         22    1    1    2    0    0 -0.63301172859E+02 -0.41373520633E+01  0.17326079032E+02  0.65759783927E+02  0.00000000000E+00 0. -1.
</event>
<event>
 6    1  0.1293624E-005  0.6763275E+02  0.7818608E-02  0.1370078E+00
          2   -1    0    0  502    0  0.00000000000E+00  0.00000000000E+00  0.37381978432E+03  0.37381978432E+03  0.00000000000E+00 0.  1.
          1   -1    0    0  501    0 -0.00000000000E+00 -0.00000000000E+00 -0.27540547937E+03  0.27540547937E+03  0.00000000000E+00 0. -1.
          2    1    1    2  501    0 -0.16431848490E+02 -0.18286113421E+02  0.85508130501E+02  0.88972062866E+02  0.00000000000E+00 0.  1.
          1    1    1    2  502    0  0.11046480979E+02  0.29895064561E+02 -0.25835149663E+03  0.26030988348E+03  0.00000000000E+00 0. -1.
         22    1    1    2    0    0  0.25385548378E+02  0.34661755180E+02  0.27460991392E+02  0.50989894949E+02  0.00000000000E+00 0.  1.
         22    1    1    2    0    0 -0.20000180866E+02 -0.46270706320E+02  0.24379667969E+03  0.24895342240E+03  0.00000000000E+00 0.  1.
</event>
<event>
 6    1  0.1293624E-005  0.8546245E+02  0.7818608E-02  0.1318595E+00
          2   -1    0    0  502    0  0.00000000000E+00  0.00000000000E+00  0.28823686423E+03  0.28823686423E+03  0.00000000000E+00 0.  1.
          1   -1    0    0  501    0 -0.00000000000E+00 -0.00000000000E+00 -0.12621374455E+03  0.12621374455E+03  0.00000000000E+00 0. -1.
          2    1    1    2  501    0  0.39465392404E+02  0.39078534048E+02  0.10895867099E+03  0.12229734668E+03  0.00000000000E+00 0.  1.
          1    1    1    2  502    0 -0.34762444386E+02  0.32904756722E+00 -0.91740226725E+02  0.98106090593E+02  0.00000000000E+00 0. -1.
         22    1    1    2    0    0 -0.11947464626E+02 -0.70127495811E+02  0.34019960015E+02  0.78854075729E+02  0.00000000000E+00 0.  1.
         22    1    1    2    0    0  0.72445166085E+01  0.30719914196E+02  0.11078471539E+03  0.11519309577E+03  0.00000000000E+00 0.  1.
</event>
<event>
 6    1  0.1293624E-005  0.7751041E+03  0.7818608E-02  0.9596769E-01
          2   -1    0    0  502    0  0.00000000000E+00  0.00000000000E+00  0.11628632126E+04  0.11628632126E+04  0.00000000000E+00 0. -1.
          1   -1    0    0  501    0 -0.00000000000E+00 -0.00000000000E+00 -0.19953603252E+04  0.19953603252E+04  0.00000000000E+00 0.  1.
          2    1    1    2  501    0  0.91347309065E+02  0.38619770731E+03  0.69138100688E+03  0.79718297566E+03  0.00000000000E+00 0. -1.
          1    1    1    2  502    0 -0.20766131945E+03 -0.68285576171E+03 -0.17895702737E+04  0.19266491584E+04  0.00000000000E+00 0.  1.
         22    1    1    2    0    0  0.82921341793E+02  0.27775205636E+03  0.18185377489E+03  0.34218847026E+03  0.00000000000E+00 0.  1.
         22    1    1    2    0    0  0.33392668592E+02  0.18905998042E+02  0.83838379356E+02  0.92202933417E+02  0.00000000000E+00 0. -1.
</event>
<event>
 6    1  0.1293624E-005  0.1969846E+03  0.7818608E-02  0.1152308E+00
          2   -1    0    0  502    0  0.00000000000E+00  0.00000000000E+00  0.24752860264E+03  0.24752860264E+03  0.00000000000E+00 0. -1.
          1   -1    0    0  501    0 -0.00000000000E+00 -0.00000000000E+00 -0.11369120836E+03  0.11369120836E+03  0.00000000000E+00 0. -1.
          2    1    1    2  501    0  0.18605266625E+02 -0.21332416234E+02 -0.57296529169E+02  0.63907121539E+02  0.00000000000E+00 0. -1.
          1    1    1    2  502    0 -0.51907692421E+02  0.38996853906E+02  0.15012549261E+03  0.16356291352E+03  0.00000000000E+00 0. -1.
         22    1    1    2    0    0 -0.18651147875E+02 -0.24184266965E+02 -0.31785494290E+02  0.44080173921E+02  0.00000000000E+00 0. -1.
         22    1    1    2    0    0  0.51953573671E+02  0.65198292929E+01  0.72793925128E+02  0.89669602021E+02  0.00000000000E+00 0. -1.
</event>
<event>
 6    1  0.1293624E-005  0.1834603E+03  0.7818608E-02  0.1164496E+00
          2   -1    0    0  502    0  0.00000000000E+00  0.00000000000E+00  0.31933914012E+02  0.31933914012E+02  0.00000000000E+00 0. -1.
          1   -1    0    0  501    0 -0.00000000000E+00 -0.00000000000E+00 -0.15021194543E+04  0.15021194543E+04  0.00000000000E+00 0. -1.
          2    1    1    2  501    0 -0.44468347887E+02 -0.15590569546E+02 -0.27572295275E+02  0.54596073937E+02  0.00000000000E+00 0. -1.
          1    1    1    2  502    0  0.16077527874E+02  0.35551918323E+02 -0.12357513596E+04  0.12363671981E+04  0.00000000000E+00 0. -1.
         22    1    1    2    0    0  0.24881196896E+01  0.40507549114E+02 -0.20518191391E+02  0.45475800738E+02  0.00000000000E+00 0.  1.
         22    1    1    2    0    0  0.25902700323E+02 -0.60468897891E+02 -0.18634369402E+03  0.19761429553E+03  0.00000000000E+00 0.  1.
</event>
<event>
 6    1  0.1293624E-005  0.1271986E+03  0.7818608E-02  0.1233579E+00
          2   -1    0    0  502    0  0.00000000000E+00  0.00000000000E+00  0.27879381922E+03  0.27879381922E+03  0.00000000000E+00 0. -1.
          1   -1    0    0  501    0 -0.00000000000E+00 -0.00000000000E+00 -0.16921877967E+03  0.16921877967E+03  0.00000000000E+00 0. -1.
          2    1    1    2  501    0  0.10374731223E+03 -0.27946971849E+02 -0.16914712824E+02  0.10876877098E+03  0.00000000000E+00 0. -1.
          1    1    1    2  502    0 -0.23793770620E+02  0.54103363570E+02  0.17328039247E+03  0.18308307372E+03  0.00000000000E+00 0. -1.
         22    1    1    2    0    0  0.27093360372E+02 -0.22933791595E+02  0.72096430243E+01  0.36221373879E+02  0.00000000000E+00 0. -1.
         22    1    1    2    0    0 -0.10704690198E+03 -0.32226001259E+01 -0.54000283115E+02  0.11993938032E+03  0.00000000000E+00 0. -1.
</event>
<event>
 6    1  0.1293624E-005  0.2898533E+03  0.7818608E-02  0.1090426E+00
          2   -1    0    0  502    0  0.00000000000E+00  0.00000000000E+00  0.12422284070E+04  0.12422284070E+04  0.00000000000E+00 0.  1.
          1   -1    0    0  501    0 -0.00000000000E+00 -0.00000000000E+00 -0.11789410436E+03  0.11789410436E+03  0.00000000000E+00 0. -1.
          2    1    1    2  501    0 -0.97509647483E+01 -0.10523739018E+03  0.32728337683E+03  0.34392498943E+03  0.00000000000E+00 0.  1.
          1    1    1    2  502    0  0.19890740983E+02  0.23965094368E+03  0.47708907293E+02  0.24516189798E+03  0.00000000000E+00 0. -1.
         22    1    1    2    0    0  0.52462337836E+02 -0.87209473214E+02  0.47043621037E+03  0.48131903882E+03  0.00000000000E+00 0. -1.
         22    1    1    2    0    0 -0.62602114071E+02 -0.47204080293E+02  0.27890580819E+03  0.28971658517E+03  0.00000000000E+00 0.  1.
</event>
<event>
 6    1  0.1293624E-005  0.9027474E+02  0.7818608E-02  0.1303975E+00
          2   -1    0    0  502    0  0.00000000000E+00  0.00000000000E+00  0.21430968014E+03  0.21430968014E+03  0.00000000000E+00 0.  1.
          1   -1    0    0  501    0 -0.00000000000E+00 -0.00000000000E+00 -0.15528639152E+03  0.15528639152E+03  0.00000000000E+00 0.  1.
          2    1    1    2  501    0 -0.16306966997E+02 -0.20610813700E+02  0.17996088757E+02  0.31852504212E+02  0.00000000000E+00 0.  1.
          1    1    1    2  502    0  0.78224381139E+02  0.65281139878E+01 -0.10889680121E+03  0.13423927663E+03  0.00000000000E+00 0.  1.
         22    1    1    2    0    0  0.10377034889E+02 -0.77550792701E+01 -0.16363663118E+02  0.20870878712E+02  0.00000000000E+00 0.  1.
         22    1    1    2    0    0 -0.72294449031E+02  0.21837778982E+02  0.16628766419E+03  0.18263341210E+03  0.00000000000E+00 0.  1.
</event>
<event>
 6    1  0.1293624E-005  0.3792241E+03  0.7818608E-02  0.1051221E+00
          2   -1    0    0  502    0  0.00000000000E+00  0.00000000000E+00  0.81180502366E+03  0.81180502366E+03  0.00000000000E+00 0.  1.
          1   -1    0    0  501    0 -0.00000000000E+00 -0.00000000000E+00 -0.12659334325E+04  0.12659334325E+04  0.00000000000E+00 0. -1.
          2    1    1    2  501    0 -0.76336199458E+02 -0.63981592162E+02  0.37529920737E+03  0.38829158443E+03  0.00000000000E+00 0.  1.
          1    1    1    2  502    0  0.14458505572E+02 -0.15055474312E+03 -0.12167067817E+04  0.12260714383E+04  0.00000000000E+00 0. -1.
         22    1    1    2    0    0  0.73225647312E+02  0.22615570822E+03  0.35497974459E+03  0.42722244658E+03  0.00000000000E+00 0.  1.
         22    1    1    2    0    0 -0.11347953427E+02 -0.11619372937E+02  0.32299420883E+02  0.36152986928E+02  0.00000000000E+00 0.  1.
</event>
<event>
 6    1  0.1293624E-005  0.1759050E+03  0.7818608E-02  0.1247969E+00
          2   -1    0    0  502    0  0.00000000000E+00  0.00000000000E+00  0.45196560622E+03  0.45196560622E+03  0.00000000000E+00 0.  1.
          1   -1    0    0  501    0 -0.00000000000E+00 -0.00000000000E+00 -0.22055748192E+03  0.22055748192E+03  0.00000000000E+00 0.  1.
          2    1    1    2  501    0  0.43503440123E+02 -0.51056467680E+02  0.99175298153E+02  0.11972907733E+03  0.00000000000E+00 0.  1.
          1    1    1    2  502    0 -0.13399444212E+03  0.82639768648E+02 -0.15796233126E+03  0.22301555995E+03  0.00000000000E+00 0.  1.
         22    1    1    2    0    0  0.11238330050E+03 -0.48684480037E+01  0.26222489823E+03  0.28533419926E+03  0.00000000000E+00 0.  1.
         22    1    1    2    0    0 -0.21892298504E+02 -0.26714852964E+02  0.27970259175E+02  0.44444251608E+02  0.00000000000E+00 0.  1.
</event>
<event>
 6    1  0.1293624E-005  0.3599535E+03  0.7818608E-02  0.1111131E+00
          2   -1    0    0  502    0  0.00000000000E+00  0.00000000000E+00  0.35900145923E+03  0.35900145923E+03  0.00000000000E+00 0. -1.
          1   -1    0    0  501    0 -0.00000000000E+00 -0.00000000000E+00 -0.52416085666E+03  0.52416085666E+03  0.00000000000E+00 0. -1.
          2    1    1    2  501    0  0.18665921746E+02  0.13068648854E+03 -0.10349578236E+03  0.16774609351E+03  0.00000000000E+00 0. -1.
          1    1    1    2  502    0  0.69465088065E+02 -0.39931938186E+03 -0.30875740901E+02  0.40649068693E+03  0.00000000000E+00 0. -1.
         22    1    1    2    0    0 -0.38875110473E+02  0.79510358503E+02  0.45030677086E+02  0.99302231608E+02  0.00000000000E+00 0. -1.
         22    1    1    2    0    0 -0.49255899337E+02  0.18912253481E+03 -0.75818551259E+02  0.20962330383E+03  0.00000000000E+00 0. -1.
</event>
<event>
 6    1  0.1293624E-005  0.8197556E+02  0.7818608E-02  0.1326383E+00
          2   -1    0    0  502    0  0.00000000000E+00  0.00000000000E+00  0.29743423493E+02  0.29743423493E+02  0.00000000000E+00 0.  1.
          1   -1    0    0  501    0 -0.00000000000E+00 -0.00000000000E+00 -0.32559240463E+03  0.32559240463E+03  0.00000000000E+00 0.  1.
          2    1    1    2  501    0 -0.23239145968E+02  0.21120609322E+02 -0.61666104650E+02  0.69201492080E+02  0.00000000000E+00 0.  1.
          1    1    1    2  502    0  0.90718427924E+00 -0.32531740481E+02 -0.40256059373E+02  0.51765697506E+02  0.00000000000E+00 0.  1.
         22    1    1    2    0    0  0.70684139753E+02 -0.14512365318E+02 -0.13966643475E+03  0.15720550040E+03  0.00000000000E+00 0.  1.
         22    1    1    2    0    0 -0.48352178064E+02  0.25923496477E+02 -0.54260382368E+02  0.77163138142E+02  0.00000000000E+00 0.  1.
</event>
<event>
 6    1  0.1293624E-005  0.1106389E+03  0.7818608E-02  0.1265048E+00
          2   -1    0    0  502    0  0.00000000000E+00  0.00000000000E+00  0.19314369267E+03  0.19314369267E+03  0.00000000000E+00 0.  1.
          1   -1    0    0  501    0 -0.00000000000E+00 -0.00000000000E+00 -0.18282766949E+03  0.18282766949E+03  0.00000000000E+00 0.  1.
          2    1    1    2  501    0  0.48932884603E+02  0.43060453789E+02  0.87377927633E+02  0.10901161458E+03  0.00000000000E+00 0.  1.
          1    1    1    2  502    0 -0.30008766120E+02  0.54909533849E+02 -0.90185852592E+02  0.10976826025E+03  0.00000000000E+00 0.  1.
         22    1    1    2    0    0  0.39189622843E+02  0.27614644394E+00  0.17590428764E+02  0.42957257588E+02  0.00000000000E+00 0.  1.
         22    1    1    2    0    0 -0.58113741326E+02 -0.98246134082E+02 -0.44664806297E+01  0.11423422973E+03  0.00000000000E+00 0.  1.
</event>
<event>
 6    1  0.1293624E-005  0.1734923E+03  0.7818608E-02  0.1175799E+00
          2   -1    0    0  502    0  0.00000000000E+00  0.00000000000E+00  0.10570858665E+03  0.10570858665E+03  0.00000000000E+00 0. -1.
          1   -1    0    0  501    0 -0.00000000000E+00 -0.00000000000E+00 -0.85676201303E+03  0.85676201303E+03  0.00000000000E+00 0. -1.
          2    1    1    2  501    0  0.72411712073E+02  0.13294268140E+03 -0.33038309855E+03  0.36341464526E+03  0.00000000000E+00 0. -1.
          1    1    1    2  502    0 -0.19148672014E+02  0.98247800640E+01 -0.39746696002E+03  0.39804922089E+03  0.00000000000E+00 0. -1.
         22    1    1    2    0    0  0.19078790304E+02  0.83967403654E+01 -0.26095854013E+02  0.33399088085E+02  0.00000000000E+00 0.  1.
         22    1    1    2    0    0 -0.72341830363E+02 -0.15116420182E+03  0.28924861982E+01  0.16760764544E+03  0.00000000000E+00 0. -1.
</event>
<event>
 6    1  0.1293624E-005  0.2877121E+03  0.7818608E-02  0.1214546E+00
          2   -1    0    0  502    0  0.00000000000E+00  0.00000000000E+00  0.69084204085E+02  0.69084204085E+02  0.00000000000E+00 0. -1.
          1   -1    0    0  501    0 -0.00000000000E+00 -0.00000000000E+00 -0.16263091688E+04  0.16263091688E+04  0.00000000000E+00 0. -1.
          2    1    1    2  501    0  0.57475841722E+02 -0.64853192466E+02 -0.29119940983E+03  0.30381985656E+03  0.00000000000E+00 0. -1.
          1    1    1    2  502    0 -0.20122140631E+03  0.19388781270E+03 -0.10020764274E+04  0.10403075048E+04  0.00000000000E+00 0. -1.
         22    1    1    2    0    0  0.11401422963E+02 -0.10821091956E+02  0.14298333749E+02  0.21249254686E+02  0.00000000000E+00 0.  1.
         22    1    1    2    0    0  0.13234414162E+03 -0.11821352828E+03 -0.27824746127E+03  0.33001675684E+03  0.00000000000E+00 0. -1.
</event>
<event>
 6    1  0.1293624E-005  0.1789199E+03  0.7818608E-02  0.1168852E+00
          2   -1    0    0  502    0  0.00000000000E+00  0.00000000000E+00  0.18611323057E+03  0.18611323057E+03  0.00000000000E+00 0.  1.
          1   -1    0    0  501    0 -0.00000000000E+00 -0.00000000000E+00 -0.10678521370E+03  0.10678521370E+03  0.00000000000E+00 0. -1.
          2    1    1    2  501    0  0.32903300445E+02  0.24613315564E+02  0.92500221595E+01  0.42118943401E+02  0.00000000000E+00 0.  1.
          1    1    1    2  502    0 -0.13361218389E+02 -0.48515597851E+02 -0.50920934012E+02  0.71590690123E+02  0.00000000000E+00 0. -1.
         22    1    1    2    0    0 -0.66272703727E+02 -0.57142005954E+01  0.30636260455E+02  0.73234580646E+02  0.00000000000E+00 0.  1.
         22    1    1    2    0    0  0.46730621671E+02  0.29616482883E+02  0.90362668267E+02  0.10595423010E+03  0.00000000000E+00 0.  1.
</event>
<event>
 6    1  0.1293624E-005  0.4168972E+03  0.7818608E-02  0.1038081E+00
          2   -1    0    0  502    0  0.00000000000E+00  0.00000000000E+00  0.79859539893E+03  0.79859539893E+03  0.00000000000E+00 0. -1.
          1   -1    0    0  501    0 -0.00000000000E+00 -0.00000000000E+00 -0.19134959250E+03  0.19134959250E+03  0.00000000000E+00 0. -1.
          2    1    1    2  501    0  0.10059161920E+03 -0.39562428495E+02 -0.70809386152E+02  0.12922007882E+03  0.00000000000E+00 0. -1.
          1    1    1    2  502    0 -0.28249065968E+03  0.85793585273E+02  0.46238035145E+03  0.54859557188E+03  0.00000000000E+00 0. -1.
         22    1    1    2    0    0  0.64072531107E+02 -0.80258657136E+02  0.90417959939E+02  0.13682890326E+03  0.00000000000E+00 0.  1.
         22    1    1    2    0    0  0.11782650937E+03  0.34027500358E+02  0.12525688119E+03  0.17530043747E+03  0.00000000000E+00 0. -1.
</event>
<event>
 6    1  0.1293624E-005  0.1076872E+03  0.7818608E-02  0.1268344E+00
          2   -1    0    0  502    0  0.00000000000E+00  0.00000000000E+00  0.10200675429E+04  0.10200675429E+04  0.00000000000E+00 0. -1.
          1   -1    0    0  501    0 -0.00000000000E+00 -0.00000000000E+00 -0.37548825247E+02  0.37548825247E+02  0.00000000000E+00 0. -1.
          2    1    1    2  501    0  0.89705309478E+02 -0.41511477020E+02  0.95452743924E+02  0.13740986717E+03  0.00000000000E+00 0. -1.
          1    1    1    2  502    0 -0.35903179176E+02  0.91000141272E+02  0.46964094952E+03  0.47972146653E+03  0.00000000000E+00 0. -1.
         22    1    1    2    0    0 -0.89417566145E+02 -0.46134802052E+02  0.34976936948E+03  0.36395402584E+03  0.00000000000E+00 0. -1.
         22    1    1    2    0    0  0.35615435844E+02 -0.33538621994E+01  0.67655654730E+02  0.76531008611E+02  0.00000000000E+00 0. -1.
</event>
<event>
 6    1  0.1293624E-005  0.1946910E+03  0.7818608E-02  0.1192174E+00
          2   -1    0    0  502    0  0.00000000000E+00  0.00000000000E+00  0.92547721223E+03  0.92547721223E+03  0.00000000000E+00 0.  1.
          1   -1    0    0  501    0 -0.00000000000E+00 -0.00000000000E+00 -0.29392955954E+03  0.29392955954E+03  0.00000000000E+00 0.  1.
          2    1    1    2  501    0  0.48962923834E+02  0.58229695663E+02  0.29121948975E+03  0.30099311716E+03  0.00000000000E+00 0.  1.
          1    1    1    2  502    0 -0.77169992671E+02 -0.17365034010E+03 -0.24379075680E+03  0.30910124796E+03  0.00000000000E+00 0.  1.
         22    1    1    2    0    0  0.53502176229E+02  0.37164265897E+02  0.10786897340E+03  0.12601341572E+03  0.00000000000E+00 0.  1.
         22    1    1    2    0    0 -0.25295107391E+02  0.78256378540E+02  0.47624994634E+03  0.48329899093E+03  0.00000000000E+00 0. -1.
</event>
<event>
 6    1  0.1293624E-005  0.1180781E+03  0.7818608E-02  0.1250277E+00
          2   -1    0    0  502    0  0.00000000000E+00  0.00000000000E+00  0.84790829609E+03  0.84790829609E+03  0.00000000000E+00 0.  1.
          1   -1    0    0  501    0 -0.00000000000E+00 -0.00000000000E+00 -0.25923614052E+02  0.25923614052E+02  0.00000000000E+00 0.  1.
          2    1    1    2  501    0 -0.44069402767E+02 -0.77985284729E+02  0.13200989652E+03  0.15953190801E+03  0.00000000000E+00 0.  1.
          1    1    1    2  502    0  0.37064968548E+02  0.56504769461E+01  0.11257406131E+03  0.11865352529E+03  0.00000000000E+00 0.  1.
         22    1    1    2    0    0 -0.32404229074E+02 -0.23745626703E+02  0.11788364647E+03  0.12454092884E+03  0.00000000000E+00 0.  1.
         22    1    1    2    0    0  0.39408663293E+02  0.96080434486E+02  0.45951707773E+03  0.47110554801E+03  0.00000000000E+00 0.  1.
</event>
<event>
 6    1  0.1293624E-005  0.2490788E+03  0.7818608E-02  0.1113888E+00
          2   -1    0    0  502    0  0.00000000000E+00  0.00000000000E+00  0.65273541397E+02  0.65273541397E+02  0.00000000000E+00 0.  1.
          1   -1    0    0  501    0 -0.00000000000E+00 -0.00000000000E+00 -0.92804362094E+03  0.92804362094E+03  0.00000000000E+00 0.  1.
          2    1    1    2  501    0  0.41801722089E+02 -0.21656284763E+02 -0.12508223167E+03  0.13364858143E+03  0.00000000000E+00 0.  1.
          1    1    1    2  502    0 -0.12800711259E+03  0.11519388460E+03 -0.62746638467E+03  0.65066851454E+03  0.00000000000E+00 0.  1.
         22    1    1    2    0    0  0.20386849488E+02 -0.79653530084E+01 -0.97929454297E+02  0.10034564514E+03  0.00000000000E+00 0.  1.
         22    1    1    2    0    0  0.65818541014E+02 -0.85572246825E+02 -0.12292008907E+02  0.10865442122E+03  0.00000000000E+00 0.  1.
</event>
<event>
 6    1  0.1293624E-005  0.5059433E+02  0.7818608E-02  0.1446904E+00
          2   -1    0    0  502    0  0.00000000000E+00  0.00000000000E+00  0.98502850567E+02  0.98502850567E+02  0.00000000000E+00 0.  1.
          1   -1    0    0  501    0 -0.00000000000E+00 -0.00000000000E+00 -0.90919822825E+02  0.90919822825E+02  0.00000000000E+00 0.  1.
          2    1    1    2  501    0  0.83765695813E+01  0.20426943774E+02 -0.22513804576E+02  0.31532496672E+02  0.00000000000E+00 0.  1.
          1    1    1    2  502    0 -0.23961763189E+02 -0.77162996933E+01 -0.12556826121E+02  0.28131499397E+02  0.00000000000E+00 0.  1.
         22    1    1    2    0    0 -0.21180621742E+02 -0.11410871278E+02 -0.35785349384E+02  0.43120968812E+02  0.00000000000E+00 0.  1.
         22    1    1    2    0    0  0.36765815350E+02 -0.12997728032E+01  0.78439007824E+02  0.86637708511E+02  0.00000000000E+00 0.  1.
</event>
<event>
 6    1  0.1293624E-005  0.1548753E+03  0.7818608E-02  0.1197424E+00
          2   -1    0    0  502    0  0.00000000000E+00  0.00000000000E+00  0.12854431194E+04  0.12854431194E+04  0.00000000000E+00 0.  1.
          1   -1    0    0  501    0 -0.00000000000E+00 -0.00000000000E+00 -0.44667676049E+03  0.44667676049E+03  0.00000000000E+00 0.  1.
          2    1    1    2  501    0 -0.88342322098E+02  0.60730282988E+02  0.22541617333E+03  0.24960966396E+03  0.00000000000E+00 0.  1.
          1    1    1    2  502    0 -0.42117903417E+02 -0.22714481570E+02 -0.42498020238E+03  0.42766580162E+03  0.00000000000E+00 0.  1.
         22    1    1    2    0    0 -0.81089282787E+01  0.29055197369E+02  0.12212897579E+03  0.12579922869E+03  0.00000000000E+00 0. -1.
         22    1    1    2    0    0  0.13856915379E+03 -0.67070998786E+02  0.91620141215E+03  0.92904518560E+03  0.00000000000E+00 0.  1.
</event>
<event>
 6    1  0.1293624E-005  0.1784912E+03  0.7818608E-02  0.1169271E+00
          2   -1    0    0  502    0  0.00000000000E+00  0.00000000000E+00  0.31966808063E+02  0.31966808063E+02  0.00000000000E+00 0. -1.
          1   -1    0    0  501    0 -0.00000000000E+00 -0.00000000000E+00 -0.12810651127E+04  0.12810651127E+04  0.00000000000E+00 0.  1.
          2    1    1    2  501    0 -0.19128144205E+02  0.42230155042E+02 -0.30074960376E+02  0.55260973003E+02  0.00000000000E+00 0. -1.
          1    1    1    2  502    0  0.50307022334E+02 -0.41084974452E+02 -0.10225785760E+04  0.10246393101E+04  0.00000000000E+00 0.  1.
         22    1    1    2    0    0 -0.32261490327E+02 -0.43499301688E+02 -0.17951512982E+03  0.18750646613E+03  0.00000000000E+00 0. -1.
         22    1    1    2    0    0  0.10826121981E+01  0.42354121098E+02 -0.16929638435E+02  0.45625171569E+02  0.00000000000E+00 0. -1.
</event>
<event>
 6    1  0.1293624E-005  0.2260102E+03  0.7818608E-02  0.1129480E+00
          2   -1    0    0  502    0  0.00000000000E+00  0.00000000000E+00  0.83376096938E+02  0.83376096938E+02  0.00000000000E+00 0.  1.
          1   -1    0    0  501    0 -0.00000000000E+00 -0.00000000000E+00 -0.51340609819E+03  0.51340609819E+03  0.00000000000E+00 0.  1.
          2    1    1    2  501    0 -0.16503958353E+02  0.31115409099E+02 -0.96515174560E+02  0.10274107380E+03  0.00000000000E+00 0.  1.
          1    1    1    2  502    0 -0.93675103338E+02 -0.11529953260E+03 -0.54016998339E+02  0.15807227243E+03  0.00000000000E+00 0.  1.
         22    1    1    2    0    0  0.13291291075E+03  0.89835429373E+02 -0.22214003564E+03  0.27401175459E+03  0.00000000000E+00 0.  1.
         22    1    1    2    0    0 -0.22733849059E+02 -0.56513058734E+01 -0.57357792703E+02  0.61957094307E+02  0.00000000000E+00 0. -1.
</event>
<event>
 6    1  0.1293624E-005  0.2464473E+03  0.7818608E-02  0.1115571E+00
          2   -1    0    0  502    0  0.00000000000E+00  0.00000000000E+00  0.18072680890E+03  0.18072680890E+03  0.00000000000E+00 0. -1.
          1   -1    0    0  501    0 -0.00000000000E+00 -0.00000000000E+00 -0.16597474157E+03  0.16597474157E+03  0.00000000000E+00 0. -1.
          2    1    1    2  501    0 -0.77943013357E+02  0.39273380379E+02  0.57080855461E+02  0.10428679589E+03  0.00000000000E+00 0. -1.
          1    1    1    2  502    0  0.24241963032E+02  0.32461122671E+02 -0.74325163886E+02  0.84650028018E+02  0.00000000000E+00 0. -1.
         22    1    1    2    0    0 -0.16844070970E+02  0.83729957734E+01  0.46388297398E+02  0.50057006708E+02  0.00000000000E+00 0. -1.
         22    1    1    2    0    0  0.70545121295E+02 -0.80107498823E+02 -0.14391921650E+02  0.10770771985E+03  0.00000000000E+00 0. -1.
</event>
<event>
 6    1  0.1293624E-005  0.2653737E+03  0.7818608E-02  0.1103957E+00
          2   -1    0    0  502    0  0.00000000000E+00  0.00000000000E+00  0.24877448786E+03  0.24877448786E+03  0.00000000000E+00 0. -1.
          1   -1    0    0  501    0 -0.00000000000E+00 -0.00000000000E+00 -0.21212726273E+03  0.21212726273E+03  0.00000000000E+00 0. -1.
          2    1    1    2  501    0  0.35719709739E+01 -0.82344950549E+02 -0.14404674312E+02  0.83671646928E+02  0.00000000000E+00 0. -1.
          1    1    1    2  502    0  0.41503775954E+01  0.20949616548E+02 -0.14031855978E+03  0.14193452817E+03  0.00000000000E+00 0. -1.
         22    1    1    2    0    0  0.56365239041E+01 -0.37085989079E+02  0.53237956036E+02  0.65126192508E+02  0.00000000000E+00 0.  1.
         22    1    1    2    0    0 -0.13358872473E+02  0.98481323080E+02  0.13813250319E+03  0.17016938299E+03  0.00000000000E+00 0. -1.
</event>
<event>
 6    1  0.1293624E-005  0.1057861E+03  0.7818608E-02  0.1272549E+00
          2   -1    0    0  502    0  0.00000000000E+00  0.00000000000E+00  0.11657553980E+04  0.11657553980E+04  0.00000000000E+00 0.  1.
          1   -1    0    0  501    0 -0.00000000000E+00 -0.00000000000E+00 -0.96168745443E+02  0.96168745443E+02  0.00000000000E+00 0. -1.
          2    1    1    2  501    0 -0.53211595815E+02 -0.21506455618E+02  0.54965178520E+03  0.55264010580E+03  0.00000000000E+00 0.  1.
          1    1    1    2  502    0 -0.24056678186E+02  0.22545801238E+02 -0.82169293042E+02  0.88537165292E+02  0.00000000000E+00 0. -1.
         22    1    1    2    0    0 -0.36479131691E+02  0.33310323275E+01  0.16989108062E+03  0.17379528790E+03  0.00000000000E+00 0.  1.
         22    1    1    2    0    0  0.11374740569E+03 -0.43703779466E+01  0.43221307978E+03  0.44695158444E+03  0.00000000000E+00 0.  1.
</event>
<event>
 6    1  0.1293624E-005  0.2685419E+03  0.7818608E-02  0.1102117E+00
          2   -1    0    0  502    0  0.00000000000E+00  0.00000000000E+00  0.48050594059E+03  0.48050594059E+03  0.00000000000E+00 0.  1.
          1   -1    0    0  501    0 -0.00000000000E+00 -0.00000000000E+00 -0.25405078880E+03  0.25405078880E+03  0.00000000000E+00 0. -1.
          2    1    1    2  501    0  0.84154161267E+02 -0.19750478956E+02  0.32525831925E+03  0.33654862727E+03  0.00000000000E+00 0.  1.
          1    1    1    2  502    0 -0.20137668972E+02  0.84524940291E+01 -0.21593670915E+03  0.21703832087E+03  0.00000000000E+00 0. -1.
         22    1    1    2    0    0 -0.65813555850E+02  0.31174123392E+02  0.11813301621E+02  0.73775363083E+02  0.00000000000E+00 0.  1.
         22    1    1    2    0    0  0.17970635560E+01 -0.19876138465E+02  0.10532024007E+03  0.10719441816E+03  0.00000000000E+00 0.  1.
</event>
<event>
 6    1  0.1293624E-005  0.3762531E+03  0.7818608E-02  0.1052327E+00
          2   -1    0    0  502    0  0.00000000000E+00  0.00000000000E+00  0.23427607714E+03  0.23427607714E+03  0.00000000000E+00 0. -1.
          1   -1    0    0  501    0 -0.00000000000E+00 -0.00000000000E+00 -0.15467375637E+04  0.15467375637E+04  0.00000000000E+00 0. -1.
          2    1    1    2  501    0 -0.38460850671E+02  0.13018419929E+03  0.13467777858E+03  0.19122046654E+03  0.00000000000E+00 0. -1.
          1    1    1    2  502    0 -0.20731660543E+02 -0.10280427759E+01 -0.13955426942E+04  0.13956970553E+04  0.00000000000E+00 0. -1.
         22    1    1    2    0    0  0.32383265414E+02 -0.13891394612E+03 -0.71258200500E+02  0.15944745669E+03  0.00000000000E+00 0.  1.
         22    1    1    2    0    0  0.26809245799E+02  0.97577896112E+01  0.19661629654E+02  0.34648662299E+02  0.00000000000E+00 0. -1.
</event>
<event>
 6    1  0.1293624E-005  0.7087481E+02  0.7818608E-02  0.1362454E+00
          2   -1    0    0  502    0  0.00000000000E+00  0.00000000000E+00  0.46139710768E+02  0.46139710768E+02  0.00000000000E+00 0.  1.
          1   -1    0    0  501    0 -0.00000000000E+00 -0.00000000000E+00 -0.36257259482E+03  0.36257259482E+03  0.00000000000E+00 0.  1.
          2    1    1    2  501    0 -0.13925274076E+02 -0.37924027895E+02 -0.75441810227E+02  0.85578103976E+02  0.00000000000E+00 0.  1.
          1    1    1    2  502    0 -0.97265170866E+01  0.48274952647E+02 -0.16776792534E+03  0.17484608363E+03  0.00000000000E+00 0.  1.
         22    1    1    2    0    0  0.44934944878E+02 -0.22782024790E+02  0.18225951721E+02  0.53575696363E+02  0.00000000000E+00 0.  1.
         22    1    1    2    0    0 -0.21283153715E+02  0.12431100038E+02 -0.91449100208E+02  0.94712421619E+02  0.00000000000E+00 0. -1.
</event>
<event>
 6    1  0.1293624E-005  0.1862708E+03  0.7818608E-02  0.1161868E+00
          2   -1    0    0  502    0  0.00000000000E+00  0.00000000000E+00  0.54689408106E+03  0.54689408106E+03  0.00000000000E+00 0. -1.
          1   -1    0    0  501    0 -0.00000000000E+00 -0.00000000000E+00 -0.81021974642E+02  0.81021974642E+02  0.00000000000E+00 0. -1.
          2    1    1    2  501    0 -0.86277360658E+01 -0.29405119706E+02  0.18047475293E+02  0.35564171001E+02  0.00000000000E+00 0. -1.
          1    1    1    2  502    0 -0.13834169958E+01  0.20672464698E+02 -0.63465031567E+02  0.66761327661E+02  0.00000000000E+00 0. -1.
         22    1    1    2    0    0 -0.14406109411E+02 -0.52765524334E+02  0.26360706997E+03  0.26922188597E+03  0.00000000000E+00 0. -1.
         22    1    1    2    0    0  0.24417262473E+02  0.61498179341E+02  0.24768259272E+03  0.25636867107E+03  0.00000000000E+00 0.  1.
</event>
<event>
 6    1  0.1293624E-005  0.9599664E+02  0.7818608E-02  0.1309322E+00
          2   -1    0    0  502    0  0.00000000000E+00  0.00000000000E+00  0.48154576066E+03  0.48154576066E+03  0.00000000000E+00 0.  1.
          1   -1    0    0  501    0 -0.00000000000E+00 -0.00000000000E+00 -0.15863820258E+03  0.15863820258E+03  0.00000000000E+00 0.  1.
          2    1    1    2  501    0 -0.42388529740E+02  0.18814667765E+02  0.31304392830E+02  0.55953053420E+02  0.00000000000E+00 0.  1.
          1    1    1    2  502    0  0.91213527160E+02  0.22706453176E+02 -0.11774351037E+03  0.15066195534E+03  0.00000000000E+00 0.  1.
         22    1    1    2    0    0 -0.49340585279E+02  0.24377397238E+02  0.76369672710E+02  0.94133297837E+02  0.00000000000E+00 0.  1.
         22    1    1    2    0    0  0.51558785929E+00 -0.65898518178E+02  0.33297700291E+03  0.33943565664E+03  0.00000000000E+00 0.  1.
</event>
<event>
 6    1  0.1293624E-005  0.7977980E+02  0.7818608E-02  0.1335776E+00
          2   -1    0    0  502    0  0.00000000000E+00  0.00000000000E+00  0.11153863632E+03  0.11153863632E+03  0.00000000000E+00 0.  1.
          1   -1    0    0  501    0 -0.00000000000E+00 -0.00000000000E+00 -0.12011807157E+03  0.12011807157E+03  0.00000000000E+00 0.  1.
          2    1    1    2  501    0 -0.91376348002E+01 -0.32628456020E+02  0.13231460509E+02  0.36375597028E+02  0.00000000000E+00 0.  1.
          1    1    1    2  502    0 -0.35914562507E+02 -0.74288554331E+01 -0.44016415513E+02  0.57293005923E+02  0.00000000000E+00 0.  1.
         22    1    1    2    0    0  0.21231847210E+02  0.76714543044E+02 -0.14496170867E+02  0.80907672196E+02  0.00000000000E+00 0.  1.
         22    1    1    2    0    0  0.23820350098E+02 -0.36657231591E+02  0.36701690620E+02  0.57080432734E+02  0.00000000000E+00 0.  1.
</event>
<event>
 6    1  0.1293624E-005  0.2204811E+03  0.7818608E-02  0.1133525E+00
          2   -1    0    0  502    0  0.00000000000E+00  0.00000000000E+00  0.11241118262E+03  0.11241118262E+03  0.00000000000E+00 0.  1.
          1   -1    0    0  501    0 -0.00000000000E+00 -0.00000000000E+00 -0.48746469505E+03  0.48746469505E+03  0.00000000000E+00 0.  1.
          2    1    1    2  501    0  0.12256167816E+02  0.52920187026E+02 -0.44377919075E+02  0.70143848952E+02  0.00000000000E+00 0.  1.
          1    1    1    2  502    0 -0.56742418736E+02  0.11603499271E+02 -0.37494803780E+03  0.37939474736E+03  0.00000000000E+00 0.  1.
         22    1    1    2    0    0 -0.30252437899E+01 -0.89110694119E+02  0.36221025244E+02  0.96238404892E+02  0.00000000000E+00 0.  1.
         22    1    1    2    0    0  0.47511494710E+02  0.24587007822E+02  0.80514192006E+01  0.54098876461E+02  0.00000000000E+00 0.  1.
</event>
<event>
 6    1  0.1293624E-005  0.9322797E+02  0.7818608E-02  0.1315757E+00
          2   -1    0    0  502    0  0.00000000000E+00  0.00000000000E+00  0.32987188760E+03  0.32987188760E+03  0.00000000000E+00 0. -1.
          1   -1    0    0  501    0 -0.00000000000E+00 -0.00000000000E+00 -0.34662758630E+03  0.34662758630E+03  0.00000000000E+00 0.  1.
          2    1    1    2  501    0 -0.56708343006E+02  0.23047902127E+02  0.69153566300E+00  0.61216992580E+02  0.00000000000E+00 0. -1.
          1    1    1    2  502    0  0.48290342876E+02 -0.72636797345E+02 -0.29460572835E+03  0.30724680099E+03  0.00000000000E+00 0.  1.
         22    1    1    2    0    0  0.50281945076E+02  0.39671109750E+02  0.24781791395E+03  0.25596052317E+03  0.00000000000E+00 0. -1.
         22    1    1    2    0    0 -0.41863944946E+02  0.99177854680E+01  0.29340580038E+02  0.52075157148E+02  0.00000000000E+00 0.  1.
</event>
<event>
 6    1  0.1293624E-005  0.2041628E+03  0.7818608E-02  0.1146274E+00
          2   -1    0    0  502    0  0.00000000000E+00  0.00000000000E+00  0.81218264350E+02  0.81218264350E+02  0.00000000000E+00 0.  1.
          1   -1    0    0  501    0 -0.00000000000E+00 -0.00000000000E+00 -0.72233660677E+03  0.72233660677E+03  0.00000000000E+00 0.  1.
          2    1    1    2  501    0  0.40366509459E+01  0.29880848776E+02 -0.55193644298E+02  0.62892750340E+02  0.00000000000E+00 0.  1.
          1    1    1    2  502    0 -0.20180547783E+02 -0.11896874926E+03 -0.57711444899E+03  0.58959469557E+03  0.00000000000E+00 0.  1.
         22    1    1    2    0    0 -0.51755804402E+02  0.30677915331E+02 -0.12400300232E+02  0.61429351488E+02  0.00000000000E+00 0. -1.
         22    1    1    2    0    0  0.67899701240E+02  0.58409985157E+02  0.35900510963E+01  0.89638073726E+02  0.00000000000E+00 0.  1.
</event>
<event>
 6    1  0.1293624E-005  0.7731737E+02  0.7818608E-02  0.1341016E+00
          2   -1    0    0  502    0  0.00000000000E+00  0.00000000000E+00  0.32952380509E+02  0.32952380509E+02  0.00000000000E+00 0.  1.
          1   -1    0    0  501    0 -0.00000000000E+00 -0.00000000000E+00 -0.30336904900E+03  0.30336904900E+03  0.00000000000E+00 0.  1.
          2    1    1    2  501    0 -0.27855171464E+02 -0.22006778603E+02 -0.56490829752E+02  0.66718983265E+02  0.00000000000E+00 0.  1.
          1    1    1    2  502    0  0.25768351437E+02 -0.46160723467E+01 -0.81610764878E+02  0.85706668373E+02  0.00000000000E+00 0.  1.
         22    1    1    2    0    0 -0.92530335037E+01 -0.44135846660E+02 -0.90020059791E+02  0.10068367670E+03  0.00000000000E+00 0.  1.
         22    1    1    2    0    0  0.11339853532E+02  0.70758697610E+02 -0.42295014064E+02  0.83212101165E+02  0.00000000000E+00 0.  1.
</event>
<event>
 6    1  0.1293624E-005  0.2031712E+03  0.7818608E-02  0.1147091E+00
          2   -1    0    0  502    0  0.00000000000E+00  0.00000000000E+00  0.82780560253E+02  0.82780560253E+02  0.00000000000E+00 0.  1.
          1   -1    0    0  501    0 -0.00000000000E+00 -0.00000000000E+00 -0.89617787894E+03  0.89617787894E+03  0.00000000000E+00 0.  1.
          2    1    1    2  501    0 -0.18051465128E+01  0.31686775322E+02 -0.18767873690E+02  0.36871986210E+02  0.00000000000E+00 0.  1.
          1    1    1    2  502    0 -0.68934707924E+02  0.59019561255E+02 -0.76465636908E+03  0.77002250963E+03  0.00000000000E+00 0.  1.
         22    1    1    2    0    0 -0.11340117673E+01  0.29220395050E+02 -0.88941110205E+00  0.29255914303E+02  0.00000000000E+00 0. -1.
         22    1    1    2    0    0  0.71873866204E+02 -0.11992673163E+03 -0.29083664818E+02  0.14280802905E+03  0.00000000000E+00 0.  1.
</event>
<event>
 6    1  0.1293624E-005  0.3786597E+03  0.7818608E-02  0.1051430E+00
          2   -1    0    0  502    0  0.00000000000E+00  0.00000000000E+00  0.86221870096E+03  0.86221870096E+03  0.00000000000E+00 0.  1.
          1   -1    0    0  501    0 -0.00000000000E+00 -0.00000000000E+00 -0.16791331485E+04  0.16791331485E+04  0.00000000000E+00 0.  1.
          2    1    1    2  501    0  0.32884353844E+02  0.19103753377E+02  0.34451040807E+02  0.51314796439E+02  0.00000000000E+00 0.  1.
          1    1    1    2  502    0 -0.13287630272E+03 -0.30770663171E+03 -0.16195557771E+04  0.16538743598E+04  0.00000000000E+00 0.  1.
         22    1    1    2    0    0  0.10809505479E+03  0.13198393390E+03  0.34568105337E+03  0.38548630369E+03  0.00000000000E+00 0.  1.
         22    1    1    2    0    0 -0.81031059099E+01  0.15661894443E+03  0.42250923537E+03  0.45067638950E+03  0.00000000000E+00 0.  1.
</event>
<event>
 6    1  0.1293624E-005  0.8472804E+02  0.7818608E-02  0.1320135E+00
          2   -1    0    0  502    0  0.00000000000E+00  0.00000000000E+00  0.30515302270E+03  0.30515302270E+03  0.00000000000E+00 0. -1.
          1   -1    0    0  501    0 -0.00000000000E+00 -0.00000000000E+00 -0.82925583517E+02  0.82925583517E+02  0.00000000000E+00 0. -1.
          2    1    1    2  501    0  0.19249965855E+02 -0.35910564900E+02  0.47635164073E+02  0.62683639916E+02  0.00000000000E+00 0. -1.
          1    1    1    2  502    0  0.16783839231E+02  0.14850050530E+02 -0.56463617976E+02  0.60748344957E+02  0.00000000000E+00 0. -1.
         22    1    1    2    0    0 -0.96526619612E+01 -0.49956788414E+02  0.68748273132E+02  0.85528823505E+02  0.00000000000E+00 0. -1.
         22    1    1    2    0    0 -0.26381143124E+02  0.71017302784E+02  0.16230761996E+03  0.17911779784E+03  0.00000000000E+00 0. -1.
</event>
<event>
 6    1  0.1293624E-005  0.7338081E+02  0.7818608E-02  0.1351530E+00
          2   -1    0    0  502    0  0.00000000000E+00  0.00000000000E+00  0.60971155163E+02  0.60971155163E+02  0.00000000000E+00 0.  1.
          1   -1    0    0  501    0 -0.00000000000E+00 -0.00000000000E+00 -0.20505326153E+04  0.20505326153E+04  0.00000000000E+00 0. -1.
          2    1    1    2  501    0 -0.15362353554E+02  0.17860992388E+02  0.95091237734E+01  0.25405518903E+02  0.00000000000E+00 0.  1.
          1    1    1    2  502    0  0.44870668510E+02 -0.26623990442E+02 -0.19391147093E+04  0.19398165041E+04  0.00000000000E+00 0. -1.
         22    1    1    2    0    0 -0.16151040077E+02 -0.50535743380E+02 -0.66584983491E+02  0.85136816250E+02  0.00000000000E+00 0.  1.
         22    1    1    2    0    0 -0.13357274880E+02  0.59298741434E+02  0.66291088825E+01  0.61144931208E+02  0.00000000000E+00 0.  1.
</event>
<event>
 6    1  0.1293624E-005  0.1279316E+03  0.7818608E-02  0.1231074E+00
          2   -1    0    0  502    0  0.00000000000E+00  0.00000000000E+00  0.91956863465E+03  0.91956863465E+03  0.00000000000E+00 0.  1.
          1   -1    0    0  501    0 -0.00000000000E+00 -0.00000000000E+00 -0.44433772673E+03  0.44433772673E+03  0.00000000000E+00 0. -1.
          2    1    1    2  501    0  0.75481451608E+02 -0.57687611899E+02  0.44698743921E+03  0.45697164126E+03  0.00000000000E+00 0.  1.
          1    1    1    2  502    0  0.71242315211E+01 -0.58179275353E+02 -0.41840721603E+03  0.42249281790E+03  0.00000000000E+00 0. -1.
         22    1    1    2    0    0  0.10475557771E+02 -0.18238755324E+02  0.86524354962E+02  0.89044109900E+02  0.00000000000E+00 0.  1.
         22    1    1    2    0    0 -0.93081240900E+02  0.13410564258E+03  0.36012632977E+03  0.39539779232E+03  0.00000000000E+00 0. -1.
</event>
<event>
 6    1  0.1293624E-005  0.3020563E+03  0.7818608E-02  0.1084217E+00
          2   -1    0    0  502    0  0.00000000000E+00  0.00000000000E+00  0.58491409938E+02  0.58491409938E+02  0.00000000000E+00 0.  1.
          1   -1    0    0  501    0 -0.00000000000E+00 -0.00000000000E+00 -0.13013197515E+04  0.13013197515E+04  0.00000000000E+00 0.  1.
          2    1    1    2  501    0  0.69333089919E+01  0.21219434473E+02 -0.30285869474E+03  0.30368029925E+03  0.00000000000E+00 0.  1.
          1    1    1    2  502    0  0.74464964302E+02 -0.12511672457E+02 -0.89892712183E+03  0.90209286840E+03  0.00000000000E+00 0.  1.
         22    1    1    2    0    0 -0.99675536281E+02 -0.43501410542E+02 -0.35166606406E+02  0.11429906149E+03  0.00000000000E+00 0.  1.
         22    1    1    2    0    0  0.18277262987E+02  0.34793648526E+02 -0.58759185749E+01  0.39738932285E+02  0.00000000000E+00 0.  1.
</event>
<event>
 6    1  0.1293624E-005  0.2334722E+03  0.7818608E-02  0.1124219E+00
          2   -1    0    0  502    0  0.00000000000E+00  0.00000000000E+00  0.88622570033E+03  0.88622570033E+03  0.00000000000E+00 0.  1.
          1   -1    0    0  501    0 -0.00000000000E+00 -0.00000000000E+00 -0.16540405584E+03  0.16540405584E+03  0.00000000000E+00 0. -1.
          2    1    1    2  501    0 -0.24681270044E+02  0.30473875336E+01  0.25034946911E+02  0.35287394755E+02  0.00000000000E+00 0.  1.
          1    1    1    2  502    0  0.16364197490E+03 -0.69391893668E+01 -0.10425621870E+03  0.19415511179E+03  0.00000000000E+00 0. -1.
         22    1    1    2    0    0 -0.48783783462E+02 -0.60040883397E+02  0.27759524648E+03  0.28817336115E+03  0.00000000000E+00 0.  1.
         22    1    1    2    0    0 -0.90176921396E+02  0.63932685231E+02  0.52244766980E+03  0.53401388847E+03  0.00000000000E+00 0.  1.
</event>
<event>
 6    1  0.1293624E-005  0.2387646E+03  0.7818608E-02  0.1121241E+00
          2   -1    0    0  502    0  0.00000000000E+00  0.00000000000E+00  0.50560198811E+03  0.50560198811E+03  0.00000000000E+00 0. -1.
          1   -1    0    0  501    0 -0.00000000000E+00 -0.00000000000E+00 -0.66161904102E+03  0.66161904102E+03  0.00000000000E+00 0. -1.
          2    1    1    2  501    0 -0.17824673130E+03 -0.27015666650E+03 -0.20025423747E+02  0.32428003218E+03  0.00000000000E+00 0. -1.
          1    1    1    2  502    0  0.44941828888E+02  0.12035576588E+03 -0.44050028102E+03  0.45885267346E+03  0.00000000000E+00 0. -1.
         22    1    1    2    0    0  0.14537840282E+03  0.15888778007E+03  0.29790595326E+03  0.36759782868E+03  0.00000000000E+00 0. -1.
         22    1    1    2    0    0 -0.12073500406E+02 -0.90868794495E+01  0.66026986132E+01  0.16490494813E+02  0.00000000000E+00 0. -1.
</event>
<event>
 6    1  0.1293624E-005  0.3796865E+03  0.7818608E-02  0.1051050E+00
          2   -1    0    0  502    0  0.00000000000E+00  0.00000000000E+00  0.12597936757E+03  0.12597936757E+03  0.00000000000E+00 0.  1.
          1   -1    0    0  501    0 -0.00000000000E+00 -0.00000000000E+00 -0.90830629420E+03  0.90830629420E+03  0.00000000000E+00 0. -1.
          2    1    1    2  501    0  0.77467469908E+01  0.70872442455E+02 -0.24632729903E+03  0.25643723098E+03  0.00000000000E+00 0.  1.
          1    1    1    2  502    0 -0.37538524055E+00 -0.44203390299E+02 -0.61963727874E+03  0.62121207154E+03  0.00000000000E+00 0. -1.
         22    1    1    2    0    0 -0.18512519055E+02  0.16357919300E+02 -0.27484457279E+02  0.36955246955E+02  0.00000000000E+00 0.  1.
         22    1    1    2    0    0  0.11141157305E+02 -0.43026971456E+02  0.11112210842E+03  0.11968111229E+03  0.00000000000E+00 0.  1.
</event>
<event>
 6    1  0.1293624E-005  0.6384414E+02  0.7818608E-02  0.1385451E+00
          2   -1    0    0  502    0  0.00000000000E+00  0.00000000000E+00  0.12758657845E+03  0.12758657845E+03  0.00000000000E+00 0.  1.
          1   -1    0    0  501    0 -0.00000000000E+00 -0.00000000000E+00 -0.78358879430E+03  0.78358879430E+03  0.00000000000E+00 0. -1.
          2    1    1    2  501    0 -0.28863112501E+02  0.27317597622E+02  0.50362166851E+02  0.64153552147E+02  0.00000000000E+00 0.  1.
          1    1    1    2  502    0  0.58344969700E+01 -0.37329569010E+02 -0.71586964771E+03  0.71686601997E+03  0.00000000000E+00 0. -1.
         22    1    1    2    0    0  0.46840940278E+02  0.33294751855E+00 -0.48060578146E+02  0.67111874597E+02  0.00000000000E+00 0. -1.
         22    1    1    2    0    0 -0.23812324746E+02  0.96790238686E+01  0.57565843151E+02  0.63043926041E+02  0.00000000000E+00 0.  1.
</event>
<event>
 6    1  0.1293624E-005  0.6546399E+03  0.7818608E-02  0.9798112E-01
          2   -1    0    0  502    0  0.00000000000E+00  0.00000000000E+00  0.83495392327E+03  0.83495392327E+03  0.00000000000E+00 0. -1.
          1   -1    0    0  501    0 -0.00000000000E+00 -0.00000000000E+00 -0.24088268247E+04  0.24088268247E+04  0.00000000000E+00 0.  1.
          2    1    1    2  501    0 -0.37790511097E+03  0.11288463175E+03  0.34952428659E+03  0.52699377596E+03  0.00000000000E+00 0. -1.
          1    1    1    2  502    0  0.57687981218E+03 -0.21991607275E+03 -0.22318211006E+04  0.23156378866E+04  0.00000000000E+00 0.  1.
         22    1    1    2    0    0 -0.66496086711E+02 -0.22731080285E+02  0.71134888447E+02  0.99993019322E+02  0.00000000000E+00 0. -1.
         22    1    1    2    0    0 -0.13247861450E+03  0.12976252128E+03  0.23728902409E+03  0.30115606615E+03  0.00000000000E+00 0. -1.
</event>
<event>
 6    1  0.1293624E-005  0.5892840E+02  0.7818608E-02  0.1406910E+00
          2   -1    0    0  502    0  0.00000000000E+00  0.00000000000E+00  0.21143362070E+03  0.21143362070E+03  0.00000000000E+00 0.  1.
          1   -1    0    0  501    0 -0.00000000000E+00 -0.00000000000E+00 -0.67731007594E+03  0.67731007594E+03  0.00000000000E+00 0.  1.
          2    1    1    2  501    0  0.20937835207E+02 -0.44382851103E+02 -0.33581207548E+02  0.59463668871E+02  0.00000000000E+00 0.  1.
          1    1    1    2  502    0 -0.13754754901E+02  0.21420401537E+02 -0.60952212642E+03  0.61005348084E+03  0.00000000000E+00 0.  1.
         22    1    1    2    0    0 -0.12274795375E+02  0.52078598501E+02  0.18162577739E+03  0.18934300630E+03  0.00000000000E+00 0.  1.
         22    1    1    2    0    0  0.50917150689E+01 -0.29116148935E+02 -0.43988986593E+01  0.29883540630E+02  0.00000000000E+00 0. -1.
</event>
<event>
 6    1  0.1293624E-005  0.1650674E+03  0.7818608E-02  0.1183092E+00
          2   -1    0    0  502    0  0.00000000000E+00  0.00000000000E+00  0.15615945110E+02  0.15615945110E+02  0.00000000000E+00 0.  1.
          1   -1    0    0  501    0 -0.00000000000E+00 -0.00000000000E+00 -0.10811691417E+04  0.10811691417E+04  0.00000000000E+00 0. -1.
          2    1    1    2  501    0 -0.19509689062E+02  0.45225898837E+01 -0.17985131036E+03  0.18096291229E+03  0.00000000000E+00 0.  1.
          1    1    1    2  502    0  0.40522463170E+02  0.25305730239E+02 -0.61660175328E+03  0.61844981377E+03  0.00000000000E+00 0. -1.
         22    1    1    2    0    0 -0.13248561710E+01  0.44813316732E+02 -0.13946648913E+03  0.14649535894E+03  0.00000000000E+00 0. -1.
         22    1    1    2    0    0 -0.19687917937E+02 -0.74641636855E+02 -0.12963364381E+03  0.15087700180E+03  0.00000000000E+00 0.  1.
</event>
<event>
 6    1  0.1293624E-005  0.7701226E+02  0.7818608E-02  0.1339717E+00
          2   -1    0    0  502    0  0.00000000000E+00  0.00000000000E+00  0.43031187148E+02  0.43031187148E+02  0.00000000000E+00 0.  1.
          1   -1    0    0  501    0 -0.00000000000E+00 -0.00000000000E+00 -0.87916656185E+03  0.87916656185E+03  0.00000000000E+00 0.  1.
          2    1    1    2  501    0  0.27529172740E+02  0.11466372701E+02 -0.25249359393E+02  0.39075096986E+02  0.00000000000E+00 0.  1.
          1    1    1    2  502    0 -0.26728605772E+02 -0.23795247446E+02 -0.73648556787E+03  0.73735447639E+03  0.00000000000E+00 0.  1.
         22    1    1    2    0    0 -0.58460963409E+02 -0.10412247680E+02 -0.54685360109E+02  0.80725384823E+02  0.00000000000E+00 0.  1.
         22    1    1    2    0    0  0.57660396441E+02  0.22741122425E+02 -0.19715087329E+02  0.65042790801E+02  0.00000000000E+00 0.  1.
</event>
<event>
 6    1  0.1293624E-005  0.3392937E+03  0.7818608E-02  0.1126133E+00
          2   -1    0    0  502    0  0.00000000000E+00  0.00000000000E+00  0.13499074527E+04  0.13499074527E+04  0.00000000000E+00 0. -1.
          1   -1    0    0  501    0 -0.00000000000E+00 -0.00000000000E+00 -0.15844382657E+04  0.15844382657E+04  0.00000000000E+00 0. -1.
          2    1    1    2  501    0 -0.11766036264E+03  0.34171169902E+02  0.48948331609E+03  0.50458452862E+03  0.00000000000E+00 0. -1.
          1    1    1    2  502    0  0.33090602178E+03  0.48819315178E+02 -0.15385319314E+04  0.15744721734E+04  0.00000000000E+00 0. -1.
         22    1    1    2    0    0 -0.18554387884E+03 -0.15939168917E+02  0.63250081730E+03  0.65934654922E+03  0.00000000000E+00 0. -1.
         22    1    1    2    0    0 -0.27701780297E+02 -0.67051316163E+02  0.18201698498E+03  0.19594246720E+03  0.00000000000E+00 0. -1.
</event>
<event>
 6    1  0.1293624E-005  0.1972268E+03  0.7818608E-02  0.1152100E+00
          2   -1    0    0  502    0  0.00000000000E+00  0.00000000000E+00  0.19610108296E+03  0.19610108296E+03  0.00000000000E+00 0.  1.
          1   -1    0    0  501    0 -0.00000000000E+00 -0.00000000000E+00 -0.10072382682E+04  0.10072382682E+04  0.00000000000E+00 0. -1.
          2    1    1    2  501    0 -0.18540907632E+02 -0.39803792717E+02  0.94381437742E+01  0.44913090835E+02  0.00000000000E+00 0.  1.
          1    1    1    2  502    0 -0.33607572182E+02  0.10047818512E+03 -0.95396288261E+03  0.95982837841E+03  0.00000000000E+00 0. -1.
         22    1    1    2    0    0 -0.23140919728E+02 -0.18194373802E+02 -0.10066159899E+02  0.31110528428E+02  0.00000000000E+00 0.  1.
         22    1    1    2    0    0  0.75289399541E+02 -0.42480018606E+02  0.14345371350E+03  0.16748735349E+03  0.00000000000E+00 0.  1.
</event>
<event>
 6    1  0.1293624E-005  0.1021746E+03  0.7818608E-02  0.1276653E+00
          2   -1    0    0  502    0  0.00000000000E+00  0.00000000000E+00  0.42051946624E+02  0.42051946624E+02  0.00000000000E+00 0.  1.
          1   -1    0    0  501    0 -0.00000000000E+00 -0.00000000000E+00 -0.43768040540E+03  0.43768040540E+03  0.00000000000E+00 0.  1.
          2    1    1    2  501    0  0.64573630084E+02 -0.19968040430E+02 -0.52364754331E+02  0.85501718327E+02  0.00000000000E+00 0.  1.
          1    1    1    2  502    0  0.16764215240E+02 -0.29436777573E+02 -0.67194843549E+02  0.75250978639E+02  0.00000000000E+00 0.  1.
         22    1    1    2    0    0  0.20882975338E+02 -0.17818229738E+02 -0.16514237421E+02  0.32036042321E+02  0.00000000000E+00 0.  1.
         22    1    1    2    0    0 -0.10222082066E+03  0.67223047740E+02 -0.25955462347E+03  0.28694361274E+03  0.00000000000E+00 0.  1.
</event>
<event>
 6    1  0.1293624E-005  0.1893183E+03  0.7818608E-02  0.1159078E+00
          2   -1    0    0  502    0  0.00000000000E+00  0.00000000000E+00  0.12121713527E+03  0.12121713527E+03  0.00000000000E+00 0.  1.
          1   -1    0    0  501    0 -0.00000000000E+00 -0.00000000000E+00 -0.26416409491E+03  0.26416409491E+03  0.00000000000E+00 0.  1.
          2    1    1    2  501    0 -0.12058161853E+02  0.37394483373E+02 -0.24374685927E+02  0.46237127593E+02  0.00000000000E+00 0.  1.
          1    1    1    2  502    0  0.35157179434E+02 -0.69901285157E+02 -0.17654281847E+03  0.19310511046E+03  0.00000000000E+00 0.  1.
         22    1    1    2    0    0  0.43658834255E+02  0.35483118969E+01 -0.11655073949E+02  0.45326869235E+02  0.00000000000E+00 0.  1.
         22    1    1    2    0    0 -0.66757851837E+02  0.28958489887E+02  0.69625618708E+02  0.10071212290E+03  0.00000000000E+00 0.  1.
</event>
<event>
 6    1  0.1293624E-005  0.1304904E+03  0.7818608E-02  0.1256651E+00
          2   -1    0    0  502    0  0.00000000000E+00  0.00000000000E+00  0.46751972151E+03  0.46751972151E+03  0.00000000000E+00 0.  1.
          1   -1    0    0  501    0 -0.00000000000E+00 -0.00000000000E+00 -0.17768465353E+03  0.17768465353E+03  0.00000000000E+00 0.  1.
          2    1    1    2  501    0 -0.44857553147E+02  0.26379035780E+02  0.13267305810E+03  0.14251383775E+03  0.00000000000E+00 0.  1.
          1    1    1    2  502    0  0.11041384474E+03 -0.50804968840E+02 -0.13130820067E+03  0.17892513946E+03  0.00000000000E+00 0.  1.
         22    1    1    2    0    0 -0.84171808151E+01  0.66872565336E+02  0.19472110810E+03  0.20605605759E+03  0.00000000000E+00 0.  1.
         22    1    1    2    0    0 -0.57139110776E+02 -0.42446632276E+02  0.93749102444E+02  0.11770934025E+03  0.00000000000E+00 0.  1.
</event>
<event>
 6    1  0.1293624E-005  0.9061416E+02  0.7818608E-02  0.1304186E+00
          2   -1    0    0  502    0  0.00000000000E+00  0.00000000000E+00  0.14301674147E+03  0.14301674147E+03  0.00000000000E+00 0. -1.
          1   -1    0    0  501    0 -0.00000000000E+00 -0.00000000000E+00 -0.61268467404E+03  0.61268467404E+03  0.00000000000E+00 0.  1.
          2    1    1    2  501    0 -0.16023439140E+02  0.52536992297E+02  0.26342923070E+02  0.60916629564E+02  0.00000000000E+00 0. -1.
          1    1    1    2  502    0  0.12580666591E+02 -0.18460034143E+02 -0.55563012349E+03  0.55607902331E+03  0.00000000000E+00 0.  1.
         22    1    1    2    0    0  0.50794220671E+01 -0.74774987436E+02  0.11766196496E+02  0.75865292819E+02  0.00000000000E+00 0. -1.
         22    1    1    2    0    0 -0.16366495174E+01  0.40698029282E+02  0.47853071357E+02  0.62840469821E+02  0.00000000000E+00 0. -1.
</event>
<event>
 6    1  0.1293624E-005  0.2245140E+03  0.7818608E-02  0.1130562E+00
          2   -1    0    0  502    0  0.00000000000E+00  0.00000000000E+00  0.34626418025E+03  0.34626418025E+03  0.00000000000E+00 0. -1.
          1   -1    0    0  501    0 -0.00000000000E+00 -0.00000000000E+00 -0.17179338150E+03  0.17179338150E+03  0.00000000000E+00 0. -1.
          2    1    1    2  501    0 -0.22094629160E+02  0.87773538269E+01 -0.15028342949E+02  0.28125889669E+02  0.00000000000E+00 0. -1.
          1    1    1    2  502    0 -0.40656982540E+02  0.20468760634E+02 -0.13115525537E+03  0.13882961284E+03  0.00000000000E+00 0. -1.
         22    1    1    2    0    0 -0.21276656260E+02  0.21605270886E+02  0.24183781779E+02  0.38785810973E+02  0.00000000000E+00 0.  1.
         22    1    1    2    0    0  0.84028267959E+02 -0.50851385347E+02  0.29647061528E+03  0.31231624827E+03  0.00000000000E+00 0. -1.
</event>
<event>
 6    1  0.1293624E-005  0.1723742E+03  0.7818608E-02  0.1175394E+00
          2   -1    0    0  502    0  0.00000000000E+00  0.00000000000E+00  0.39971708382E+02  0.39971708382E+02  0.00000000000E+00 0. -1.
          1   -1    0    0  501    0 -0.00000000000E+00 -0.00000000000E+00 -0.84993706139E+03  0.84993706139E+03  0.00000000000E+00 0.  1.
          2    1    1    2  501    0  0.14047580974E+02 -0.20208874096E+02 -0.17617949703E+02  0.30267561435E+02  0.00000000000E+00 0. -1.
          1    1    1    2  502    0 -0.84885367202E+02  0.91723976314E+01 -0.64728044908E+03  0.65288715579E+03  0.00000000000E+00 0.  1.
         22    1    1    2    0    0 -0.10587401600E+02  0.31356135312E+02 -0.11160159178E+03  0.11640539327E+03  0.00000000000E+00 0.  1.
         22    1    1    2    0    0  0.81425187829E+02 -0.20319658847E+02 -0.33465362447E+02  0.90348659273E+02  0.00000000000E+00 0. -1.
</event>
<event>
 6    1  0.1293624E-005  0.1533719E+03  0.7818608E-02  0.1196390E+00
          2   -1    0    0  502    0  0.00000000000E+00  0.00000000000E+00  0.43061723912E+03  0.43061723912E+03  0.00000000000E+00 0.  1.
          1   -1    0    0  501    0 -0.00000000000E+00 -0.00000000000E+00 -0.18528536296E+04  0.18528536296E+04  0.00000000000E+00 0. -1.
          2    1    1    2  501    0  0.20454271664E+02 -0.23355261267E+01  0.62837149127E+02  0.66123666127E+02  0.00000000000E+00 0.  1.
          1    1    1    2  502    0 -0.26390801817E+02  0.49457255726E+02 -0.18387563789E+04  0.18396106967E+04  0.00000000000E+00 0. -1.
         22    1    1    2    0    0  0.88920185293E+01  0.40918563022E+02  0.81083647728E+02  0.91257628296E+02  0.00000000000E+00 0.  1.
         22    1    1    2    0    0 -0.29554883769E+01 -0.88040292621E+02  0.27259919158E+03  0.28647887756E+03  0.00000000000E+00 0.  1.
</event>
<event>
 6    1  0.1293624E-005  0.1487902E+03  0.7818608E-02  0.1202616E+00
          2   -1    0    0  502    0  0.00000000000E+00  0.00000000000E+00  0.87683390539E+03  0.87683390539E+03  0.00000000000E+00 0.  1.
          1   -1    0    0  501    0 -0.00000000000E+00 -0.00000000000E+00 -0.45423332168E+02  0.45423332168E+02  0.00000000000E+00 0.  1.
          2    1    1    2  501    0  0.71698126856E+02  0.76135077451E+02  0.93450893706E+02  0.14025063617E+03  0.00000000000E+00 0.  1.
          1    1    1    2  502    0  0.61556634837E+02 -0.24869698774E+02  0.16248966575E+03  0.17552952084E+03  0.00000000000E+00 0.  1.
         22    1    1    2    0    0 -0.15044865430E+03 -0.55420650778E+02  0.56148462010E+03  0.58392741391E+03  0.00000000000E+00 0.  1.
         22    1    1    2    0    0  0.17193892604E+02  0.41552721016E+01  0.13985393664E+02  0.22549666629E+02  0.00000000000E+00 0. -1.
</event>
<event>
 6    1  0.1293624E-005  0.1683797E+03  0.7818608E-02  0.1179548E+00
          2   -1    0    0  502    0  0.00000000000E+00  0.00000000000E+00  0.86969192098E+02  0.86969192098E+02  0.00000000000E+00 0.  1.
          1   -1    0    0  501    0 -0.00000000000E+00 -0.00000000000E+00 -0.24393829900E+03  0.24393829900E+03  0.00000000000E+00 0. -1.
          2    1    1    2  501    0  0.31957482569E+02 -0.60352312521E+01 -0.22069159428E+02  0.39303339632E+02  0.00000000000E+00 0.  1.
          1    1    1    2  502    0 -0.78212853162E+02 -0.24179298966E+01 -0.14165748686E+03  0.16183306328E+03  0.00000000000E+00 0. -1.
         22    1    1    2    0    0  0.40799385439E+02  0.61657873707E+02  0.15597685339E+02  0.75561703463E+02  0.00000000000E+00 0.  1.
         22    1    1    2    0    0  0.54559851543E+01 -0.53204712558E+02 -0.88401459519E+01  0.54209384730E+02  0.00000000000E+00 0.  1.
</event>
<event>
 6    1  0.1293624E-005  0.1409312E+03  0.7818608E-02  0.1262923E+00
          2   -1    0    0  502    0  0.00000000000E+00  0.00000000000E+00  0.13802655987E+03  0.13802655987E+03  0.00000000000E+00 0. -1.
          1   -1    0    0  501    0 -0.00000000000E+00 -0.00000000000E+00 -0.63348402044E+03  0.63348402044E+03  0.00000000000E+00 0. -1.
          2    1    1    2  501    0 -0.26085660787E+02  0.86628388659E+01  0.18053324352E+02  0.32885087746E+02  0.00000000000E+00 0. -1.
          1    1    1    2  502    0  0.12197453534E+03 -0.62605588604E+02 -0.55354385913E+03  0.57027015613E+03  0.00000000000E+00 0. -1.
         22    1    1    2    0    0 -0.34963734830E+02 -0.35670770524E+02 -0.66033810370E+01  0.50383243883E+02  0.00000000000E+00 0. -1.
         22    1    1    2    0    0 -0.60925139722E+02  0.89613520262E+02  0.46636455245E+02  0.11797209255E+03  0.00000000000E+00 0. -1.
</event>
<event>
 6    1  0.1293624E-005  0.1516424E+03  0.7818608E-02  0.1200245E+00
          2   -1    0    0  502    0  0.00000000000E+00  0.00000000000E+00  0.88540695479E+02  0.88540695479E+02  0.00000000000E+00 0. -1.
          1   -1    0    0  501    0 -0.00000000000E+00 -0.00000000000E+00 -0.88864397130E+03  0.88864397130E+03  0.00000000000E+00 0. -1.
          2    1    1    2  501    0 -0.14553158576E+03 -0.11058917803E+03 -0.35096579761E+03  0.39570999462E+03  0.00000000000E+00 0. -1.
          1    1    1    2  502    0  0.75509398105E+02  0.28085170458E+02 -0.39777232211E+03  0.40584882190E+03  0.00000000000E+00 0. -1.
         22    1    1    2    0    0  0.95809318709E+02  0.93385899542E+02 -0.22959996662E+02  0.13574797690E+03  0.00000000000E+00 0. -1.
         22    1    1    2    0    0 -0.25787131057E+02 -0.10881891974E+02 -0.28405159440E+02  0.39877873362E+02  0.00000000000E+00 0. -1.
</event>
<event>
 6    1  0.1293624E-005  0.2685838E+03  0.7818608E-02  0.1163999E+00
          2   -1    0    0  502    0  0.00000000000E+00  0.00000000000E+00  0.29706273587E+03  0.29706273587E+03  0.00000000000E+00 0. -1.
          1   -1    0    0  501    0 -0.00000000000E+00 -0.00000000000E+00 -0.32119913723E+03  0.32119913723E+03  0.00000000000E+00 0. -1.
          2    1    1    2  501    0  0.60091955219E+02 -0.42435711931E+02 -0.66707391875E+01  0.73866985118E+02  0.00000000000E+00 0. -1.
          1    1    1    2  502    0 -0.20283252140E+03  0.21077354256E+03 -0.96196992308E+01  0.29267568500E+03  0.00000000000E+00 0. -1.
         22    1    1    2    0    0  0.56871770246E+02 -0.16236776668E+02  0.39043382750E+02  0.70869012298E+02  0.00000000000E+00 0. -1.
         22    1    1    2    0    0  0.85868795930E+02 -0.15210105396E+03 -0.46889345686E+02  0.18085019068E+03  0.00000000000E+00 0. -1.
</event>
<event>
 6    1  0.1293624E-005  0.4503766E+03  0.7818608E-02  0.1071292E+00
          2   -1    0    0  502    0  0.00000000000E+00  0.00000000000E+00  0.94848033306E+03  0.94848033306E+03  0.00000000000E+00 0.  1.
          1   -1    0    0  501    0 -0.00000000000E+00 -0.00000000000E+00 -0.43811798900E+03  0.43811798900E+03  0.00000000000E+00 0.  1.
          2    1    1    2  501    0  0.34182049091E+03 -0.35923383283E+01  0.22825040645E+03  0.41103819889E+03  0.00000000000E+00 0.  1.
          1    1    1    2  502    0 -0.48828345324E+03  0.56545834532E+02 -0.13862141567E+03  0.51071915863E+03  0.00000000000E+00 0.  1.
         22    1    1    2    0    0  0.26833740218E+02 -0.39765079495E+01  0.26805212997E+01  0.27258896236E+02  0.00000000000E+00 0. -1.
         22    1    1    2    0    0  0.11962922212E+03 -0.48976988254E+02  0.41805283198E+03  0.43758206829E+03  0.00000000000E+00 0.  1.
</event>
<event>
 6    1  0.1293624E-005  0.1256691E+03  0.7818608E-02  0.1267658E+00
          2   -1    0    0  502    0  0.00000000000E+00  0.00000000000E+00  0.46212567522E+03  0.46212567522E+03  0.00000000000E+00 0.  1.
          1   -1    0    0  501    0 -0.00000000000E+00 -0.00000000000E+00 -0.83193328680E+02  0.83193328680E+02  0.00000000000E+00 0.  1.
          2    1    1    2  501    0  0.21444136930E+02 -0.56535397267E+02  0.10700938458E+03  0.12291098625E+03  0.00000000000E+00 0.  1.
          1    1    1    2  502    0 -0.81523376009E+02  0.94988318710E+02  0.11098888674E+02  0.12566633144E+03  0.00000000000E+00 0.  1.
         22    1    1    2    0    0  0.63221841238E+02  0.11375806688E+02  0.22827527201E+03  0.23714132917E+03  0.00000000000E+00 0.  1.
         22    1    1    2    0    0 -0.31426021590E+01 -0.49828728130E+02  0.32548801276E+02  0.59600357045E+02  0.00000000000E+00 0.  1.
</event>
<event>
 6    1  0.1293624E-005  0.1445768E+03  0.7818608E-02  0.1213588E+00
          2   -1    0    0  502    0  0.00000000000E+00  0.00000000000E+00  0.85580911377E+03  0.85580911377E+03  0.00000000000E+00 0.  1.
          1   -1    0    0  501    0 -0.00000000000E+00 -0.00000000000E+00 -0.30958933936E+03  0.30958933936E+03  0.00000000000E+00 0.  1.
          2    1    1    2  501    0 -0.27682276258E+02 -0.16307836864E+03  0.19657807155E+03  0.25691204906E+03  0.00000000000E+00 0.  1.
          1    1    1    2  502    0  0.11339374203E+03  0.84288598209E+02 -0.24825476006E+03  0.28564511971E+03  0.00000000000E+00 0.  1.
         22    1    1    2    0    0 -0.35387810878E+01 -0.17284545971E+02  0.76888780879E+01  0.19245709840E+02  0.00000000000E+00 0. -1.
         22    1    1    2    0    0 -0.82172684684E+02  0.96074316406E+02  0.59020758483E+03  0.60359557451E+03  0.00000000000E+00 0.  1.
</event>
<event>
 6    1  0.1293624E-005  0.8103653E+02  0.7818608E-02  0.1327488E+00
          2   -1    0    0  502    0  0.00000000000E+00  0.00000000000E+00  0.53671620379E+02  0.53671620379E+02  0.00000000000E+00 0. -1.
          1   -1    0    0  501    0 -0.00000000000E+00 -0.00000000000E+00 -0.13430350937E+04  0.13430350937E+04  0.00000000000E+00 0.  1.
          2    1    1    2  501    0  0.16686796200E+02 -0.19710253433E+02 -0.13575646221E+02  0.29176042023E+02  0.00000000000E+00 0. -1.
          1    1    1    2  502    0  0.27485153709E+02 -0.18571977531E+02 -0.12164749407E+04  0.12169271274E+04  0.00000000000E+00 0.  1.
         22    1    1    2    0    0  0.38362606831E+02 -0.12956727506E+02 -0.24938068644E+02  0.47554954087E+02  0.00000000000E+00 0. -1.
         22    1    1    2    0    0 -0.82534556739E+02  0.51238958470E+02 -0.34374817730E+02  0.10304859055E+03  0.00000000000E+00 0.  1.
</event>
<event>
 6    1  0.1293624E-005  0.9223441E+02  0.7818608E-02  0.1363494E+00
          2   -1    0    0  502    0  0.00000000000E+00  0.00000000000E+00  0.38197933215E+02  0.38197933215E+02  0.00000000000E+00 0.  1.
          1   -1    0    0  501    0 -0.00000000000E+00 -0.00000000000E+00 -0.11464180801E+04  0.11464180801E+04  0.00000000000E+00 0.  1.
          2    1    1    2  501    0 -0.11106493118E+02 -0.29213383893E+02 -0.41755106162E+02  0.52156158586E+02  0.00000000000E+00 0.  1.
          1    1    1    2  502    0  0.60542338633E+02  0.54557610558E+02 -0.93819678854E+03  0.94172985599E+03  0.00000000000E+00 0.  1.
         22    1    1    2    0    0 -0.75266028393E+02 -0.38315113567E+02 -0.13664290712E+03  0.16063719066E+03  0.00000000000E+00 0.  1.
         22    1    1    2    0    0  0.25830182877E+02  0.12970886902E+02  0.83746549111E+01  0.30092808101E+02  0.00000000000E+00 0.  1.
</event>
<event>
 6    1  0.1293624E-005  0.5123403E+03  0.7818608E-02  0.1010607E+00
          2   -1    0    0  502    0  0.00000000000E+00  0.00000000000E+00  0.92655053530E+03  0.92655053530E+03  0.00000000000E+00 0.  1.
          1   -1    0    0  501    0 -0.00000000000E+00 -0.00000000000E+00 -0.44673203533E+03  0.44673203533E+03  0.00000000000E+00 0.  1.
          2    1    1    2  501    0  0.43257056332E+01 -0.15673110285E+03  0.14008805456E+03  0.21025701739E+03  0.00000000000E+00 0.  1.
          1    1    1    2  502    0  0.22496954665E+03  0.38097065479E+03 -0.22939354667E+03  0.49836867476E+03  0.00000000000E+00 0.  1.
         22    1    1    2    0    0  0.14785370908E+02 -0.13618611907E+02  0.23700566833E+02  0.31077172512E+02  0.00000000000E+00 0.  1.
         22    1    1    2    0    0 -0.24408062319E+03 -0.21062094003E+03  0.54542342525E+03  0.63357970597E+03  0.00000000000E+00 0.  1.
</event>
<event>
 6    1  0.1293624E-005  0.2113800E+03  0.7818608E-02  0.1221265E+00
          2   -1    0    0  502    0  0.00000000000E+00  0.00000000000E+00  0.82530995092E+03  0.82530995092E+03  0.00000000000E+00 0.  1.
          1   -1    0    0  501    0 -0.00000000000E+00 -0.00000000000E+00 -0.19328233204E+03  0.19328233204E+03  0.00000000000E+00 0.  1.
          2    1    1    2  501    0 -0.25761337907E+02 -0.69806778368E+02  0.23967094920E+03  0.25095576648E+03  0.00000000000E+00 0.  1.
          1    1    1    2  502    0  0.49411250207E+02  0.20059317592E+03 -0.11014472643E+03  0.23411739498E+03  0.00000000000E+00 0.  1.
         22    1    1    2    0    0  0.84196145032E+01 -0.14324760277E+03  0.42903139308E+03  0.45239219915E+03  0.00000000000E+00 0.  1.
         22    1    1    2    0    0 -0.32069526803E+02  0.12461205213E+02  0.73470003030E+02  0.81126922350E+02  0.00000000000E+00 0.  1.
</event>
<event>
 6    1  0.1293624E-005  0.9398878E+02  0.7818608E-02  0.1295218E+00
          2   -1    0    0  502    0  0.00000000000E+00  0.00000000000E+00  0.32535880117E+03  0.32535880117E+03  0.00000000000E+00 0. -1.
          1   -1    0    0  501    0 -0.00000000000E+00 -0.00000000000E+00 -0.18587975816E+03  0.18587975816E+03  0.00000000000E+00 0. -1.
          2    1    1    2  501    0  0.47458802289E+02  0.43424365016E+02  0.10642130068E+03  0.12435234872E+03  0.00000000000E+00 0. -1.
          1    1    1    2  502    0 -0.47023251030E+02 -0.14400699495E+02 -0.15329142204E+03  0.16098703785E+03  0.00000000000E+00 0. -1.
         22    1    1    2    0    0 -0.35095004997E+02 -0.60143345382E+02  0.62457952386E+02  0.93540778197E+02  0.00000000000E+00 0.  1.
         22    1    1    2    0    0  0.34659453738E+02  0.31119679861E+02  0.12389121198E+03  0.13235839457E+03  0.00000000000E+00 0. -1.
</event>
<event>
 6    1  0.1293624E-005  0.8238957E+02  0.7818608E-02  0.1323221E+00
          2   -1    0    0  502    0  0.00000000000E+00  0.00000000000E+00  0.88772347719E+02  0.88772347719E+02  0.00000000000E+00 0. -1.
          1   -1    0    0  501    0 -0.00000000000E+00 -0.00000000000E+00 -0.58710251457E+03  0.58710251457E+03  0.00000000000E+00 0. -1.
          2    1    1    2  501    0 -0.15611028173E+02  0.36754658870E+02  0.13259635286E+02  0.42076443257E+02  0.00000000000E+00 0. -1.
          1    1    1    2  502    0 -0.25854667387E+02  0.49292810470E+02 -0.46398296986E+03  0.46730979159E+03  0.00000000000E+00 0. -1.
         22    1    1    2    0    0  0.42002377915E+02 -0.11662026209E+03 -0.54073643473E+02  0.13523477437E+03  0.00000000000E+00 0. -1.
         22    1    1    2    0    0 -0.53668235480E+00  0.30572792755E+02  0.64668111982E+01  0.31253853072E+02  0.00000000000E+00 0. -1.
</event>
<event>
 6    1  0.1320838E-005  0.1830678E+03  0.7818608E-02  0.1164867E+00
          2   -1    0    0  502    0  0.00000000000E+00  0.00000000000E+00  0.10822986838E+03  0.10822986838E+03  0.00000000000E+00 0.  1.
          1   -1    0    0  501    0 -0.00000000000E+00 -0.00000000000E+00 -0.68855400315E+03  0.68855400315E+03  0.00000000000E+00 0.  1.
          2    1    1    2  501    0 -0.39057001871E+02 -0.37758028261E+01 -0.23716728150E+02  0.45849637690E+02  0.00000000000E+00 0.  1.
          1    1    1    2  502    0  0.38842060171E+02  0.30521259186E+02 -0.60941957247E+03  0.61141840683E+03  0.00000000000E+00 0.  1.
         22    1    1    2    0    0 -0.12854621161E+02 -0.37393573625E+02 -0.33345308814E+02  0.51724561415E+02  0.00000000000E+00 0.  1.
         22    1    1    2    0    0  0.13069562861E+02  0.10648117266E+02  0.86157474663E+02  0.87791265596E+02  0.00000000000E+00 0.  1.
</event>
<event>
 6    1  0.1293624E-005  0.1150959E+03  0.7818608E-02  0.1252143E+00
          2   -1    0    0  502    0  0.00000000000E+00  0.00000000000E+00  0.24114640266E+03  0.24114640266E+03  0.00000000000E+00 0.  1.
          1   -1    0    0  501    0 -0.00000000000E+00 -0.00000000000E+00 -0.16853079738E+03  0.16853079738E+03  0.00000000000E+00 0. -1.
          2    1    1    2  501    0 -0.19164164803E+02  0.50224566758E+02  0.27810263983E+01  0.53828490844E+02  0.00000000000E+00 0.  1.
          1    1    1    2  502    0 -0.66849987398E+02  0.34940711670E+02 -0.90964950458E+02  0.11817104704E+03  0.00000000000E+00 0. -1.
         22    1    1    2    0    0 -0.18433036276E+02  0.17014333606E+02  0.81690338945E+01  0.26381764330E+02  0.00000000000E+00 0.  1.
         22    1    1    2    0    0  0.10444718848E+03 -0.10217961203E+03  0.15263049545E+03  0.21129589782E+03  0.00000000000E+00 0.  1.
</event>
<event>
 6    1  0.1293624E-005  0.1198055E+03  0.7818608E-02  0.1245124E+00
          2   -1    0    0  502    0  0.00000000000E+00  0.00000000000E+00  0.44431950198E+03  0.44431950198E+03  0.00000000000E+00 0. -1.
          1   -1    0    0  501    0 -0.00000000000E+00 -0.00000000000E+00 -0.18317212125E+03  0.18317212125E+03  0.00000000000E+00 0. -1.
          2    1    1    2  501    0 -0.74076136357E+02  0.10273372721E+03 -0.13188636839E+01  0.12666188095E+03  0.00000000000E+00 0. -1.
          1    1    1    2  502    0 -0.25874629984E+02 -0.12021264938E+03 -0.62192945341E+02  0.13779891145E+03  0.00000000000E+00 0. -1.
         22    1    1    2    0    0  0.11533375936E+03  0.98459481445E+01  0.32586763026E+03  0.34581574747E+03  0.00000000000E+00 0. -1.
         22    1    1    2    0    0 -0.15382993023E+02  0.76329740264E+01 -0.12084404996E+01  0.17215083365E+02  0.00000000000E+00 0.  1.
</event>
<event>
 6    1  0.1293624E-005  0.3661818E+03  0.7818608E-02  0.1056163E+00
          2   -1    0    0  502    0  0.00000000000E+00  0.00000000000E+00  0.21678868118E+03  0.21678868118E+03  0.00000000000E+00 0. -1.
          1   -1    0    0  501    0 -0.00000000000E+00 -0.00000000000E+00 -0.55329339478E+03  0.55329339478E+03  0.00000000000E+00 0. -1.
          2    1    1    2  501    0  0.67725079055E+02 -0.11895365145E+03 -0.42304290008E+03  0.44463687750E+03  0.00000000000E+00 0. -1.
          1    1    1    2  502    0 -0.28173863085E+01  0.61991320007E+02  0.14932590785E+03  0.16170679694E+03  0.00000000000E+00 0. -1.
         22    1    1    2    0    0 -0.73032687123E+02  0.85330296797E+02 -0.71287740403E+02  0.13302997734E+03  0.00000000000E+00 0. -1.
         22    1    1    2    0    0  0.81249943763E+01 -0.28367965355E+02  0.85000190302E+01  0.30708424178E+02  0.00000000000E+00 0. -1.
</event>
<event>
 6    1  0.1293624E-005  0.1688279E+03  0.7818608E-02  0.1179076E+00
          2   -1    0    0  502    0  0.00000000000E+00  0.00000000000E+00  0.14177812963E+02  0.14177812963E+02  0.00000000000E+00 0.  1.
          1   -1    0    0  501    0 -0.00000000000E+00 -0.00000000000E+00 -0.10279991511E+04  0.10279991511E+04  0.00000000000E+00 0.  1.
          2    1    1    2  501    0  0.89992004822E+01  0.30246627359E+02 -0.22500650996E+03  0.22720865653E+03  0.00000000000E+00 0.  1.
          1    1    1    2  502    0 -0.77740468735E+00 -0.27564552045E+02 -0.51151239831E+03  0.51225515372E+03  0.00000000000E+00 0.  1.
         22    1    1    2    0    0 -0.34938415524E+02  0.27127987257E+02 -0.25087839676E+03  0.25474809230E+03  0.00000000000E+00 0.  1.
         22    1    1    2    0    0  0.26716619729E+02 -0.29810062571E+02 -0.26424033105E+02  0.47965061511E+02  0.00000000000E+00 0.  1.
</event>
<event>
 6    1  0.1293624E-005  0.1790114E+03  0.7818608E-02  0.1168763E+00
          2   -1    0    0  502    0  0.00000000000E+00  0.00000000000E+00  0.23005439013E+03  0.23005439013E+03  0.00000000000E+00 0.  1.
          1   -1    0    0  501    0 -0.00000000000E+00 -0.00000000000E+00 -0.51523910327E+03  0.51523910327E+03  0.00000000000E+00 0. -1.
          2    1    1    2  501    0  0.78201648420E-01  0.27899387802E+02  0.11255609030E+02  0.30084392796E+02  0.00000000000E+00 0.  1.
          1    1    1    2  502    0 -0.20354077253E+00 -0.10707069328E+03 -0.47350949036E+03  0.48546412045E+03  0.00000000000E+00 0. -1.
         22    1    1    2    0    0  0.60043886577E+02  0.41323260623E+02  0.68071566699E+02  0.99732734730E+02  0.00000000000E+00 0. -1.
         22    1    1    2    0    0 -0.59918547453E+02  0.37848044856E+02  0.10899760149E+03  0.13001224542E+03  0.00000000000E+00 0.  1.
</event>
<event>
 6    1  0.1293624E-005  0.6123685E+02  0.7818608E-02  0.1417480E+00
          2   -1    0    0  502    0  0.00000000000E+00  0.00000000000E+00  0.17737923219E+03  0.17737923219E+03  0.00000000000E+00 0.  1.
          1   -1    0    0  501    0 -0.00000000000E+00 -0.00000000000E+00 -0.29554506968E+03  0.29554506968E+03  0.00000000000E+00 0. -1.
          2    1    1    2  501    0  0.72530156254E+01  0.21665761773E+02  0.19336548895E+02  0.29931815716E+02  0.00000000000E+00 0.  1.
          1    1    1    2  502    0 -0.83175815064E+01 -0.54818506899E+02 -0.25898446521E+03  0.26485317458E+03  0.00000000000E+00 0. -1.
         22    1    1    2    0    0 -0.38398529250E+02 -0.15713997096E+02  0.10544342374E+03  0.11331236633E+03  0.00000000000E+00 0.  1.
         22    1    1    2    0    0  0.39463095131E+02  0.48866742223E+02  0.16038655090E+02  0.64826945246E+02  0.00000000000E+00 0.  1.
</event>
<event>
 6    1  0.1293624E-005  0.7311781E+02  0.7818608E-02  0.1357023E+00
          2   -1    0    0  502    0  0.00000000000E+00  0.00000000000E+00  0.24643573283E+03  0.24643573283E+03  0.00000000000E+00 0.  1.
          1   -1    0    0  501    0 -0.00000000000E+00 -0.00000000000E+00 -0.29847095647E+03  0.29847095647E+03  0.00000000000E+00 0.  1.
          2    1    1    2  501    0  0.26884583677E+01  0.33379582890E+02  0.54792849042E+02  0.64215891090E+02  0.00000000000E+00 0.  1.
          1    1    1    2  502    0  0.39720524708E+02 -0.56508616504E+02 -0.26380219739E+03  0.27269496360E+03  0.00000000000E+00 0.  1.
         22    1    1    2    0    0  0.28860409527E+01  0.69303645390E+02  0.61665951099E+02  0.92811712740E+02  0.00000000000E+00 0.  1.
         22    1    1    2    0    0 -0.45295024029E+02 -0.46174611776E+02  0.95308173609E+02  0.11518412187E+03  0.00000000000E+00 0. -1.
</event>
<event>
 6    1  0.1293624E-005  0.9031082E+02  0.7818608E-02  0.1303767E+00
          2   -1    0    0  502    0  0.00000000000E+00  0.00000000000E+00  0.25642343141E+03  0.25642343141E+03  0.00000000000E+00 0.  1.
          1   -1    0    0  501    0 -0.00000000000E+00 -0.00000000000E+00 -0.15924363953E+04  0.15924363953E+04  0.00000000000E+00 0. -1.
          2    1    1    2  501    0  0.49471035315E+02  0.19250682312E+01 -0.85777888583E+02  0.99040069631E+02  0.00000000000E+00 0.  1.
          1    1    1    2  502    0  0.26694417373E+02  0.13856148258E+02 -0.14784620513E+04  0.14787679405E+04  0.00000000000E+00 0. -1.
         22    1    1    2    0    0 -0.89034810416E+02 -0.10054625133E+02  0.23773347512E+03  0.25405806058E+03  0.00000000000E+00 0.  1.
         22    1    1    2    0    0  0.12869357728E+02 -0.57265913564E+01 -0.95064991650E+01  0.16993756008E+02  0.00000000000E+00 0.  1.
</event>
<event>
 6    1  0.1293624E-005  0.7491019E+02  0.7818608E-02  0.1347165E+00
          2   -1    0    0  502    0  0.00000000000E+00  0.00000000000E+00  0.21551683114E+02  0.21551683114E+02  0.00000000000E+00 0.  1.
          1   -1    0    0  501    0 -0.00000000000E+00 -0.00000000000E+00 -0.38621624084E+03  0.38621624084E+03  0.00000000000E+00 0.  1.
          2    1    1    2  501    0 -0.18542451779E+02  0.11550379663E+02 -0.30664752161E+02  0.37650508808E+02  0.00000000000E+00 0.  1.
          1    1    1    2  502    0  0.22409006779E+01  0.22811471678E+02 -0.10291962149E+03  0.10544113696E+03  0.00000000000E+00 0.  1.
         22    1    1    2    0    0 -0.38777670124E+02  0.18249328693E+02 -0.13745359036E+03  0.14397998194E+03  0.00000000000E+00 0.  1.
         22    1    1    2    0    0  0.55079221226E+02 -0.52611180035E+02 -0.93626593719E+02  0.12069629624E+03  0.00000000000E+00 0.  1.
</event>
<event>
 6    1  0.1293624E-005  0.2443695E+03  0.7818608E-02  0.1116916E+00
          2   -1    0    0  502    0  0.00000000000E+00  0.00000000000E+00  0.10202719355E+04  0.10202719355E+04  0.00000000000E+00 0. -1.
          1   -1    0    0  501    0 -0.00000000000E+00 -0.00000000000E+00 -0.46632364932E+03  0.46632364932E+03  0.00000000000E+00 0. -1.
          2    1    1    2  501    0  0.98979150651E+02  0.20137940893E+02  0.37613814692E+03  0.38946413763E+03  0.00000000000E+00 0. -1.
          1    1    1    2  502    0 -0.57158542354E+02  0.35760470554E+02 -0.44913873407E+03  0.45417123715E+03  0.00000000000E+00 0. -1.
         22    1    1    2    0    0 -0.21769589348E+02 -0.95538236278E+02  0.44620941509E+03  0.45684167030E+03  0.00000000000E+00 0. -1.
         22    1    1    2    0    0 -0.20051018949E+02  0.39639824831E+02  0.18073945823E+03  0.18611853974E+03  0.00000000000E+00 0. -1.
</event>
<event>
 6    1  0.1293624E-005  0.1266408E+03  0.7818608E-02  0.1234508E+00
          2   -1    0    0  502    0  0.00000000000E+00  0.00000000000E+00  0.58184521639E+03  0.58184521639E+03  0.00000000000E+00 0.  1.
          1   -1    0    0  501    0 -0.00000000000E+00 -0.00000000000E+00 -0.93099088960E+02  0.93099088960E+02  0.00000000000E+00 0.  1.
          2    1    1    2  501    0 -0.77290461568E+02  0.12284463442E+02  0.92282446067E+02  0.12099906340E+03  0.00000000000E+00 0.  1.
          1    1    1    2  502    0 -0.24681790616E+02 -0.18055722976E+02 -0.61431362735E+02  0.68622243097E+02  0.00000000000E+00 0.  1.
         22    1    1    2    0    0  0.13131081481E+03  0.58299533563E+01  0.37952932059E+03  0.40164539538E+03  0.00000000000E+00 0.  1.
         22    1    1    2    0    0 -0.29338562630E+02 -0.58693821973E-01  0.78365723507E+02  0.83677603472E+02  0.00000000000E+00 0.  1.
</event>
<event>
 6    1  0.1293624E-005  0.1291295E+03  0.7818608E-02  0.1237342E+00
          2   -1    0    0  502    0  0.00000000000E+00  0.00000000000E+00  0.72928433796E+03  0.72928433796E+03  0.00000000000E+00 0.  1.
          1   -1    0    0  501    0 -0.00000000000E+00 -0.00000000000E+00 -0.12125070635E+03  0.12125070635E+03  0.00000000000E+00 0. -1.
          2    1    1    2  501    0  0.75746745330E+02 -0.11110593260E+01  0.27261557867E+02  0.80510846588E+02  0.00000000000E+00 0.  1.
          1    1    1    2  502    0 -0.11754641669E+03 -0.95631497455E+02 -0.14128397310E+02  0.15219117909E+03  0.00000000000E+00 0. -1.
         22    1    1    2    0    0  0.31260396941E+02 -0.10983811184E+02  0.37589661687E+02  0.50108274674E+02  0.00000000000E+00 0.  1.
         22    1    1    2    0    0  0.10539274421E+02  0.10772636796E+03  0.55731080936E+03  0.56772474395E+03  0.00000000000E+00 0.  1.
</event>
<event>
 6    1  0.1293624E-005  0.1706928E+03  0.7818608E-02  0.1180420E+00
          2   -1    0    0  502    0  0.00000000000E+00  0.00000000000E+00  0.74523461743E+02  0.74523461743E+02  0.00000000000E+00 0.  1.
          1   -1    0    0  501    0 -0.00000000000E+00 -0.00000000000E+00 -0.14021605374E+04  0.14021605374E+04  0.00000000000E+00 0.  1.
          2    1    1    2  501    0 -0.75052601561E+02 -0.15273263057E+03 -0.28380929079E+03  0.33091972286E+03  0.00000000000E+00 0.  1.
          1    1    1    2  502    0  0.17683550999E+02  0.45582885744E+02 -0.94037389534E+03  0.94164407846E+03  0.00000000000E+00 0.  1.
         22    1    1    2    0    0  0.68788333603E+01 -0.29256363693E+02 -0.23437829802E+02  0.38112793532E+02  0.00000000000E+00 0. -1.
         22    1    1    2    0    0  0.50490217201E+02  0.13640610852E+03 -0.80016059764E+02  0.16600740433E+03  0.00000000000E+00 0.  1.
</event>
<event>
 6    1  0.1293624E-005  0.1065460E+03  0.7818608E-02  0.1272310E+00
          2   -1    0    0  502    0  0.00000000000E+00  0.00000000000E+00  0.35788984248E+02  0.35788984248E+02  0.00000000000E+00 0. -1.
          1   -1    0    0  501    0 -0.00000000000E+00 -0.00000000000E+00 -0.98917419652E+03  0.98917419652E+03  0.00000000000E+00 0. -1.
          2    1    1    2  501    0  0.63315508749E+02  0.24545621908E+02 -0.35477408660E+03  0.36121460896E+03  0.00000000000E+00 0. -1.
          1    1    1    2  502    0 -0.92020961939E+01 -0.82175314824E+02 -0.52805415272E+02  0.98111532568E+02  0.00000000000E+00 0. -1.
         22    1    1    2    0    0 -0.86084150319E+02  0.72645549491E+02 -0.43437878596E+03  0.44874579272E+03  0.00000000000E+00 0. -1.
         22    1    1    2    0    0  0.31970737763E+02 -0.15015856575E+02 -0.11142692444E+03  0.11689124652E+03  0.00000000000E+00 0. -1.
</event>
<event>
 6    1  0.1293624E-005  0.2093346E+03  0.7818608E-02  0.1189240E+00
          2   -1    0    0  502    0  0.00000000000E+00  0.00000000000E+00  0.72887633519E+03  0.72887633519E+03  0.00000000000E+00 0. -1.
          1   -1    0    0  501    0 -0.00000000000E+00 -0.00000000000E+00 -0.19078875961E+03  0.19078875961E+03  0.00000000000E+00 0.  1.
          2    1    1    2  501    0  0.33616590048E+02 -0.71755400525E+02  0.13400737685E+03  0.15568201464E+03  0.00000000000E+00 0. -1.
          1    1    1    2  502    0 -0.13050649031E+03  0.16418504373E+03 -0.96556495282E+02  0.23089354555E+03  0.00000000000E+00 0.  1.
         22    1    1    2    0    0  0.28074850662E+02 -0.10815521646E+03  0.28159326159E+03  0.30295298820E+03  0.00000000000E+00 0. -1.
         22    1    1    2    0    0  0.68815049598E+02  0.15725573263E+02  0.21904343242E+03  0.23013654641E+03  0.00000000000E+00 0. -1.
</event>
<event>
 6    1  0.1293624E-005  0.7807557E+02  0.7818608E-02  0.1336532E+00
          2   -1    0    0  502    0  0.00000000000E+00  0.00000000000E+00  0.18222820440E+03  0.18222820440E+03  0.00000000000E+00 0. -1.
          1   -1    0    0  501    0 -0.00000000000E+00 -0.00000000000E+00 -0.14658760796E+04  0.14658760796E+04  0.00000000000E+00 0.  1.
          2    1    1    2  501    0 -0.14759605589E+01  0.32194128759E+02  0.46331617289E+02  0.56438100134E+02  0.00000000000E+00 0. -1.
          1    1    1    2  502    0  0.34430355246E+02  0.51449189662E+02 -0.14163947791E+04  0.14177470291E+04  0.00000000000E+00 0.  1.
         22    1    1    2    0    0 -0.18599932350E+02  0.29358755374E+02  0.33670865705E+02  0.48390300659E+02  0.00000000000E+00 0. -1.
         22    1    1    2    0    0 -0.14354462337E+02 -0.11300207380E+03  0.52744420873E+02  0.12552885407E+03  0.00000000000E+00 0. -1.
</event>
<event>
 6    1  0.1293624E-005  0.2420034E+03  0.7818608E-02  0.1118465E+00
          2   -1    0    0  502    0  0.00000000000E+00  0.00000000000E+00  0.16414365329E+03  0.16414365329E+03  0.00000000000E+00 0.  1.
          1   -1    0    0  501    0 -0.00000000000E+00 -0.00000000000E+00 -0.49538825595E+03  0.49538825595E+03  0.00000000000E+00 0.  1.
          2    1    1    2  501    0  0.41150934575E+02 -0.32404037429E+02 -0.11942019920E+02  0.53721810263E+02  0.00000000000E+00 0.  1.
          1    1    1    2  502    0 -0.17762550082E+03  0.42524608743E+02 -0.37171932383E+03  0.41416713607E+03  0.00000000000E+00 0.  1.
         22    1    1    2    0    0  0.15945123641E+02 -0.47403896617E+02 -0.98112807014E+01  0.50967024746E+02  0.00000000000E+00 0.  1.
         22    1    1    2    0    0  0.12052944260E+03  0.37283325304E+02  0.62228021792E+02  0.14067593816E+03  0.00000000000E+00 0.  1.
</event>
<event>
 6    1  0.1293624E-005  0.6872076E+02  0.7818608E-02  0.1367502E+00
          2   -1    0    0  502    0  0.00000000000E+00  0.00000000000E+00  0.17040782535E+02  0.17040782535E+02  0.00000000000E+00 0. -1.
          1   -1    0    0  501    0 -0.00000000000E+00 -0.00000000000E+00 -0.69653997396E+03  0.69653997396E+03  0.00000000000E+00 0. -1.
          2    1    1    2  501    0  0.25558173484E+01 -0.24622694880E+02 -0.29792414942E+03  0.29895084564E+03  0.00000000000E+00 0. -1.
          1    1    1    2  502    0  0.93633042231E+01 -0.20948341970E+02 -0.75439234353E+02  0.78851649172E+02  0.00000000000E+00 0. -1.
         22    1    1    2    0    0  0.35078543197E+02 -0.20645578839E+02 -0.18846515606E+03  0.19281042287E+03  0.00000000000E+00 0. -1.
         22    1    1    2    0    0 -0.46997664769E+02  0.66216615690E+02 -0.11767065160E+03  0.14296783881E+03  0.00000000000E+00 0. -1.
</event>
<event>
 6    1  0.1293624E-005  0.2815765E+03  0.7818608E-02  0.1094831E+00
          2   -1    0    0  502    0  0.00000000000E+00  0.00000000000E+00  0.74835168171E+03  0.74835168171E+03  0.00000000000E+00 0. -1.
          1   -1    0    0  501    0 -0.00000000000E+00 -0.00000000000E+00 -0.38138431137E+03  0.38138431137E+03  0.00000000000E+00 0.  1.
          2    1    1    2  501    0 -0.70149232440E+02  0.37477118452E+02  0.22665989687E+03  0.24020857201E+03  0.00000000000E+00 0. -1.
          1    1    1    2  502    0 -0.63694016658E+02  0.46641042187E+02 -0.35034913836E+03  0.35913344780E+03  0.00000000000E+00 0.  1.
         22    1    1    2    0    0  0.76355076358E+02  0.96525013773E+00  0.96372675076E+02  0.12295821199E+03  0.00000000000E+00 0. -1.
         22    1    1    2    0    0  0.57488172740E+02 -0.85083410776E+02  0.39428393675E+03  0.40743576129E+03  0.00000000000E+00 0. -1.
</event>
<event>
 6    1  0.1293624E-005  0.1856107E+03  0.7818608E-02  0.1162481E+00
          2   -1    0    0  502    0  0.00000000000E+00  0.00000000000E+00  0.35450310165E+02  0.35450310165E+02  0.00000000000E+00 0.  1.
          1   -1    0    0  501    0 -0.00000000000E+00 -0.00000000000E+00 -0.10795426336E+04  0.10795426336E+04  0.00000000000E+00 0.  1.
          2    1    1    2  501    0 -0.44829909418E+02 -0.26083292596E+02 -0.40158584288E+02  0.65595509169E+02  0.00000000000E+00 0.  1.
          1    1    1    2  502    0  0.79078327490E+02  0.63135912885E+01 -0.82082222486E+03  0.82464681418E+03  0.00000000000E+00 0.  1.
         22    1    1    2    0    0  0.26544482381E+02  0.11566650973E+02 -0.15427205525E+03  0.15696580517E+03  0.00000000000E+00 0. -1.
         22    1    1    2    0    0 -0.60792900452E+02  0.82030503346E+01 -0.28839459023E+02  0.67784815239E+02  0.00000000000E+00 0.  1.
</event>
<event>
 6    1  0.1293624E-005  0.1359740E+03  0.7818608E-02  0.1219421E+00
          2   -1    0    0  502    0  0.00000000000E+00  0.00000000000E+00  0.51278211139E+03  0.51278211139E+03  0.00000000000E+00 0. -1.
          1   -1    0    0  501    0 -0.00000000000E+00 -0.00000000000E+00 -0.29418092029E+03  0.29418092029E+03  0.00000000000E+00 0.  1.
          2    1    1    2  501    0  0.49598362621E+02  0.92536389872E+02  0.22651412371E+03  0.24966303144E+03  0.00000000000E+00 0. -1.
          1    1    1    2  502    0  0.10187539628E+03 -0.94119474564E+01 -0.22942414069E+03  0.25120234365E+03  0.00000000000E+00 0.  1.
         22    1    1    2    0    0  0.14634088104E+02  0.97309149872E+01  0.37351699027E+02  0.41279494441E+02  0.00000000000E+00 0. -1.
         22    1    1    2    0    0 -0.16610784700E+03 -0.92855357403E+02  0.18415950905E+03  0.26481816215E+03  0.00000000000E+00 0. -1.
</event>
<event>
 6    1  0.1293624E-005  0.2397843E+03  0.7818608E-02  0.1119937E+00
          2   -1    0    0  502    0  0.00000000000E+00  0.00000000000E+00  0.77399100930E+03  0.77399100930E+03  0.00000000000E+00 0. -1.
          1   -1    0    0  501    0 -0.00000000000E+00 -0.00000000000E+00 -0.36970335062E+02  0.36970335062E+02  0.00000000000E+00 0. -1.
          2    1    1    2  501    0 -0.24208369565E+02 -0.61105503379E+02  0.15568284547E+03  0.16898839036E+03  0.00000000000E+00 0. -1.
          1    1    1    2  502    0  0.89598421099E+02 -0.36596509217E+02  0.17623410238E+03  0.20106128516E+03  0.00000000000E+00 0. -1.
         22    1    1    2    0    0  0.19319444392E+01 -0.29709964169E+02  0.77081828489E+02  0.82631850176E+02  0.00000000000E+00 0.  1.
         22    1    1    2    0    0 -0.67321995973E+02  0.12741197676E+03  0.32802189789E+03  0.35827981867E+03  0.00000000000E+00 0. -1.
</event>
<event>
 6    1  0.1293624E-005  0.2181457E+03  0.7818608E-02  0.1135273E+00
          2   -1    0    0  502    0  0.00000000000E+00  0.00000000000E+00  0.86265193393E+02  0.86265193393E+02  0.00000000000E+00 0. -1.
          1   -1    0    0  501    0 -0.00000000000E+00 -0.00000000000E+00 -0.61987459732E+03  0.61987459732E+03  0.00000000000E+00 0.  1.
          2    1    1    2  501    0  0.35397800293E+02 -0.49521344592E+02 -0.39662944312E+02  0.72653403136E+02  0.00000000000E+00 0. -1.
          1    1    1    2  502    0  0.28121492968E+02  0.53735103265E+01 -0.48085416632E+03  0.48170574238E+03  0.00000000000E+00 0.  1.
         22    1    1    2    0    0 -0.14923731959E+02 -0.27075572896E+02  0.39975762394E+02  0.50535789320E+02  0.00000000000E+00 0. -1.
         22    1    1    2    0    0 -0.48595561302E+02  0.71223407162E+02 -0.53068055692E+02  0.10124485587E+03  0.00000000000E+00 0. -1.
</event>
<event>
 6    1  0.1293624E-005  0.1232704E+03  0.7818608E-02  0.1238215E+00
          2   -1    0    0  502    0  0.00000000000E+00  0.00000000000E+00  0.24920329371E+03  0.24920329371E+03  0.00000000000E+00 0. -1.
          1   -1    0    0  501    0 -0.00000000000E+00 -0.00000000000E+00 -0.16773225341E+04  0.16773225341E+04  0.00000000000E+00 0.  1.
          2    1    1    2  501    0 -0.40853585503E+02 -0.59564792981E+02 -0.13287371722E+02  0.73440685309E+02  0.00000000000E+00 0. -1.
          1    1    1    2  502    0 -0.39199242197E+02 -0.30775722081E+02 -0.15979934432E+04  0.15987703932E+04  0.00000000000E+00 0.  1.
         22    1    1    2    0    0 -0.95807756075E+01 -0.11212861942E+02 -0.10414080553E+02  0.18054711516E+02  0.00000000000E+00 0. -1.
         22    1    1    2    0    0  0.89633603308E+02  0.10155337700E+03  0.19357565508E+03  0.23626003780E+03  0.00000000000E+00 0. -1.
</event>
<event>
 6    1  0.1293624E-005  0.3031648E+03  0.7818608E-02  0.1083669E+00
          2   -1    0    0  502    0  0.00000000000E+00  0.00000000000E+00  0.59392635831E+03  0.59392635831E+03  0.00000000000E+00 0.  1.
          1   -1    0    0  501    0 -0.00000000000E+00 -0.00000000000E+00 -0.70921109494E+03  0.70921109494E+03  0.00000000000E+00 0. -1.
          2    1    1    2  501    0 -0.66053016572E+02  0.64617831691E+02  0.64614776606E+02  0.11275431046E+03  0.00000000000E+00 0.  1.
          1    1    1    2  502    0  0.19224796066E+03 -0.68716270653E+02 -0.65391825954E+03  0.68504765848E+03  0.00000000000E+00 0. -1.
         22    1    1    2    0    0 -0.12442609739E+03 -0.24634307853E+02  0.45093935259E+03  0.46843889948E+03  0.00000000000E+00 0.  1.
         22    1    1    2    0    0 -0.17688466979E+01  0.28732746815E+02  0.23079393709E+02  0.36896584831E+02  0.00000000000E+00 0. -1.
</event>
<event>
 6    1  0.1293624E-005  0.2459596E+03  0.7818608E-02  0.1115885E+00
          2   -1    0    0  502    0  0.00000000000E+00  0.00000000000E+00  0.20285992454E+03  0.20285992454E+03  0.00000000000E+00 0. -1.
          1   -1    0    0  501    0 -0.00000000000E+00 -0.00000000000E+00 -0.12622457896E+03  0.12622457896E+03  0.00000000000E+00 0. -1.
          2    1    1    2  501    0 -0.73486834984E+02 -0.13133003039E+02 -0.20700573862E+02  0.77468086610E+02  0.00000000000E+00 0. -1.
          1    1    1    2  502    0  0.27044363381E+02 -0.31930832119E+02 -0.39087806589E+02  0.57261088484E+02  0.00000000000E+00 0. -1.
         22    1    1    2    0    0  0.27003845944E+01 -0.35312264510E+02  0.74074678812E+01  0.36181745151E+02  0.00000000000E+00 0. -1.
         22    1    1    2    0    0  0.43742087009E+02  0.80376099667E+02  0.12901625815E+03  0.15817358326E+03  0.00000000000E+00 0. -1.
</event>
<event>
 6    1  0.1293624E-005  0.1447107E+03  0.7818608E-02  0.1208748E+00
          2   -1    0    0  502    0  0.00000000000E+00  0.00000000000E+00  0.78189112234E+03  0.78189112234E+03  0.00000000000E+00 0. -1.
          1   -1    0    0  501    0 -0.00000000000E+00 -0.00000000000E+00 -0.20853667979E+03  0.20853667979E+03  0.00000000000E+00 0.  1.
          2    1    1    2  501    0 -0.11559548437E+03  0.58418332236E+02  0.41467275736E+03  0.43442895074E+03  0.00000000000E+00 0. -1.
          1    1    1    2  502    0  0.41917704352E+02  0.14999810600E+02 -0.17782451101E+03  0.18331297001E+03  0.00000000000E+00 0.  1.
         22    1    1    2    0    0  0.98817205318E+02 -0.73335922974E+02  0.20743560707E+03  0.24118981891E+03  0.00000000000E+00 0.  1.
         22    1    1    2    0    0 -0.25139425302E+02 -0.82219861621E-01  0.12907058913E+03  0.13149606246E+03  0.00000000000E+00 0.  1.
</event>
<event>
 6    1  0.1293624E-005  0.4035228E+03  0.7818608E-02  0.1042567E+00
          2   -1    0    0  502    0  0.00000000000E+00  0.00000000000E+00  0.10119843733E+03  0.10119843733E+03  0.00000000000E+00 0. -1.
          1   -1    0    0  501    0 -0.00000000000E+00 -0.00000000000E+00 -0.12587217026E+04  0.12587217026E+04  0.00000000000E+00 0.  1.
          2    1    1    2  501    0  0.25734381279E+03 -0.35397053742E+02 -0.39732510789E+03  0.47470625734E+03  0.00000000000E+00 0. -1.
          1    1    1    2  502    0 -0.30040989570E+03 -0.10213651026E+02 -0.60699258465E+03  0.67734069856E+03  0.00000000000E+00 0.  1.
         22    1    1    2    0    0  0.16286732216E+02  0.75988080545E+02 -0.14784274744E+03  0.16702372287E+03  0.00000000000E+00 0.  1.
         22    1    1    2    0    0  0.26779350690E+02 -0.30377375777E+02 -0.53628252872E+01  0.40849461166E+02  0.00000000000E+00 0.  1.
</event>
<event>
 6    1  0.1293624E-005  0.8835879E+02  0.7818608E-02  0.1312981E+00
          2   -1    0    0  502    0  0.00000000000E+00  0.00000000000E+00  0.19459833828E+03  0.19459833828E+03  0.00000000000E+00 0. -1.
          1   -1    0    0  501    0 -0.00000000000E+00 -0.00000000000E+00 -0.40014658773E+03  0.40014658773E+03  0.00000000000E+00 0.  1.
          2    1    1    2  501    0 -0.65078830568E+02 -0.85933305678E+01  0.87491253800E+01  0.66224215460E+02  0.00000000000E+00 0. -1.
          1    1    1    2  502    0  0.21878246486E+02  0.88642319375E+01 -0.34353446708E+03  0.34434454017E+03  0.00000000000E+00 0.  1.
         22    1    1    2    0    0  0.67648393737E+02  0.31655622367E+02  0.12239863421E+03  0.14338692151E+03  0.00000000000E+00 0. -1.
         22    1    1    2    0    0 -0.24447809656E+02 -0.31926523737E+02  0.68384580443E+01  0.40789248869E+02  0.00000000000E+00 0. -1.
</event>
<event>
 6    1  0.1293624E-005  0.2752211E+03  0.7818608E-02  0.1136812E+00
          2   -1    0    0  502    0  0.00000000000E+00  0.00000000000E+00  0.20481697685E+03  0.20481697685E+03  0.00000000000E+00 0. -1.
          1   -1    0    0  501    0 -0.00000000000E+00 -0.00000000000E+00 -0.95075259222E+03  0.95075259222E+03  0.00000000000E+00 0.  1.
          2    1    1    2  501    0  0.40258940857E+01 -0.12446003640E+03  0.51952458714E+02  0.13492800470E+03  0.00000000000E+00 0. -1.
          1    1    1    2  502    0  0.32377432899E+02  0.27235342024E+03 -0.77851333980E+03  0.82541365625E+03  0.00000000000E+00 0.  1.
         22    1    1    2    0    0 -0.77685008789E+02 -0.70106265016E+02  0.17935265277E+01  0.10465689525E+03  0.00000000000E+00 0. -1.
         22    1    1    2    0    0  0.41281681805E+02 -0.77787118821E+02 -0.21168260803E+02  0.90571012871E+02  0.00000000000E+00 0. -1.
</event>
<event>
 6    1  0.1293624E-005  0.2239601E+03  0.7818608E-02  0.1130965E+00
          2   -1    0    0  502    0  0.00000000000E+00  0.00000000000E+00  0.12165780430E+03  0.12165780430E+03  0.00000000000E+00 0.  1.
          1   -1    0    0  501    0 -0.00000000000E+00 -0.00000000000E+00 -0.27201901369E+03  0.27201901369E+03  0.00000000000E+00 0.  1.
          2    1    1    2  501    0  0.37912143593E+02  0.84854166602E+01 -0.29188561422E+02  0.48593261319E+02  0.00000000000E+00 0.  1.
          1    1    1    2  502    0 -0.35330200336E+02  0.11380209202E+03 -0.11744718369E+03  0.16731102821E+03  0.00000000000E+00 0.  1.
         22    1    1    2    0    0 -0.59227550521E+02 -0.92459697399E+02 -0.20251585236E+02  0.11165493759E+03  0.00000000000E+00 0.  1.
         22    1    1    2    0    0  0.56645607264E+02 -0.29827811285E+02  0.16526120962E+02  0.66117590869E+02  0.00000000000E+00 0.  1.
</event>
<event>
 6    1  0.1293624E-005  0.2136148E+03  0.7818608E-02  0.1225406E+00
          2   -1    0    0  502    0  0.00000000000E+00  0.00000000000E+00  0.13322334199E+04  0.13322334199E+04  0.00000000000E+00 0. -1.
          1   -1    0    0  501    0 -0.00000000000E+00 -0.00000000000E+00 -0.30859130260E+03  0.30859130260E+03  0.00000000000E+00 0. -1.
          2    1    1    2  501    0 -0.67230274200E+02 -0.49731589720E+02  0.32918030352E+03  0.33963629519E+03  0.00000000000E+00 0. -1.
          1    1    1    2  502    0  0.94541747071E+02  0.17824613775E+03 -0.26042545915E+03  0.32944081006E+03  0.00000000000E+00 0. -1.
         22    1    1    2    0    0 -0.56157759794E+02 -0.13865116712E+03  0.78283451606E+03  0.79699919678E+03  0.00000000000E+00 0. -1.
         22    1    1    2    0    0  0.28846286922E+02  0.10136619091E+02  0.17205275688E+03  0.17474842050E+03  0.00000000000E+00 0. -1.
</event>
<event>
 6    1  0.1293624E-005  0.1052688E+03  0.7818608E-02  0.1271265E+00
          2   -1    0    0  502    0  0.00000000000E+00  0.00000000000E+00  0.25494139407E+02  0.25494139407E+02  0.00000000000E+00 0. -1.
          1   -1    0    0  501    0 -0.00000000000E+00 -0.00000000000E+00 -0.87768704977E+03  0.87768704977E+03  0.00000000000E+00 0.  1.
          2    1    1    2  501    0  0.56598238495E+02  0.49085064380E+02 -0.23262746417E+03  0.24439361946E+03  0.00000000000E+00 0. -1.
          1    1    1    2  502    0  0.62503381918E+01 -0.35944488610E+02 -0.38355933482E+03  0.38529058685E+03  0.00000000000E+00 0.  1.
         22    1    1    2    0    0  0.34638987866E+02  0.10576071709E+02 -0.82642445475E+02  0.90230186563E+02  0.00000000000E+00 0. -1.
         22    1    1    2    0    0 -0.97487564552E+02 -0.23716647479E+02 -0.15336366590E+03  0.18326679630E+03  0.00000000000E+00 0.  1.
</event>
<event>
 6    1  0.1293624E-005  0.3331348E+03  0.7818608E-02  0.1069758E+00
          2   -1    0    0  502    0  0.00000000000E+00  0.00000000000E+00  0.17797289849E+03  0.17797289849E+03  0.00000000000E+00 0. -1.
          1   -1    0    0  501    0 -0.00000000000E+00 -0.00000000000E+00 -0.55929856917E+03  0.55929856917E+03  0.00000000000E+00 0.  1.
          2    1    1    2  501    0  0.55857602371E+02  0.85523157478E+02  0.29121044938E+01  0.10218983590E+03  0.00000000000E+00 0. -1.
          1    1    1    2  502    0 -0.10730227212E+03  0.10453607726E+03 -0.37528741177E+03  0.40408193536E+03  0.00000000000E+00 0.  1.
         22    1    1    2    0    0  0.64834395258E+01  0.15051625813E+02  0.11506557593E+02  0.20024667172E+02  0.00000000000E+00 0. -1.
         22    1    1    2    0    0  0.44961230227E+02 -0.20511086055E+03 -0.20456920992E+02  0.21097502922E+03  0.00000000000E+00 0.  1.
</event>
<event>
 6    1  0.1293624E-005  0.8629342E+02  0.7818608E-02  0.1314640E+00
          2   -1    0    0  502    0  0.00000000000E+00  0.00000000000E+00  0.65697662167E+03  0.65697662167E+03  0.00000000000E+00 0.  1.
          1   -1    0    0  501    0 -0.00000000000E+00 -0.00000000000E+00 -0.12156904364E+03  0.12156904364E+03  0.00000000000E+00 0.  1.
          2    1    1    2  501    0  0.37302889350E+02 -0.11356990142E+01  0.22312740862E+03  0.22622695649E+03  0.00000000000E+00 0.  1.
          1    1    1    2  502    0  0.20546813932E+02 -0.30131282582E+02 -0.10568168631E+03  0.11179751596E+03  0.00000000000E+00 0.  1.
         22    1    1    2    0    0  0.38007118168E+02  0.15837775886E+02  0.14844650081E+03  0.15405109470E+03  0.00000000000E+00 0.  1.
         22    1    1    2    0    0 -0.95856821450E+02  0.15429205710E+02  0.26951535491E+03  0.28647009816E+03  0.00000000000E+00 0.  1.
</event>
<event>
 6    1  0.1293624E-005  0.1471427E+03  0.7818608E-02  0.1204029E+00
          2   -1    0    0  502    0  0.00000000000E+00  0.00000000000E+00  0.22840251209E+02  0.22840251209E+02  0.00000000000E+00 0.  1.
          1   -1    0    0  501    0 -0.00000000000E+00 -0.00000000000E+00 -0.96124786959E+03  0.96124786959E+03  0.00000000000E+00 0. -1.
          2    1    1    2  501    0  0.13886702323E+02 -0.16456655178E+02 -0.37506829758E+02  0.43248402046E+02  0.00000000000E+00 0.  1.
          1    1    1    2  502    0  0.18003894724E+02  0.32102022232E+02 -0.71880610486E+03  0.71974780058E+03  0.00000000000E+00 0. -1.
         22    1    1    2    0    0 -0.42046736426E+02 -0.35115549678E+02 -0.19000975582E+03  0.19774917745E+03  0.00000000000E+00 0.  1.
         22    1    1    2    0    0  0.10156139380E+02  0.19470182624E+02  0.79150720650E+01  0.23342740720E+02  0.00000000000E+00 0.  1.
</event>
<event>
 6    1  0.1293624E-005  0.1029171E+03  0.7818608E-02  0.1275504E+00
          2   -1    0    0  502    0  0.00000000000E+00  0.00000000000E+00  0.12736799450E+03  0.12736799450E+03  0.00000000000E+00 0.  1.
          1   -1    0    0  501    0 -0.00000000000E+00 -0.00000000000E+00 -0.11209131630E+04  0.11209131630E+04  0.00000000000E+00 0.  1.
          2    1    1    2  501    0  0.39782845747E+01  0.53319055117E+02  0.18236630980E+02  0.56491796717E+02  0.00000000000E+00 0.  1.
          1    1    1    2  502    0 -0.39690950350E+02  0.46871256728E+02 -0.10262192806E+04  0.10280555910E+04  0.00000000000E+00 0.  1.
         22    1    1    2    0    0  0.99691395335E+01  0.28840603481E+02 -0.43562640746E+01  0.30824360316E+02  0.00000000000E+00 0. -1.
         22    1    1    2    0    0  0.25743526242E+02 -0.12903091533E+03  0.18793745270E+02  0.13290940943E+03  0.00000000000E+00 0. -1.
</event>
<event>
 6    1  0.1293624E-005  0.1054144E+03  0.7818608E-02  0.1272485E+00
          2   -1    0    0  502    0  0.00000000000E+00  0.00000000000E+00  0.11362684472E+04  0.11362684472E+04  0.00000000000E+00 0. -1.
          1   -1    0    0  501    0 -0.00000000000E+00 -0.00000000000E+00 -0.18865090533E+02  0.18865090533E+02  0.00000000000E+00 0. -1.
          2    1    1    2  501    0 -0.54383713003E+02 -0.31749151409E+02  0.49564988275E+03  0.49963426936E+03  0.00000000000E+00 0. -1.
          1    1    1    2  502    0  0.24551182994E+02 -0.31798580277E+01  0.71342744445E+01  0.25763733335E+02  0.00000000000E+00 0. -1.
         22    1    1    2    0    0  0.58366395710E+02  0.70514938018E+02  0.40987742359E+03  0.41997439803E+03  0.00000000000E+00 0. -1.
         22    1    1    2    0    0 -0.28533865701E+02 -0.35585928582E+02  0.20474177586E+03  0.20976113698E+03  0.00000000000E+00 0. -1.
</event>
<event>
 6    1  0.1293624E-005  0.6597628E+02  0.7818608E-02  0.1376843E+00
          2   -1    0    0  502    0  0.00000000000E+00  0.00000000000E+00  0.52328883413E+03  0.52328883413E+03  0.00000000000E+00 0. -1.
          1   -1    0    0  501    0 -0.00000000000E+00 -0.00000000000E+00 -0.16527685750E+03  0.16527685750E+03  0.00000000000E+00 0. -1.
          2    1    1    2  501    0  0.20586216537E+02  0.76666159661E-01  0.18024673675E+03  0.18141853350E+03  0.00000000000E+00 0. -1.
          1    1    1    2  502    0 -0.10649888981E+02 -0.20172210327E+02 -0.15236225918E+03  0.15406036553E+03  0.00000000000E+00 0. -1.
         22    1    1    2    0    0  0.43606514576E+02  0.18103978541E+02  0.26296703879E+03  0.26717212737E+03  0.00000000000E+00 0. -1.
         22    1    1    2    0    0 -0.53542842132E+02  0.19915656264E+01  0.67160460266E+02  0.85914665223E+02  0.00000000000E+00 0.  1.
</event>
<event>
 6    1  0.1293624E-005  0.2159866E+03  0.7818608E-02  0.1136911E+00
          2   -1    0    0  502    0  0.00000000000E+00  0.00000000000E+00  0.52920643965E+02  0.52920643965E+02  0.00000000000E+00 0.  1.
          1   -1    0    0  501    0 -0.00000000000E+00 -0.00000000000E+00 -0.45317785196E+03  0.45317785196E+03  0.00000000000E+00 0. -1.
          2    1    1    2  501    0 -0.19086176643E+02  0.94430646810E+01 -0.14326980365E+03  0.14484367520E+03  0.00000000000E+00 0.  1.
          1    1    1    2  502    0  0.40867547040E+02 -0.35675251297E+01 -0.22284496111E+03  0.22658940913E+03  0.00000000000E+00 0. -1.
         22    1    1    2    0    0 -0.71096866281E+02 -0.20099502788E+02 -0.16160270307E+01  0.73901055139E+02  0.00000000000E+00 0.  1.
         22    1    1    2    0    0  0.49315495884E+02  0.14223963237E+02 -0.32526416213E+02  0.60764356461E+02  0.00000000000E+00 0. -1.
</event>
<event>
 6    1  0.1293624E-005  0.3549408E+03  0.7818608E-02  0.1060605E+00
          2   -1    0    0  502    0  0.00000000000E+00  0.00000000000E+00  0.32078269968E+03  0.32078269968E+03  0.00000000000E+00 0. -1.
          1   -1    0    0  501    0 -0.00000000000E+00 -0.00000000000E+00 -0.39246431691E+03  0.39246431691E+03  0.00000000000E+00 0. -1.
          2    1    1    2  501    0 -0.49742082169E+02 -0.16555703845E+03  0.69069974008E+02  0.18615603409E+03  0.00000000000E+00 0. -1.
          1    1    1    2  502    0  0.18280378361E+03  0.16031158926E+03 -0.22062942515E+03  0.32832053271E+03  0.00000000000E+00 0. -1.
         22    1    1    2    0    0 -0.14957725669E+03  0.26205649210E+02  0.80909925489E+02  0.17206541725E+03  0.00000000000E+00 0. -1.
         22    1    1    2    0    0  0.16515555253E+02 -0.20960200017E+02 -0.10320915711E+01  0.26705032542E+02  0.00000000000E+00 0.  1.
</event>
<event>
 6    1  0.1293624E-005  0.1459666E+03  0.7818608E-02  0.1206851E+00
          2   -1    0    0  502    0  0.00000000000E+00  0.00000000000E+00  0.40991154783E+03  0.40991154783E+03  0.00000000000E+00 0.  1.
          1   -1    0    0  501    0 -0.00000000000E+00 -0.00000000000E+00 -0.62941670356E+03  0.62941670356E+03  0.00000000000E+00 0.  1.
          2    1    1    2  501    0  0.19464260979E+02 -0.14418143297E+03 -0.57676943790E+01  0.14560360355E+03  0.00000000000E+00 0.  1.
          1    1    1    2  502    0 -0.14028664600E+02  0.26894392842E+02 -0.53075014200E+03  0.53161623849E+03  0.00000000000E+00 0.  1.
         22    1    1    2    0    0  0.22055319040E+01  0.13783582819E+03  0.30970401264E+03  0.33899875420E+03  0.00000000000E+00 0.  1.
         22    1    1    2    0    0 -0.76411282835E+01 -0.20548788068E+02  0.73086680119E+01  0.23109655138E+02  0.00000000000E+00 0. -1.
</event>
<event>
 6    1  0.1293624E-005  0.3296244E+03  0.7818608E-02  0.1071303E+00
          2   -1    0    0  502    0  0.00000000000E+00  0.00000000000E+00  0.88380083283E+03  0.88380083283E+03  0.00000000000E+00 0.  1.
          1   -1    0    0  501    0 -0.00000000000E+00 -0.00000000000E+00 -0.10389754155E+03  0.10389754155E+03  0.00000000000E+00 0.  1.
          2    1    1    2  501    0 -0.27041292947E+02  0.48523202643E+02  0.15290414180E+02  0.57615358063E+02  0.00000000000E+00 0.  1.
          1    1    1    2  502    0  0.19383526109E+03 -0.10944414208E+03  0.12693332704E+03  0.25624636230E+03  0.00000000000E+00 0.  1.
         22    1    1    2    0    0 -0.58850329526E+02 -0.35767581983E+02  0.14944342647E+03  0.16454792287E+03  0.00000000000E+00 0. -1.
         22    1    1    2    0    0 -0.10794363862E+03  0.96688521421E+02  0.48823612360E+03  0.50928873115E+03  0.00000000000E+00 0.  1.
</event>
<event>
 6    1  0.1293624E-005  0.2595936E+03  0.7818608E-02  0.1107388E+00
          2   -1    0    0  502    0  0.00000000000E+00  0.00000000000E+00  0.94469366293E+02  0.94469366293E+02  0.00000000000E+00 0.  1.
          1   -1    0    0  501    0 -0.00000000000E+00 -0.00000000000E+00 -0.10941325653E+04  0.10941325653E+04  0.00000000000E+00 0.  1.
          2    1    1    2  501    0  0.53148568028E+02 -0.96435506312E+01 -0.53849470637E+02  0.76272759489E+02  0.00000000000E+00 0.  1.
          1    1    1    2  502    0  0.45277691804E+02 -0.10424264770E+03 -0.90527479503E+03  0.91238098045E+03  0.00000000000E+00 0.  1.
         22    1    1    2    0    0  0.27666207524E+02  0.31218078417E+01 -0.33363377820E+01  0.28040967757E+02  0.00000000000E+00 0. -1.
         22    1    1    2    0    0 -0.12609246736E+03  0.11076439049E+03 -0.37202595606E+02  0.17190722394E+03  0.00000000000E+00 0.  1.
</event>
<event>
 6    1  0.1293624E-005  0.1665624E+03  0.7818608E-02  0.1181481E+00
          2   -1    0    0  502    0  0.00000000000E+00  0.00000000000E+00  0.25822989320E+02  0.25822989320E+02  0.00000000000E+00 0. -1.
          1   -1    0    0  501    0 -0.00000000000E+00 -0.00000000000E+00 -0.12812290447E+04  0.12812290447E+04  0.00000000000E+00 0. -1.
          2    1    1    2  501    0  0.23309404231E+02  0.17642321708E+02 -0.95792664510E+02  0.10015395357E+03  0.00000000000E+00 0. -1.
          1    1    1    2  502    0 -0.37945059352E+02  0.14012947854E+01 -0.10085150885E+04  0.10092296442E+04  0.00000000000E+00 0. -1.
         22    1    1    2    0    0  0.44278862915E+02 -0.61181139360E+02 -0.82034096195E+02  0.11150489878E+03  0.00000000000E+00 0.  1.
         22    1    1    2    0    0 -0.29643207795E+02  0.42137522866E+02 -0.69064206183E+02  0.86163537400E+02  0.00000000000E+00 0. -1.
</event>
<event>
 6    1  0.1293624E-005  0.1790944E+03  0.7818608E-02  0.1168682E+00
          2   -1    0    0  502    0  0.00000000000E+00  0.00000000000E+00  0.40929225447E+02  0.40929225447E+02  0.00000000000E+00 0. -1.
          1   -1    0    0  501    0 -0.00000000000E+00 -0.00000000000E+00 -0.58636543222E+03  0.58636543222E+03  0.00000000000E+00 0.  1.
          2    1    1    2  501    0  0.23651617118E+02 -0.27656358443E+02 -0.87865028158E+02  0.95102767193E+02  0.00000000000E+00 0. -1.
          1    1    1    2  502    0 -0.11318163483E+02  0.18084460024E+02 -0.38874649059E+03  0.38933145578E+03  0.00000000000E+00 0.  1.
         22    1    1    2    0    0  0.40605862007E+02  0.35880891374E+02 -0.63540440860E+02  0.83508454781E+02  0.00000000000E+00 0.  1.
         22    1    1    2    0    0 -0.52939315642E+02 -0.26308992955E+02 -0.52842471664E+01  0.59351979909E+02  0.00000000000E+00 0. -1.
</event>
<event>
 6    1  0.1293624E-005  0.1682335E+03  0.7818608E-02  0.1181706E+00
          2   -1    0    0  502    0  0.00000000000E+00  0.00000000000E+00  0.31339967154E+03  0.31339967154E+03  0.00000000000E+00 0. -1.
          1   -1    0    0  501    0 -0.00000000000E+00 -0.00000000000E+00 -0.20285408061E+03  0.20285408061E+03  0.00000000000E+00 0. -1.
          2    1    1    2  501    0  0.96282986344E+02 -0.10379797469E+03 -0.10328251707E+03  0.17524757157E+03  0.00000000000E+00 0. -1.
          1    1    1    2  502    0 -0.37789346120E+02 -0.29235036112E+02  0.11444689797E+03  0.12401941168E+03  0.00000000000E+00 0. -1.
         22    1    1    2    0    0 -0.56249571015E+02  0.15380184553E+03  0.10599597308E+03  0.19507477601E+03  0.00000000000E+00 0. -1.
         22    1    1    2    0    0 -0.22440692088E+01 -0.20768834725E+02 -0.66147630571E+01  0.21911992898E+02  0.00000000000E+00 0. -1.
</event>
<event>
 6    1  0.1293624E-005  0.6488459E+02  0.7818608E-02  0.1382419E+00
          2   -1    0    0  502    0  0.00000000000E+00  0.00000000000E+00  0.19574118655E+03  0.19574118655E+03  0.00000000000E+00 0. -1.
          1   -1    0    0  501    0 -0.00000000000E+00 -0.00000000000E+00 -0.92738156178E+02  0.92738156178E+02  0.00000000000E+00 0. -1.
          2    1    1    2  501    0 -0.31000382785E+02  0.16732348958E+02 -0.14049177685E+02  0.37925909719E+02  0.00000000000E+00 0. -1.
          1    1    1    2  502    0 -0.11240906396E+02 -0.45353831442E+02 -0.25578335683E+02  0.53268933342E+02  0.00000000000E+00 0. -1.
         22    1    1    2    0    0 -0.19044067365E+02  0.33155212358E+02 -0.38566404297E+01  0.38429393486E+02  0.00000000000E+00 0. -1.
         22    1    1    2    0    0  0.61285356546E+02 -0.45337298735E+01  0.14648718417E+03  0.15885510618E+03  0.00000000000E+00 0. -1.
</event>
<event>
 6    1  0.1293624E-005  0.1533737E+03  0.7818608E-02  0.1196388E+00
          2   -1    0    0  502    0  0.00000000000E+00  0.00000000000E+00  0.70320924680E+03  0.70320924680E+03  0.00000000000E+00 0. -1.
          1   -1    0    0  501    0 -0.00000000000E+00 -0.00000000000E+00 -0.87537123179E+02  0.87537123179E+02  0.00000000000E+00 0. -1.
          2    1    1    2  501    0 -0.16926057702E+02  0.16519147118E+02  0.12243294878E+03  0.12469643378E+03  0.00000000000E+00 0. -1.
          1    1    1    2  502    0  0.45144143316E+02 -0.51757374253E+02 -0.64064834984E+02  0.93920831272E+02  0.00000000000E+00 0. -1.
         22    1    1    2    0    0  0.27903872243E+02  0.56470513583E+02  0.19589210273E+03  0.20576992225E+03  0.00000000000E+00 0. -1.
         22    1    1    2    0    0 -0.56121957858E+02 -0.21232286448E+02  0.36141190710E+03  0.36635918269E+03  0.00000000000E+00 0. -1.
</event>
<event>
 6    1  0.1293624E-005  0.9285982E+02  0.7818608E-02  0.1302408E+00
          2   -1    0    0  502    0  0.00000000000E+00  0.00000000000E+00  0.42166414561E+03  0.42166414561E+03  0.00000000000E+00 0. -1.
          1   -1    0    0  501    0 -0.00000000000E+00 -0.00000000000E+00 -0.35074872916E+02  0.35074872916E+02  0.00000000000E+00 0. -1.
          2    1    1    2  501    0 -0.16242730922E+01 -0.39591038030E+02  0.16109580855E+02  0.42773907358E+02  0.00000000000E+00 0. -1.
          1    1    1    2  502    0 -0.44523881921E+02 -0.29526181505E+01  0.71041360513E+02  0.83892603481E+02  0.00000000000E+00 0. -1.
         22    1    1    2    0    0  0.26140532290E+02 -0.40441501516E+02  0.67434683022E+02  0.82863013145E+02  0.00000000000E+00 0. -1.
         22    1    1    2    0    0  0.20007622723E+02  0.82985157696E+02  0.23200364831E+03  0.24720949455E+03  0.00000000000E+00 0. -1.
</event>
<event>
 6    1  0.1293624E-005  0.9810575E+02  0.7818608E-02  0.1287206E+00
          2   -1    0    0  502    0  0.00000000000E+00  0.00000000000E+00  0.54014935572E+02  0.54014935572E+02  0.00000000000E+00 0.  1.
          1   -1    0    0  501    0 -0.00000000000E+00 -0.00000000000E+00 -0.18091325855E+04  0.18091325855E+04  0.00000000000E+00 0.  1.
          2    1    1    2  501    0  0.30175251354E+01 -0.90823049279E+02 -0.15385020580E+03  0.17868356825E+03  0.00000000000E+00 0.  1.
          1    1    1    2  502    0 -0.14316095231E+02  0.23588516851E+02 -0.15217176505E+04  0.15219677975E+04  0.00000000000E+00 0.  1.
         22    1    1    2    0    0  0.18748630800E+02  0.87380925876E+02 -0.10263942987E+02  0.89957133622E+02  0.00000000000E+00 0.  1.
         22    1    1    2    0    0 -0.74500607049E+01 -0.20146393448E+02 -0.69285850612E+02  0.72539021695E+02  0.00000000000E+00 0. -1.
</event>
<event>
 6    1  0.1293624E-005  0.3922510E+03  0.7818608E-02  0.1139321E+00
          2   -1    0    0  502    0  0.00000000000E+00  0.00000000000E+00  0.59426689938E+03  0.59426689938E+03  0.00000000000E+00 0.  1.
          1   -1    0    0  501    0 -0.00000000000E+00 -0.00000000000E+00 -0.32079974948E+03  0.32079974948E+03  0.00000000000E+00 0.  1.
          2    1    1    2  501    0 -0.99930942286E+02  0.26615726749E+03  0.20258179942E+03  0.34909206482E+03  0.00000000000E+00 0.  1.
          1    1    1    2  502    0  0.16409319298E+03 -0.33273033732E+03 -0.45724762602E+02  0.37380049127E+03  0.00000000000E+00 0.  1.
         22    1    1    2    0    0 -0.98077364978E+02  0.63955530958E+02  0.10148359696E+03  0.15494644208E+03  0.00000000000E+00 0.  1.
         22    1    1    2    0    0  0.33915114284E+02  0.26175388686E+01  0.15126516116E+02  0.37227650697E+02  0.00000000000E+00 0.  1.
</event>
<event>
 6    1  0.1293624E-005  0.1741505E+03  0.7818608E-02  0.1174177E+00
          2   -1    0    0  502    0  0.00000000000E+00  0.00000000000E+00  0.16156670263E+04  0.16156670263E+04  0.00000000000E+00 0. -1.
          1   -1    0    0  501    0 -0.00000000000E+00 -0.00000000000E+00 -0.26586682821E+02  0.26586682821E+02  0.00000000000E+00 0. -1.
          2    1    1    2  501    0 -0.13284167965E+03  0.51808039702E+02  0.56420580439E+03  0.58194430535E+03  0.00000000000E+00 0. -1.
          1    1    1    2  502    0 -0.15603456099E+02  0.17551229882E+02  0.10784260962E+02  0.25842093512E+02  0.00000000000E+00 0. -1.
         22    1    1    2    0    0 -0.14075575729E+02  0.11197392976E+02  0.43482223400E+02  0.47055363067E+02  0.00000000000E+00 0. -1.
         22    1    1    2    0    0  0.16252071148E+03 -0.80556662560E+02  0.97060805474E+03  0.98741194719E+03  0.00000000000E+00 0. -1.
</event>
<event>
 6    1  0.1293624E-005  0.2637059E+03  0.7818608E-02  0.1104937E+00
          2   -1    0    0  502    0  0.00000000000E+00  0.00000000000E+00  0.98668667751E+03  0.98668667751E+03  0.00000000000E+00 0. -1.
          1   -1    0    0  501    0 -0.00000000000E+00 -0.00000000000E+00 -0.12266264683E+03  0.12266264683E+03  0.00000000000E+00 0. -1.
          2    1    1    2  501    0  0.99027112242E+02 -0.57201056267E+01 -0.94992723494E+01  0.99645997122E+02  0.00000000000E+00 0. -1.
          1    1    1    2  502    0 -0.15661927360E+03 -0.71637787591E+02  0.82498394387E+03  0.84276929056E+03  0.00000000000E+00 0. -1.
         22    1    1    2    0    0  0.29418516312E+02 -0.30358297591E+02  0.34789776795E+02  0.54748551616E+02  0.00000000000E+00 0.  1.
         22    1    1    2    0    0  0.28173645045E+02  0.10771619081E+03  0.13749582373E+02  0.11218548504E+03  0.00000000000E+00 0. -1.
</event>
<event>
 6    1  0.1293624E-005  0.2892685E+03  0.7818608E-02  0.1090732E+00
          2   -1    0    0  502    0  0.00000000000E+00  0.00000000000E+00  0.21342388580E+03  0.21342388580E+03  0.00000000000E+00 0.  1.
          1   -1    0    0  501    0 -0.00000000000E+00 -0.00000000000E+00 -0.16111250229E+03  0.16111250229E+03  0.00000000000E+00 0.  1.
          2    1    1    2  501    0 -0.71738555821E+02 -0.82790684772E+01 -0.41957925661E+02  0.83519045085E+02  0.00000000000E+00 0.  1.
          1    1    1    2  502    0 -0.40462115573E+02  0.25528917954E+02 -0.48575378662E+02  0.68179732037E+02  0.00000000000E+00 0.  1.
         22    1    1    2    0    0  0.12640745082E+03 -0.19579033327E+02  0.15709174980E+03  0.20258331626E+03  0.00000000000E+00 0.  1.
         22    1    1    2    0    0 -0.14206779430E+02  0.23291838504E+01 -0.14247061977E+02  0.20254294709E+02  0.00000000000E+00 0.  1.
</event>
<event>
 6    1  0.1293624E-005  0.8801949E+02  0.7818608E-02  0.1310042E+00
          2   -1    0    0  502    0  0.00000000000E+00  0.00000000000E+00  0.40722497002E+02  0.40722497002E+02  0.00000000000E+00 0.  1.
          1   -1    0    0  501    0 -0.00000000000E+00 -0.00000000000E+00 -0.58694213863E+03  0.58694213863E+03  0.00000000000E+00 0.  1.
          2    1    1    2  501    0 -0.42494909561E+02  0.15377277629E+01 -0.24452578680E+02  0.49052120743E+02  0.00000000000E+00 0.  1.
          1    1    1    2  502    0 -0.20144612265E+02  0.94621573506E+01 -0.38152013878E+03  0.38216875085E+03  0.00000000000E+00 0.  1.
         22    1    1    2    0    0  0.92485412862E+02 -0.34075805507E+02 -0.11276709184E+03  0.14977025444E+03  0.00000000000E+00 0.  1.
         22    1    1    2    0    0 -0.29845891036E+02  0.23075920393E+02 -0.27479832315E+02  0.46673509594E+02  0.00000000000E+00 0.  1.
</event>
<event>
 6    1  0.1293624E-005  0.2828791E+03  0.7818608E-02  0.1094127E+00
          2   -1    0    0  502    0  0.00000000000E+00  0.00000000000E+00  0.16214440838E+03  0.16214440838E+03  0.00000000000E+00 0. -1.
          1   -1    0    0  501    0 -0.00000000000E+00 -0.00000000000E+00 -0.27249394364E+03  0.27249394364E+03  0.00000000000E+00 0. -1.
          2    1    1    2  501    0  0.94444171703E+02  0.71142067278E+02 -0.33713377541E+02  0.12295319081E+03  0.00000000000E+00 0. -1.
          1    1    1    2  502    0 -0.48748777792E+02 -0.15622845674E+02 -0.14109404069E+03  0.15009345409E+03  0.00000000000E+00 0. -1.
         22    1    1    2    0    0 -0.52310983239E+01  0.38387177665E+02  0.41538145607E+02  0.56801032906E+02  0.00000000000E+00 0. -1.
         22    1    1    2    0    0 -0.40464295587E+02 -0.93906399269E+02  0.22919737367E+02  0.10479067421E+03  0.00000000000E+00 0. -1.
</event>
<event>
 6    1  0.1293624E-005  0.2496369E+03  0.7818608E-02  0.1113534E+00
          2   -1    0    0  502    0  0.00000000000E+00  0.00000000000E+00  0.70115865486E+02  0.70115865486E+02  0.00000000000E+00 0.  1.
          1   -1    0    0  501    0 -0.00000000000E+00 -0.00000000000E+00 -0.61209344436E+03  0.61209344436E+03  0.00000000000E+00 0. -1.
          2    1    1    2  501    0 -0.13793131039E+02  0.25951126561E+02 -0.12701514844E+03  0.13037085321E+03  0.00000000000E+00 0.  1.
          1    1    1    2  502    0 -0.95372182665E+02 -0.87597464970E+02 -0.33075816641E+03  0.35520435490E+03  0.00000000000E+00 0. -1.
         22    1    1    2    0    0 -0.15137448156E+02  0.14749258078E+02 -0.57311584000E+02  0.61084372888E+02  0.00000000000E+00 0. -1.
         22    1    1    2    0    0  0.12430276186E+03  0.46897080331E+02 -0.26892680019E+02  0.13554972884E+03  0.00000000000E+00 0.  1.
</event>
<event>
 6    1  0.1293624E-005  0.9269467E+02  0.7818608E-02  0.1298272E+00
          2   -1    0    0  502    0  0.00000000000E+00  0.00000000000E+00  0.24585258576E+03  0.24585258576E+03  0.00000000000E+00 0.  1.
          1   -1    0    0  501    0 -0.00000000000E+00 -0.00000000000E+00 -0.12509550836E+04  0.12509550836E+04  0.00000000000E+00 0. -1.
          2    1    1    2  501    0  0.30790235527E+02 -0.61637028203E+01  0.11016645136E+02  0.33277564610E+02  0.00000000000E+00 0.  1.
          1    1    1    2  502    0  0.55161399191E+02 -0.17143415995E+02 -0.12129400233E+04  0.12143146943E+04  0.00000000000E+00 0. -1.
         22    1    1    2    0    0 -0.11748181963E+03  0.11886289636E+02  0.16566821215E+03  0.20344340329E+03  0.00000000000E+00 0.  1.
         22    1    1    2    0    0  0.31530184911E+02  0.11420829179E+02  0.31152668211E+02  0.45772007126E+02  0.00000000000E+00 0. -1.
</event>
<event>
 6    1  0.1293624E-005  0.1148070E+03  0.7818608E-02  0.1252914E+00
          2   -1    0    0  502    0  0.00000000000E+00  0.00000000000E+00  0.13551292325E+03  0.13551292325E+03  0.00000000000E+00 0.  1.
          1   -1    0    0  501    0 -0.00000000000E+00 -0.00000000000E+00 -0.75985113844E+03  0.75985113844E+03  0.00000000000E+00 0. -1.
          2    1    1    2  501    0  0.55126264813E+02  0.48739417314E+02 -0.32840298924E+03  0.33654562724E+03  0.00000000000E+00 0.  1.
          1    1    1    2  502    0  0.18952747923E+02  0.23298735222E+02 -0.37411067871E+03  0.37531431846E+03  0.00000000000E+00 0. -1.
         22    1    1    2    0    0  0.53573954449E+01  0.10452189590E+02 -0.26101261046E+02  0.28622120490E+02  0.00000000000E+00 0.  1.
         22    1    1    2    0    0 -0.79436408180E+02 -0.82490342126E+02  0.10427671381E+03  0.15488199550E+03  0.00000000000E+00 0.  1.
</event>
<event>
 6    1  0.1293624E-005  0.6175404E+02  0.7818608E-02  0.1398222E+00
          2   -1    0    0  502    0  0.00000000000E+00  0.00000000000E+00  0.33260656903E+03  0.33260656903E+03  0.00000000000E+00 0. -1.
          1   -1    0    0  501    0 -0.00000000000E+00 -0.00000000000E+00 -0.16299012073E+03  0.16299012073E+03  0.00000000000E+00 0. -1.
          2    1    1    2  501    0  0.48728913796E+02 -0.23118951785E+01  0.69702444599E+00  0.48788705067E+02  0.00000000000E+00 0. -1.
          1    1    1    2  502    0 -0.46518539536E+02 -0.44076854634E+02 -0.11638801152E+03  0.13286426480E+03  0.00000000000E+00 0. -1.
         22    1    1    2    0    0  0.14381625002E+02 -0.57252106792E+01 -0.66939195829E+01  0.16864688980E+02  0.00000000000E+00 0.  1.
         22    1    1    2    0    0 -0.16591999261E+02  0.52113960491E+02  0.29200135496E+03  0.29707903092E+03  0.00000000000E+00 0. -1.
</event>
<event>
 6    1  0.1293624E-005  0.1682039E+03  0.7818608E-02  0.1179734E+00
          2   -1    0    0  502    0  0.00000000000E+00  0.00000000000E+00  0.30132865022E+02  0.30132865022E+02  0.00000000000E+00 0. -1.
          1   -1    0    0  501    0 -0.00000000000E+00 -0.00000000000E+00 -0.86576191313E+03  0.86576191313E+03  0.00000000000E+00 0.  1.
          2    1    1    2  501    0  0.27595038152E+01  0.38386345603E+02 -0.35582445715E+02  0.52414090025E+02  0.00000000000E+00 0. -1.
          1    1    1    2  502    0 -0.15988505124E+02 -0.16854815590E+02 -0.62913379667E+03  0.62956258721E+03  0.00000000000E+00 0.  1.
         22    1    1    2    0    0  0.42839475688E+02 -0.35710036328E+02 -0.17225708332E+03  0.18106057033E+03  0.00000000000E+00 0. -1.
         22    1    1    2    0    0 -0.29610474379E+02  0.14178506316E+02  0.13442775982E+01  0.32857530591E+02  0.00000000000E+00 0.  1.
</event>
<event>
 6    1  0.1293624E-005  0.1773142E+03  0.7818608E-02  0.1170428E+00
          2   -1    0    0  502    0  0.00000000000E+00  0.00000000000E+00  0.36396900587E+02  0.36396900587E+02  0.00000000000E+00 0.  1.
          1   -1    0    0  501    0 -0.00000000000E+00 -0.00000000000E+00 -0.58534047345E+03  0.58534047345E+03  0.00000000000E+00 0.  1.
          2    1    1    2  501    0 -0.32662686115E+02 -0.25989708888E+02 -0.49949276672E+02  0.65094133933E+02  0.00000000000E+00 0.  1.
          1    1    1    2  502    0 -0.18670367874E+02  0.13027129525E+02 -0.36691919059E+03  0.36762478312E+03  0.00000000000E+00 0.  1.
         22    1    1    2    0    0  0.49725276057E+02  0.32903400412E+02 -0.15046264423E+03  0.16184635970E+03  0.00000000000E+00 0.  1.
         22    1    1    2    0    0  0.16077779323E+01 -0.19940821048E+02  0.18387538633E+02  0.27172097286E+02  0.00000000000E+00 0.  1.
</event>
<event>
 6    1  0.1293624E-005  0.1323128E+03  0.7818608E-02  0.1273519E+00
          2   -1    0    0  502    0  0.00000000000E+00  0.00000000000E+00  0.18269490131E+03  0.18269490131E+03  0.00000000000E+00 0. -1.
          1   -1    0    0  501    0 -0.00000000000E+00 -0.00000000000E+00 -0.16231752353E+03  0.16231752353E+03  0.00000000000E+00 0. -1.
          2    1    1    2  501    0 -0.59618548603E+02 -0.25871706067E+02 -0.17917481124E+02  0.67414780591E+02  0.00000000000E+00 0. -1.
          1    1    1    2  502    0  0.11108320452E+03  0.98413359855E+01  0.72198341579E+02  0.13284927831E+03  0.00000000000E+00 0. -1.
         22    1    1    2    0    0  0.15365140142E+02  0.46681599515E+02  0.20536711941E+02  0.53263644282E+02  0.00000000000E+00 0.  1.
         22    1    1    2    0    0 -0.66829796058E+02 -0.30651229433E+02 -0.54440194613E+02  0.91484721655E+02  0.00000000000E+00 0. -1.
</event>
<event>
 6    1  0.1293624E-005  0.1352165E+03  0.7818608E-02  0.1262807E+00
          2   -1    0    0  502    0  0.00000000000E+00  0.00000000000E+00  0.12246318025E+02  0.12246318025E+02  0.00000000000E+00 0. -1.
          1   -1    0    0  501    0 -0.00000000000E+00 -0.00000000000E+00 -0.30537434484E+04  0.30537434484E+04  0.00000000000E+00 0. -1.
          2    1    1    2  501    0  0.30629455104E+02  0.21038270753E+02 -0.30078748699E+03  0.30307405809E+03  0.00000000000E+00 0. -1.
          1    1    1    2  502    0 -0.90731841760E+02 -0.87014546578E+02 -0.21109650648E+04  0.21147050157E+04  0.00000000000E+00 0. -1.
         22    1    1    2    0    0  0.93554307887E+02  0.20218522397E+02 -0.35475587702E+03  0.36744105575E+03  0.00000000000E+00 0. -1.
         22    1    1    2    0    0 -0.33451921231E+02  0.45757753427E+02 -0.27498870151E+03  0.28076963687E+03  0.00000000000E+00 0.  1.
</event>
<event>
 6    1  0.1293624E-005  0.6815768E+02  0.7818608E-02  0.1373676E+00
          2   -1    0    0  502    0  0.00000000000E+00  0.00000000000E+00  0.45414344646E+02  0.45414344646E+02  0.00000000000E+00 0.  1.
          1   -1    0    0  501    0 -0.00000000000E+00 -0.00000000000E+00 -0.69491533109E+03  0.69491533109E+03  0.00000000000E+00 0.  1.
          2    1    1    2  501    0 -0.54791735957E+01 -0.22536291541E+02 -0.18395260430E+02  0.29602219275E+02  0.00000000000E+00 0.  1.
          1    1    1    2  502    0 -0.13459185362E+02  0.43342703647E+02 -0.56765149807E+03  0.56946287227E+03  0.00000000000E+00 0.  1.
         22    1    1    2    0    0 -0.44133568382E+02 -0.20004855726E+02 -0.61316109226E+02  0.78151336274E+02  0.00000000000E+00 0. -1.
         22    1    1    2    0    0  0.63071927339E+02 -0.80155637955E+00 -0.21381187154E+01  0.63113247917E+02  0.00000000000E+00 0.  1.
</event>
<event>
 6    1  0.1293624E-005  0.1014298E+03  0.7818608E-02  0.1278589E+00
          2   -1    0    0  502    0  0.00000000000E+00  0.00000000000E+00  0.81538505934E+03  0.81538505934E+03  0.00000000000E+00 0. -1.
          1   -1    0    0  501    0 -0.00000000000E+00 -0.00000000000E+00 -0.28249125039E+02  0.28249125039E+02  0.00000000000E+00 0. -1.
          2    1    1    2  501    0  0.21347351872E+02  0.50712995409E+00  0.49186959199E+01  0.21912557639E+02  0.00000000000E+00 0. -1.
          1    1    1    2  502    0  0.66421477693E+02 -0.33916581226E+02  0.12511117109E+03  0.14565353519E+03  0.00000000000E+00 0. -1.
         22    1    1    2    0    0 -0.10957207294E+03  0.34699268205E+02  0.63376145326E+03  0.64409910575E+03  0.00000000000E+00 0. -1.
         22    1    1    2    0    0  0.21803243373E+02 -0.12898169337E+01  0.23344614027E+02  0.31968985804E+02  0.00000000000E+00 0. -1.
</event>
<event>
 6    1  0.1293624E-005  0.1989184E+03  0.7818608E-02  0.1151325E+00
          2   -1    0    0  502    0  0.00000000000E+00  0.00000000000E+00  0.75569340412E+02  0.75569340412E+02  0.00000000000E+00 0. -1.
          1   -1    0    0  501    0 -0.00000000000E+00 -0.00000000000E+00 -0.20812173631E+04  0.20812173631E+04  0.00000000000E+00 0. -1.
          2    1    1    2  501    0 -0.48532801545E+02  0.17072514056E+03 -0.21166217389E+03  0.27623066864E+03  0.00000000000E+00 0. -1.
          1    1    1    2  502    0 -0.14613239629E+03 -0.57391445260E+02 -0.14097538861E+04  0.14184690601E+04  0.00000000000E+00 0. -1.
         22    1    1    2    0    0  0.20451617165E+03 -0.12349509790E+03 -0.37665262169E+03  0.44603262335E+03  0.00000000000E+00 0. -1.
         22    1    1    2    0    0 -0.98509738176E+01  0.10161402601E+02 -0.75793410418E+01  0.16054351392E+02  0.00000000000E+00 0. -1.
</event>
<event>
 6    1  0.1293624E-005  0.2186498E+03  0.7818608E-02  0.1135082E+00
          2   -1    0    0  502    0  0.00000000000E+00  0.00000000000E+00  0.33930691419E+03  0.33930691419E+03  0.00000000000E+00 0. -1.
          1   -1    0    0  501    0 -0.00000000000E+00 -0.00000000000E+00 -0.15837853422E+04  0.15837853422E+04  0.00000000000E+00 0. -1.
          2    1    1    2  501    0 -0.81549016197E+02 -0.15364087760E+03 -0.18486086570E+03  0.25382927527E+03  0.00000000000E+00 0. -1.
          1    1    1    2  502    0  0.17841081888E+03 -0.55517147090E+02 -0.12995592816E+04  0.13129230367E+04  0.00000000000E+00 0. -1.
         22    1    1    2    0    0 -0.78344579625E+01 -0.99931688909E+01 -0.69044026184E+01  0.14453820656E+02  0.00000000000E+00 0. -1.
         22    1    1    2    0    0 -0.89027344726E+02  0.21915119359E+03  0.24684612188E+03  0.34188612380E+03  0.00000000000E+00 0. -1.
</event>
<event>
 6    1  0.1293624E-005  0.2875766E+03  0.7818608E-02  0.1091621E+00
          2   -1    0    0  502    0  0.00000000000E+00  0.00000000000E+00  0.72544773596E+02  0.72544773596E+02  0.00000000000E+00 0. -1.
          1   -1    0    0  501    0 -0.00000000000E+00 -0.00000000000E+00 -0.61741491308E+03  0.61741491308E+03  0.00000000000E+00 0.  1.
          2    1    1    2  501    0  0.42298269157E+02 -0.51941196069E+02  0.28727719712E+02  0.72885617940E+02  0.00000000000E+00 0. -1.
          1    1    1    2  502    0  0.31048556984E+02  0.20903982299E+02 -0.32709460297E+03  0.32922920384E+03  0.00000000000E+00 0.  1.
         22    1    1    2    0    0 -0.37688618832E+02 -0.47136507824E+02 -0.77238580503E+02  0.98020817572E+02  0.00000000000E+00 0.  1.
         22    1    1    2    0    0 -0.35658207308E+02  0.78173721593E+02 -0.16926467572E+03  0.18982404733E+03  0.00000000000E+00 0.  1.
</event>
<event>
 6    1  0.1293624E-005  0.2790941E+03  0.7818608E-02  0.1096185E+00
          2   -1    0    0  502    0  0.00000000000E+00  0.00000000000E+00  0.35865837549E+03  0.35865837549E+03  0.00000000000E+00 0. -1.
          1   -1    0    0  501    0 -0.00000000000E+00 -0.00000000000E+00 -0.85262906385E+02  0.85262906385E+02  0.00000000000E+00 0. -1.
          2    1    1    2  501    0 -0.21530350119E+02 -0.11120111905E+01 -0.50113917849E+02  0.54554535167E+02  0.00000000000E+00 0. -1.
          1    1    1    2  502    0 -0.63739557255E+02  0.14691919978E+02  0.84731330104E+02  0.10704196361E+03  0.00000000000E+00 0. -1.
         22    1    1    2    0    0 -0.39937402299E+00  0.11266518677E+02 -0.11814390479E+02  0.16330148961E+02  0.00000000000E+00 0.  1.
         22    1    1    2    0    0  0.85669281397E+02 -0.24846427464E+02  0.25059244733E+03  0.26599463414E+03  0.00000000000E+00 0. -1.
</event>
<event>
 6    1  0.1293624E-005  0.1070383E+03  0.7818608E-02  0.1268583E+00
          2   -1    0    0  502    0  0.00000000000E+00  0.00000000000E+00  0.55878146636E+03  0.55878146636E+03  0.00000000000E+00 0. -1.
          1   -1    0    0  501    0 -0.00000000000E+00 -0.00000000000E+00 -0.53335018154E+03  0.53335018154E+03  0.00000000000E+00 0.  1.
          2    1    1    2  501    0 -0.81052335359E+02  0.16296700922E+02  0.21214948069E+03  0.22768940618E+03  0.00000000000E+00 0. -1.
          1    1    1    2  502    0  0.49205983302E+02  0.44354829903E+02 -0.50913752427E+03  0.51342925350E+03  0.00000000000E+00 0.  1.
         22    1    1    2    0    0  0.66998780182E+02 -0.63129316793E+02  0.15801199307E+03  0.18287136774E+03  0.00000000000E+00 0. -1.
         22    1    1    2    0    0 -0.35152428126E+02  0.24777859682E+01  0.16440733534E+03  0.16814162049E+03  0.00000000000E+00 0.  1.
</event>
<event>
 6    1  0.1293624E-005  0.5436227E+02  0.7818608E-02  0.1440880E+00
          2   -1    0    0  502    0  0.00000000000E+00  0.00000000000E+00  0.29383119960E+03  0.29383119960E+03  0.00000000000E+00 0. -1.
          1   -1    0    0  501    0 -0.00000000000E+00 -0.00000000000E+00 -0.18162655233E+03  0.18162655233E+03  0.00000000000E+00 0.  1.
          2    1    1    2  501    0  0.28152601427E+01 -0.33704807808E+02  0.27384676879E+01  0.33932859655E+02  0.00000000000E+00 0. -1.
          1    1    1    2  502    0 -0.12050990005E+02  0.44744581290E+02 -0.14751848787E+03  0.15462538013E+03  0.00000000000E+00 0.  1.
         22    1    1    2    0    0 -0.12326417226E+02 -0.46584545678E+02  0.31398630850E+02  0.57514645760E+02  0.00000000000E+00 0. -1.
         22    1    1    2    0    0  0.21562147088E+02  0.35544772197E+02  0.22558603660E+03  0.22938486638E+03  0.00000000000E+00 0.  1.
</event>
<event>
 6    1  0.1421887E-005  0.7641148E+03  0.7818608E-02  0.9613463E-01
          2   -1    0    0  502    0  0.00000000000E+00  0.00000000000E+00  0.13791874331E+04  0.13791874331E+04  0.00000000000E+00 0. -1.
          1   -1    0    0  501    0 -0.00000000000E+00 -0.00000000000E+00 -0.38387030538E+03  0.38387030538E+03  0.00000000000E+00 0. -1.
          2    1    1    2  501    0  0.46504664763E+03 -0.38940515394E+03  0.32961085156E+03  0.69032461339E+03  0.00000000000E+00 0. -1.
          1    1    1    2  502    0 -0.47432622012E+03  0.42746399798E+03  0.69025016696E+03  0.94029576499E+03  0.00000000000E+00 0. -1.
         22    1    1    2    0    0 -0.18192603193E+02 -0.78644967865E+02 -0.10148394665E+02  0.81357185889E+02  0.00000000000E+00 0.  1.
         22    1    1    2    0    0  0.27472175689E+02  0.40586123826E+02 -0.14395496174E+02  0.51080174181E+02  0.00000000000E+00 0. -1.
</event>
<event>
 6    1  0.1293624E-005  0.2840697E+03  0.7818608E-02  0.1093647E+00
          2   -1    0    0  502    0  0.00000000000E+00  0.00000000000E+00  0.15644726695E+03  0.15644726695E+03  0.00000000000E+00 0.  1.
          1   -1    0    0  501    0 -0.00000000000E+00 -0.00000000000E+00 -0.73518511049E+03  0.73518511049E+03  0.00000000000E+00 0.  1.
          2    1    1    2  501    0 -0.28242119630E+03 -0.27974250775E+02 -0.35032839010E+03  0.45085948114E+03  0.00000000000E+00 0.  1.
          1    1    1    2  502    0  0.21310040316E+02 -0.17464260125E+02 -0.12909170125E+03  0.13199918762E+03  0.00000000000E+00 0.  1.
         22    1    1    2    0    0  0.27242937448E+03  0.51689444674E+02 -0.86258253815E+02  0.29039636554E+03  0.00000000000E+00 0.  1.
         22    1    1    2    0    0 -0.11318218496E+02 -0.62509337749E+01 -0.13059498371E+02  0.18377343134E+02  0.00000000000E+00 0.  1.
</event>
<event>
 6    1  0.1293624E-005  0.7942297E+02  0.7818608E-02  0.1333827E+00
          2   -1    0    0  502    0  0.00000000000E+00  0.00000000000E+00  0.16178806312E+03  0.16178806312E+03  0.00000000000E+00 0. -1.
          1   -1    0    0  501    0 -0.00000000000E+00 -0.00000000000E+00 -0.90348941913E+02  0.90348941913E+02  0.00000000000E+00 0.  1.
          2    1    1    2  501    0  0.38005201542E+02 -0.21274186120E+02  0.50730691551E+02  0.66862466336E+02  0.00000000000E+00 0. -1.
          1    1    1    2  502    0 -0.17209696826E+02 -0.21065006391E+02 -0.32914644041E+02  0.42699905755E+02  0.00000000000E+00 0.  1.
         22    1    1    2    0    0 -0.58466058024E+02  0.39608909094E+02 -0.71925660447E+01  0.70985059180E+02  0.00000000000E+00 0.  1.
         22    1    1    2    0    0  0.37670553309E+02  0.27302834179E+01  0.60815639744E+02  0.71589573763E+02  0.00000000000E+00 0. -1.
</event>
<event>
 6    1  0.1293624E-005  0.2165686E+03  0.7818608E-02  0.1136467E+00
          2   -1    0    0  502    0  0.00000000000E+00  0.00000000000E+00  0.30726206636E+03  0.30726206636E+03  0.00000000000E+00 0. -1.
          1   -1    0    0  501    0 -0.00000000000E+00 -0.00000000000E+00 -0.30535560495E+03  0.30535560495E+03  0.00000000000E+00 0.  1.
          2    1    1    2  501    0  0.54487941776E+02 -0.59889295986E+02  0.79836921173E+02  0.11370838824E+03  0.00000000000E+00 0. -1.
          1    1    1    2  502    0 -0.11043564784E+02  0.40700730279E+02 -0.26532108669E+03  0.26865179845E+03  0.00000000000E+00 0.  1.
         22    1    1    2    0    0  0.10838268664E+02 -0.37596660379E+02  0.12176089528E+03  0.12789328582E+03  0.00000000000E+00 0. -1.
         22    1    1    2    0    0 -0.54282645656E+02  0.56785226086E+02  0.65629731637E+02  0.10236419880E+03  0.00000000000E+00 0. -1.
</event>
<event>
 6    1  0.1293624E-005  0.1068260E+03  0.7818608E-02  0.1272528E+00
          2   -1    0    0  502    0  0.00000000000E+00  0.00000000000E+00  0.11364365169E+03  0.11364365169E+03  0.00000000000E+00 0. -1.
          1   -1    0    0  501    0 -0.00000000000E+00 -0.00000000000E+00 -0.58289583183E+03  0.58289583183E+03  0.00000000000E+00 0. -1.
          2    1    1    2  501    0 -0.67548305985E+02 -0.31705725680E+02 -0.46021227365E+02  0.87669721401E+02  0.00000000000E+00 0. -1.
          1    1    1    2  502    0  0.14150190741E+02 -0.15788697777E+02 -0.45909610294E+03  0.45958540296E+03  0.00000000000E+00 0. -1.
         22    1    1    2    0    0  0.88365897640E+02  0.29711644774E+02  0.52134921306E+02  0.10681462316E+03  0.00000000000E+00 0. -1.
         22    1    1    2    0    0 -0.34967782396E+02  0.17782778682E+02 -0.16269771139E+02  0.42469736004E+02  0.00000000000E+00 0. -1.
</event>
<event>
 6    1  0.1293624E-005  0.3811444E+02  0.7818608E-02  0.1524962E+00
          2   -1    0    0  502    0  0.00000000000E+00  0.00000000000E+00  0.72252243448E+02  0.72252243448E+02  0.00000000000E+00 0.  1.
          1   -1    0    0  501    0 -0.00000000000E+00 -0.00000000000E+00 -0.51475634599E+03  0.51475634599E+03  0.00000000000E+00 0. -1.
          2    1    1    2  501    0  0.94469460477E+00  0.22467782703E+02 -0.74633560429E+02  0.77947816197E+02  0.00000000000E+00 0.  1.
          1    1    1    2  502    0 -0.18698392686E+02 -0.12078349036E+02 -0.38088341284E+03  0.38153334138E+03  0.00000000000E+00 0. -1.
         22    1    1    2    0    0  0.24744129079E+02 -0.27562029515E+02  0.63627738066E+02  0.73623545461E+02  0.00000000000E+00 0.  1.
         22    1    1    2    0    0 -0.69904309980E+01  0.17172595849E+02 -0.50614867339E+02  0.53903886404E+02  0.00000000000E+00 0.  1.
</event>
<event>
 6    1  0.1293624E-005  0.3247842E+03  0.7818608E-02  0.1073468E+00
          2   -1    0    0  502    0  0.00000000000E+00  0.00000000000E+00  0.44385056969E+03  0.44385056969E+03  0.00000000000E+00 0. -1.
          1   -1    0    0  501    0 -0.00000000000E+00 -0.00000000000E+00 -0.26144043480E+03  0.26144043480E+03  0.00000000000E+00 0. -1.
          2    1    1    2  501    0 -0.36125590225E+02 -0.25935294696E+02 -0.10472554235E+02  0.45687768300E+02  0.00000000000E+00 0. -1.
          1    1    1    2  502    0  0.22682059665E+03  0.13551813856E+03 -0.92330450615E+02  0.27988865832E+03  0.00000000000E+00 0. -1.
         22    1    1    2    0    0 -0.22136518518E+02 -0.46747179610E+02  0.12831347630E+02  0.53291347662E+02  0.00000000000E+00 0. -1.
         22    1    1    2    0    0 -0.16855848791E+03 -0.62835664251E+02  0.27238179211E+03  0.32642323021E+03  0.00000000000E+00 0. -1.
</event>
<event>
 6    1  0.1293624E-005  0.2667027E+03  0.7818608E-02  0.1103182E+00
          2   -1    0    0  502    0  0.00000000000E+00  0.00000000000E+00  0.16175109676E+03  0.16175109676E+03  0.00000000000E+00 0.  1.
          1   -1    0    0  501    0 -0.00000000000E+00 -0.00000000000E+00 -0.90228120359E+03  0.90228120359E+03  0.00000000000E+00 0. -1.
          2    1    1    2  501    0 -0.42577848781E+02  0.63651941050E+02  0.82868898177E+02  0.11283482216E+03  0.00000000000E+00 0.  1.
          1    1    1    2  502    0 -0.26441326728E+02 -0.12125237613E+03 -0.78404244721E+03  0.79380340230E+03  0.00000000000E+00 0. -1.
         22    1    1    2    0    0  0.25987269035E+02 -0.24779815864E+02 -0.52419048221E+02  0.63538445389E+02  0.00000000000E+00 0. -1.
         22    1    1    2    0    0  0.43031906474E+02  0.82380250942E+02  0.13062490433E+02  0.93855630499E+02  0.00000000000E+00 0.  1.
</event>
<event>
 6    1  0.1293624E-005  0.2002375E+03  0.7818608E-02  0.1190059E+00
          2   -1    0    0  502    0  0.00000000000E+00  0.00000000000E+00  0.12213180755E+04  0.12213180755E+04  0.00000000000E+00 0.  1.
          1   -1    0    0  501    0 -0.00000000000E+00 -0.00000000000E+00 -0.21821941605E+03  0.21821941605E+03  0.00000000000E+00 0. -1.
          2    1    1    2  501    0  0.42846148183E+01  0.13239612494E+03  0.35991341026E+03  0.38351630306E+03  0.00000000000E+00 0.  1.
          1    1    1    2  502    0 -0.11161890735E+03 -0.13707174852E+03 -0.15851323557E+03  0.23743186512E+03  0.00000000000E+00 0. -1.
         22    1    1    2    0    0  0.56330452920E+02  0.65273696177E+02  0.41383708453E+03  0.42272320480E+03  0.00000000000E+00 0.  1.
         22    1    1    2    0    0  0.51003839610E+02 -0.60598072594E+02  0.38786140027E+03  0.39586611863E+03  0.00000000000E+00 0.  1.
</event>
<event>
 6    1  0.1293624E-005  0.1125051E+03  0.7818608E-02  0.1258087E+00
          2   -1    0    0  502    0  0.00000000000E+00  0.00000000000E+00  0.81127671866E+02  0.81127671866E+02  0.00000000000E+00 0.  1.
          1   -1    0    0  501    0 -0.00000000000E+00 -0.00000000000E+00 -0.36038667659E+03  0.36038667659E+03  0.00000000000E+00 0.  1.
          2    1    1    2  501    0 -0.49981344107E+02 -0.55065794791E+02 -0.35965864659E+02  0.82607021102E+02  0.00000000000E+00 0.  1.
          1    1    1    2  502    0  0.26551641815E+02 -0.14164440785E+02 -0.20423375026E+03  0.20643896389E+03  0.00000000000E+00 0.  1.
         22    1    1    2    0    0  0.48981122759E+02  0.95218229096E+02 -0.43852086299E+02  0.11570940762E+03  0.00000000000E+00 0.  1.
         22    1    1    2    0    0 -0.25551420467E+02 -0.25987993519E+02  0.47926964970E+01  0.36758955844E+02  0.00000000000E+00 0.  1.
</event>
<event>
 6    1  0.1293624E-005  0.4728785E+03  0.7818608E-02  0.1021111E+00
          2   -1    0    0  502    0  0.00000000000E+00  0.00000000000E+00  0.10379640216E+03  0.10379640216E+03  0.00000000000E+00 0. -1.
          1   -1    0    0  501    0 -0.00000000000E+00 -0.00000000000E+00 -0.21307923605E+04  0.21307923605E+04  0.00000000000E+00 0. -1.
          2    1    1    2  501    0  0.19469236213E+03  0.13227612710E+03 -0.43777597898E+03  0.49704114260E+03  0.00000000000E+00 0. -1.
          1    1    1    2  502    0 -0.26779761448E+03 -0.30795801762E+03 -0.13385433864E+04  0.13993756108E+04  0.00000000000E+00 0. -1.
         22    1    1    2    0    0  0.71763979988E+02  0.19267287264E+03 -0.20915992383E+03  0.29329299073E+03  0.00000000000E+00 0. -1.
         22    1    1    2    0    0  0.13412723650E+01 -0.16990982118E+02 -0.41516669168E+02  0.44879018525E+02  0.00000000000E+00 0.  1.
</event>
<event>
 6    1  0.1293624E-005  0.6946432E+02  0.7818608E-02  0.1363989E+00
          2   -1    0    0  502    0  0.00000000000E+00  0.00000000000E+00  0.42201023154E+02  0.42201023154E+02  0.00000000000E+00 0. -1.
          1   -1    0    0  501    0 -0.00000000000E+00 -0.00000000000E+00 -0.69886691022E+03  0.69886691022E+03  0.00000000000E+00 0. -1.
          2    1    1    2  501    0 -0.11655110464E+02  0.16761048914E+02 -0.79715411266E+01  0.21916200139E+02  0.00000000000E+00 0. -1.
          1    1    1    2  502    0 -0.57186290597E+01 -0.19759584415E+02 -0.57411874197E+03  0.57448713978E+03  0.00000000000E+00 0. -1.
         22    1    1    2    0    0 -0.33500934918E+02  0.42182321497E+02 -0.56256431367E+02  0.77887399222E+02  0.00000000000E+00 0.  1.
         22    1    1    2    0    0  0.50874674442E+02 -0.39183785996E+02 -0.18319172602E+02  0.66777194231E+02  0.00000000000E+00 0. -1.
</event>
<event>
 6    1  0.1293624E-005  0.1211379E+03  0.7818608E-02  0.1270785E+00
          2   -1    0    0  502    0  0.00000000000E+00  0.00000000000E+00  0.26685646704E+02  0.26685646704E+02  0.00000000000E+00 0. -1.
          1   -1    0    0  501    0 -0.00000000000E+00 -0.00000000000E+00 -0.16359072847E+04  0.16359072847E+04  0.00000000000E+00 0.  1.
          2    1    1    2  501    0 -0.78834286415E+02  0.47446180461E+02 -0.19977737025E+03  0.21994768110E+03  0.00000000000E+00 0. -1.
          1    1    1    2  502    0  0.46478225030E+02 -0.95660620771E+02 -0.11029883396E+04  0.11081039920E+04  0.00000000000E+00 0.  1.
         22    1    1    2    0    0 -0.33169038595E+02  0.31986001729E+02 -0.22041329458E+03  0.22517839562E+03  0.00000000000E+00 0. -1.
         22    1    1    2    0    0  0.65525099981E+02  0.16228438582E+02 -0.86042633561E+02  0.10936286269E+03  0.00000000000E+00 0. -1.
</event>
<event>
 6    1  0.1293624E-005  0.8432894E+02  0.7818608E-02  0.1318746E+00
          2   -1    0    0  502    0  0.00000000000E+00  0.00000000000E+00  0.15156020622E+03  0.15156020622E+03  0.00000000000E+00 0.  1.
          1   -1    0    0  501    0 -0.00000000000E+00 -0.00000000000E+00 -0.16327585802E+03  0.16327585802E+03  0.00000000000E+00 0.  1.
          2    1    1    2  501    0  0.12083356250E+02  0.26473419678E+02  0.63991080617E+01  0.29795939853E+02  0.00000000000E+00 0.  1.
          1    1    1    2  502    0  0.34844499553E+02  0.98783787493E+01 -0.11122761141E+03  0.11697565155E+03  0.00000000000E+00 0.  1.
         22    1    1    2    0    0 -0.41565737312E+01  0.45391494248E+02  0.17663707423E+02  0.48884265517E+02  0.00000000000E+00 0.  1.
         22    1    1    2    0    0 -0.42771282072E+02 -0.81743292675E+02  0.75449144121E+02  0.11918020732E+03  0.00000000000E+00 0.  1.
</event>
<event>
 6    1  0.1293624E-005  0.1732070E+03  0.7818608E-02  0.1202214E+00
          2   -1    0    0  502    0  0.00000000000E+00  0.00000000000E+00  0.40929827175E+03  0.40929827175E+03  0.00000000000E+00 0.  1.
          1   -1    0    0  501    0 -0.00000000000E+00 -0.00000000000E+00 -0.46791254493E+03  0.46791254493E+03  0.00000000000E+00 0.  1.
          2    1    1    2  501    0 -0.39594953483E+02  0.55073075032E+02  0.41283914461E+02  0.79405072433E+02  0.00000000000E+00 0.  1.
          1    1    1    2  502    0  0.14309871194E+03 -0.12555224025E+03 -0.40452780105E+03  0.44708315582E+03  0.00000000000E+00 0.  1.
         22    1    1    2    0    0 -0.18403740101E+02  0.30987141243E+02  0.45584540266E+01  0.36327401163E+02  0.00000000000E+00 0.  1.
         22    1    1    2    0    0 -0.85100018358E+02  0.39492023973E+02  0.30007115938E+03  0.31439518726E+03  0.00000000000E+00 0.  1.
</event>
<event>
 6    1  0.1293624E-005  0.2289275E+03  0.7818608E-02  0.1127397E+00
          2   -1    0    0  502    0  0.00000000000E+00  0.00000000000E+00  0.30498351823E+03  0.30498351823E+03  0.00000000000E+00 0.  1.
          1   -1    0    0  501    0 -0.00000000000E+00 -0.00000000000E+00 -0.20858285644E+03  0.20858285644E+03  0.00000000000E+00 0. -1.
          2    1    1    2  501    0 -0.48286618443E+02  0.77723535480E+02  0.14402371797E+03  0.17063228541E+03  0.00000000000E+00 0.  1.
          1    1    1    2  502    0  0.66039302396E+01 -0.88685443980E+02 -0.15178683189E+03  0.17592032913E+03  0.00000000000E+00 0. -1.
         22    1    1    2    0    0  0.55253500632E+02 -0.22011496008E+02  0.27788784677E+01  0.59541392779E+02  0.00000000000E+00 0. -1.
         22    1    1    2    0    0 -0.13570812428E+02  0.32973404508E+02  0.10138489724E+03  0.10747236735E+03  0.00000000000E+00 0. -1.
</event>
<event>
 6    1  0.1293624E-005  0.1803044E+03  0.7818608E-02  0.1168025E+00
          2   -1    0    0  502    0  0.00000000000E+00  0.00000000000E+00  0.62349010775E+03  0.62349010775E+03  0.00000000000E+00 0.  1.
          1   -1    0    0  501    0 -0.00000000000E+00 -0.00000000000E+00 -0.71994257053E+03  0.71994257053E+03  0.00000000000E+00 0.  1.
          2    1    1    2  501    0  0.12656356129E+03 -0.88932848348E+02  0.31803920466E+03  0.35366131010E+03  0.00000000000E+00 0.  1.
          1    1    1    2  502    0  0.39991731739E+02  0.13846595607E+02 -0.65881159393E+03  0.66016951089E+03  0.00000000000E+00 0.  1.
         22    1    1    2    0    0 -0.17528863313E+03  0.89759005648E+02  0.19390097586E+03  0.27636999193E+03  0.00000000000E+00 0. -1.
         22    1    1    2    0    0  0.87333400990E+01 -0.14672752907E+02  0.50418950636E+02  0.53231865366E+02  0.00000000000E+00 0. -1.
</event>
<event>
 6    1  0.1293624E-005  0.3189963E+03  0.7818608E-02  0.1076112E+00
          2   -1    0    0  502    0  0.00000000000E+00  0.00000000000E+00  0.11560703487E+03  0.11560703487E+03  0.00000000000E+00 0. -1.
          1   -1    0    0  501    0 -0.00000000000E+00 -0.00000000000E+00 -0.13134127262E+04  0.13134127262E+04  0.00000000000E+00 0. -1.
          2    1    1    2  501    0 -0.57825924103E+01 -0.10319631466E+03 -0.14682890886E+01  0.10336862970E+03  0.00000000000E+00 0. -1.
          1    1    1    2  502    0  0.15830827390E+03  0.13618533963E+03 -0.10619695987E+04  0.10823065115E+04  0.00000000000E+00 0. -1.
         22    1    1    2    0    0 -0.16530600055E+03  0.19030283959E+01 -0.10355850865E+03  0.19507449871E+03  0.00000000000E+00 0. -1.
         22    1    1    2    0    0  0.12780319057E+02 -0.34892053367E+02 -0.30809294917E+02  0.48270121158E+02  0.00000000000E+00 0.  1.
</event>
<event>
 6    1  0.1293624E-005  0.7869642E+02  0.7818608E-02  0.1333507E+00
          2   -1    0    0  502    0  0.00000000000E+00  0.00000000000E+00  0.16581830310E+03  0.16581830310E+03  0.00000000000E+00 0.  1.
          1   -1    0    0  501    0 -0.00000000000E+00 -0.00000000000E+00 -0.19227456108E+04  0.19227456108E+04  0.00000000000E+00 0.  1.
          2    1    1    2  501    0  0.20179757401E+02  0.49320450335E+01  0.15448003402E+02  0.25887998882E+02  0.00000000000E+00 0.  1.
          1    1    1    2  502    0  0.29570122112E+02  0.29602767170E+02 -0.18829321437E+04  0.18833969772E+04  0.00000000000E+00 0.  1.
         22    1    1    2    0    0 -0.89448004640E+02 -0.36228313585E+02  0.98162458348E+02  0.13765647267E+03  0.00000000000E+00 0.  1.
         22    1    1    2    0    0  0.39698125126E+02  0.16935013809E+01  0.12394374313E+02  0.41622465089E+02  0.00000000000E+00 0.  1.
</event>
<event>
 6    1  0.1293624E-005  0.2197675E+03  0.7818608E-02  0.1134056E+00
          2   -1    0    0  502    0  0.00000000000E+00  0.00000000000E+00  0.30418633616E+03  0.30418633616E+03  0.00000000000E+00 0. -1.
          1   -1    0    0  501    0 -0.00000000000E+00 -0.00000000000E+00 -0.18319384009E+03  0.18319384009E+03  0.00000000000E+00 0. -1.
          2    1    1    2  501    0  0.26046583014E+02 -0.11256179410E+02  0.53734990106E+02  0.60766563366E+02  0.00000000000E+00 0. -1.
          1    1    1    2  502    0 -0.11304145469E+03 -0.95963689741E+02 -0.97514121880E+02  0.17747226317E+03  0.00000000000E+00 0. -1.
         22    1    1    2    0    0  0.25167190004E+02  0.10330021896E+03  0.47370635929E+02  0.11639716422E+03  0.00000000000E+00 0. -1.
         22    1    1    2    0    0  0.61827681675E+02  0.39196501891E+01  0.11740099192E+03  0.13274418550E+03  0.00000000000E+00 0.  1.
</event>
<event>
 6    1  0.1293624E-005  0.7292912E+02  0.7818608E-02  0.1351800E+00
          2   -1    0    0  502    0  0.00000000000E+00  0.00000000000E+00  0.23521360605E+03  0.23521360605E+03  0.00000000000E+00 0. -1.
          1   -1    0    0  501    0 -0.00000000000E+00 -0.00000000000E+00 -0.28504027889E+03  0.28504027889E+03  0.00000000000E+00 0. -1.
          2    1    1    2  501    0  0.13288403091E+02 -0.16428479384E+02  0.25790915223E+02  0.33341384189E+02  0.00000000000E+00 0. -1.
          1    1    1    2  502    0 -0.55586316922E+02 -0.27173716325E+02 -0.25410682114E+03  0.26153111868E+03  0.00000000000E+00 0. -1.
         22    1    1    2    0    0  0.23330691120E+02  0.82370784497E+02  0.15281695809E+03  0.17516360914E+03  0.00000000000E+00 0. -1.
         22    1    1    2    0    0  0.18967222712E+02 -0.38768588788E+02  0.25672274992E+02  0.50217772923E+02  0.00000000000E+00 0. -1.
</event>
<event>
 6    1  0.1293624E-005  0.1132184E+03  0.7818608E-02  0.1255802E+00
          2   -1    0    0  502    0  0.00000000000E+00  0.00000000000E+00  0.21192785258E+03  0.21192785258E+03  0.00000000000E+00 0. -1.
          1   -1    0    0  501    0 -0.00000000000E+00 -0.00000000000E+00 -0.42032850000E+03  0.42032850000E+03  0.00000000000E+00 0. -1.
          2    1    1    2  501    0  0.40636296119E+02 -0.67176834134E+02  0.60741988471E+02  0.99265425853E+02  0.00000000000E+00 0. -1.
          1    1    1    2  502    0  0.15716493740E+02  0.12763435125E+02 -0.35865106924E+03  0.35922208022E+03  0.00000000000E+00 0. -1.
         22    1    1    2    0    0 -0.83851878816E+02  0.74423355676E+02  0.53457863324E+02  0.12420835963E+03  0.00000000000E+00 0.  1.
         22    1    1    2    0    0  0.27499088957E+02 -0.20009956667E+02  0.36050570024E+02  0.49560486866E+02  0.00000000000E+00 0.  1.
</event>
<event>
 6    1  0.1293624E-005  0.2871737E+03  0.7818608E-02  0.1091834E+00
          2   -1    0    0  502    0  0.00000000000E+00  0.00000000000E+00  0.32614123215E+03  0.32614123215E+03  0.00000000000E+00 0.  1.
          1   -1    0    0  501    0 -0.00000000000E+00 -0.00000000000E+00 -0.10953014605E+03  0.10953014605E+03  0.00000000000E+00 0. -1.
          2    1    1    2  501    0 -0.18756283405E+02  0.10071985736E+03  0.11749767645E+03  0.15589096127E+03  0.00000000000E+00 0.  1.
          1    1    1    2  502    0  0.76525258748E+01  0.30046750695E+02 -0.39959254689E+02  0.50577766013E+02  0.00000000000E+00 0. -1.
         22    1    1    2    0    0 -0.13450449190E+02 -0.14579704440E+03  0.88713446455E+02  0.17119511769E+03  0.00000000000E+00 0.  1.
         22    1    1    2    0    0  0.24554206720E+02  0.15030436343E+02  0.50359217888E+02  0.58007533222E+02  0.00000000000E+00 0. -1.
</event>
<event>
 6    1  0.1293624E-005  0.3686245E+03  0.7818608E-02  0.1055220E+00
          2   -1    0    0  502    0  0.00000000000E+00  0.00000000000E+00  0.98996818811E+02  0.98996818811E+02  0.00000000000E+00 0.  1.
          1   -1    0    0  501    0 -0.00000000000E+00 -0.00000000000E+00 -0.95285162365E+03  0.95285162365E+03  0.00000000000E+00 0.  1.
          2    1    1    2  501    0  0.72283784147E+02 -0.43273904452E+02 -0.24540364548E+03  0.25946199234E+03  0.00000000000E+00 0.  1.
          1    1    1    2  502    0  0.27321892266E+02  0.24406572894E+03 -0.34777517888E+03  0.42574891766E+03  0.00000000000E+00 0.  1.
         22    1    1    2    0    0  0.15315773902E+02 -0.42498180242E+02 -0.11252829552E+03  0.12125710514E+03  0.00000000000E+00 0. -1.
         22    1    1    2    0    0 -0.11492145032E+03 -0.15829364425E+03 -0.14814768496E+03  0.24538042732E+03  0.00000000000E+00 0.  1.
</event>
<event>
 6    1  0.1293624E-005  0.1653298E+03  0.7818608E-02  0.1184149E+00
          2   -1    0    0  502    0  0.00000000000E+00  0.00000000000E+00  0.32885969340E+03  0.32885969340E+03  0.00000000000E+00 0. -1.
          1   -1    0    0  501    0 -0.00000000000E+00 -0.00000000000E+00 -0.67487098370E+03  0.67487098370E+03  0.00000000000E+00 0. -1.
          2    1    1    2  501    0 -0.10120105289E+02  0.10949787562E+03 -0.45223582036E+01  0.11005749870E+03  0.00000000000E+00 0. -1.
          1    1    1    2  502    0 -0.83835368789E+02  0.20416065323E+02 -0.57644299284E+03  0.58286508626E+03  0.00000000000E+00 0. -1.
         22    1    1    2    0    0 -0.65628265030E+01  0.20621764070E+02  0.17195438653E+02  0.27640748101E+02  0.00000000000E+00 0. -1.
         22    1    1    2    0    0  0.10051830058E+03 -0.15053570501E+03  0.21775862210E+03  0.28316734404E+03  0.00000000000E+00 0. -1.
</event>
<event>
 6    1  0.1293624E-005  0.1053787E+03  0.7818608E-02  0.1300414E+00
          2   -1    0    0  502    0  0.00000000000E+00  0.00000000000E+00  0.21368228876E+03  0.21368228876E+03  0.00000000000E+00 0. -1.
          1   -1    0    0  501    0 -0.00000000000E+00 -0.00000000000E+00 -0.21168098955E+03  0.21168098955E+03  0.00000000000E+00 0. -1.
          2    1    1    2  501    0  0.47504458204E+02 -0.18844746504E+02 -0.25279911813E+02  0.57016418349E+02  0.00000000000E+00 0. -1.
          1    1    1    2  502    0 -0.87186018179E+02  0.10085333967E+03 -0.10145731263E+03  0.16753024854E+03  0.00000000000E+00 0. -1.
         22    1    1    2    0    0  0.23549814828E+02 -0.53701490816E+02  0.15057828061E+03  0.16159289120E+03  0.00000000000E+00 0. -1.
         22    1    1    2    0    0  0.16131745147E+02 -0.28307102349E+02 -0.21839756948E+02  0.39223720227E+02  0.00000000000E+00 0.  1.
</event>
<event>
 6    1  0.1293624E-005  0.2051608E+03  0.7818608E-02  0.1145456E+00
          2   -1    0    0  502    0  0.00000000000E+00  0.00000000000E+00  0.76059512212E+02  0.76059512212E+02  0.00000000000E+00 0. -1.
          1   -1    0    0  501    0 -0.00000000000E+00 -0.00000000000E+00 -0.30463692435E+03  0.30463692435E+03  0.00000000000E+00 0.  1.
          2    1    1    2  501    0  0.24204721687E+02  0.42098637545E+02 -0.76517995414E+02  0.90626527338E+02  0.00000000000E+00 0. -1.
          1    1    1    2  502    0 -0.97402249070E+01 -0.42206588444E+02 -0.15785181964E+03  0.16368709495E+03  0.00000000000E+00 0.  1.
         22    1    1    2    0    0  0.35001897865E+02  0.46639618054E+02  0.39192159564E+01  0.58444393060E+02  0.00000000000E+00 0. -1.
         22    1    1    2    0    0 -0.49466394646E+02 -0.46531667155E+02  0.18731869619E+01  0.67938421212E+02  0.00000000000E+00 0. -1.
</event>
<event>
 6    1  0.1293624E-005  0.1487943E+03  0.7818608E-02  0.1233833E+00
          2   -1    0    0  502    0  0.00000000000E+00  0.00000000000E+00  0.17633892294E+03  0.17633892294E+03  0.00000000000E+00 0.  1.
          1   -1    0    0  501    0 -0.00000000000E+00 -0.00000000000E+00 -0.24263585548E+03  0.24263585548E+03  0.00000000000E+00 0.  1.
          2    1    1    2  501    0  0.11201737260E+03 -0.51207731484E+02 -0.17305918022E+02  0.12437692039E+03  0.00000000000E+00 0.  1.
          1    1    1    2  502    0 -0.12522224986E+03 -0.10469360218E+02 -0.83120083761E+02  0.15066242958E+03  0.00000000000E+00 0.  1.
         22    1    1    2    0    0 -0.50354971703E+02  0.56941647077E+02  0.21011688258E+02  0.78863587228E+02  0.00000000000E+00 0.  1.
         22    1    1    2    0    0  0.63559848963E+02  0.47354446246E+01  0.13117380986E+02  0.65071841221E+02  0.00000000000E+00 0.  1.
</event>
<event>
 6    1  0.1293624E-005  0.9942661E+02  0.7818608E-02  0.1282496E+00
          2   -1    0    0  502    0  0.00000000000E+00  0.00000000000E+00  0.50818729039E+03  0.50818729039E+03  0.00000000000E+00 0.  1.
          1   -1    0    0  501    0 -0.00000000000E+00 -0.00000000000E+00 -0.68132192860E+02  0.68132192860E+02  0.00000000000E+00 0.  1.
          2    1    1    2  501    0 -0.47894352668E+02 -0.13607806379E+02 -0.12507105034E+02  0.51336820005E+02  0.00000000000E+00 0.  1.
          1    1    1    2  502    0 -0.19315460404E+01 -0.59460882924E+02  0.31722024349E+03  0.32275069379E+03  0.00000000000E+00 0.  1.
         22    1    1    2    0    0  0.81283837466E+02  0.72824685315E+02  0.13095434917E+03  0.17046858535E+03  0.00000000000E+00 0.  1.
         22    1    1    2    0    0 -0.31457938758E+02  0.24400398737E+00  0.43876099072E+01  0.31763384101E+02  0.00000000000E+00 0. -1.
</event>
<event>
 6    1  0.1293624E-005  0.1911576E+03  0.7818608E-02  0.1157799E+00
          2   -1    0    0  502    0  0.00000000000E+00  0.00000000000E+00  0.75459298655E+02  0.75459298655E+02  0.00000000000E+00 0.  1.
          1   -1    0    0  501    0 -0.00000000000E+00 -0.00000000000E+00 -0.14014728339E+04  0.14014728339E+04  0.00000000000E+00 0.  1.
          2    1    1    2  501    0  0.15373817588E+03 -0.16694689039E+03 -0.44816587290E+03  0.50235380019E+03  0.00000000000E+00 0.  1.
          1    1    1    2  502    0 -0.55990778531E+02  0.44941372158E+02 -0.70782186497E+03  0.71145378398E+03  0.00000000000E+00 0.  1.
         22    1    1    2    0    0  0.12197590789E+02 -0.11170132061E+02 -0.50397902556E+02  0.53042451427E+02  0.00000000000E+00 0.  1.
         22    1    1    2    0    0 -0.10994498813E+03  0.13317565030E+03 -0.11962789485E+03  0.21008209699E+03  0.00000000000E+00 0.  1.
</event>
<event>
 6    1  0.1293624E-005  0.3700828E+03  0.7818608E-02  0.1054661E+00
          2   -1    0    0  502    0  0.00000000000E+00  0.00000000000E+00  0.83965151815E+03  0.83965151815E+03  0.00000000000E+00 0. -1.
          1   -1    0    0  501    0 -0.00000000000E+00 -0.00000000000E+00 -0.15307107571E+03  0.15307107571E+03  0.00000000000E+00 0. -1.
          2    1    1    2  501    0  0.22570310520E+02 -0.58017089702E+02 -0.31096508358E+02  0.69587315270E+02  0.00000000000E+00 0. -1.
          1    1    1    2  502    0 -0.45483036854E+02  0.29347632147E+03  0.49179749206E+03  0.57451007920E+03  0.00000000000E+00 0. -1.
         22    1    1    2    0    0 -0.30426125377E+01 -0.23828382168E+03  0.19309634841E+03  0.30671588961E+03  0.00000000000E+00 0. -1.
         22    1    1    2    0    0  0.25955338871E+02  0.28245899157E+01  0.32783110331E+02  0.41909309790E+02  0.00000000000E+00 0.  1.
</event>
<event>
 6    1  0.1293624E-005  0.2105674E+03  0.7818608E-02  0.1141117E+00
          2   -1    0    0  502    0  0.00000000000E+00  0.00000000000E+00  0.34472785064E+02  0.34472785064E+02  0.00000000000E+00 0. -1.
          1   -1    0    0  501    0 -0.00000000000E+00 -0.00000000000E+00 -0.49437104435E+03  0.49437104435E+03  0.00000000000E+00 0. -1.
          2    1    1    2  501    0  0.54111353836E+02  0.29228309724E+02 -0.49985351815E+02  0.79251928048E+02  0.00000000000E+00 0. -1.
          1    1    1    2  502    0 -0.57346374298E+01  0.25216368358E+02 -0.16193403506E+03  0.16398592321E+03  0.00000000000E+00 0. -1.
         22    1    1    2    0    0 -0.43640635311E+02 -0.25376840885E+02 -0.25097591921E+03  0.25600273657E+03  0.00000000000E+00 0. -1.
         22    1    1    2    0    0 -0.47360810944E+01 -0.29067837197E+02  0.29970468006E+01  0.29603241595E+02  0.00000000000E+00 0. -1.
</event>
<event>
 6    1  0.1293624E-005  0.6307384E+02  0.7818608E-02  0.1388435E+00
          2   -1    0    0  502    0  0.00000000000E+00  0.00000000000E+00  0.17866190051E+03  0.17866190051E+03  0.00000000000E+00 0.  1.
          1   -1    0    0  501    0 -0.00000000000E+00 -0.00000000000E+00 -0.23034263439E+03  0.23034263439E+03  0.00000000000E+00 0.  1.
          2    1    1    2  501    0  0.25796559707E+02  0.21634380557E+02  0.56981092870E+02  0.66184241776E+02  0.00000000000E+00 0.  1.
          1    1    1    2  502    0  0.21101766414E+02 -0.13984373496E+02 -0.18876850291E+03  0.19045838112E+03  0.00000000000E+00 0.  1.
         22    1    1    2    0    0 -0.71715138998E+02 -0.14317122916E+02  0.53657180587E+01  0.73326885249E+02  0.00000000000E+00 0. -1.
         22    1    1    2    0    0  0.24816812877E+02  0.66671158557E+01  0.74740958104E+02  0.79035026750E+02  0.00000000000E+00 0.  1.
</event>
<event>
 6    1  0.1293624E-005  0.7736996E+02  0.7818608E-02  0.1339554E+00
          2   -1    0    0  502    0  0.00000000000E+00  0.00000000000E+00  0.16385526894E+03  0.16385526894E+03  0.00000000000E+00 0.  1.
          1   -1    0    0  501    0 -0.00000000000E+00 -0.00000000000E+00 -0.82272654946E+03  0.82272654946E+03  0.00000000000E+00 0. -1.
          2    1    1    2  501    0 -0.27632342868E+02  0.12235746582E+02  0.17503720515E+02  0.34923346041E+02  0.00000000000E+00 0.  1.
          1    1    1    2  502    0  0.24743408605E+02 -0.77229254331E+01 -0.78666176890E+03  0.78708869798E+03  0.00000000000E+00 0. -1.
         22    1    1    2    0    0 -0.44795678095E+02  0.34835302199E+02  0.72671997937E+02  0.92202875983E+02  0.00000000000E+00 0. -1.
         22    1    1    2    0    0  0.47684612358E+02 -0.39348123348E+02  0.37614769931E+02  0.72366898398E+02  0.00000000000E+00 0.  1.
</event>
<event>
 6    1  0.1293624E-005  0.2892782E+03  0.7818608E-02  0.1090727E+00
          2   -1    0    0  502    0  0.00000000000E+00  0.00000000000E+00  0.41142480566E+03  0.41142480566E+03  0.00000000000E+00 0. -1.
          1   -1    0    0  501    0 -0.00000000000E+00 -0.00000000000E+00 -0.59992756038E+03  0.59992756038E+03  0.00000000000E+00 0. -1.
          2    1    1    2  501    0  0.10104702045E+02  0.34146982588E+02  0.59970362309E+02  0.69746439183E+02  0.00000000000E+00 0. -1.
          1    1    1    2  502    0  0.16443680976E+03 -0.16806566495E+03 -0.52041756581E+03  0.57106915075E+03  0.00000000000E+00 0. -1.
         22    1    1    2    0    0 -0.19274519142E+03  0.11370507366E+03  0.23329260906E+03  0.32327232179E+03  0.00000000000E+00 0. -1.
         22    1    1    2    0    0  0.18203679613E+02  0.20213608702E+02  0.38651839719E+02  0.47264454317E+02  0.00000000000E+00 0. -1.
</event>
<event>
 6    1  0.1293624E-005  0.2753223E+03  0.7818608E-02  0.1098272E+00
          2   -1    0    0  502    0  0.00000000000E+00  0.00000000000E+00  0.54029730621E+03  0.54029730621E+03  0.00000000000E+00 0. -1.
          1   -1    0    0  501    0 -0.00000000000E+00 -0.00000000000E+00 -0.68635050655E+03  0.68635050655E+03  0.00000000000E+00 0.  1.
          2    1    1    2  501    0 -0.87268157841E+02  0.27126426310E+02  0.14587862681E+03  0.17213990862E+03  0.00000000000E+00 0. -1.
          1    1    1    2  502    0 -0.18531933514E+01 -0.12335725301E+03 -0.64504647732E+03  0.65673845943E+03  0.00000000000E+00 0.  1.
         22    1    1    2    0    0 -0.29237982626E+02 -0.13213564100E+01  0.67618808139E+02  0.73681129368E+02  0.00000000000E+00 0. -1.
         22    1    1    2    0    0  0.11835933382E+03  0.97552183113E+02  0.28549584202E+03  0.32408831534E+03  0.00000000000E+00 0. -1.
</event>
<event>
 6    1  0.1293624E-005  0.3970371E+03  0.7818608E-02  0.1044810E+00
          2   -1    0    0  502    0  0.00000000000E+00  0.00000000000E+00  0.11479467843E+04  0.11479467843E+04  0.00000000000E+00 0. -1.
          1   -1    0    0  501    0 -0.00000000000E+00 -0.00000000000E+00 -0.79800777736E+02  0.79800777736E+02  0.00000000000E+00 0. -1.
          2    1    1    2  501    0  0.10048013654E+03 -0.11720885410E+03  0.11980960442E+03  0.19541881852E+03  0.00000000000E+00 0. -1.
          1    1    1    2  502    0  0.75847551457E+02  0.16528144477E+03  0.52024613087E+03  0.55111418393E+03  0.00000000000E+00 0. -1.
         22    1    1    2    0    0  0.16677122485E+02 -0.15715761893E+02  0.31330415337E+02  0.38816317592E+02  0.00000000000E+00 0.  1.
         22    1    1    2    0    0 -0.19300481048E+03 -0.32356828777E+02  0.39675985595E+03  0.44239824201E+03  0.00000000000E+00 0.  1.
</event>
<event>
 6    1  0.1293624E-005  0.2257188E+03  0.7818608E-02  0.1129690E+00
          2   -1    0    0  502    0  0.00000000000E+00  0.00000000000E+00  0.51952627625E+03  0.51952627625E+03  0.00000000000E+00 0. -1.
          1   -1    0    0  501    0 -0.00000000000E+00 -0.00000000000E+00 -0.62960575421E+02  0.62960575421E+02  0.00000000000E+00 0. -1.
          2    1    1    2  501    0 -0.88372739510E+02 -0.25144530094E+02  0.13023863465E+03  0.15938660684E+03  0.00000000000E+00 0. -1.
          1    1    1    2  502    0  0.12850862223E+03  0.14881951814E+02  0.11508761919E+03  0.17315050842E+03  0.00000000000E+00 0. -1.
         22    1    1    2    0    0 -0.79147418625E+01  0.38219733090E+02  0.50058427173E+01  0.39350344313E+02  0.00000000000E+00 0.  1.
         22    1    1    2    0    0 -0.32221140855E+02 -0.27957154810E+02  0.20623360427E+03  0.21059939210E+03  0.00000000000E+00 0. -1.
</event>
<event>
 6    1  0.1293624E-005  0.2294922E+03  0.7818608E-02  0.1126998E+00
          2   -1    0    0  502    0  0.00000000000E+00  0.00000000000E+00  0.11367037929E+03  0.11367037929E+03  0.00000000000E+00 0. -1.
          1   -1    0    0  501    0 -0.00000000000E+00 -0.00000000000E+00 -0.91815374203E+03  0.91815374203E+03  0.00000000000E+00 0. -1.
          2    1    1    2  501    0  0.45771260273E+02 -0.52031274877E+02 -0.30546027814E+02  0.75731906403E+02  0.00000000000E+00 0. -1.
          1    1    1    2  502    0 -0.11962984089E+02 -0.23171013391E+02 -0.80189338563E+03  0.80231727562E+03  0.00000000000E+00 0. -1.
         22    1    1    2    0    0  0.27077488067E+02 -0.14422281299E+02  0.33320102041E+02  0.45292623659E+02  0.00000000000E+00 0.  1.
         22    1    1    2    0    0 -0.60885764251E+02  0.89624569567E+02 -0.53640513370E+01  0.10848231563E+03  0.00000000000E+00 0. -1.
</event>
<event>
 6    1  0.1293624E-005  0.2080187E+03  0.7818608E-02  0.1144736E+00
          2   -1    0    0  502    0  0.00000000000E+00  0.00000000000E+00  0.39774915787E+03  0.39774915787E+03  0.00000000000E+00 0.  1.
          1   -1    0    0  501    0 -0.00000000000E+00 -0.00000000000E+00 -0.28243583139E+03  0.28243583139E+03  0.00000000000E+00 0. -1.
          2    1    1    2  501    0 -0.14982208914E+03  0.10768968517E+03  0.11992136490E+03  0.22005649376E+03  0.00000000000E+00 0.  1.
          1    1    1    2  502    0 -0.60109299590E+02 -0.10411959851E+03 -0.13674937193E+03  0.18208352319E+03  0.00000000000E+00 0. -1.
         22    1    1    2    0    0  0.22617569882E+03  0.30400640547E+01  0.11598269528E+03  0.25419810057E+03  0.00000000000E+00 0.  1.
         22    1    1    2    0    0 -0.16244310093E+02 -0.66101507084E+01  0.16158638232E+02  0.23846871751E+02  0.00000000000E+00 0. -1.
</event>
<event>
 6    1  0.1293624E-005  0.2813956E+03  0.7818608E-02  0.1094929E+00
          2   -1    0    0  502    0  0.00000000000E+00  0.00000000000E+00  0.75722401130E+02  0.75722401130E+02  0.00000000000E+00 0.  1.
          1   -1    0    0  501    0 -0.00000000000E+00 -0.00000000000E+00 -0.10595084712E+04  0.10595084712E+04  0.00000000000E+00 0.  1.
          2    1    1    2  501    0 -0.38255970813E+01  0.27984092991E+02 -0.75263173977E+02  0.80388369872E+02  0.00000000000E+00 0.  1.
          1    1    1    2  502    0 -0.19931244352E+02 -0.23302656684E+03 -0.68938707962E+03  0.72797883273E+03  0.00000000000E+00 0.  1.
         22    1    1    2    0    0  0.71939853016E+02  0.15649342199E+03 -0.13771150386E+03  0.22052208931E+03  0.00000000000E+00 0.  1.
         22    1    1    2    0    0 -0.48183011583E+02  0.48549051865E+02 -0.81424312626E+02  0.10634158043E+03  0.00000000000E+00 0.  1.
</event>
<event>
 6    1  0.1293624E-005  0.1216771E+03  0.7818608E-02  0.1293683E+00
          2   -1    0    0  502    0  0.00000000000E+00  0.00000000000E+00  0.35240987095E+03  0.35240987095E+03  0.00000000000E+00 0.  1.
          1   -1    0    0  501    0 -0.00000000000E+00 -0.00000000000E+00 -0.24426901437E+03  0.24426901437E+03  0.00000000000E+00 0.  1.
          2    1    1    2  501    0  0.91592348011E+01  0.30643467539E+02  0.24360746823E+02  0.40203975807E+02  0.00000000000E+00 0.  1.
          1    1    1    2  502    0  0.29590642240E+02 -0.11325485331E+03 -0.20158950833E+03  0.23311069855E+03  0.00000000000E+00 0.  1.
         22    1    1    2    0    0 -0.39150659722E+02 -0.18136421515E+02  0.13997888310E+03  0.14647795621E+03  0.00000000000E+00 0.  1.
         22    1    1    2    0    0  0.40078268116E+00  0.10074780729E+03  0.14539073499E+03  0.17688625476E+03  0.00000000000E+00 0.  1.
</event>
<event>
 6    1  0.1293624E-005  0.8332619E+02  0.7818608E-02  0.1322184E+00
          2   -1    0    0  502    0  0.00000000000E+00  0.00000000000E+00  0.19523494125E+03  0.19523494125E+03  0.00000000000E+00 0. -1.
          1   -1    0    0  501    0 -0.00000000000E+00 -0.00000000000E+00 -0.10789267408E+03  0.10789267408E+03  0.00000000000E+00 0. -1.
          2    1    1    2  501    0 -0.26030931464E+02  0.12982711429E+02  0.21960151903E+02  0.36447338182E+02  0.00000000000E+00 0. -1.
          1    1    1    2  502    0 -0.47337762159E+02 -0.19436800189E+02 -0.58880569218E+02  0.78010091394E+02  0.00000000000E+00 0. -1.
         22    1    1    2    0    0 -0.18540104299E+02  0.38547407790E+02  0.24566643606E+02  0.49327052343E+02  0.00000000000E+00 0. -1.
         22    1    1    2    0    0  0.91908797922E+02 -0.32093319030E+02  0.99696040884E+02  0.13934313341E+03  0.00000000000E+00 0. -1.
</event>
<event>
 6    1  0.1293624E-005  0.2109905E+03  0.7818608E-02  0.1141572E+00
          2   -1    0    0  502    0  0.00000000000E+00  0.00000000000E+00  0.14085838010E+03  0.14085838010E+03  0.00000000000E+00 0. -1.
          1   -1    0    0  501    0 -0.00000000000E+00 -0.00000000000E+00 -0.11694993840E+04  0.11694993840E+04  0.00000000000E+00 0. -1.
          2    1    1    2  501    0  0.10323571221E+03 -0.20786550128E+03 -0.80866596211E+02  0.24577446018E+03  0.00000000000E+00 0. -1.
          1    1    1    2  502    0  0.50263158594E+02  0.14891467128E+03 -0.78382236856E+03  0.79942446165E+03  0.00000000000E+00 0. -1.
         22    1    1    2    0    0  0.15216391190E+02 -0.11277929000E+02  0.10127749181E+01  0.18967233758E+02  0.00000000000E+00 0.  1.
         22    1    1    2    0    0 -0.16871526200E+03  0.70228759000E+02 -0.16496481400E+03  0.24619160846E+03  0.00000000000E+00 0. -1.
</event>
<event>
 6    1  0.1293624E-005  0.8024099E+02  0.7818608E-02  0.1332351E+00
          2   -1    0    0  502    0  0.00000000000E+00  0.00000000000E+00  0.32693668035E+02  0.32693668035E+02  0.00000000000E+00 0.  1.
          1   -1    0    0  501    0 -0.00000000000E+00 -0.00000000000E+00 -0.39490121350E+03  0.39490121350E+03  0.00000000000E+00 0.  1.
          2    1    1    2  501    0 -0.24447445329E+02  0.19451893200E+02 -0.44336859174E+02  0.54238462493E+02  0.00000000000E+00 0.  1.
          1    1    1    2  502    0  0.13776356996E+01  0.21915447301E+02 -0.18666051349E+03  0.18794768422E+03  0.00000000000E+00 0.  1.
         22    1    1    2    0    0  0.58090208937E+02 -0.59766626756E+02 -0.11641143091E+03  0.14317172659E+03  0.00000000000E+00 0.  1.
         22    1    1    2    0    0 -0.35020399308E+02  0.18399286255E+02 -0.14798741896E+02  0.42237008228E+02  0.00000000000E+00 0.  1.
</event>
<event>
 6    1  0.1293624E-005  0.1107692E+03  0.7818608E-02  0.1261136E+00
          2   -1    0    0  502    0  0.00000000000E+00  0.00000000000E+00  0.26682342565E+03  0.26682342565E+03  0.00000000000E+00 0. -1.
          1   -1    0    0  501    0 -0.00000000000E+00 -0.00000000000E+00 -0.21400445918E+03  0.21400445918E+03  0.00000000000E+00 0. -1.
          2    1    1    2  501    0  0.38750898137E+02 -0.47812776135E+02  0.92227607440E+01  0.62231446905E+02  0.00000000000E+00 0. -1.
          1    1    1    2  502    0  0.34250037666E+02 -0.20113564176E+02 -0.15840731009E+03  0.16331104199E+03  0.00000000000E+00 0. -1.
         22    1    1    2    0    0 -0.96243512056E+02  0.69455628197E+02  0.19912706245E+03  0.23181562696E+03  0.00000000000E+00 0. -1.
         22    1    1    2    0    0  0.23242576253E+02 -0.15292878862E+01  0.28764533651E+01  0.23469768987E+02  0.00000000000E+00 0. -1.
</event>
<event>
 6    1  0.1293624E-005  0.2697190E+03  0.7818608E-02  0.1101441E+00
          2   -1    0    0  502    0  0.00000000000E+00  0.00000000000E+00  0.73827442969E+03  0.73827442969E+03  0.00000000000E+00 0.  1.
          1   -1    0    0  501    0 -0.00000000000E+00 -0.00000000000E+00 -0.78646330383E+03  0.78646330383E+03  0.00000000000E+00 0. -1.
          2    1    1    2  501    0  0.72479971238E+02 -0.60124201196E+02  0.13209748430E+03  0.16222826868E+03  0.00000000000E+00 0.  1.
          1    1    1    2  502    0 -0.91011471189E+02 -0.24379211946E+02 -0.75881754023E+03  0.76464468430E+03  0.00000000000E+00 0. -1.
         22    1    1    2    0    0  0.12255603573E+02  0.96237591420E+02  0.57625512157E+03  0.58436447442E+03  0.00000000000E+00 0.  1.
         22    1    1    2    0    0  0.62758963782E+01 -0.11734178278E+02  0.22760602199E+01  0.13500306120E+02  0.00000000000E+00 0.  1.
</event>
<event>
 6    1  0.1293624E-005  0.1058748E+03  0.7818608E-02  0.1271822E+00
          2   -1    0    0  502    0  0.00000000000E+00  0.00000000000E+00  0.37569607968E+03  0.37569607968E+03  0.00000000000E+00 0. -1.
          1   -1    0    0  501    0 -0.00000000000E+00 -0.00000000000E+00 -0.18321042451E+03  0.18321042451E+03  0.00000000000E+00 0. -1.
          2    1    1    2  501    0  0.26097503543E+01 -0.51385997409E+02  0.19321436670E+02  0.54960435238E+02  0.00000000000E+00 0. -1.
          1    1    1    2  502    0 -0.18299938155E+02 -0.19499447954E+02 -0.14814752675E+03  0.15054170814E+03  0.00000000000E+00 0. -1.
         22    1    1    2    0    0  0.33944767636E+02  0.10044150519E+03  0.28016031375E+03  0.29955057104E+03  0.00000000000E+00 0. -1.
         22    1    1    2    0    0 -0.18254579836E+02 -0.29556059823E+02  0.41151431503E+02  0.53853789764E+02  0.00000000000E+00 0. -1.
</event>
<event>
 6    1  0.1293624E-005  0.1026411E+03  0.7818608E-02  0.1276295E+00
          2   -1    0    0  502    0  0.00000000000E+00  0.00000000000E+00  0.90811549488E+02  0.90811549488E+02  0.00000000000E+00 0. -1.
          1   -1    0    0  501    0 -0.00000000000E+00 -0.00000000000E+00 -0.25119431170E+04  0.25119431170E+04  0.00000000000E+00 0.  1.
          2    1    1    2  501    0  0.21443835170E+02 -0.66237171553E+02 -0.53975600963E+01  0.69830756957E+02  0.00000000000E+00 0. -1.
          1    1    1    2  502    0 -0.43733123501E+02  0.74451852740E+01 -0.23897675094E+04  0.23901792330E+04  0.00000000000E+00 0.  1.
         22    1    1    2    0    0  0.57383941877E+00 -0.36645795447E+02  0.10770738074E+02  0.38200162490E+02  0.00000000000E+00 0. -1.
         22    1    1    2    0    0  0.21715448912E+02  0.95437781726E+02 -0.36737236101E+02  0.10454451405E+03  0.00000000000E+00 0.  1.
</event>
<event>
 6    1  0.1293624E-005  0.8062697E+02  0.7818608E-02  0.1329970E+00
          2   -1    0    0  502    0  0.00000000000E+00  0.00000000000E+00  0.71693968724E+03  0.71693968724E+03  0.00000000000E+00 0.  1.
          1   -1    0    0  501    0 -0.00000000000E+00 -0.00000000000E+00 -0.26891391815E+02  0.26891391815E+02  0.00000000000E+00 0. -1.
          2    1    1    2  501    0 -0.25588526263E+02 -0.34156977816E+02  0.12218891549E+03  0.12942798337E+03  0.00000000000E+00 0.  1.
          1    1    1    2  502    0  0.25013162230E+01  0.58162608395E+02  0.38188677716E+02  0.69624138801E+02  0.00000000000E+00 0. -1.
         22    1    1    2    0    0 -0.47466755770E+02 -0.30699187393E+02  0.23177238236E+03  0.23856649018E+03  0.00000000000E+00 0.  1.
         22    1    1    2    0    0  0.70553965810E+02  0.66935568141E+01  0.29789831986E+03  0.30621246671E+03  0.00000000000E+00 0.  1.
</event>
<event>
 6    1  0.1293624E-005  0.9652679E+02  0.7818608E-02  0.1296796E+00
          2   -1    0    0  502    0  0.00000000000E+00  0.00000000000E+00  0.64116012813E+03  0.64116012813E+03  0.00000000000E+00 0. -1.
          1   -1    0    0  501    0 -0.00000000000E+00 -0.00000000000E+00 -0.61215954790E+02  0.61215954790E+02  0.00000000000E+00 0. -1.
          2    1    1    2  501    0 -0.13190865091E+02  0.77324950076E+02  0.13883716066E+03  0.15946442865E+03  0.00000000000E+00 0. -1.
          1    1    1    2  502    0  0.33065001750E+02 -0.58423117578E+02 -0.14487848042E+02  0.68676435181E+02  0.00000000000E+00 0. -1.
         22    1    1    2    0    0  0.30054449008E+02  0.38220347974E+02  0.10773872393E+03  0.11820193542E+03  0.00000000000E+00 0. -1.
         22    1    1    2    0    0 -0.49928585667E+02 -0.57122180471E+02  0.34785613680E+03  0.35603328367E+03  0.00000000000E+00 0. -1.
</event>
<event>
 6    1  0.1293624E-005  0.2547516E+03  0.7818608E-02  0.1110338E+00
          2   -1    0    0  502    0  0.00000000000E+00  0.00000000000E+00  0.28345602028E+03  0.28345602028E+03  0.00000000000E+00 0.  1.
          1   -1    0    0  501    0 -0.00000000000E+00 -0.00000000000E+00 -0.64206868030E+03  0.64206868030E+03  0.00000000000E+00 0. -1.
          2    1    1    2  501    0  0.56052410866E+02 -0.71043427197E+01 -0.20783214458E+02  0.60202046913E+02  0.00000000000E+00 0.  1.
          1    1    1    2  502    0 -0.11647059081E+03 -0.72223595279E+01 -0.57779437178E+03  0.58946068322E+03  0.00000000000E+00 0. -1.
         22    1    1    2    0    0  0.44026390578E+02  0.60739588128E+02  0.19599274317E+03  0.20985894312E+03  0.00000000000E+00 0.  1.
         22    1    1    2    0    0  0.16391789365E+02 -0.46412885881E+02  0.43972183044E+02  0.66003027325E+02  0.00000000000E+00 0.  1.
</event>
<event>
 6    1  0.1293624E-005  0.8959500E+02  0.7818608E-02  0.1305138E+00
          2   -1    0    0  502    0  0.00000000000E+00  0.00000000000E+00  0.58061567375E+03  0.58061567375E+03  0.00000000000E+00 0. -1.
          1   -1    0    0  501    0 -0.00000000000E+00 -0.00000000000E+00 -0.68142937328E+02  0.68142937328E+02  0.00000000000E+00 0. -1.
          2    1    1    2  501    0 -0.34263367090E+02 -0.18391166861E+02  0.61184470699E+02  0.72496570937E+02  0.00000000000E+00 0. -1.
          1    1    1    2  502    0 -0.13803450469E+01 -0.39032381660E+02 -0.45421620871E+02  0.59904555862E+02  0.00000000000E+00 0. -1.
         22    1    1    2    0    0  0.51567715469E+02  0.84906731260E+02  0.44262208163E+03  0.45363276936E+03  0.00000000000E+00 0. -1.
         22    1    1    2    0    0 -0.15924003332E+02 -0.27483182739E+02  0.54087804957E+02  0.62724714911E+02  0.00000000000E+00 0. -1.
</event>
<event>
 6    1  0.1293624E-005  0.1719680E+03  0.7818608E-02  0.1175811E+00
          2   -1    0    0  502    0  0.00000000000E+00  0.00000000000E+00  0.44538115456E+03  0.44538115456E+03  0.00000000000E+00 0. -1.
          1   -1    0    0  501    0 -0.00000000000E+00 -0.00000000000E+00 -0.10015550143E+04  0.10015550143E+04  0.00000000000E+00 0.  1.
          2    1    1    2  501    0 -0.96833667772E+01 -0.24170672457E+02  0.20673911241E+02  0.33247550363E+02  0.00000000000E+00 0. -1.
          1    1    1    2  502    0 -0.25693015305E+02  0.53537775858E+02 -0.98402665213E+03  0.98581685752E+03  0.00000000000E+00 0.  1.
         22    1    1    2    0    0  0.38126009625E+02  0.43880920710E+02  0.18398912697E+03  0.19295369044E+03  0.00000000000E+00 0.  1.
         22    1    1    2    0    0 -0.27496275426E+01 -0.73248024112E+02  0.22318975419E+03  0.23491807053E+03  0.00000000000E+00 0. -1.
</event>
<event>
 6    1  0.1293624E-005  0.1223351E+03  0.7818608E-02  0.1281946E+00
          2   -1    0    0  502    0  0.00000000000E+00  0.00000000000E+00  0.34906405069E+03  0.34906405069E+03  0.00000000000E+00 0.  1.
          1   -1    0    0  501    0 -0.00000000000E+00 -0.00000000000E+00 -0.14136965599E+04  0.14136965599E+04  0.00000000000E+00 0.  1.
          2    1    1    2  501    0 -0.22161780622E+02 -0.76669019682E+02  0.19261485319E+02  0.82099256489E+02  0.00000000000E+00 0.  1.
          1    1    1    2  502    0  0.55673969233E+02  0.93617973070E+02 -0.13656256966E+04  0.13699625757E+04  0.00000000000E+00 0.  1.
         22    1    1    2    0    0 -0.30924248393E+02  0.42962011643E+02  0.21302462318E+03  0.21950292405E+03  0.00000000000E+00 0.  1.
         22    1    1    2    0    0 -0.25879402179E+01 -0.59910965032E+02  0.68707078857E+02  0.91195854350E+02  0.00000000000E+00 0.  1.
</event>
<event>
 6    1  0.1293624E-005  0.2134231E+03  0.7818608E-02  0.1138884E+00
          2   -1    0    0  502    0  0.00000000000E+00  0.00000000000E+00  0.21413651816E+03  0.21413651816E+03  0.00000000000E+00 0. -1.
          1   -1    0    0  501    0 -0.00000000000E+00 -0.00000000000E+00 -0.98816998235E+03  0.98816998235E+03  0.00000000000E+00 0.  1.
          2    1    1    2  501    0 -0.31861350115E+02 -0.23879240814E+02 -0.46678354787E+01  0.40089306069E+02  0.00000000000E+00 0. -1.
          1    1    1    2  502    0  0.76085002692E+02  0.11190546648E+03 -0.92884313099E+03  0.93864866860E+03  0.00000000000E+00 0.  1.
         22    1    1    2    0    0 -0.26928127329E+02 -0.11826433326E+02 -0.14543361419E+02  0.32810027858E+02  0.00000000000E+00 0. -1.
         22    1    1    2    0    0 -0.17295525248E+02 -0.76199792344E+02  0.17402086371E+03  0.19075849798E+03  0.00000000000E+00 0. -1.
</event>
<event>
 6    1  0.1293624E-005  0.9919465E+02  0.7818608E-02  0.1286991E+00
          2   -1    0    0  502    0  0.00000000000E+00  0.00000000000E+00  0.16164438332E+03  0.16164438332E+03  0.00000000000E+00 0. -1.
          1   -1    0    0  501    0 -0.00000000000E+00 -0.00000000000E+00 -0.10913249584E+04  0.10913249584E+04  0.00000000000E+00 0. -1.
          2    1    1    2  501    0 -0.34508772360E+02  0.68324263160E+02 -0.13881120876E+00  0.76544624727E+02  0.00000000000E+00 0. -1.
          1    1    1    2  502    0  0.36485468906E+02 -0.37688085404E+02 -0.10191611561E+04  0.10205101878E+04  0.00000000000E+00 0. -1.
         22    1    1    2    0    0  0.50236510037E+01 -0.78675440427E+02  0.59688610869E+02  0.98882719741E+02  0.00000000000E+00 0. -1.
         22    1    1    2    0    0 -0.70003475501E+01  0.48039262672E+02  0.29930781338E+02  0.57031809504E+02  0.00000000000E+00 0.  1.
</event>
<event>
 6    1  0.1293624E-005  0.8460252E+02  0.7818608E-02  0.1318681E+00
          2   -1    0    0  502    0  0.00000000000E+00  0.00000000000E+00  0.32280203582E+03  0.32280203582E+03  0.00000000000E+00 0.  1.
          1   -1    0    0  501    0 -0.00000000000E+00 -0.00000000000E+00 -0.51293549493E+02  0.51293549493E+02  0.00000000000E+00 0.  1.
          2    1    1    2  501    0 -0.37935017980E+02  0.41739439972E+00  0.43611299258E+02  0.57802986344E+02  0.00000000000E+00 0.  1.
          1    1    1    2  502    0  0.21868812187E+02  0.15306046350E+02 -0.22105160848E+02  0.34657728394E+02  0.00000000000E+00 0.  1.
         22    1    1    2    0    0  0.69406954690E+02 -0.28089241049E+02  0.14053711557E+03  0.15923885102E+03  0.00000000000E+00 0.  1.
         22    1    1    2    0    0 -0.53340748897E+02  0.12365800299E+02  0.10946523235E+03  0.12239601956E+03  0.00000000000E+00 0.  1.
</event>
<event>
 6    1  0.1293624E-005  0.2738652E+03  0.7818608E-02  0.1099088E+00
          2   -1    0    0  502    0  0.00000000000E+00  0.00000000000E+00  0.10175361214E+03  0.10175361214E+03  0.00000000000E+00 0.  1.
          1   -1    0    0  501    0 -0.00000000000E+00 -0.00000000000E+00 -0.12355691579E+04  0.12355691579E+04  0.00000000000E+00 0.  1.
          2    1    1    2  501    0  0.47305602752E+02 -0.80143814558E+02 -0.11731395133E+03  0.14974449653E+03  0.00000000000E+00 0.  1.
          1    1    1    2  502    0 -0.81512226701E+02  0.11790572612E+03 -0.10369828448E+04  0.10468425974E+04  0.00000000000E+00 0.  1.
         22    1    1    2    0    0  0.23416121478E+02 -0.54457341607E+02  0.67412211312E+02  0.89768162697E+02  0.00000000000E+00 0.  1.
         22    1    1    2    0    0  0.10790502470E+02  0.16695430042E+02 -0.46930960980E+02  0.50967513441E+02  0.00000000000E+00 0. -1.
</event>
<event>
 6    1  0.1293624E-005  0.3151202E+03  0.7818608E-02  0.1077917E+00
          2   -1    0    0  502    0  0.00000000000E+00  0.00000000000E+00  0.53384232523E+03  0.53384232523E+03  0.00000000000E+00 0.  1.
          1   -1    0    0  501    0 -0.00000000000E+00 -0.00000000000E+00 -0.12446783939E+03  0.12446783939E+03  0.00000000000E+00 0.  1.
          2    1    1    2  501    0 -0.43479125924E+02 -0.22858814690E+02 -0.23284634042E+02  0.54361144052E+02  0.00000000000E+00 0.  1.
          1    1    1    2  502    0  0.95095489639E+02 -0.16417884259E+03  0.22062189209E+03  0.29098430160E+03  0.00000000000E+00 0.  1.
         22    1    1    2    0    0  0.10242117734E+01 -0.10186006987E+02 -0.78746617239E+01  0.12915651178E+02  0.00000000000E+00 0. -1.
         22    1    1    2    0    0 -0.52640575488E+02  0.19722366427E+03  0.21991188951E+03  0.30004906779E+03  0.00000000000E+00 0.  1.
</event>
<event>
 6    1  0.1293624E-005  0.2147394E+03  0.7818608E-02  0.1137867E+00
          2   -1    0    0  502    0  0.00000000000E+00  0.00000000000E+00  0.25687047482E+03  0.25687047482E+03  0.00000000000E+00 0.  1.
          1   -1    0    0  501    0 -0.00000000000E+00 -0.00000000000E+00 -0.19194476122E+04  0.19194476122E+04  0.00000000000E+00 0. -1.
          2    1    1    2  501    0 -0.30420685808E+01  0.56655321898E+02  0.10925454164E+03  0.12310822292E+03  0.00000000000E+00 0.  1.
          1    1    1    2  502    0  0.82111942417E+02 -0.44567499624E+02 -0.18731994396E+04  0.18755278653E+04  0.00000000000E+00 0. -1.
         22    1    1    2    0    0 -0.12093708505E+02 -0.28826290221E+02  0.10399917268E+03  0.10859576746E+03  0.00000000000E+00 0.  1.
         22    1    1    2    0    0 -0.66976165332E+02  0.16738467946E+02 -0.26314121398E+01  0.69086231346E+02  0.00000000000E+00 0. -1.
</event>
<event>
 6    1  0.1293624E-005  0.1907121E+03  0.7818608E-02  0.1157821E+00
          2   -1    0    0  502    0  0.00000000000E+00  0.00000000000E+00  0.29455748082E+03  0.29455748082E+03  0.00000000000E+00 0.  1.
          1   -1    0    0  501    0 -0.00000000000E+00 -0.00000000000E+00 -0.45959378692E+03  0.45959378692E+03  0.00000000000E+00 0.  1.
          2    1    1    2  501    0 -0.19496333390E+02  0.18456071691E+02  0.11504409175E+03  0.11813499331E+03  0.00000000000E+00 0.  1.
          1    1    1    2  502    0 -0.98770421358E+01  0.50777404135E+02 -0.42699905546E+03  0.43012102261E+03  0.00000000000E+00 0.  1.
         22    1    1    2    0    0  0.36119889954E+02 -0.99964090980E+02  0.13596564418E+03  0.17258077046E+03  0.00000000000E+00 0.  1.
         22    1    1    2    0    0 -0.67465144288E+01  0.30730615155E+02  0.10953013424E+02  0.33314481352E+02  0.00000000000E+00 0.  1.
</event>
<event>
 6    1  0.1293624E-005  0.1036845E+03  0.7818608E-02  0.1292804E+00
          2   -1    0    0  502    0  0.00000000000E+00  0.00000000000E+00  0.11076544717E+03  0.11076544717E+03  0.00000000000E+00 0.  1.
          1   -1    0    0  501    0 -0.00000000000E+00 -0.00000000000E+00 -0.10676229751E+04  0.10676229751E+04  0.00000000000E+00 0.  1.
          2    1    1    2  501    0  0.51060123263E+02  0.59951438225E+02  0.41992133009E+02  0.89244889868E+02  0.00000000000E+00 0.  1.
          1    1    1    2  502    0 -0.95760535373E+01 -0.95064746429E+02 -0.93029620371E+03  0.93518983819E+03  0.00000000000E+00 0.  1.
         22    1    1    2    0    0  0.27977465906E+02  0.49246212094E+02 -0.19259988902E+01  0.56671310872E+02  0.00000000000E+00 0.  1.
         22    1    1    2    0    0 -0.69461535632E+02 -0.14132903891E+02 -0.66627458353E+02  0.97282383356E+02  0.00000000000E+00 0. -1.
</event>
<event>
 6    1  0.1293624E-005  0.1229952E+03  0.7818608E-02  0.1239100E+00
          2   -1    0    0  502    0  0.00000000000E+00  0.00000000000E+00  0.47356826760E+02  0.47356826760E+02  0.00000000000E+00 0.  1.
          1   -1    0    0  501    0 -0.00000000000E+00 -0.00000000000E+00 -0.55924688325E+03  0.55924688325E+03  0.00000000000E+00 0. -1.
          2    1    1    2  501    0  0.45814318407E+02 -0.85531322220E+02 -0.77612312629E+02  0.12425067373E+03  0.00000000000E+00 0.  1.
          1    1    1    2  502    0  0.19434960684E+02 -0.22358807026E+02 -0.47121670618E+02  0.55660450862E+02  0.00000000000E+00 0. -1.
         22    1    1    2    0    0 -0.68320512956E+02  0.12587789529E+03 -0.38163885626E+03  0.40762869578E+03  0.00000000000E+00 0. -1.
         22    1    1    2    0    0  0.30712338654E+01 -0.17987766048E+02 -0.55172169856E+01  0.19063889638E+02  0.00000000000E+00 0.  1.
</event>
<event>
 6    1  0.1293624E-005  0.1830710E+03  0.7818608E-02  0.1165495E+00
          2   -1    0    0  502    0  0.00000000000E+00  0.00000000000E+00  0.58303826275E+03  0.58303826275E+03  0.00000000000E+00 0. -1.
          1   -1    0    0  501    0 -0.00000000000E+00 -0.00000000000E+00 -0.14962685354E+03  0.14962685354E+03  0.00000000000E+00 0. -1.
          2    1    1    2  501    0 -0.53226550082E+02  0.16020620572E+03  0.40351420617E+03  0.43740462796E+03  0.00000000000E+00 0. -1.
          1    1    1    2  502    0 -0.57717258787E+02 -0.59059385999E+02 -0.33282153676E+02  0.89033672224E+02  0.00000000000E+00 0. -1.
         22    1    1    2    0    0 -0.10509015146E+02  0.16449640251E+02  0.27043770042E+02  0.33352594529E+02  0.00000000000E+00 0. -1.
         22    1    1    2    0    0  0.12145282402E+03 -0.11759645997E+03  0.36135586684E+02  0.17287422157E+03  0.00000000000E+00 0. -1.
</event>
<event>
 6    1  0.1293624E-005  0.1916316E+03  0.7818608E-02  0.1156998E+00
          2   -1    0    0  502    0  0.00000000000E+00  0.00000000000E+00  0.15317678854E+03  0.15317678854E+03  0.00000000000E+00 0.  1.
          1   -1    0    0  501    0 -0.00000000000E+00 -0.00000000000E+00 -0.24208040628E+03  0.24208040628E+03  0.00000000000E+00 0.  1.
          2    1    1    2  501    0  0.11198259464E+02  0.26469798387E+02 -0.12794861315E+02  0.31460446878E+02  0.00000000000E+00 0.  1.
          1    1    1    2  502    0  0.53240172538E+02  0.32419425677E+02 -0.17455816358E+03  0.18535395222E+03  0.00000000000E+00 0.  1.
         22    1    1    2    0    0 -0.82402269392E+02 -0.78535168104E+02  0.10035604445E+03  0.15175388722E+03  0.00000000000E+00 0.  1.
         22    1    1    2    0    0  0.17963837389E+02  0.19645944040E+02 -0.19066373039E+01  0.26688908497E+02  0.00000000000E+00 0. -1.
</event>
<event>
 6    1  0.1293624E-005  0.9969030E+02  0.7818608E-02  0.1282654E+00
          2   -1    0    0  502    0  0.00000000000E+00  0.00000000000E+00  0.21696699637E+02  0.21696699637E+02  0.00000000000E+00 0. -1.
          1   -1    0    0  501    0 -0.00000000000E+00 -0.00000000000E+00 -0.88586061017E+03  0.88586061017E+03  0.00000000000E+00 0. -1.
          2    1    1    2  501    0  0.17961282672E+02 -0.53257542398E+02 -0.29456232803E+03  0.29987653892E+03  0.00000000000E+00 0. -1.
          1    1    1    2  502    0  0.38039316141E+02  0.12009343363E+02 -0.30575307583E+02  0.50259957563E+02  0.00000000000E+00 0. -1.
         22    1    1    2    0    0 -0.79798739369E+02  0.68866769326E+02 -0.41152013253E+03  0.42480500256E+03  0.00000000000E+00 0. -1.
         22    1    1    2    0    0  0.23798140556E+02 -0.27618570290E+02 -0.12750614239E+03  0.13261581077E+03  0.00000000000E+00 0. -1.
</event>
<event>
 6    1  0.1293624E-005  0.4261002E+03  0.7818608E-02  0.1035099E+00
          2   -1    0    0  502    0  0.00000000000E+00  0.00000000000E+00  0.55798299008E+03  0.55798299008E+03  0.00000000000E+00 0. -1.
          1   -1    0    0  501    0 -0.00000000000E+00 -0.00000000000E+00 -0.37499385487E+03  0.37499385487E+03  0.00000000000E+00 0.  1.
          2    1    1    2  501    0  0.25206985211E+02 -0.24254638165E+02 -0.56983453605E+02  0.66863993006E+02  0.00000000000E+00 0. -1.
          1    1    1    2  502    0 -0.27203642381E+02  0.22140943791E+03 -0.24341082330E+03  0.33016814846E+03  0.00000000000E+00 0.  1.
         22    1    1    2    0    0  0.96286478758E+01 -0.38505266545E+01 -0.43504682026E+01  0.11245620882E+02  0.00000000000E+00 0. -1.
         22    1    1    2    0    0 -0.76319907053E+01 -0.19330427309E+03  0.48773388032E+03  0.52469908261E+03  0.00000000000E+00 0. -1.
</event>
<event>
 6    1  0.1293624E-005  0.2166743E+03  0.7818608E-02  0.1136387E+00
          2   -1    0    0  502    0  0.00000000000E+00  0.00000000000E+00  0.11742930986E+03  0.11742930986E+03  0.00000000000E+00 0.  1.
          1   -1    0    0  501    0 -0.00000000000E+00 -0.00000000000E+00 -0.49133628237E+03  0.49133628237E+03  0.00000000000E+00 0.  1.
          2    1    1    2  501    0 -0.42177115410E+02 -0.24348562468E+02  0.61803293854E+02  0.78685504953E+02  0.00000000000E+00 0.  1.
          1    1    1    2  502    0  0.16932343035E+02  0.59938805364E+02 -0.38672873394E+03  0.39171223913E+03  0.00000000000E+00 0.  1.
         22    1    1    2    0    0 -0.12405988344E+02 -0.95498853493E+01  0.37433767465E+02  0.40575803179E+02  0.00000000000E+00 0. -1.
         22    1    1    2    0    0  0.37650760720E+02 -0.26040357547E+02 -0.86415299888E+02  0.97792044966E+02  0.00000000000E+00 0.  1.
</event>
<event>
 6    1  0.1293624E-005  0.1089956E+03  0.7818608E-02  0.1263567E+00
          2   -1    0    0  502    0  0.00000000000E+00  0.00000000000E+00  0.17122173390E+03  0.17122173390E+03  0.00000000000E+00 0.  1.
          1   -1    0    0  501    0 -0.00000000000E+00 -0.00000000000E+00 -0.18456824184E+03  0.18456824184E+03  0.00000000000E+00 0.  1.
          2    1    1    2  501    0  0.59987360583E+01 -0.85451031440E+02  0.64593386451E+02  0.10728545652E+03  0.00000000000E+00 0.  1.
          1    1    1    2  502    0 -0.10655289238E+02  0.27343230226E+02 -0.10502455522E+03  0.10904744209E+03  0.00000000000E+00 0.  1.
         22    1    1    2    0    0  0.11250290143E+02  0.88691842592E+02 -0.11103173993E+02  0.90089358103E+02  0.00000000000E+00 0. -1.
         22    1    1    2    0    0 -0.65937369625E+01 -0.30584041378E+02  0.38187834814E+02  0.49367719027E+02  0.00000000000E+00 0. -1.
</event>
<event>
 6    1  0.1293624E-005  0.7921580E+02  0.7818608E-02  0.1332802E+00
          2   -1    0    0  502    0  0.00000000000E+00  0.00000000000E+00  0.65506739825E+02  0.65506739825E+02  0.00000000000E+00 0.  1.
          1   -1    0    0  501    0 -0.00000000000E+00 -0.00000000000E+00 -0.71957450505E+03  0.71957450505E+03  0.00000000000E+00 0.  1.
          2    1    1    2  501    0  0.23595770405E+02 -0.38432629518E+02  0.14090092868E+01  0.45119981160E+02  0.00000000000E+00 0.  1.
          1    1    1    2  502    0 -0.19841045334E+02 -0.72643332366E+01 -0.59121314611E+03  0.59159058626E+03  0.00000000000E+00 0.  1.
         22    1    1    2    0    0  0.19343532663E+02 -0.26900335411E+02  0.16781254120E+02  0.37140419908E+02  0.00000000000E+00 0.  1.
         22    1    1    2    0    0 -0.23098257734E+02  0.72597298166E+02 -0.81044882521E+02  0.11123025755E+03  0.00000000000E+00 0.  1.
</event>
<event>
 6    1  0.1293624E-005  0.1037577E+03  0.7818608E-02  0.1276203E+00
          2   -1    0    0  502    0  0.00000000000E+00  0.00000000000E+00  0.41433716684E+03  0.41433716684E+03  0.00000000000E+00 0.  1.
          1   -1    0    0  501    0 -0.00000000000E+00 -0.00000000000E+00 -0.24929400047E+03  0.24929400047E+03  0.00000000000E+00 0.  1.
          2    1    1    2  501    0  0.29538344177E+02 -0.79624600951E+02  0.29928266579E+03  0.31109918820E+03  0.00000000000E+00 0.  1.
          1    1    1    2  502    0  0.21604242738E+02  0.43398596018E+02 -0.19430021975E+03  0.20025672731E+03  0.00000000000E+00 0.  1.
         22    1    1    2    0    0 -0.71932065927E+02  0.43706589687E+02 -0.42483912360E+01  0.84276550230E+02  0.00000000000E+00 0.  1.
         22    1    1    2    0    0  0.20789479012E+02 -0.74805847540E+01  0.64309111558E+02  0.67998701570E+02  0.00000000000E+00 0. -1.
</event>
<event>
 6    1  0.1293624E-005  0.1014960E+03  0.7818608E-02  0.1280227E+00
          2   -1    0    0  502    0  0.00000000000E+00  0.00000000000E+00  0.17447257226E+03  0.17447257226E+03  0.00000000000E+00 0.  1.
          1   -1    0    0  501    0 -0.00000000000E+00 -0.00000000000E+00 -0.10435438811E+04  0.10435438811E+04  0.00000000000E+00 0. -1.
          2    1    1    2  501    0 -0.12244085420E+03 -0.68181867385E+02 -0.21946887148E+03  0.26039799416E+03  0.00000000000E+00 0.  1.
          1    1    1    2  502    0  0.70114150246E+02 -0.20837886995E+01 -0.76252630653E+03  0.76574584843E+03  0.00000000000E+00 0. -1.
         22    1    1    2    0    0  0.65370109433E+02  0.66524705760E+02  0.13611508263E+03  0.16500334361E+03  0.00000000000E+00 0.  1.
         22    1    1    2    0    0 -0.13043405483E+02  0.37409503238E+01 -0.23191213484E+02  0.26869267180E+02  0.00000000000E+00 0. -1.
</event>
<event>
 6    1  0.1293624E-005  0.1399058E+03  0.7818608E-02  0.1216443E+00
          2   -1    0    0  502    0  0.00000000000E+00  0.00000000000E+00  0.74397876383E+03  0.74397876383E+03  0.00000000000E+00 0. -1.
          1   -1    0    0  501    0 -0.00000000000E+00 -0.00000000000E+00 -0.74756267023E+02  0.74756267023E+02  0.00000000000E+00 0. -1.
          2    1    1    2  501    0 -0.92251095940E+01 -0.13816227250E+03  0.12543491533E+03  0.18683638343E+03  0.00000000000E+00 0. -1.
          1    1    1    2  502    0  0.28288090817E+01  0.31248153227E+02 -0.24435541694E+02  0.39768642657E+02  0.00000000000E+00 0. -1.
         22    1    1    2    0    0 -0.10867754867E+02  0.12558374472E+03  0.53829931505E+03  0.55286122818E+03  0.00000000000E+00 0. -1.
         22    1    1    2    0    0  0.17264055380E+02 -0.18669625450E+02  0.29923808126E+02  0.39268776596E+02  0.00000000000E+00 0. -1.
</event>
<event>
 6    1  0.1293624E-005  0.5445154E+02  0.7818608E-02  0.1429054E+00
          2   -1    0    0  502    0  0.00000000000E+00  0.00000000000E+00  0.16219312412E+03  0.16219312412E+03  0.00000000000E+00 0. -1.
          1   -1    0    0  501    0 -0.00000000000E+00 -0.00000000000E+00 -0.43850721424E+03  0.43850721424E+03  0.00000000000E+00 0. -1.
          2    1    1    2  501    0 -0.60375967435E+02 -0.28719189450E+02 -0.95816048164E+02  0.11683648562E+03  0.00000000000E+00 0. -1.
          1    1    1    2  502    0  0.28947829991E+02  0.15531915775E+02 -0.30495726352E+03  0.30672161620E+03  0.00000000000E+00 0. -1.
         22    1    1    2    0    0 -0.77768782193E+01 -0.15286198770E+02 -0.19074171880E+02  0.25650959838E+02  0.00000000000E+00 0. -1.
         22    1    1    2    0    0  0.39205015664E+02  0.28473472446E+02  0.14353339344E+03  0.15149127671E+03  0.00000000000E+00 0. -1.
</event>
<event>
 6    1  0.1293624E-005  0.1507776E+03  0.7818608E-02  0.1202673E+00
          2   -1    0    0  502    0  0.00000000000E+00  0.00000000000E+00  0.67555074346E+02  0.67555074346E+02  0.00000000000E+00 0. -1.
          1   -1    0    0  501    0 -0.00000000000E+00 -0.00000000000E+00 -0.11925094004E+04  0.11925094004E+04  0.00000000000E+00 0. -1.
          2    1    1    2  501    0  0.13110199426E+02 -0.12739916863E+03 -0.56422283240E+03  0.57857569090E+03  0.00000000000E+00 0. -1.
          1    1    1    2  502    0 -0.12766912699E+03  0.49733491229E+02 -0.44152623319E+03  0.46229670206E+03  0.00000000000E+00 0. -1.
         22    1    1    2    0    0  0.78788006906E+01 -0.25715975652E+02 -0.46692264179E+02  0.53884640095E+02  0.00000000000E+00 0. -1.
         22    1    1    2    0    0  0.10668012687E+03  0.10338165306E+03 -0.72512996333E+02  0.16530744174E+03  0.00000000000E+00 0. -1.
</event>
<event>
 6    1  0.1293624E-005  0.3958017E+03  0.7818608E-02  0.1045243E+00
          2   -1    0    0  502    0  0.00000000000E+00  0.00000000000E+00  0.23528089251E+03  0.23528089251E+03  0.00000000000E+00 0. -1.
          1   -1    0    0  501    0 -0.00000000000E+00 -0.00000000000E+00 -0.48139871028E+03  0.48139871028E+03  0.00000000000E+00 0. -1.
          2    1    1    2  501    0 -0.15960426994E+02 -0.26448906555E+03 -0.10916732842E+03  0.28657757522E+03  0.00000000000E+00 0. -1.
          1    1    1    2  502    0  0.28005626158E+02  0.27083003112E+03 -0.57709632147E+02  0.27832287455E+03  0.00000000000E+00 0. -1.
         22    1    1    2    0    0 -0.23292551698E+02  0.23470054749E+02 -0.10545601607E+03  0.11051858558E+03  0.00000000000E+00 0. -1.
         22    1    1    2    0    0  0.11247352534E+02 -0.29811020323E+02  0.26215158864E+02  0.41260567446E+02  0.00000000000E+00 0. -1.
</event>
<event>
 6    1  0.1293624E-005  0.5421757E+02  0.7818608E-02  0.1428997E+00
          2   -1    0    0  502    0  0.00000000000E+00  0.00000000000E+00  0.20768093332E+03  0.20768093332E+03  0.00000000000E+00 0.  1.
          1   -1    0    0  501    0 -0.00000000000E+00 -0.00000000000E+00 -0.76019856995E+02  0.76019856995E+02  0.00000000000E+00 0.  1.
          2    1    1    2  501    0 -0.76963011893E+01 -0.20643981606E+02  0.34761220042E+02  0.41155187369E+02  0.00000000000E+00 0.  1.
          1    1    1    2  502    0 -0.19274040651E+02  0.19030594131E+02 -0.46106871346E+02  0.53474253069E+02  0.00000000000E+00 0.  1.
         22    1    1    2    0    0 -0.15034084328E+02  0.18348064675E+02 -0.12718079253E+02  0.26915139026E+02  0.00000000000E+00 0.  1.
         22    1    1    2    0    0  0.42004426168E+02 -0.16734677200E+02  0.15572480689E+03  0.16215621085E+03  0.00000000000E+00 0.  1.
</event>
<event>
 6    1  0.1293624E-005  0.6167711E+03  0.7818608E-02  0.9871210E-01
          2   -1    0    0  502    0  0.00000000000E+00  0.00000000000E+00  0.10080800014E+04  0.10080800014E+04  0.00000000000E+00 0. -1.
          1   -1    0    0  501    0 -0.00000000000E+00 -0.00000000000E+00 -0.11333383588E+04  0.11333383588E+04  0.00000000000E+00 0.  1.
          2    1    1    2  501    0 -0.25075480821E+03 -0.76506818120E+02  0.13874660345E+03  0.29661740851E+03  0.00000000000E+00 0. -1.
          1    1    1    2  502    0  0.96485550664E+02 -0.22658224516E+02 -0.10364131759E+04  0.10411412621E+04  0.00000000000E+00 0.  1.
         22    1    1    2    0    0  0.17150768101E+03  0.10556873197E+03  0.67001654324E+03  0.69962976639E+03  0.00000000000E+00 0. -1.
         22    1    1    2    0    0 -0.17238423465E+02 -0.64036893375E+01  0.10239167177E+03  0.10402992324E+03  0.00000000000E+00 0.  1.
</event>
<event>
 6    1  0.1293624E-005  0.5738098E+02  0.7818608E-02  0.1414961E+00
          2   -1    0    0  502    0  0.00000000000E+00  0.00000000000E+00  0.24497929814E+03  0.24497929814E+03  0.00000000000E+00 0. -1.
          1   -1    0    0  501    0 -0.00000000000E+00 -0.00000000000E+00 -0.42636112335E+02  0.42636112335E+02  0.00000000000E+00 0. -1.
          2    1    1    2  501    0 -0.52008926097E+01 -0.30762253013E+02  0.83577714383E+02  0.89210984951E+02  0.00000000000E+00 0. -1.
          1    1    1    2  502    0  0.28674161801E+02  0.91284685469E+01  0.31351441880E+02  0.43456292996E+02  0.00000000000E+00 0. -1.
         22    1    1    2    0    0 -0.18928783202E+01  0.39034205799E+02 -0.20080065277E+02  0.43937014376E+02  0.00000000000E+00 0. -1.
         22    1    1    2    0    0 -0.21580390871E+02 -0.17400421333E+02  0.10749409482E+03  0.11101111816E+03  0.00000000000E+00 0. -1.
</event>
<event>
 6    1  0.1293624E-005  0.2451441E+03  0.7818608E-02  0.1116413E+00
          2   -1    0    0  502    0  0.00000000000E+00  0.00000000000E+00  0.26209489106E+02  0.26209489106E+02  0.00000000000E+00 0. -1.
          1   -1    0    0  501    0 -0.00000000000E+00 -0.00000000000E+00 -0.10636029131E+04  0.10636029131E+04  0.00000000000E+00 0.  1.
          2    1    1    2  501    0  0.85926701258E+02 -0.51720218414E+02 -0.25204333274E+03  0.27126411587E+03  0.00000000000E+00 0. -1.
          1    1    1    2  502    0 -0.14873446785E+02  0.35953131166E+02 -0.47149944886E+03  0.47310207919E+03  0.00000000000E+00 0.  1.
         22    1    1    2    0    0 -0.95871391189E+02  0.23242708151E+02 -0.30052498093E+03  0.31630177251E+03  0.00000000000E+00 0. -1.
         22    1    1    2    0    0  0.24818136716E+02 -0.74756209031E+01 -0.13325661512E+02  0.29144434677E+02  0.00000000000E+00 0. -1.
</event>
<event>
 6    1  0.1293624E-005  0.1730518E+03  0.7818608E-02  0.1174702E+00
          2   -1    0    0  502    0  0.00000000000E+00  0.00000000000E+00  0.22680895052E+03  0.22680895052E+03  0.00000000000E+00 0. -1.
          1   -1    0    0  501    0 -0.00000000000E+00 -0.00000000000E+00 -0.56751992103E+02  0.56751992103E+02  0.00000000000E+00 0. -1.
          2    1    1    2  501    0 -0.31484529294E+02  0.26818726321E+02  0.18532307944E+02  0.45320702820E+02  0.00000000000E+00 0. -1.
          1    1    1    2  502    0  0.10360020185E+02 -0.36863670940E+02 -0.35248734698E+01  0.38453673250E+02  0.00000000000E+00 0. -1.
         22    1    1    2    0    0 -0.32828314722E+02 -0.26663096377E+02  0.14298227655E+02  0.44643681188E+02  0.00000000000E+00 0. -1.
         22    1    1    2    0    0  0.53952823831E+02  0.36708040996E+02  0.14075129629E+03  0.15514288537E+03  0.00000000000E+00 0. -1.
</event>
<event>
 6    1  0.1293624E-005  0.1069230E+03  0.7818608E-02  0.1268263E+00
          2   -1    0    0  502    0  0.00000000000E+00  0.00000000000E+00  0.58972476157E+03  0.58972476157E+03  0.00000000000E+00 0. -1.
          1   -1    0    0  501    0 -0.00000000000E+00 -0.00000000000E+00 -0.30123433894E+02  0.30123433894E+02  0.00000000000E+00 0. -1.
          2    1    1    2  501    0  0.50055587452E+00 -0.70736539069E+02  0.17405955669E+03  0.18788463958E+03  0.00000000000E+00 0. -1.
          1    1    1    2  502    0  0.21203458341E+02  0.32440561848E+01  0.11831170715E+00  0.21450513836E+02  0.00000000000E+00 0. -1.
         22    1    1    2    0    0 -0.15291601809E+02  0.10124283547E+03  0.23711866572E+03  0.25828125455E+03  0.00000000000E+00 0. -1.
         22    1    1    2    0    0 -0.64124124067E+01 -0.33750352581E+02  0.14830479356E+03  0.15223178750E+03  0.00000000000E+00 0. -1.
</event>
<event>
 6    1  0.1293624E-005  0.3265465E+03  0.7818608E-02  0.1072675E+00
          2   -1    0    0  502    0  0.00000000000E+00  0.00000000000E+00  0.73170864848E+02  0.73170864848E+02  0.00000000000E+00 0. -1.
          1   -1    0    0  501    0 -0.00000000000E+00 -0.00000000000E+00 -0.12317820331E+04  0.12317820331E+04  0.00000000000E+00 0. -1.
          2    1    1    2  501    0 -0.18560813923E+02  0.49365658776E+02 -0.13954297985E+03  0.14917679212E+03  0.00000000000E+00 0. -1.
          1    1    1    2  502    0 -0.15733489198E+03  0.83286781902E+02 -0.80158076182E+03  0.82111063444E+03  0.00000000000E+00 0. -1.
         22    1    1    2    0    0  0.15001993756E+03 -0.12378971040E+03 -0.10936678409E+03  0.22313889739E+03  0.00000000000E+00 0. -1.
         22    1    1    2    0    0  0.25875768350E+02 -0.88627302749E+01 -0.10812064249E+03  0.11152657400E+03  0.00000000000E+00 0. -1.
</event>
<event>
 6    1  0.1293624E-005  0.1901606E+03  0.7818608E-02  0.1158672E+00
          2   -1    0    0  502    0  0.00000000000E+00  0.00000000000E+00  0.61492560494E+03  0.61492560494E+03  0.00000000000E+00 0.  1.
          1   -1    0    0  501    0 -0.00000000000E+00 -0.00000000000E+00 -0.86521625372E+02  0.86521625372E+02  0.00000000000E+00 0.  1.
          2    1    1    2  501    0  0.14056504126E+03 -0.64820833011E+02  0.18012169362E+03  0.23749546465E+03  0.00000000000E+00 0.  1.
          1    1    1    2  502    0  0.13391957708E+02 -0.68643874599E+02  0.84422934031E+02  0.10962918335E+03  0.00000000000E+00 0.  1.
         22    1    1    2    0    0  0.12739136407E+02 -0.85745393836E+01  0.31366160428E+02  0.34923406793E+02  0.00000000000E+00 0. -1.
         22    1    1    2    0    0 -0.16669613537E+03  0.14203924699E+03  0.23249319149E+03  0.31939917552E+03  0.00000000000E+00 0.  1.
</event>
<event>
 6    1  0.1293624E-005  0.9273060E+02  0.7818608E-02  0.1328331E+00
          2   -1    0    0  502    0  0.00000000000E+00  0.00000000000E+00  0.10395191902E+03  0.10395191902E+03  0.00000000000E+00 0.  1.
          1   -1    0    0  501    0 -0.00000000000E+00 -0.00000000000E+00 -0.18587076271E+04  0.18587076271E+04  0.00000000000E+00 0. -1.
          2    1    1    2  501    0  0.78421936932E+02 -0.96056466732E+01 -0.49622095890E+02  0.93298558620E+02  0.00000000000E+00 0.  1.
          1    1    1    2  502    0 -0.78840744487E+02 -0.33454722075E+02 -0.17340078544E+04  0.17361216319E+04  0.00000000000E+00 0. -1.
         22    1    1    2    0    0  0.46938596582E+02  0.19770258375E+02 -0.26370850866E+02  0.57354308824E+02  0.00000000000E+00 0.  1.
         22    1    1    2    0    0 -0.46519789026E+02  0.23290110373E+02  0.55245093126E+02  0.75885046792E+02  0.00000000000E+00 0.  1.
</event>
<event>
 6    1  0.1293624E-005  0.1609469E+03  0.7818608E-02  0.1187632E+00
          2   -1    0    0  502    0  0.00000000000E+00  0.00000000000E+00  0.22175412922E+02  0.22175412922E+02  0.00000000000E+00 0. -1.
          1   -1    0    0  501    0 -0.00000000000E+00 -0.00000000000E+00 -0.11595404286E+04  0.11595404286E+04  0.00000000000E+00 0.  1.
          2    1    1    2  501    0 -0.10485206912E+02 -0.18516482913E+02 -0.84356271738E+02  0.86998737261E+02  0.00000000000E+00 0. -1.
          1    1    1    2  502    0 -0.18969478895E+02 -0.21478460893E+02 -0.86410707895E+03  0.86458210096E+03  0.00000000000E+00 0.  1.
         22    1    1    2    0    0  0.22231246518E+02 -0.39901011250E+02 -0.38759281298E+02  0.59904932245E+02  0.00000000000E+00 0. -1.
         22    1    1    2    0    0  0.72234392889E+01  0.79895955057E+02 -0.15014238367E+03  0.17023007104E+03  0.00000000000E+00 0. -1.
</event>
<event>
 6    1  0.1293624E-005  0.1531750E+03  0.7818608E-02  0.1196625E+00
          2   -1    0    0  502    0  0.00000000000E+00  0.00000000000E+00  0.25153834899E+02  0.25153834899E+02  0.00000000000E+00 0. -1.
          1   -1    0    0  501    0 -0.00000000000E+00 -0.00000000000E+00 -0.46133040331E+03  0.46133040331E+03  0.00000000000E+00 0.  1.
          2    1    1    2  501    0  0.18209187430E+02 -0.87801881959E+01 -0.27109402778E+02  0.33816947387E+02  0.00000000000E+00 0. -1.
          1    1    1    2  502    0  0.16055887304E+02  0.24226253071E+02 -0.21787169582E+03  0.21980168037E+03  0.00000000000E+00 0.  1.
         22    1    1    2    0    0 -0.68918529622E+02 -0.20221665900E+02 -0.50282427929E+02  0.87675549929E+02  0.00000000000E+00 0.  1.
         22    1    1    2    0    0  0.34653454888E+02  0.47756010248E+01 -0.14091304188E+03  0.14519006052E+03  0.00000000000E+00 0. -1.
</event>
<event>
 6    1  0.1293624E-005  0.9140494E+02  0.7818608E-02  0.1301180E+00
          2   -1    0    0  502    0  0.00000000000E+00  0.00000000000E+00  0.65450379156E+03  0.65450379156E+03  0.00000000000E+00 0.  1.
          1   -1    0    0  501    0 -0.00000000000E+00 -0.00000000000E+00 -0.22260320344E+02  0.22260320344E+02  0.00000000000E+00 0.  1.
          2    1    1    2  501    0  0.27666999822E+02 -0.24327780479E+02  0.70294950049E+02  0.79364247521E+02  0.00000000000E+00 0.  1.
          1    1    1    2  502    0  0.26316850312E+02 -0.26067186078E+02  0.31860479788E+02  0.48858622296E+02  0.00000000000E+00 0.  1.
         22    1    1    2    0    0 -0.76601118769E+02  0.75314998468E+02  0.40538777768E+03  0.41937969751E+03  0.00000000000E+00 0.  1.
         22    1    1    2    0    0  0.22617268634E+02 -0.24920031911E+02  0.12470026370E+03  0.12916154457E+03  0.00000000000E+00 0.  1.
</event>
<event>
 6    1  0.1293624E-005  0.6547222E+03  0.7818608E-02  0.9797958E-01
          2   -1    0    0  502    0  0.00000000000E+00  0.00000000000E+00  0.10407758282E+04  0.10407758282E+04  0.00000000000E+00 0. -1.
          1   -1    0    0  501    0 -0.00000000000E+00 -0.00000000000E+00 -0.12738057387E+04  0.12738057387E+04  0.00000000000E+00 0.  1.
          2    1    1    2  501    0 -0.14593249874E+03 -0.63600524359E+02  0.94087222357E+03  0.95424413122E+03  0.00000000000E+00 0. -1.
          1    1    1    2  502    0  0.37819268682E+02 -0.31842509875E+02 -0.11702654246E+04  0.11713092703E+04  0.00000000000E+00 0.  1.
         22    1    1    2    0    0 -0.14592730329E+02 -0.12058133404E+01  0.26192631579E+02  0.30007594261E+02  0.00000000000E+00 0. -1.
         22    1    1    2    0    0  0.12270596038E+03  0.96648847575E+02 -0.29829341039E+02  0.15902057112E+03  0.00000000000E+00 0. -1.
</event>
<event>
 6    1  0.1293624E-005  0.1030588E+03  0.7818608E-02  0.1276263E+00
          2   -1    0    0  502    0  0.00000000000E+00  0.00000000000E+00  0.11681706657E+03  0.11681706657E+03  0.00000000000E+00 0.  1.
          1   -1    0    0  501    0 -0.00000000000E+00 -0.00000000000E+00 -0.11357425689E+04  0.11357425689E+04  0.00000000000E+00 0.  1.
          2    1    1    2  501    0 -0.72112815543E+02 -0.16731124625E+02  0.20695619823E+02  0.76866750788E+02  0.00000000000E+00 0.  1.
          1    1    1    2  502    0 -0.14744024046E+02  0.62910737828E+02 -0.10111525840E+04  0.10132150292E+04  0.00000000000E+00 0.  1.
         22    1    1    2    0    0  0.10885085884E+03 -0.35057683142E+02 -0.54456790360E+02  0.12666133046E+03  0.00000000000E+00 0. -1.
         22    1    1    2    0    0 -0.21994019249E+02 -0.11121930061E+02  0.25988252240E+02  0.35816525034E+02  0.00000000000E+00 0.  1.
</event>
<event>
 6    1  0.1293624E-005  0.7610143E+02  0.7818608E-02  0.1361777E+00
          2   -1    0    0  502    0  0.00000000000E+00  0.00000000000E+00  0.10016957124E+03  0.10016957124E+03  0.00000000000E+00 0.  1.
          1   -1    0    0  501    0 -0.00000000000E+00 -0.00000000000E+00 -0.19300027389E+04  0.19300027389E+04  0.00000000000E+00 0. -1.
          2    1    1    2  501    0 -0.29133024523E+02 -0.12497160145E+02  0.16036980232E+01  0.31740888092E+02  0.00000000000E+00 0.  1.
          1    1    1    2  502    0  0.29204798113E+02  0.63754407447E+02 -0.18588328577E+04  0.18601551380E+04  0.00000000000E+00 0. -1.
         22    1    1    2    0    0 -0.52972898052E+02 -0.48780832007E+02  0.41968371148E+02  0.83348915267E+02  0.00000000000E+00 0.  1.
         22    1    1    2    0    0  0.52901124461E+02 -0.24764152950E+01 -0.14572379125E+02  0.54927368728E+02  0.00000000000E+00 0.  1.
</event>
<event>
 6    1  0.1293624E-005  0.1540187E+03  0.7818608E-02  0.1195620E+00
          2   -1    0    0  502    0  0.00000000000E+00  0.00000000000E+00  0.90035107109E+02  0.90035107109E+02  0.00000000000E+00 0. -1.
          1   -1    0    0  501    0 -0.00000000000E+00 -0.00000000000E+00 -0.15197989039E+03  0.15197989039E+03  0.00000000000E+00 0. -1.
          2    1    1    2  501    0  0.21379751986E+02  0.16289269564E+02 -0.41509434234E+01  0.27196772404E+02  0.00000000000E+00 0. -1.
          1    1    1    2  502    0 -0.43157207999E+02 -0.40082231704E+02 -0.65327453063E+02  0.87959115641E+02  0.00000000000E+00 0. -1.
         22    1    1    2    0    0 -0.27043585256E+02  0.42939828389E+02  0.40491509021E+02  0.64921080308E+02  0.00000000000E+00 0. -1.
         22    1    1    2    0    0  0.48821041269E+02 -0.19146866248E+02 -0.32957895814E+02  0.61938029144E+02  0.00000000000E+00 0. -1.
</event>
<event>
 6    1  0.1293624E-005  0.1014758E+03  0.7818608E-02  0.1278818E+00
          2   -1    0    0  502    0  0.00000000000E+00  0.00000000000E+00  0.36623257122E+03  0.36623257122E+03  0.00000000000E+00 0. -1.
          1   -1    0    0  501    0 -0.00000000000E+00 -0.00000000000E+00 -0.59178989985E+02  0.59178989985E+02  0.00000000000E+00 0. -1.
          2    1    1    2  501    0 -0.50372575795E+02 -0.37245074820E+02  0.12749079228E+02  0.63930673481E+02  0.00000000000E+00 0. -1.
          1    1    1    2  502    0  0.43513991262E+02 -0.39885158000E+02  0.60105915628E+02  0.84243779341E+02  0.00000000000E+00 0. -1.
         22    1    1    2    0    0 -0.33546754101E+02 -0.16914140766E+02  0.27420429747E+02  0.46511856941E+02  0.00000000000E+00 0. -1.
         22    1    1    2    0    0  0.40405338634E+02  0.94044373586E+02  0.20677815663E+03  0.23072525144E+03  0.00000000000E+00 0. -1.
</event>
<event>
 6    1  0.1293624E-005  0.1668230E+03  0.7818608E-02  0.1181202E+00
          2   -1    0    0  502    0  0.00000000000E+00  0.00000000000E+00  0.21395255713E+03  0.21395255713E+03  0.00000000000E+00 0. -1.
          1   -1    0    0  501    0 -0.00000000000E+00 -0.00000000000E+00 -0.11740695372E+03  0.11740695372E+03  0.00000000000E+00 0. -1.
          2    1    1    2  501    0  0.11414127324E+02 -0.24222312546E+02  0.25181659207E+02  0.36757566406E+02  0.00000000000E+00 0. -1.
          1    1    1    2  502    0 -0.73937820855E+02  0.42285562329E+02 -0.58725650081E+02  0.10345806934E+03  0.00000000000E+00 0. -1.
         22    1    1    2    0    0  0.43988187399E+02 -0.30591950420E+02  0.15118218787E+03  0.16039601613E+03  0.00000000000E+00 0. -1.
         22    1    1    2    0    0  0.18535506132E+02  0.12528700637E+02 -0.21092593585E+02  0.30747858972E+02  0.00000000000E+00 0. -1.
</event>
<event>
 6    1  0.1293624E-005  0.4108918E+03  0.7818608E-02  0.1040072E+00
          2   -1    0    0  502    0  0.00000000000E+00  0.00000000000E+00  0.68042421375E+03  0.68042421375E+03  0.00000000000E+00 0.  1.
          1   -1    0    0  501    0 -0.00000000000E+00 -0.00000000000E+00 -0.43769453296E+03  0.43769453296E+03  0.00000000000E+00 0.  1.
          2    1    1    2  501    0 -0.27506862453E+02  0.66668313011E+02  0.55411308404E+01  0.72332534677E+02  0.00000000000E+00 0.  1.
          1    1    1    2  502    0  0.27903781691E+03 -0.59949274634E+02 -0.31519963459E+03  0.42521386200E+03  0.00000000000E+00 0.  1.
         22    1    1    2    0    0  0.75473599754E+01  0.17271919328E+02  0.69947897028E+02  0.72443013042E+02  0.00000000000E+00 0.  1.
         22    1    1    2    0    0 -0.25907831443E+03 -0.23990957706E+02  0.48244028751E+03  0.54812933699E+03  0.00000000000E+00 0.  1.
</event>
<event>
 6    1  0.1293624E-005  0.7790484E+02  0.7818608E-02  0.1348356E+00
          2   -1    0    0  502    0  0.00000000000E+00  0.00000000000E+00  0.17037636937E+03  0.17037636937E+03  0.00000000000E+00 0. -1.
          1   -1    0    0  501    0 -0.00000000000E+00 -0.00000000000E+00 -0.30353400352E+04  0.30353400352E+04  0.00000000000E+00 0. -1.
          2    1    1    2  501    0 -0.26729089394E+02  0.38239814869E+02 -0.20378088568E+02  0.50911630840E+02  0.00000000000E+00 0. -1.
          1    1    1    2  502    0  0.16284858618E+02 -0.47651950158E+02 -0.29750433231E+04  0.29754694889E+04  0.00000000000E+00 0. -1.
         22    1    1    2    0    0 -0.41064910983E+02  0.34856125654E+02  0.25304543532E+02  0.59511312647E+02  0.00000000000E+00 0. -1.
         22    1    1    2    0    0  0.51509141759E+02 -0.25443990365E+02  0.10515320237E+03  0.11982397214E+03  0.00000000000E+00 0. -1.
</event>
<event>
 6    1  0.1293624E-005  0.1587780E+03  0.7818608E-02  0.1190083E+00
          2   -1    0    0  502    0  0.00000000000E+00  0.00000000000E+00  0.71649697276E+02  0.71649697276E+02  0.00000000000E+00 0. -1.
          1   -1    0    0  501    0 -0.00000000000E+00 -0.00000000000E+00 -0.19823695123E+03  0.19823695123E+03  0.00000000000E+00 0. -1.
          2    1    1    2  501    0  0.48713814490E+01  0.27613830384E+02 -0.13662046864E+02  0.31191433283E+02  0.00000000000E+00 0. -1.
          1    1    1    2  502    0 -0.24332177143E+01 -0.77678549246E+02 -0.26100754615E+02  0.81982479548E+02  0.00000000000E+00 0. -1.
         22    1    1    2    0    0 -0.33217571079E+02  0.43590934237E+02  0.92864883640E+01  0.55586108356E+02  0.00000000000E+00 0. -1.
         22    1    1    2    0    0  0.30779407344E+02  0.64737846243E+01 -0.96110940841E+02  0.10112662732E+03  0.00000000000E+00 0. -1.
</event>
<event>
 6    1  0.1293624E-005  0.3480879E+03  0.7818608E-02  0.1063403E+00
          2   -1    0    0  502    0  0.00000000000E+00  0.00000000000E+00  0.23968810029E+03  0.23968810029E+03  0.00000000000E+00 0.  1.
          1   -1    0    0  501    0 -0.00000000000E+00 -0.00000000000E+00 -0.40378752986E+03  0.40378752986E+03  0.00000000000E+00 0.  1.
          2    1    1    2  501    0 -0.55741882855E+02 -0.32045161834E+02  0.16386477836E+03  0.17602759866E+03  0.00000000000E+00 0.  1.
          1    1    1    2  502    0  0.22975414926E+02 -0.88950306829E+02 -0.26547851867E+03  0.28092502675E+03  0.00000000000E+00 0.  1.
         22    1    1    2    0    0 -0.15558129669E+02 -0.16456043475E+01  0.24156098264E+02  0.28779862678E+02  0.00000000000E+00 0.  1.
         22    1    1    2    0    0  0.48324597598E+02  0.12264107301E+03 -0.86641787521E+02  0.15774314206E+03  0.00000000000E+00 0.  1.
</event>
<event>
 6    1  0.1293624E-005  0.2035013E+03  0.7818608E-02  0.1146818E+00
          2   -1    0    0  502    0  0.00000000000E+00  0.00000000000E+00  0.81885681843E+02  0.81885681843E+02  0.00000000000E+00 0. -1.
          1   -1    0    0  501    0 -0.00000000000E+00 -0.00000000000E+00 -0.86711134545E+03  0.86711134545E+03  0.00000000000E+00 0. -1.
          2    1    1    2  501    0 -0.38653429081E+02 -0.82131712151E+01 -0.68495988984E+02  0.79077457395E+02  0.00000000000E+00 0. -1.
          1    1    1    2  502    0  0.27838429599E+02  0.62278662868E+01 -0.73997596172E+03  0.74052561630E+03  0.00000000000E+00 0. -1.
         22    1    1    2    0    0  0.28955159676E+02  0.31325549508E+02  0.63426951488E+02  0.76437356697E+02  0.00000000000E+00 0. -1.
         22    1    1    2    0    0 -0.18140160193E+02 -0.29340244580E+02 -0.40180664393E+02  0.52956596897E+02  0.00000000000E+00 0. -1.
</event>
<event>
 6    1  0.1293624E-005  0.9588781E+02  0.7818608E-02  0.1290988E+00
          2   -1    0    0  502    0  0.00000000000E+00  0.00000000000E+00  0.52367711293E+03  0.52367711293E+03  0.00000000000E+00 0. -1.
          1   -1    0    0  501    0 -0.00000000000E+00 -0.00000000000E+00 -0.26489639486E+02  0.26489639486E+02  0.00000000000E+00 0. -1.
          2    1    1    2  501    0  0.56472122794E+02  0.35219651564E+02  0.10523919249E+03  0.12451832052E+03  0.00000000000E+00 0. -1.
          1    1    1    2  502    0 -0.21553268995E+02  0.89374837370E+01  0.78108438059E+02  0.81519016897E+02  0.00000000000E+00 0. -1.
         22    1    1    2    0    0 -0.69860222640E+02 -0.55748912268E+02  0.28073685749E+03  0.29462107033E+03  0.00000000000E+00 0. -1.
         22    1    1    2    0    0  0.34941368841E+02  0.11591776967E+02  0.33102985406E+02  0.49508344676E+02  0.00000000000E+00 0. -1.
</event>
<event>
 6    1  0.1293624E-005  0.1595723E+03  0.7818608E-02  0.1189180E+00
          2   -1    0    0  502    0  0.00000000000E+00  0.00000000000E+00  0.33322952967E+02  0.33322952967E+02  0.00000000000E+00 0. -1.
          1   -1    0    0  501    0 -0.00000000000E+00 -0.00000000000E+00 -0.95928902198E+03  0.95928902198E+03  0.00000000000E+00 0. -1.
          2    1    1    2  501    0 -0.18341720657E+02 -0.16772546681E+02 -0.53131429038E+02  0.58657359218E+02  0.00000000000E+00 0. -1.
          1    1    1    2  502    0  0.41260869595E+02 -0.59359158093E+01 -0.76437455790E+03  0.76551039132E+03  0.00000000000E+00 0. -1.
         22    1    1    2    0    0 -0.43556905257E+02 -0.14211890885E+02  0.61972213171E+01  0.46234050117E+02  0.00000000000E+00 0. -1.
         22    1    1    2    0    0  0.20637756319E+02  0.36920353375E+02 -0.11465730339E+03  0.12221017429E+03  0.00000000000E+00 0. -1.
</event>
<event>
 6    1  0.1293624E-005  0.1606172E+03  0.7818608E-02  0.1188002E+00
          2   -1    0    0  502    0  0.00000000000E+00  0.00000000000E+00  0.70075688355E+02  0.70075688355E+02  0.00000000000E+00 0. -1.
          1   -1    0    0  501    0 -0.00000000000E+00 -0.00000000000E+00 -0.14262577183E+03  0.14262577183E+03  0.00000000000E+00 0. -1.
          2    1    1    2  501    0 -0.30475802507E+02  0.17940117863E+02 -0.20745296300E+02  0.40999874219E+02  0.00000000000E+00 0. -1.
          1    1    1    2  502    0  0.36514155550E+02 -0.13047653345E+02 -0.79615576846E+01  0.39584229361E+02  0.00000000000E+00 0. -1.
         22    1    1    2    0    0  0.52170029485E+02 -0.26894402888E+02 -0.37306685986E+02  0.69547176093E+02  0.00000000000E+00 0. -1.
         22    1    1    2    0    0 -0.58208382527E+02  0.22001938370E+02 -0.65365435040E+01  0.62570180513E+02  0.00000000000E+00 0. -1.
</event>
<event>
 6    1  0.1293624E-005  0.2181020E+03  0.7818608E-02  0.1135306E+00
          2   -1    0    0  502    0  0.00000000000E+00  0.00000000000E+00  0.86771956150E+02  0.86771956150E+02  0.00000000000E+00 0.  1.
          1   -1    0    0  501    0 -0.00000000000E+00 -0.00000000000E+00 -0.39076734644E+03  0.39076734644E+03  0.00000000000E+00 0.  1.
          2    1    1    2  501    0 -0.17994832999E+02  0.21131938098E+02  0.31006850324E+01  0.27928248605E+02  0.00000000000E+00 0.  1.
          1    1    1    2  502    0  0.13172446490E+03 -0.18609982697E+02 -0.48463159059E+02  0.14158511185E+03  0.00000000000E+00 0.  1.
         22    1    1    2    0    0 -0.22230497738E+02 -0.89484303158E+01  0.86227274884E+01  0.25468036127E+02  0.00000000000E+00 0.  1.
         22    1    1    2    0    0 -0.91499134167E+02  0.64264749142E+01 -0.26725564375E+03  0.28255790601E+03  0.00000000000E+00 0.  1.
</event>
<event>
 6    1  0.1293624E-005  0.1222497E+03  0.7818608E-02  0.1242366E+00
          2   -1    0    0  502    0  0.00000000000E+00  0.00000000000E+00  0.13174899426E+04  0.13174899426E+04  0.00000000000E+00 0. -1.
          1   -1    0    0  501    0 -0.00000000000E+00 -0.00000000000E+00 -0.29713965858E+02  0.29713965858E+02  0.00000000000E+00 0.  1.
          2    1    1    2  501    0  0.46827279085E+02  0.68727752059E+02  0.42633956826E+03  0.43437509762E+03  0.00000000000E+00 0. -1.
          1    1    1    2  502    0  0.19530051384E+02 -0.65875431215E+01 -0.13248944517E+02  0.24502105262E+02  0.00000000000E+00 0.  1.
         22    1    1    2    0    0 -0.55041119757E+01  0.37699206506E+02  0.20465815943E+03  0.20817417621E+03  0.00000000000E+00 0. -1.
         22    1    1    2    0    0 -0.60853218493E+02 -0.99839415443E+02  0.67002719357E+03  0.68015252937E+03  0.00000000000E+00 0.  1.
</event>
<event>
 6    1  0.1293624E-005  0.3653598E+03  0.7818608E-02  0.1056482E+00
          2   -1    0    0  502    0  0.00000000000E+00  0.00000000000E+00  0.38683987096E+03  0.38683987096E+03  0.00000000000E+00 0. -1.
          1   -1    0    0  501    0 -0.00000000000E+00 -0.00000000000E+00 -0.16348584378E+03  0.16348584378E+03  0.00000000000E+00 0. -1.
          2    1    1    2  501    0  0.33874987352E+02  0.14451528358E+03  0.12789994509E+03  0.19593513700E+03  0.00000000000E+00 0. -1.
          1    1    1    2  502    0 -0.13056981091E+03 -0.90311416139E+01  0.20646541718E+02  0.13250025180E+03  0.00000000000E+00 0. -1.
         22    1    1    2    0    0  0.72659076437E+01  0.92240698723E+01  0.48323138884E+02  0.49729293485E+02  0.00000000000E+00 0. -1.
         22    1    1    2    0    0  0.89428915919E+02 -0.14470821184E+03  0.26484401489E+02  0.17216103246E+03  0.00000000000E+00 0. -1.
</event>
<event>
 6    1  0.1293624E-005  0.2253554E+03  0.7818608E-02  0.1129952E+00
          2   -1    0    0  502    0  0.00000000000E+00  0.00000000000E+00  0.58548385545E+03  0.58548385545E+03  0.00000000000E+00 0. -1.
          1   -1    0    0  501    0 -0.00000000000E+00 -0.00000000000E+00 -0.24220182738E+03  0.24220182738E+03  0.00000000000E+00 0. -1.
          2    1    1    2  501    0 -0.84456322781E+02  0.43542353771E+02 -0.97925242234E+02  0.13644837887E+03  0.00000000000E+00 0. -1.
          1    1    1    2  502    0  0.11130933637E+03 -0.21819027691E+02  0.52567173718E+03  0.53777003784E+03  0.00000000000E+00 0. -1.
         22    1    1    2    0    0 -0.67921937543E+02  0.32008788054E+01 -0.16042034067E+02  0.69864025663E+02  0.00000000000E+00 0. -1.
         22    1    1    2    0    0  0.41068923950E+02 -0.24924204885E+02 -0.68422432808E+02  0.83603240457E+02  0.00000000000E+00 0. -1.
</event>
<event>
 6    1  0.1293624E-005  0.4577330E+02  0.7818608E-02  0.1474722E+00
          2   -1    0    0  502    0  0.00000000000E+00  0.00000000000E+00  0.31726065961E+03  0.31726065961E+03  0.00000000000E+00 0.  1.
          1   -1    0    0  501    0 -0.00000000000E+00 -0.00000000000E+00 -0.43520365103E+02  0.43520365103E+02  0.00000000000E+00 0.  1.
          2    1    1    2  501    0 -0.14728363840E+02 -0.15082308902E+02 -0.10973815715E+01  0.21109357866E+02  0.00000000000E+00 0.  1.
          1    1    1    2  502    0  0.16975398922E+02 -0.17647006523E+02 -0.92677767652E+01  0.26181533453E+02  0.00000000000E+00 0.  1.
         22    1    1    2    0    0 -0.27318394331E+01  0.53376349080E+02  0.28761730163E+03  0.29254095403E+03  0.00000000000E+00 0.  1.
         22    1    1    2    0    0  0.48480435115E+00 -0.20647033656E+02 -0.35118487878E+01  0.20949179362E+02  0.00000000000E+00 0.  1.
</event>
<event>
 6    1  0.1293624E-005  0.6556637E+02  0.7818608E-02  0.1377103E+00
          2   -1    0    0  502    0  0.00000000000E+00  0.00000000000E+00  0.14201695251E+03  0.14201695251E+03  0.00000000000E+00 0. -1.
          1   -1    0    0  501    0 -0.00000000000E+00 -0.00000000000E+00 -0.11155564402E+03  0.11155564402E+03  0.00000000000E+00 0. -1.
          2    1    1    2  501    0  0.28407686356E+02 -0.19702543836E+02  0.46550629638E+02  0.57984032263E+02  0.00000000000E+00 0. -1.
          1    1    1    2  502    0  0.32128357587E+02 -0.18027106080E+02 -0.34982915257E+02  0.50803663989E+02  0.00000000000E+00 0. -1.
         22    1    1    2    0    0 -0.73807728121E+02  0.60150185379E+02 -0.20652454533E+02  0.97427662446E+02  0.00000000000E+00 0. -1.
         22    1    1    2    0    0  0.13271684178E+02 -0.22420535462E+02  0.39546048644E+02  0.47357237827E+02  0.00000000000E+00 0. -1.
</event>
<event>
 6    1  0.1293624E-005  0.6171701E+02  0.7818608E-02  0.1396280E+00
          2   -1    0    0  502    0  0.00000000000E+00  0.00000000000E+00  0.11446207087E+03  0.11446207087E+03  0.00000000000E+00 0.  1.
          1   -1    0    0  501    0 -0.00000000000E+00 -0.00000000000E+00 -0.37132949708E+03  0.37132949708E+03  0.00000000000E+00 0. -1.
          2    1    1    2  501    0  0.50294788232E+01  0.30360287650E+02 -0.33650953673E+02  0.45600761030E+02  0.00000000000E+00 0.  1.
          1    1    1    2  502    0 -0.10342212577E+02 -0.20087038873E+02 -0.29223413085E+03  0.29310618848E+03  0.00000000000E+00 0. -1.
         22    1    1    2    0    0  0.13660286592E+02  0.43384517963E+02 -0.14259140526E+02  0.47667000296E+02  0.00000000000E+00 0.  1.
         22    1    1    2    0    0 -0.83475528382E+01 -0.53657766741E+02  0.83276798845E+02  0.99417618136E+02  0.00000000000E+00 0.  1.
</event>
<event>
 6    1  0.1293624E-005  0.1784993E+03  0.7818608E-02  0.1169263E+00
          2   -1    0    0  502    0  0.00000000000E+00  0.00000000000E+00  0.64882701125E+03  0.64882701125E+03  0.00000000000E+00 0.  1.
          1   -1    0    0  501    0 -0.00000000000E+00 -0.00000000000E+00 -0.53058626439E+02  0.53058626439E+02  0.00000000000E+00 0. -1.
          2    1    1    2  501    0 -0.17790310703E+02  0.24593373392E+02  0.14473807517E+03  0.14788657672E+03  0.00000000000E+00 0.  1.
          1    1    1    2  502    0 -0.23403169888E+02 -0.85129135261E+02  0.92078505438E+01  0.88766336766E+02  0.00000000000E+00 0. -1.
         22    1    1    2    0    0 -0.42114799965E+02  0.23181024368E+02  0.22308471604E+03  0.22820562393E+03  0.00000000000E+00 0.  1.
         22    1    1    2    0    0  0.83308280556E+02  0.37354737502E+02  0.21873774307E+03  0.23702710027E+03  0.00000000000E+00 0. -1.
</event>
<event>
 6    1  0.1293624E-005  0.2184269E+03  0.7818608E-02  0.1135061E+00
          2   -1    0    0  502    0  0.00000000000E+00  0.00000000000E+00  0.14761382458E+03  0.14761382458E+03  0.00000000000E+00 0. -1.
          1   -1    0    0  501    0 -0.00000000000E+00 -0.00000000000E+00 -0.29102481261E+03  0.29102481261E+03  0.00000000000E+00 0. -1.
          2    1    1    2  501    0 -0.13834671446E+02  0.15698145632E+02 -0.43308401611E+02  0.48098311409E+02  0.00000000000E+00 0. -1.
          1    1    1    2  502    0 -0.36482581814E+02 -0.68876219670E+02 -0.19860047656E+03  0.21334727958E+03  0.00000000000E+00 0. -1.
         22    1    1    2    0    0  0.44286678054E+02  0.37370445422E+02  0.12950067661E+03  0.14187418823E+03  0.00000000000E+00 0. -1.
         22    1    1    2    0    0  0.60305752057E+01  0.15807628616E+02 -0.31002786470E+02  0.35318857975E+02  0.00000000000E+00 0. -1.
</event>
<event>
 6    1  0.1293624E-005  0.1482469E+03  0.7818608E-02  0.1203615E+00
          2   -1    0    0  502    0  0.00000000000E+00  0.00000000000E+00  0.17382220288E+02  0.17382220288E+02  0.00000000000E+00 0. -1.
          1   -1    0    0  501    0 -0.00000000000E+00 -0.00000000000E+00 -0.23424264532E+04  0.23424264532E+04  0.00000000000E+00 0. -1.
          2    1    1    2  501    0  0.84349918723E+02 -0.33339370671E+02 -0.71939465248E+03  0.72508971061E+03  0.00000000000E+00 0. -1.
          1    1    1    2  502    0  0.40851421987E+02 -0.38284626685E+02 -0.94536459943E+03  0.94702100145E+03  0.00000000000E+00 0. -1.
         22    1    1    2    0    0  0.16433432955E+02 -0.16997584974E+02 -0.11439465418E+03  0.11681229609E+03  0.00000000000E+00 0. -1.
         22    1    1    2    0    0 -0.14163477367E+03  0.88621582330E+02 -0.54589032679E+03  0.57088566530E+03  0.00000000000E+00 0. -1.
</event>
<event>
 6    1  0.1293624E-005  0.2088482E+03  0.7818608E-02  0.1142481E+00
          2   -1    0    0  502    0  0.00000000000E+00  0.00000000000E+00  0.20610681044E+03  0.20610681044E+03  0.00000000000E+00 0. -1.
          1   -1    0    0  501    0 -0.00000000000E+00 -0.00000000000E+00 -0.41934273230E+03  0.41934273230E+03  0.00000000000E+00 0.  1.
          2    1    1    2  501    0 -0.35634234345E+02 -0.93322730809E+01 -0.18288681697E+02  0.41126218601E+02  0.00000000000E+00 0. -1.
          1    1    1    2  502    0  0.30405557171E+01  0.21450787650E+02 -0.36603355671E+03  0.36667416859E+03  0.00000000000E+00 0.  1.
         22    1    1    2    0    0  0.69856559805E+02 -0.45376056866E+02  0.12112567689E+03  0.14700460907E+03  0.00000000000E+00 0. -1.
         22    1    1    2    0    0 -0.37262881177E+02  0.33257542296E+02  0.49960639652E+02  0.70644546482E+02  0.00000000000E+00 0. -1.
</event>
<event>
 6    1  0.1293624E-005  0.2365075E+03  0.7818608E-02  0.1122142E+00
          2   -1    0    0  502    0  0.00000000000E+00  0.00000000000E+00  0.97469012484E+03  0.97469012484E+03  0.00000000000E+00 0.  1.
          1   -1    0    0  501    0 -0.00000000000E+00 -0.00000000000E+00 -0.30946283087E+02  0.30946283087E+02  0.00000000000E+00 0. -1.
          2    1    1    2  501    0 -0.49338003846E+02 -0.34320583595E+02  0.20296883842E+03  0.21168016074E+03  0.00000000000E+00 0.  1.
          1    1    1    2  502    0 -0.50402965539E+02  0.82488553657E+02  0.41979570530E+03  0.43078214286E+03  0.00000000000E+00 0. -1.
         22    1    1    2    0    0  0.21129976433E+02  0.43221723749E+02  0.72703960383E+02  0.87180612313E+02  0.00000000000E+00 0. -1.
         22    1    1    2    0    0  0.78610992952E+02 -0.91389693810E+02  0.24827533766E+03  0.27599349202E+03  0.00000000000E+00 0.  1.
</event>
<event>
 6    1  0.1308206E-005  0.4246639E+02  0.7818608E-02  0.1496017E+00
          2   -1    0    0  502    0  0.00000000000E+00  0.00000000000E+00  0.20814408764E+03  0.20814408764E+03  0.00000000000E+00 0. -1.
          1   -1    0    0  501    0 -0.00000000000E+00 -0.00000000000E+00 -0.14440276871E+04  0.14440276871E+04  0.00000000000E+00 0.  1.
          2    1    1    2  501    0  0.89923551650E+01 -0.19432912069E+02 -0.31748114516E+02  0.38294167940E+02  0.00000000000E+00 0. -1.
          1    1    1    2  502    0 -0.24660222806E+02 -0.10148359833E+02 -0.13869593666E+04  0.13872157008E+04  0.00000000000E+00 0.  1.
         22    1    1    2    0    0  0.16840714055E+02 -0.10226762564E+02 -0.15066972959E+02  0.24803427114E+02  0.00000000000E+00 0.  1.
         22    1    1    2    0    0 -0.11728464142E+01  0.39808034465E+02  0.19789085462E+03  0.20185847893E+03  0.00000000000E+00 0. -1.
</event>
<event>
 6    1  0.1293624E-005  0.1874103E+03  0.7818608E-02  0.1160818E+00
          2   -1    0    0  502    0  0.00000000000E+00  0.00000000000E+00  0.35035304048E+02  0.35035304048E+02  0.00000000000E+00 0.  1.
          1   -1    0    0  501    0 -0.00000000000E+00 -0.00000000000E+00 -0.48639661759E+03  0.48639661759E+03  0.00000000000E+00 0.  1.
          2    1    1    2  501    0 -0.39968808460E+02 -0.84431373969E+01 -0.31588425357E+02  0.51639334187E+02  0.00000000000E+00 0.  1.
          1    1    1    2  502    0 -0.26666993123E+02  0.39846148211E+02 -0.21240888560E+03  0.21775302233E+03  0.00000000000E+00 0.  1.
         22    1    1    2    0    0  0.21900862674E+02 -0.72256250054E+02 -0.74764348391E+02  0.10625592336E+03  0.00000000000E+00 0.  1.
         22    1    1    2    0    0  0.44734938909E+02  0.40853239240E+02 -0.13259965419E+03  0.14578364177E+03  0.00000000000E+00 0.  1.
</event>
<event>
 6    1  0.1293624E-005  0.4832601E+02  0.7818608E-02  0.1484252E+00
          2   -1    0    0  502    0  0.00000000000E+00  0.00000000000E+00  0.23773315388E+02  0.23773315388E+02  0.00000000000E+00 0.  1.
          1   -1    0    0  501    0 -0.00000000000E+00 -0.00000000000E+00 -0.99408317720E+03  0.99408317720E+03  0.00000000000E+00 0.  1.
          2    1    1    2  501    0 -0.11071054945E+02 -0.29616445755E+02 -0.18694619498E+03  0.18960111269E+03  0.00000000000E+00 0.  1.
          1    1    1    2  502    0 -0.10177311371E+02  0.34967845476E+02 -0.63539148533E+03  0.63643433872E+03  0.00000000000E+00 0.  1.
         22    1    1    2    0    0  0.81377331096E+01  0.30515800768E+02  0.68855809762E+01  0.32324108991E+02  0.00000000000E+00 0.  1.
         22    1    1    2    0    0  0.13110633206E+02 -0.35867200489E+02 -0.15485776249E+03  0.15949693219E+03  0.00000000000E+00 0.  1.
</event>
<event>
 6    1  0.1293624E-005  0.9158313E+02  0.7818608E-02  0.1302587E+00
          2   -1    0    0  502    0  0.00000000000E+00  0.00000000000E+00  0.25866664604E+03  0.25866664604E+03  0.00000000000E+00 0. -1.
          1   -1    0    0  501    0 -0.00000000000E+00 -0.00000000000E+00 -0.61184596941E+03  0.61184596941E+03  0.00000000000E+00 0.  1.
          2    1    1    2  501    0 -0.47088467598E+02 -0.13795458373E+02 -0.22423358009E+01  0.49118901884E+02  0.00000000000E+00 0. -1.
          1    1    1    2  502    0  0.54478943147E+02 -0.58495755048E+02 -0.56112837906E+03  0.56679340715E+03  0.00000000000E+00 0.  1.
         22    1    1    2    0    0  0.32028975787E+02  0.86873390331E+02  0.18137242619E+03  0.20363889171E+03  0.00000000000E+00 0. -1.
         22    1    1    2    0    0 -0.39419451335E+02 -0.14582176910E+02  0.28818965309E+02  0.50961414702E+02  0.00000000000E+00 0. -1.
</event>
<event>
 6    1  0.1293624E-005  0.3731629E+03  0.7818608E-02  0.1053490E+00
          2   -1    0    0  502    0  0.00000000000E+00  0.00000000000E+00  0.22164526002E+03  0.22164526002E+03  0.00000000000E+00 0. -1.
          1   -1    0    0  501    0 -0.00000000000E+00 -0.00000000000E+00 -0.25437013510E+04  0.25437013510E+04  0.00000000000E+00 0.  1.
          2    1    1    2  501    0  0.10431851062E+02  0.98727000953E+02 -0.41606125289E+02  0.10764252828E+03  0.00000000000E+00 0. -1.
          1    1    1    2  502    0  0.77379521458E+02  0.99547615960E+02 -0.23837810068E+04  0.23871131533E+04  0.00000000000E+00 0.  1.
         22    1    1    2    0    0 -0.93567999311E+02 -0.20802380838E+03  0.11403037986E+03  0.25501333863E+03  0.00000000000E+00 0. -1.
         22    1    1    2    0    0  0.57566267912E+01  0.97491914649E+01 -0.10699338759E+02  0.15577590832E+02  0.00000000000E+00 0.  1.
</event>
<event>
 6    1  0.1293624E-005  0.1588687E+03  0.7818608E-02  0.1189980E+00
          2   -1    0    0  502    0  0.00000000000E+00  0.00000000000E+00  0.72497477391E+03  0.72497477391E+03  0.00000000000E+00 0. -1.
          1   -1    0    0  501    0 -0.00000000000E+00 -0.00000000000E+00 -0.94022982624E+02  0.94022982624E+02  0.00000000000E+00 0.  1.
          2    1    1    2  501    0  0.70931938577E+01 -0.26906659715E+02  0.19240855563E+03  0.19441022097E+03  0.00000000000E+00 0. -1.
          1    1    1    2  502    0 -0.17470670875E+02  0.13345327585E+02 -0.83885956747E+02  0.86718947460E+02  0.00000000000E+00 0.  1.
         22    1    1    2    0    0  0.55348343608E+01 -0.51593685175E+02  0.12889317524E+03  0.13894600882E+03  0.00000000000E+00 0.  1.
         22    1    1    2    0    0  0.48426426567E+01  0.65155017306E+02  0.39353601716E+03  0.39892257929E+03  0.00000000000E+00 0. -1.
</event>
<event>
 6    1  0.1293624E-005  0.8284920E+02  0.7818608E-02  0.1324829E+00
          2   -1    0    0  502    0  0.00000000000E+00  0.00000000000E+00  0.22168950209E+03  0.22168950209E+03  0.00000000000E+00 0. -1.
          1   -1    0    0  501    0 -0.00000000000E+00 -0.00000000000E+00 -0.32117336083E+03  0.32117336083E+03  0.00000000000E+00 0.  1.
          2    1    1    2  501    0  0.14411887127E+01  0.51618611262E+02  0.69609135621E+02  0.86671735967E+02  0.00000000000E+00 0. -1.
          1    1    1    2  502    0  0.46065769941E+02 -0.35724119800E+01 -0.27630501389E+03  0.28014153207E+03  0.00000000000E+00 0.  1.
         22    1    1    2    0    0 -0.58255264796E+02 -0.71234548602E+02  0.33330422613E+02  0.97872130162E+02  0.00000000000E+00 0. -1.
         22    1    1    2    0    0  0.10748306142E+02  0.23188349320E+02  0.73881596914E+02  0.78177464730E+02  0.00000000000E+00 0. -1.
</event>
<event>
 6    1  0.1293624E-005  0.1599058E+03  0.7818608E-02  0.1188803E+00
          2   -1    0    0  502    0  0.00000000000E+00  0.00000000000E+00  0.31925934596E+03  0.31925934596E+03  0.00000000000E+00 0. -1.
          1   -1    0    0  501    0 -0.00000000000E+00 -0.00000000000E+00 -0.11967414627E+04  0.11967414627E+04  0.00000000000E+00 0. -1.
          2    1    1    2  501    0 -0.25253575778E+02 -0.17239675903E+02  0.36920746273E+02  0.47938408611E+02  0.00000000000E+00 0. -1.
          1    1    1    2  502    0  0.44333579439E+01  0.35885127278E+02 -0.11764234684E+04  0.11769790033E+04  0.00000000000E+00 0. -1.
         22    1    1    2    0    0  0.53426942088E+02 -0.52325934795E+02  0.19863735119E+03  0.21224805978E+03  0.00000000000E+00 0.  1.
         22    1    1    2    0    0 -0.32606724254E+02  0.33680483420E+02  0.63383254282E+02  0.78835336959E+02  0.00000000000E+00 0. -1.
</event>
<event>
 6    1  0.1293624E-005  0.1233367E+03  0.7818608E-02  0.1238533E+00
          2   -1    0    0  502    0  0.00000000000E+00  0.00000000000E+00  0.65568778148E+03  0.65568778148E+03  0.00000000000E+00 0. -1.
          1   -1    0    0  501    0 -0.00000000000E+00 -0.00000000000E+00 -0.21714213416E+03  0.21714213416E+03  0.00000000000E+00 0.  1.
          2    1    1    2  501    0  0.72660400617E+02 -0.19199060630E+02  0.65227783589E+02  0.99512820776E+02  0.00000000000E+00 0. -1.
          1    1    1    2  502    0  0.25692461539E+02 -0.44479616828E+01 -0.18744117686E+03  0.18924608774E+03  0.00000000000E+00 0.  1.
         22    1    1    2    0    0  0.26012835603E+02 -0.80418094381E+01  0.45104331081E+02  0.52685282551E+02  0.00000000000E+00 0. -1.
         22    1    1    2    0    0 -0.12436569776E+03  0.31688831751E+02  0.51565470951E+03  0.53138572457E+03  0.00000000000E+00 0. -1.
</event>
<event>
 6    1  0.1293624E-005  0.1522747E+03  0.7818608E-02  0.1227680E+00
          2   -1    0    0  502    0  0.00000000000E+00  0.00000000000E+00  0.47849218439E+02  0.47849218439E+02  0.00000000000E+00 0. -1.
          1   -1    0    0  501    0 -0.00000000000E+00 -0.00000000000E+00 -0.12287069691E+04  0.12287069691E+04  0.00000000000E+00 0.  1.
          2    1    1    2  501    0  0.21019780894E+02 -0.22620248155E+02 -0.70835701942E+02  0.77273562652E+02  0.00000000000E+00 0. -1.
          1    1    1    2  502    0 -0.15617134878E+03  0.73488004999E+02 -0.89879715382E+03  0.91521926377E+03  0.00000000000E+00 0.  1.
         22    1    1    2    0    0  0.51207233266E+02 -0.62130356612E+02 -0.33530352628E+02  0.87216090825E+02  0.00000000000E+00 0.  1.
         22    1    1    2    0    0  0.83944334620E+02  0.11262599767E+02 -0.17769454225E+03  0.19684727027E+03  0.00000000000E+00 0. -1.
</event>
<event>
 6    1  0.1293624E-005  0.1937628E+03  0.7818608E-02  0.1155111E+00
          2   -1    0    0  502    0  0.00000000000E+00  0.00000000000E+00  0.19360270205E+03  0.19360270205E+03  0.00000000000E+00 0.  1.
          1   -1    0    0  501    0 -0.00000000000E+00 -0.00000000000E+00 -0.26256995668E+03  0.26256995668E+03  0.00000000000E+00 0. -1.
          2    1    1    2  501    0 -0.45500287266E+02  0.12097182337E+02  0.39253057854E+02  0.61297801859E+02  0.00000000000E+00 0.  1.
          1    1    1    2  502    0  0.33652200330E+01 -0.78039549936E+02 -0.20503220793E+03  0.21940761688E+03  0.00000000000E+00 0. -1.
         22    1    1    2    0    0  0.31027613263E+02 -0.17866431072E+00 -0.22691455395E+02  0.38440172394E+02  0.00000000000E+00 0. -1.
         22    1    1    2    0    0  0.11107453970E+02  0.66121031909E+02  0.11950335083E+03  0.13702706759E+03  0.00000000000E+00 0.  1.
</event>
<event>
 6    1  0.1293624E-005  0.2953296E+03  0.7818608E-02  0.1087599E+00
          2   -1    0    0  502    0  0.00000000000E+00  0.00000000000E+00  0.25704707033E+03  0.25704707033E+03  0.00000000000E+00 0. -1.
          1   -1    0    0  501    0 -0.00000000000E+00 -0.00000000000E+00 -0.23638514430E+04  0.23638514430E+04  0.00000000000E+00 0.  1.
          2    1    1    2  501    0 -0.78684962279E+02  0.34293952810E+02  0.14116450861E+03  0.16521143114E+03  0.00000000000E+00 0. -1.
          1    1    1    2  502    0  0.13845582867E+03 -0.13221485792E+03 -0.22736515101E+04  0.22816971698E+04  0.00000000000E+00 0.  1.
         22    1    1    2    0    0 -0.14940989403E+02 -0.27887536563E+02  0.25175219776E+02  0.40431912528E+02  0.00000000000E+00 0.  1.
         22    1    1    2    0    0 -0.44829876986E+02  0.12580844167E+03  0.50740906782E+00  0.13355799987E+03  0.00000000000E+00 0. -1.
</event>
<event>
 6    1  0.1293624E-005  0.8335153E+02  0.7818608E-02  0.1369584E+00
          2   -1    0    0  502    0  0.00000000000E+00  0.00000000000E+00  0.24523516207E+03  0.24523516207E+03  0.00000000000E+00 0.  1.
          1   -1    0    0  501    0 -0.00000000000E+00 -0.00000000000E+00 -0.56417688082E+02  0.56417688082E+02  0.00000000000E+00 0.  1.
          2    1    1    2  501    0  0.21522092112E+02 -0.56802984145E+01  0.12392220759E+02  0.25476133425E+02  0.00000000000E+00 0.  1.
          1    1    1    2  502    0 -0.62291683547E+02  0.36663814329E+02  0.32566179263E+02  0.79278276672E+02  0.00000000000E+00 0.  1.
         22    1    1    2    0    0  0.25581358695E+02 -0.62948693013E+02  0.24221348298E+02  0.72136104539E+02  0.00000000000E+00 0.  1.
         22    1    1    2    0    0  0.15188232740E+02  0.31965177098E+02  0.11963772567E+03  0.12476233552E+03  0.00000000000E+00 0.  1.
</event>
<event>
 6    1  0.1293624E-005  0.3350736E+03  0.7818608E-02  0.1068914E+00
          2   -1    0    0  502    0  0.00000000000E+00  0.00000000000E+00  0.72891934107E+03  0.72891934107E+03  0.00000000000E+00 0.  1.
          1   -1    0    0  501    0 -0.00000000000E+00 -0.00000000000E+00 -0.68381263029E+03  0.68381263029E+03  0.00000000000E+00 0. -1.
          2    1    1    2  501    0 -0.40751790018E+02  0.99541664935E+02  0.75647745622E+02  0.13149841393E+03  0.00000000000E+00 0.  1.
          1    1    1    2  502    0 -0.29510531128E+02 -0.17283140573E+02 -0.64482844324E+03  0.64573469754E+03  0.00000000000E+00 0. -1.
         22    1    1    2    0    0  0.96284369297E+02 -0.82243186177E+02  0.57198164713E+03  0.58583071454E+03  0.00000000000E+00 0.  1.
         22    1    1    2    0    0 -0.26022048151E+02 -0.15338185105E-01  0.42305761278E+02  0.49668145350E+02  0.00000000000E+00 0. -1.
</event>
<event>
 6    1  0.1293624E-005  0.9140463E+02  0.7818608E-02  0.1301803E+00
          2   -1    0    0  502    0  0.00000000000E+00  0.00000000000E+00  0.64279971859E+03  0.64279971859E+03  0.00000000000E+00 0.  1.
          1   -1    0    0  501    0 -0.00000000000E+00 -0.00000000000E+00 -0.14907838251E+03  0.14907838251E+03  0.00000000000E+00 0.  1.
          2    1    1    2  501    0  0.41307287704E+02  0.29010347640E+02  0.18859136621E+03  0.19522959739E+03  0.00000000000E+00 0.  1.
          1    1    1    2  502    0 -0.37248867686E+02  0.24170937463E+01 -0.13343599686E+03  0.13855860039E+03  0.00000000000E+00 0.  1.
         22    1    1    2    0    0 -0.59441719505E+02 -0.40010380770E+02  0.18471002375E+03  0.19812102731E+03  0.00000000000E+00 0.  1.
         22    1    1    2    0    0  0.55383299487E+02  0.85829393839E+01  0.25385594297E+03  0.25996887601E+03  0.00000000000E+00 0.  1.
</event>
<event>
 6    1  0.1293624E-005  0.9325150E+02  0.7818608E-02  0.1301462E+00
          2   -1    0    0  502    0  0.00000000000E+00  0.00000000000E+00  0.35069233027E+03  0.35069233027E+03  0.00000000000E+00 0.  1.
          1   -1    0    0  501    0 -0.00000000000E+00 -0.00000000000E+00 -0.11633068537E+04  0.11633068537E+04  0.00000000000E+00 0.  1.
          2    1    1    2  501    0 -0.50070695035E+02 -0.31725810270E+02  0.82933911658E+02  0.10193937042E+03  0.00000000000E+00 0.  1.
          1    1    1    2  502    0  0.24517901353E+02  0.82943010671E+02 -0.11340514738E+04  0.11373448974E+04  0.00000000000E+00 0.  1.
         22    1    1    2    0    0  0.68503788560E+02 -0.61014311546E+02  0.14940884479E+03  0.17532403760E+03  0.00000000000E+00 0.  1.
         22    1    1    2    0    0 -0.42950994878E+02  0.97971111459E+01  0.89094193899E+02  0.99390878527E+02  0.00000000000E+00 0.  1.
</event>
<event>
 6    1  0.1293624E-005  0.2057274E+03  0.7818608E-02  0.1144995E+00
          2   -1    0    0  502    0  0.00000000000E+00  0.00000000000E+00  0.21552507340E+03  0.21552507340E+03  0.00000000000E+00 0. -1.
          1   -1    0    0  501    0 -0.00000000000E+00 -0.00000000000E+00 -0.99762479523E+02  0.99762479523E+02  0.00000000000E+00 0. -1.
          2    1    1    2  501    0  0.36118049125E+02  0.17639138643E+02 -0.15715602236E+02  0.43158230250E+02  0.00000000000E+00 0. -1.
          1    1    1    2  502    0 -0.66972201397E+02  0.35044535997E+02 -0.66773781457E+01  0.75881372168E+02  0.00000000000E+00 0. -1.
         22    1    1    2    0    0 -0.23327505597E+02 -0.75189915137E+02  0.62555878100E+02  0.10055313889E+03  0.00000000000E+00 0. -1.
         22    1    1    2    0    0  0.54181657869E+02  0.22506240497E+02  0.75599696159E+02  0.95694811615E+02  0.00000000000E+00 0. -1.
</event>
<event>
 6    1  0.1484193E-005  0.4459863E+03  0.7818608E-02  0.1028926E+00
          2   -1    0    0  502    0  0.00000000000E+00  0.00000000000E+00  0.25692704947E+03  0.25692704947E+03  0.00000000000E+00 0.  1.
          1   -1    0    0  501    0 -0.00000000000E+00 -0.00000000000E+00 -0.16425917842E+04  0.16425917842E+04  0.00000000000E+00 0. -1.
          2    1    1    2  501    0  0.27654936071E+03 -0.45818439513E+02  0.91583849383E+02  0.29490079650E+03  0.00000000000E+00 0.  1.
          1    1    1    2  502    0 -0.29469602030E+03 -0.10331842593E+02 -0.14218138313E+04  0.14520699233E+04  0.00000000000E+00 0. -1.
         22    1    1    2    0    0 -0.10697273239E+02  0.49465124029E+02 -0.92300462617E+02  0.10526445530E+03  0.00000000000E+00 0. -1.
         22    1    1    2    0    0  0.28843932829E+02  0.66851580780E+01  0.36865709842E+02  0.47283658506E+02  0.00000000000E+00 0. -1.
</event>
<event>
 6    1  0.1293624E-005  0.2577318E+03  0.7818608E-02  0.1108514E+00
          2   -1    0    0  502    0  0.00000000000E+00  0.00000000000E+00  0.83535703117E+03  0.83535703117E+03  0.00000000000E+00 0.  1.
          1   -1    0    0  501    0 -0.00000000000E+00 -0.00000000000E+00 -0.55864617874E+02  0.55864617874E+02  0.00000000000E+00 0.  1.
          2    1    1    2  501    0  0.69450779682E+01 -0.36391118208E+02  0.27918522031E+02  0.46389562024E+02  0.00000000000E+00 0.  1.
          1    1    1    2  502    0 -0.50386785566E+02 -0.10803743582E+03  0.74449053560E+02  0.14054742002E+03  0.00000000000E+00 0.  1.
         22    1    1    2    0    0  0.63731080505E+01 -0.21271784824E+02  0.52738300645E+02  0.57222667630E+02  0.00000000000E+00 0. -1.
         22    1    1    2    0    0  0.37068599547E+02  0.16570033885E+03  0.62438653706E+03  0.64706199937E+03  0.00000000000E+00 0.  1.
</event>
<event>
 6    1  0.1426690E-005  0.6362973E+02  0.7818608E-02  0.1383999E+00
          2   -1    0    0  502    0  0.00000000000E+00  0.00000000000E+00  0.10549827094E+03  0.10549827094E+03  0.00000000000E+00 0.  1.
          1   -1    0    0  501    0 -0.00000000000E+00 -0.00000000000E+00 -0.72937377553E+03  0.72937377553E+03  0.00000000000E+00 0. -1.
          2    1    1    2  501    0  0.11134256043E+02  0.17644456989E+02 -0.23903064622E+02  0.31727827193E+02  0.00000000000E+00 0.  1.
          1    1    1    2  502    0 -0.40197880838E+02  0.31308956383E+02 -0.65439235745E+03  0.65637297161E+03  0.00000000000E+00 0. -1.
         22    1    1    2    0    0  0.46021666410E+01 -0.68038527354E+02  0.81023000502E+02  0.10590159467E+03  0.00000000000E+00 0.  1.
         22    1    1    2    0    0  0.24461458154E+02  0.19085113982E+02 -0.26603083014E+02  0.40869653003E+02  0.00000000000E+00 0.  1.
</event>
<event>
 6    1  0.1293624E-005  0.3882585E+03  0.7818608E-02  0.1047923E+00
          2   -1    0    0  502    0  0.00000000000E+00  0.00000000000E+00  0.43710963479E+03  0.43710963479E+03  0.00000000000E+00 0.  1.
          1   -1    0    0  501    0 -0.00000000000E+00 -0.00000000000E+00 -0.26500148606E+03  0.26500148606E+03  0.00000000000E+00 0.  1.
          2    1    1    2  501    0 -0.72107172352E+02  0.81930215345E+02 -0.94109265728E+01  0.10954711329E+03  0.00000000000E+00 0.  1.
          1    1    1    2  502    0 -0.50515186619E+02  0.25622216524E+02 -0.17337724413E+03  0.18239504061E+03  0.00000000000E+00 0.  1.
         22    1    1    2    0    0  0.13690359657E+03 -0.12308661015E+03  0.32594972241E+03  0.37434760570E+03  0.00000000000E+00 0.  1.
         22    1    1    2    0    0 -0.14281237601E+02  0.15534178284E+02  0.28946597020E+02  0.35821361245E+02  0.00000000000E+00 0.  1.
</event>
<event>
 6    1  0.1293624E-005  0.1885499E+03  0.7818608E-02  0.1159776E+00
          2   -1    0    0  502    0  0.00000000000E+00  0.00000000000E+00  0.18383094341E+03  0.18383094341E+03  0.00000000000E+00 0. -1.
          1   -1    0    0  501    0 -0.00000000000E+00 -0.00000000000E+00 -0.18977015429E+03  0.18977015429E+03  0.00000000000E+00 0. -1.
          2    1    1    2  501    0 -0.39919929113E+02 -0.10963779543E+02  0.23628016595E+02  0.47666428128E+02  0.00000000000E+00 0. -1.
          1    1    1    2  502    0  0.29278573989E+02  0.81298260248E+02 -0.12400080868E+03  0.15113848804E+03  0.00000000000E+00 0. -1.
         22    1    1    2    0    0  0.19084700505E+02 -0.85748318784E+01 -0.29443363856E+02  0.36120149643E+02  0.00000000000E+00 0.  1.
         22    1    1    2    0    0 -0.84433453803E+01 -0.61759648827E+02  0.12387694505E+03  0.13867603189E+03  0.00000000000E+00 0. -1.
</event>
<event>
 6    1  0.1293624E-005  0.2158430E+03  0.7818608E-02  0.1137021E+00
          2   -1    0    0  502    0  0.00000000000E+00  0.00000000000E+00  0.39290455665E+03  0.39290455665E+03  0.00000000000E+00 0. -1.
          1   -1    0    0  501    0 -0.00000000000E+00 -0.00000000000E+00 -0.18576843274E+03  0.18576843274E+03  0.00000000000E+00 0.  1.
          2    1    1    2  501    0 -0.43417412721E+02 -0.26410471703E+02  0.47998264502E+02  0.69902919382E+02  0.00000000000E+00 0. -1.
          1    1    1    2  502    0  0.10859816731E+02  0.11932241857E+03 -0.13099348969E+03  0.17752484202E+03  0.00000000000E+00 0.  1.
         22    1    1    2    0    0  0.74198158609E+02 -0.90231206819E+02  0.23119229716E+03  0.25903072345E+03  0.00000000000E+00 0. -1.
         22    1    1    2    0    0 -0.41640562619E+02 -0.26807400436E+01  0.58939051935E+02  0.72214504536E+02  0.00000000000E+00 0. -1.
</event>
<event>
 6    1  0.1293624E-005  0.2648422E+03  0.7818608E-02  0.1104268E+00
          2   -1    0    0  502    0  0.00000000000E+00  0.00000000000E+00  0.28852736779E+03  0.28852736779E+03  0.00000000000E+00 0. -1.
          1   -1    0    0  501    0 -0.00000000000E+00 -0.00000000000E+00 -0.17362060604E+04  0.17362060604E+04  0.00000000000E+00 0. -1.
          2    1    1    2  501    0  0.23273589261E+02  0.61213487661E+02 -0.18760826005E+02  0.68122827460E+02  0.00000000000E+00 0. -1.
          1    1    1    2  502    0 -0.28833221170E+02 -0.94809471151E+01 -0.16752643068E+04  0.16755392388E+04  0.00000000000E+00 0. -1.
         22    1    1    2    0    0  0.48557591657E+02  0.66986623362E+01  0.43119842679E+02  0.65284244786E+02  0.00000000000E+00 0. -1.
         22    1    1    2    0    0 -0.42997959747E+02 -0.58431202882E+02  0.20322659751E+03  0.21578711720E+03  0.00000000000E+00 0. -1.
</event>
<event>
 6    1  0.1293624E-005  0.2092410E+03  0.7818608E-02  0.1142168E+00
          2   -1    0    0  502    0  0.00000000000E+00  0.00000000000E+00  0.39225451397E+03  0.39225451397E+03  0.00000000000E+00 0. -1.
          1   -1    0    0  501    0 -0.00000000000E+00 -0.00000000000E+00 -0.15880268562E+03  0.15880268562E+03  0.00000000000E+00 0. -1.
          2    1    1    2  501    0  0.58395882524E+00  0.36361861645E+02  0.68554808598E+02  0.77603400519E+02  0.00000000000E+00 0. -1.
          1    1    1    2  502    0  0.10473574615E+03  0.10335947672E+02 -0.10786887262E+03  0.15070534833E+03  0.00000000000E+00 0. -1.
         22    1    1    2    0    0 -0.10396340536E+03 -0.83575610516E+02  0.23312064078E+03  0.26858612303E+03  0.00000000000E+00 0.  1.
         22    1    1    2    0    0 -0.13562996167E+01  0.36877801199E+02  0.39645251583E+02  0.54162327710E+02  0.00000000000E+00 0.  1.
</event>
<event>
 6    1  0.1293624E-005  0.7971665E+02  0.7818608E-02  0.1336522E+00
          2   -1    0    0  502    0  0.00000000000E+00  0.00000000000E+00  0.49523531449E+03  0.49523531449E+03  0.00000000000E+00 0.  1.
          1   -1    0    0  501    0 -0.00000000000E+00 -0.00000000000E+00 -0.12684249882E+03  0.12684249882E+03  0.00000000000E+00 0. -1.
          2    1    1    2  501    0 -0.13216213633E+02  0.21749780067E+02  0.49916719758E+02  0.56030350232E+02  0.00000000000E+00 0.  1.
          1    1    1    2  502    0 -0.69915893891E+00  0.20424699970E+02 -0.11354539580E+03  0.11536990119E+03  0.00000000000E+00 0. -1.
         22    1    1    2    0    0 -0.49081316446E+02 -0.18746549927E+01  0.11681482671E+03  0.12672092840E+03  0.00000000000E+00 0.  1.
         22    1    1    2    0    0  0.62996689019E+02 -0.40299825045E+02  0.31520666499E+03  0.32395663349E+03  0.00000000000E+00 0.  1.
</event>
<event>
 6    1  0.1293624E-005  0.9284364E+02  0.7818608E-02  0.1302910E+00
          2   -1    0    0  502    0  0.00000000000E+00  0.00000000000E+00  0.33730723737E+03  0.33730723737E+03  0.00000000000E+00 0. -1.
          1   -1    0    0  501    0 -0.00000000000E+00 -0.00000000000E+00 -0.10206078714E+04  0.10206078714E+04  0.00000000000E+00 0. -1.
          2    1    1    2  501    0 -0.45266057612E+02 -0.12204030740E+02  0.49563933570E+02  0.68224173494E+02  0.00000000000E+00 0. -1.
          1    1    1    2  502    0  0.37261707661E+02 -0.20571147889E+02 -0.99587717272E+03  0.99678631117E+03  0.00000000000E+00 0. -1.
         22    1    1    2    0    0  0.62692009006E+02  0.33017269599E+02  0.11458378577E+03  0.13472146097E+03  0.00000000000E+00 0. -1.
         22    1    1    2    0    0 -0.54687659054E+02 -0.24209097016E+00  0.14842881939E+03  0.15818316310E+03  0.00000000000E+00 0. -1.
</event>
<event>
 6    1  0.1293624E-005  0.9795287E+02  0.7818608E-02  0.1347858E+00
          2   -1    0    0  502    0  0.00000000000E+00  0.00000000000E+00  0.32114162273E+02  0.32114162273E+02  0.00000000000E+00 0. -1.
          1   -1    0    0  501    0 -0.00000000000E+00 -0.00000000000E+00 -0.11154984741E+04  0.11154984741E+04  0.00000000000E+00 0. -1.
          2    1    1    2  501    0  0.50385630599E+02  0.31459427319E+02 -0.21378987938E+03  0.22188853026E+03  0.00000000000E+00 0. -1.
          1    1    1    2  502    0 -0.82412797737E+02 -0.40704259740E+02 -0.73353519707E+03  0.73927166274E+03  0.00000000000E+00 0. -1.
         22    1    1    2    0    0  0.37249540707E+01 -0.31216931746E+02  0.94219927019E+01  0.32819903366E+02  0.00000000000E+00 0. -1.
         22    1    1    2    0    0  0.28302213068E+02  0.40461764167E+02 -0.14548122811E+03  0.15363254003E+03  0.00000000000E+00 0. -1.
</event>
<event>
 6    1  0.1293624E-005  0.5603586E+03  0.7818608E-02  0.9991244E-01
          2   -1    0    0  502    0  0.00000000000E+00  0.00000000000E+00  0.13207744426E+04  0.13207744426E+04  0.00000000000E+00 0.  1.
          1   -1    0    0  501    0 -0.00000000000E+00 -0.00000000000E+00 -0.88917187366E+02  0.88917187366E+02  0.00000000000E+00 0.  1.
          2    1    1    2  501    0  0.13273495993E+03  0.21633525369E+03  0.33514932184E+03  0.42041001357E+03  0.00000000000E+00 0.  1.
          1    1    1    2  502    0  0.13802959534E+02 -0.46865077081E+02 -0.76069275143E+01  0.49444135020E+02  0.00000000000E+00 0.  1.
         22    1    1    2    0    0 -0.13278828565E+03 -0.17645799590E+03  0.89494727915E+03  0.92179215965E+03  0.00000000000E+00 0.  1.
         22    1    1    2    0    0 -0.13749633817E+02  0.69878192859E+01  0.93675817583E+01  0.18045321734E+02  0.00000000000E+00 0. -1.
</event>
<event>
 6    1  0.1293624E-005  0.1091731E+03  0.7818608E-02  0.1295446E+00
          2   -1    0    0  502    0  0.00000000000E+00  0.00000000000E+00  0.58063990960E+03  0.58063990960E+03  0.00000000000E+00 0.  1.
          1   -1    0    0  501    0 -0.00000000000E+00 -0.00000000000E+00 -0.10893795291E+03  0.10893795291E+03  0.00000000000E+00 0.  1.
          2    1    1    2  501    0 -0.66185012557E+02  0.55628115333E+02  0.26783859389E+03  0.28144707403E+03  0.00000000000E+00 0.  1.
          1    1    1    2  502    0  0.58672587769E+02 -0.76613905865E+02 -0.61799740362E+02  0.11459219448E+03  0.00000000000E+00 0.  1.
         22    1    1    2    0    0 -0.45558349301E+02  0.43906807220E+02  0.10270411285E+03  0.12062962202E+03  0.00000000000E+00 0.  1.
         22    1    1    2    0    0  0.53070774089E+02 -0.22921016688E+02  0.16295899030E+03  0.17290897198E+03  0.00000000000E+00 0.  1.
</event>
<event>
 6    1  0.1293624E-005  0.1313833E+03  0.7818608E-02  0.1228453E+00
          2   -1    0    0  502    0  0.00000000000E+00  0.00000000000E+00  0.43774651031E+03  0.43774651031E+03  0.00000000000E+00 0.  1.
          1   -1    0    0  501    0 -0.00000000000E+00 -0.00000000000E+00 -0.18727808202E+03  0.18727808202E+03  0.00000000000E+00 0. -1.
          2    1    1    2  501    0  0.99526784779E+02  0.60411208000E+02  0.17265331960E+03  0.20824087906E+03  0.00000000000E+00 0.  1.
          1    1    1    2  502    0 -0.51521195416E+02  0.63856875062E+00 -0.14279803322E+03  0.15180948468E+03  0.00000000000E+00 0. -1.
         22    1    1    2    0    0  0.41084113108E+02 -0.47909919873E+01  0.65016932920E+02  0.77058805600E+02  0.00000000000E+00 0.  1.
         22    1    1    2    0    0 -0.89089702471E+02 -0.56258784764E+02  0.15559620898E+03  0.18791542299E+03  0.00000000000E+00 0.  1.
</event>
<event>
 6    1  0.1425518E-005  0.4441847E+03  0.7818608E-02  0.1053425E+00
          2   -1    0    0  502    0  0.00000000000E+00  0.00000000000E+00  0.19905223010E+04  0.19905223010E+04  0.00000000000E+00 0. -1.
          1   -1    0    0  501    0 -0.00000000000E+00 -0.00000000000E+00 -0.20237636313E+03  0.20237636313E+03  0.00000000000E+00 0. -1.
          2    1    1    2  501    0 -0.31294781439E+03 -0.25194399761E+03  0.57423525452E+03  0.70082682597E+03  0.00000000000E+00 0. -1.
          1    1    1    2  502    0  0.20232918593E+03  0.43055296039E+03  0.34169662821E+03  0.58572138164E+03  0.00000000000E+00 0. -1.
         22    1    1    2    0    0 -0.20087578157E+02  0.42439157851E+00  0.35711416838E+02  0.40975556092E+02  0.00000000000E+00 0. -1.
         22    1    1    2    0    0  0.13070620661E+03 -0.17903335435E+03  0.83650263829E+03  0.86537490042E+03  0.00000000000E+00 0. -1.
</event>
<event>
 6    1  0.1293624E-005  0.2316815E+03  0.7818608E-02  0.1125462E+00
          2   -1    0    0  502    0  0.00000000000E+00  0.00000000000E+00  0.12887224023E+03  0.12887224023E+03  0.00000000000E+00 0. -1.
          1   -1    0    0  501    0 -0.00000000000E+00 -0.00000000000E+00 -0.35443310479E+03  0.35443310479E+03  0.00000000000E+00 0.  1.
          2    1    1    2  501    0 -0.17332768091E+01  0.37702420552E+02 -0.52428614967E+02  0.64600591571E+02  0.00000000000E+00 0. -1.
          1    1    1    2  502    0 -0.70564775098E+02  0.12953828320E+02 -0.24066594198E+03  0.25113200668E+03  0.00000000000E+00 0.  1.
         22    1    1    2    0    0  0.83974560420E+01  0.35250374974E+02 -0.72757437273E+01  0.36960014212E+02  0.00000000000E+00 0. -1.
         22    1    1    2    0    0  0.63900595865E+02 -0.85906623845E+02  0.74809436110E+02  0.13061273255E+03  0.00000000000E+00 0. -1.
</event>
<event>
 6    1  0.1293624E-005  0.4689273E+02  0.7818608E-02  0.1464645E+00
          2   -1    0    0  502    0  0.00000000000E+00  0.00000000000E+00  0.21051370280E+03  0.21051370280E+03  0.00000000000E+00 0. -1.
          1   -1    0    0  501    0 -0.00000000000E+00 -0.00000000000E+00 -0.39144647104E+03  0.39144647104E+03  0.00000000000E+00 0. -1.
          2    1    1    2  501    0  0.13987423102E+02  0.17977430136E+02 -0.19718649292E+02  0.30127414911E+02  0.00000000000E+00 0. -1.
          1    1    1    2  502    0  0.21643205502E+02 -0.11919939096E+02 -0.34464902740E+03  0.34553359515E+03  0.00000000000E+00 0. -1.
         22    1    1    2    0    0  0.33090128701E+01  0.19101885796E+02 -0.13730744637E+02  0.23756366629E+02  0.00000000000E+00 0. -1.
         22    1    1    2    0    0 -0.38939641474E+02 -0.25159376835E+02  0.19716565309E+03  0.20254279715E+03  0.00000000000E+00 0. -1.
</event>
<event>
 6    1  0.1293624E-005  0.1383740E+03  0.7818608E-02  0.1243783E+00
          2   -1    0    0  502    0  0.00000000000E+00  0.00000000000E+00  0.22653784074E+03  0.22653784074E+03  0.00000000000E+00 0.  1.
          1   -1    0    0  501    0 -0.00000000000E+00 -0.00000000000E+00 -0.18591194683E+03  0.18591194683E+03  0.00000000000E+00 0.  1.
          2    1    1    2  501    0  0.60871769252E+02 -0.29964185459E+01  0.74784971133E+01  0.61402595508E+02  0.00000000000E+00 0.  1.
          1    1    1    2  502    0 -0.13735925838E+03 -0.22004029796E+02 -0.83485227789E+02  0.16223910271E+03  0.00000000000E+00 0.  1.
         22    1    1    2    0    0  0.27969866075E+02  0.71941050351E+02  0.83145683115E+02  0.11345057406E+03  0.00000000000E+00 0.  1.
         22    1    1    2    0    0  0.48517623050E+02 -0.46940602010E+02  0.33486941470E+02  0.75357515302E+02  0.00000000000E+00 0.  1.
</event>
<event>
 6    1  0.1293624E-005  0.3024213E+03  0.7818608E-02  0.1084036E+00
          2   -1    0    0  502    0  0.00000000000E+00  0.00000000000E+00  0.93517963840E+03  0.93517963840E+03  0.00000000000E+00 0.  1.
          1   -1    0    0  501    0 -0.00000000000E+00 -0.00000000000E+00 -0.73406490131E+03  0.73406490131E+03  0.00000000000E+00 0.  1.
          2    1    1    2  501    0  0.54791683706E+02 -0.64673073037E+02  0.28606736952E+03  0.29836098083E+03  0.00000000000E+00 0.  1.
          1    1    1    2  502    0  0.76808100965E+02  0.18076936856E+03 -0.69565691862E+03  0.72285240362E+03  0.00000000000E+00 0.  1.
         22    1    1    2    0    0 -0.15546514904E+03 -0.90887906301E+02  0.54055293764E+03  0.56976091694E+03  0.00000000000E+00 0.  1.
         22    1    1    2    0    0  0.23865364369E+02 -0.25208389227E+02  0.70151348555E+02  0.78270238328E+02  0.00000000000E+00 0.  1.
</event>
<event>
 6    1  0.1293624E-005  0.2165256E+03  0.7818608E-02  0.1136500E+00
          2   -1    0    0  502    0  0.00000000000E+00  0.00000000000E+00  0.97645196712E+03  0.97645196712E+03  0.00000000000E+00 0.  1.
          1   -1    0    0  501    0 -0.00000000000E+00 -0.00000000000E+00 -0.41945659931E+02  0.41945659931E+02  0.00000000000E+00 0.  1.
          2    1    1    2  501    0 -0.27347704608E+02 -0.27911654997E+02  0.89128986812E+02  0.97318722363E+02  0.00000000000E+00 0.  1.
          1    1    1    2  502    0  0.18836486866E+02 -0.80221431436E+02  0.28990668755E+02  0.87354165178E+02  0.00000000000E+00 0.  1.
         22    1    1    2    0    0 -0.33006975076E+02 -0.17123903683E+02  0.17822090134E+03  0.18205872172E+03  0.00000000000E+00 0.  1.
         22    1    1    2    0    0  0.41518192818E+02  0.12525699012E+03  0.63816575028E+03  0.65166601779E+03  0.00000000000E+00 0.  1.
</event>
<event>
 6    1  0.1293624E-005  0.2061609E+03  0.7818608E-02  0.1144643E+00
          2   -1    0    0  502    0  0.00000000000E+00  0.00000000000E+00  0.13534329471E+03  0.13534329471E+03  0.00000000000E+00 0. -1.
          1   -1    0    0  501    0 -0.00000000000E+00 -0.00000000000E+00 -0.22570506841E+03  0.22570506841E+03  0.00000000000E+00 0. -1.
          2    1    1    2  501    0 -0.21855906141E+02  0.27014411614E+02 -0.30384137034E+02  0.46159017011E+02  0.00000000000E+00 0. -1.
          1    1    1    2  502    0  0.73858673994E+02  0.42451318622E+02 -0.12573318223E+03  0.15187511742E+03  0.00000000000E+00 0. -1.
         22    1    1    2    0    0 -0.52087358343E+02 -0.86380863033E+02  0.88827093452E+02  0.13440609707E+03  0.00000000000E+00 0. -1.
         22    1    1    2    0    0  0.84590490043E-01  0.16915132797E+02 -0.23071547882E+02  0.28608131620E+02  0.00000000000E+00 0. -1.
</event>
<event>
 6    1  0.1293624E-005  0.1146421E+03  0.7818608E-02  0.1339867E+00
          2   -1    0    0  502    0  0.00000000000E+00  0.00000000000E+00  0.17593381791E+03  0.17593381791E+03  0.00000000000E+00 0. -1.
          1   -1    0    0  501    0 -0.00000000000E+00 -0.00000000000E+00 -0.39156812847E+03  0.39156812847E+03  0.00000000000E+00 0.  1.
          2    1    1    2  501    0  0.35829682504E+02  0.13345387023E+01 -0.19883946358E+02  0.40999005654E+02  0.00000000000E+00 0. -1.
          1    1    1    2  502    0 -0.11032053326E+03  0.35178623715E+02 -0.31291069926E+03  0.33364840976E+03  0.00000000000E+00 0.  1.
         22    1    1    2    0    0  0.61527126172E+02 -0.18118719457E+02 -0.89421451181E+01  0.64759842565E+02  0.00000000000E+00 0. -1.
         22    1    1    2    0    0  0.12963724582E+02 -0.18394442961E+02  0.12610248018E+03  0.12809468840E+03  0.00000000000E+00 0. -1.
</event>
<event>
 6    1  0.1293624E-005  0.1032228E+03  0.7818608E-02  0.1276669E+00
          2   -1    0    0  502    0  0.00000000000E+00  0.00000000000E+00  0.10519037656E+04  0.10519037656E+04  0.00000000000E+00 0. -1.
          1   -1    0    0  501    0 -0.00000000000E+00 -0.00000000000E+00 -0.69996411255E+03  0.69996411255E+03  0.00000000000E+00 0. -1.
          2    1    1    2  501    0  0.78993477313E+02  0.25072540063E+01  0.41493046632E+03  0.42239027884E+03  0.00000000000E+00 0. -1.
          1    1    1    2  502    0 -0.38192457476E+02 -0.48445208222E+01 -0.68854149219E+03  0.68961693690E+03  0.00000000000E+00 0. -1.
         22    1    1    2    0    0  0.42964919920E+02  0.13417392653E+02  0.14137550362E+03  0.14836793385E+03  0.00000000000E+00 0. -1.
         22    1    1    2    0    0 -0.83765939757E+02 -0.11080125837E+02  0.48417517529E+03  0.49149272855E+03  0.00000000000E+00 0. -1.
</event>
<event>
 6    1  0.1293624E-005  0.1710275E+03  0.7818608E-02  0.1176781E+00
          2   -1    0    0  502    0  0.00000000000E+00  0.00000000000E+00  0.21234731084E+02  0.21234731084E+02  0.00000000000E+00 0. -1.
          1   -1    0    0  501    0 -0.00000000000E+00 -0.00000000000E+00 -0.66256368596E+03  0.66256368596E+03  0.00000000000E+00 0. -1.
          2    1    1    2  501    0  0.34419015509E+02  0.30679354086E+02 -0.12747309066E+03  0.13555545079E+03  0.00000000000E+00 0. -1.
          1    1    1    2  502    0 -0.31033588964E+02 -0.20821203819E+02 -0.29691820634E+03  0.29926080169E+03  0.00000000000E+00 0. -1.
         22    1    1    2    0    0  0.50742353421E+02 -0.87018571752E+01 -0.16900461078E+03  0.17667220272E+03  0.00000000000E+00 0. -1.
         22    1    1    2    0    0 -0.54127779966E+02 -0.11562930916E+01 -0.47933047083E+02  0.72309961834E+02  0.00000000000E+00 0. -1.
</event>
<event>
 6    1  0.1293624E-005  0.5594803E+02  0.7818608E-02  0.1417772E+00
          2   -1    0    0  502    0  0.00000000000E+00  0.00000000000E+00  0.21963449183E+03  0.21963449183E+03  0.00000000000E+00 0.  1.
          1   -1    0    0  501    0 -0.00000000000E+00 -0.00000000000E+00 -0.16998810855E+03  0.16998810855E+03  0.00000000000E+00 0.  1.
          2    1    1    2  501    0 -0.24738044652E+01  0.21815601084E+02  0.97711171733E+02  0.10014745748E+03  0.00000000000E+00 0.  1.
          1    1    1    2  502    0 -0.23042503405E+02  0.18212922957E+02 -0.12775495504E+03  0.13108774185E+03  0.00000000000E+00 0.  1.
         22    1    1    2    0    0  0.29381136028E-01  0.30309385631E+02  0.77860515358E+02  0.83551897479E+02  0.00000000000E+00 0.  1.
         22    1    1    2    0    0  0.25486926734E+02 -0.70337909672E+02  0.18296512296E+01  0.74835503573E+02  0.00000000000E+00 0. -1.
</event>
<event>
 6    1  0.1293624E-005  0.2867408E+03  0.7818608E-02  0.1092063E+00
          2   -1    0    0  502    0  0.00000000000E+00  0.00000000000E+00  0.81827016911E+03  0.81827016911E+03  0.00000000000E+00 0.  1.
          1   -1    0    0  501    0 -0.00000000000E+00 -0.00000000000E+00 -0.63161275178E+02  0.63161275178E+02  0.00000000000E+00 0. -1.
          2    1    1    2  501    0 -0.98375406688E+02 -0.50165119828E+02  0.11201208496E+03  0.15729261605E+03  0.00000000000E+00 0.  1.
          1    1    1    2  502    0  0.15872154329E+03 -0.61361019368E+01  0.18929810944E+03  0.24711121846E+03  0.00000000000E+00 0. -1.
         22    1    1    2    0    0 -0.54131272074E+02 -0.23009855370E+02  0.27667979686E+03  0.28286279015E+03  0.00000000000E+00 0.  1.
         22    1    1    2    0    0 -0.62148645244E+01  0.79311077134E+02  0.17711890268E+03  0.19416481963E+03  0.00000000000E+00 0.  1.
</event>
<event>
 6    1  0.1445487E-005  0.2501898E+03  0.7818608E-02  0.1113517E+00
          2   -1    0    0  502    0  0.00000000000E+00  0.00000000000E+00  0.16569184725E+04  0.16569184725E+04  0.00000000000E+00 0.  1.
          1   -1    0    0  501    0 -0.00000000000E+00 -0.00000000000E+00 -0.52636447585E+03  0.52636447585E+03  0.00000000000E+00 0.  1.
          2    1    1    2  501    0 -0.61982797898E+02 -0.13883254499E+03  0.71540506398E+02  0.16803091037E+03  0.00000000000E+00 0.  1.
          1    1    1    2  502    0 -0.88248267079E+01 -0.11193418102E+03 -0.45756473848E+03  0.47113971213E+03  0.00000000000E+00 0.  1.
         22    1    1    2    0    0  0.79242413052E+02  0.25725790781E+03  0.15027148287E+04  0.15266344840E+04  0.00000000000E+00 0.  1.
         22    1    1    2    0    0 -0.84347884461E+01 -0.64911817925E+01  0.13863400049E+02  0.17477841918E+02  0.00000000000E+00 0.  1.
</event>
<event>
 6    1  0.1293624E-005  0.3434524E+03  0.7818608E-02  0.1065335E+00
          2   -1    0    0  502    0  0.00000000000E+00  0.00000000000E+00  0.70760522701E+03  0.70760522701E+03  0.00000000000E+00 0. -1.
          1   -1    0    0  501    0 -0.00000000000E+00 -0.00000000000E+00 -0.14783592705E+03  0.14783592705E+03  0.00000000000E+00 0. -1.
          2    1    1    2  501    0 -0.14699480613E+03 -0.68290349470E+02  0.20503568514E+03  0.26136311339E+03  0.00000000000E+00 0. -1.
          1    1    1    2  502    0  0.50285677053E+02  0.10852142366E+03 -0.69654484109E+02  0.13840988356E+03  0.00000000000E+00 0. -1.
         22    1    1    2    0    0 -0.23837204943E+02  0.17897951435E+02  0.51673921142E+02  0.59655202047E+02  0.00000000000E+00 0. -1.
         22    1    1    2    0    0  0.12054633402E+03 -0.58129025623E+02  0.37271417779E+03  0.39601295508E+03  0.00000000000E+00 0. -1.
</event>
<event>
 6    1  0.1293624E-005  0.1291772E+03  0.7818608E-02  0.1254683E+00
          2   -1    0    0  502    0  0.00000000000E+00  0.00000000000E+00  0.22168663888E+02  0.22168663888E+02  0.00000000000E+00 0. -1.
          1   -1    0    0  501    0 -0.00000000000E+00 -0.00000000000E+00 -0.15306534801E+04  0.15306534801E+04  0.00000000000E+00 0.  1.
          2    1    1    2  501    0  0.38820932022E+02 -0.70829757771E+02 -0.45639060022E+03  0.46348279290E+03  0.00000000000E+00 0. -1.
          1    1    1    2  502    0  0.14836060096E+02  0.11875944358E+03 -0.66559677248E+03  0.67627137871E+03  0.00000000000E+00 0.  1.
         22    1    1    2    0    0 -0.75254251144E+02  0.12514724933E+02 -0.15380761104E+03  0.17168751227E+03  0.00000000000E+00 0. -1.
         22    1    1    2    0    0  0.21597259026E+02 -0.60444410740E+02 -0.23268983247E+03  0.24138046011E+03  0.00000000000E+00 0. -1.
</event>
<event>
 6    1  0.1293624E-005  0.7160976E+02  0.7818608E-02  0.1358305E+00
          2   -1    0    0  502    0  0.00000000000E+00  0.00000000000E+00  0.66302999772E+02  0.66302999772E+02  0.00000000000E+00 0. -1.
          1   -1    0    0  501    0 -0.00000000000E+00 -0.00000000000E+00 -0.75933368473E+03  0.75933368473E+03  0.00000000000E+00 0. -1.
          2    1    1    2  501    0 -0.38118147919E+02 -0.15969257448E+01 -0.60786240178E+02  0.71767056283E+02  0.00000000000E+00 0. -1.
          1    1    1    2  502    0  0.21147641667E+02  0.19325610067E+02 -0.62680329175E+03  0.62745762287E+03  0.00000000000E+00 0. -1.
         22    1    1    2    0    0  0.59750038732E+02 -0.26544768264E+02  0.28275996603E+02  0.71233586423E+02  0.00000000000E+00 0. -1.
         22    1    1    2    0    0 -0.42779532481E+02  0.88160839421E+01 -0.33717149630E+02  0.55178418921E+02  0.00000000000E+00 0. -1.
</event>
<event>
 6    1  0.1293624E-005  0.1921286E+03  0.7818608E-02  0.1156555E+00
          2   -1    0    0  502    0  0.00000000000E+00  0.00000000000E+00  0.13371082688E+03  0.13371082688E+03  0.00000000000E+00 0. -1.
          1   -1    0    0  501    0 -0.00000000000E+00 -0.00000000000E+00 -0.17750467700E+03  0.17750467700E+03  0.00000000000E+00 0. -1.
          2    1    1    2  501    0 -0.29933629596E+02 -0.83945595619E+01 -0.38709309659E+01  0.31328500084E+02  0.00000000000E+00 0. -1.
          1    1    1    2  502    0  0.15659601534E+02 -0.90949282665E+02 -0.71968711635E+02  0.11703200670E+03  0.00000000000E+00 0. -1.
         22    1    1    2    0    0 -0.26208765146E+02 -0.20234469925E+02  0.25433153992E+01  0.33208456707E+02  0.00000000000E+00 0. -1.
         22    1    1    2    0    0  0.40482793207E+02  0.11957831215E+03  0.29502477083E+02  0.12964654040E+03  0.00000000000E+00 0. -1.
</event>
<event>
 6    1  0.1293624E-005  0.8509143E+02  0.7818608E-02  0.1341062E+00
          2   -1    0    0  502    0  0.00000000000E+00  0.00000000000E+00  0.10522680479E+03  0.10522680479E+03  0.00000000000E+00 0. -1.
          1   -1    0    0  501    0 -0.00000000000E+00 -0.00000000000E+00 -0.33612993640E+03  0.33612993640E+03  0.00000000000E+00 0. -1.
          2    1    1    2  501    0  0.41356254446E+02  0.33915721272E+02 -0.13496257127E+03  0.14517407336E+03  0.00000000000E+00 0. -1.
          1    1    1    2  502    0 -0.86641267820E+02 -0.20761227366E+01 -0.13014865322E+03  0.15636397127E+03  0.00000000000E+00 0. -1.
         22    1    1    2    0    0  0.20134473323E+02 -0.50005182969E+02  0.72620905170E+02  0.90441755884E+02  0.00000000000E+00 0. -1.
         22    1    1    2    0    0  0.25150540052E+02  0.18165584434E+02 -0.38412812289E+02  0.49376940677E+02  0.00000000000E+00 0. -1.
</event>
<event>
 6    1  0.1293624E-005  0.2041016E+03  0.7818608E-02  0.1203866E+00
          2   -1    0    0  502    0  0.00000000000E+00  0.00000000000E+00  0.46670541749E+03  0.46670541749E+03  0.00000000000E+00 0. -1.
          1   -1    0    0  501    0 -0.00000000000E+00 -0.00000000000E+00 -0.24834508744E+03  0.24834508744E+03  0.00000000000E+00 0. -1.
          2    1    1    2  501    0  0.13552694863E+03  0.13071056089E+03  0.87592092314E+02  0.20766602796E+03  0.00000000000E+00 0. -1.
          1    1    1    2  502    0 -0.14393399654E+03 -0.12338212046E+03 -0.12089705557E+03  0.22484715043E+03  0.00000000000E+00 0. -1.
         22    1    1    2    0    0  0.36606210935E+02  0.40273471165E+02  0.51724290649E+02  0.75082417395E+02  0.00000000000E+00 0. -1.
         22    1    1    2    0    0 -0.28199163017E+02 -0.47601911604E+02  0.19994100266E+03  0.20745490914E+03  0.00000000000E+00 0.  1.
</event>
<event>
 6    1  0.1293624E-005  0.1384845E+03  0.7818608E-02  0.1216243E+00
          2   -1    0    0  502    0  0.00000000000E+00  0.00000000000E+00  0.15358430322E+03  0.15358430322E+03  0.00000000000E+00 0. -1.
          1   -1    0    0  501    0 -0.00000000000E+00 -0.00000000000E+00 -0.53122376495E+03  0.53122376495E+03  0.00000000000E+00 0. -1.
          2    1    1    2  501    0 -0.71567724237E+02  0.66098011602E+02 -0.96072913402E+02  0.13682430698E+03  0.00000000000E+00 0. -1.
          1    1    1    2  502    0 -0.38286649799E+02  0.86082456307E+01 -0.35103192269E+03  0.35321860115E+03  0.00000000000E+00 0. -1.
         22    1    1    2    0    0  0.11244746960E+03 -0.89630924176E+02  0.89704710216E+02  0.16948472209E+03  0.00000000000E+00 0. -1.
         22    1    1    2    0    0 -0.25930955612E+01  0.14924666943E+02 -0.20239335852E+02  0.25280437964E+02  0.00000000000E+00 0. -1.
</event>
<event>
 6    1  0.1293624E-005  0.4720431E+03  0.7818608E-02  0.1076790E+00
          2   -1    0    0  502    0  0.00000000000E+00  0.00000000000E+00  0.42926175242E+03  0.42926175242E+03  0.00000000000E+00 0. -1.
          1   -1    0    0  501    0 -0.00000000000E+00 -0.00000000000E+00 -0.74163721374E+03  0.74163721374E+03  0.00000000000E+00 0. -1.
          2    1    1    2  501    0 -0.73262213103E+02  0.33094083704E+03 -0.31849885045E+02  0.34044618468E+03  0.00000000000E+00 0. -1.
          1    1    1    2  502    0  0.73273261245E+02 -0.50068710255E+03 -0.34113826870E+03  0.61027195892E+03  0.00000000000E+00 0. -1.
         22    1    1    2    0    0 -0.11797816262E+02  0.95930391075E+02  0.97096136311E+02  0.13700178133E+03  0.00000000000E+00 0.  1.
         22    1    1    2    0    0  0.11786768120E+02  0.73815874441E+02 -0.36483443880E+02  0.83179041227E+02  0.00000000000E+00 0. -1.
</event>
<event>
 6    1  0.1293624E-005  0.4363421E+03  0.7818608E-02  0.1031875E+00
          2   -1    0    0  502    0  0.00000000000E+00  0.00000000000E+00  0.81002438107E+03  0.81002438107E+03  0.00000000000E+00 0. -1.
          1   -1    0    0  501    0 -0.00000000000E+00 -0.00000000000E+00 -0.31592100482E+03  0.31592100482E+03  0.00000000000E+00 0. -1.
          2    1    1    2  501    0  0.11842984145E+02  0.92150584876E+02  0.33146161501E+01  0.92967592454E+02  0.00000000000E+00 0. -1.
          1    1    1    2  502    0  0.11985696641E+03 -0.23724215323E+03 -0.18137781568E+03  0.32178788617E+03  0.00000000000E+00 0. -1.
         22    1    1    2    0    0  0.79558846248E+01  0.17661902756E+02  0.85593299404E+01  0.21177843095E+02  0.00000000000E+00 0. -1.
         22    1    1    2    0    0 -0.13965583518E+03  0.12742966560E+03  0.66360724584E+03  0.69001206417E+03  0.00000000000E+00 0. -1.
</event>
<event>
 6    1  0.1293624E-005  0.8954181E+02  0.7818608E-02  0.1308457E+00
          2   -1    0    0  502    0  0.00000000000E+00  0.00000000000E+00  0.16423427139E+03  0.16423427139E+03  0.00000000000E+00 0.  1.
          1   -1    0    0  501    0 -0.00000000000E+00 -0.00000000000E+00 -0.29478410408E+03  0.29478410408E+03  0.00000000000E+00 0. -1.
          2    1    1    2  501    0 -0.35394985735E+02  0.88290560884E+00  0.44164822507E+01  0.35680384709E+02  0.00000000000E+00 0.  1.
          1    1    1    2  502    0 -0.18492564015E+01 -0.27778523530E+02 -0.24748303832E+03  0.24904401293E+03  0.00000000000E+00 0. -1.
         22    1    1    2    0    0  0.83315511188E+02  0.14889408252E+02  0.62278400596E+02  0.10507981758E+03  0.00000000000E+00 0. -1.
         22    1    1    2    0    0 -0.46071269051E+02  0.12006209669E+02  0.50238322783E+02  0.69214160246E+02  0.00000000000E+00 0.  1.
</event>
<event>
 6    1  0.1293624E-005  0.1708231E+03  0.7818608E-02  0.1176992E+00
          2   -1    0    0  502    0  0.00000000000E+00  0.00000000000E+00  0.38253094519E+02  0.38253094519E+02  0.00000000000E+00 0.  1.
          1   -1    0    0  501    0 -0.00000000000E+00 -0.00000000000E+00 -0.73468054126E+03  0.73468054126E+03  0.00000000000E+00 0. -1.
          2    1    1    2  501    0 -0.17135801132E+02 -0.10670396510E+02 -0.89142773559E+02  0.91399820130E+02  0.00000000000E+00 0.  1.
          1    1    1    2  502    0  0.20602092934E+02  0.34663080185E+01 -0.54276534496E+03  0.54316726817E+03  0.00000000000E+00 0. -1.
         22    1    1    2    0    0 -0.42692222000E+02  0.15804781581E+02  0.16110017134E+02  0.48290263948E+02  0.00000000000E+00 0.  1.
         22    1    1    2    0    0  0.39225930199E+02 -0.86006930899E+01 -0.80629345352E+02  0.90076283524E+02  0.00000000000E+00 0. -1.
</event>
<event>
 6    1  0.1293624E-005  0.2023607E+03  0.7818608E-02  0.1147762E+00
          2   -1    0    0  502    0  0.00000000000E+00  0.00000000000E+00  0.12646654345E+03  0.12646654345E+03  0.00000000000E+00 0. -1.
          1   -1    0    0  501    0 -0.00000000000E+00 -0.00000000000E+00 -0.44178270377E+03  0.44178270377E+03  0.00000000000E+00 0.  1.
          2    1    1    2  501    0  0.15961597623E+02  0.26791679881E+02 -0.24512382396E+02  0.39666403924E+02  0.00000000000E+00 0. -1.
          1    1    1    2  502    0  0.63787167865E+02 -0.50937029683E+02 -0.35308151157E+03  0.36239472622E+03  0.00000000000E+00 0.  1.
         22    1    1    2    0    0 -0.39321066171E+02 -0.28382919615E+02  0.83524325393E+02  0.96581826981E+02  0.00000000000E+00 0. -1.
         22    1    1    2    0    0 -0.40427699318E+02  0.52528269416E+02 -0.21246591752E+02  0.69606290097E+02  0.00000000000E+00 0. -1.
</event>
<event>
 6    1  0.1293624E-005  0.1258684E+03  0.7818608E-02  0.1248122E+00
          2   -1    0    0  502    0  0.00000000000E+00  0.00000000000E+00  0.86870140924E+02  0.86870140924E+02  0.00000000000E+00 0.  1.
          1   -1    0    0  501    0 -0.00000000000E+00 -0.00000000000E+00 -0.11193645210E+04  0.11193645210E+04  0.00000000000E+00 0. -1.
          2    1    1    2  501    0 -0.28873628942E+02 -0.44074467824E+02  0.10707380460E+02  0.53767026685E+02  0.00000000000E+00 0.  1.
          1    1    1    2  502    0 -0.57158341562E+02  0.11363746882E+03 -0.95170879940E+03  0.96017195813E+03  0.00000000000E+00 0. -1.
         22    1    1    2    0    0  0.90716104203E+02 -0.24576795508E+02 -0.10888465334E+03  0.14383774947E+03  0.00000000000E+00 0.  1.
         22    1    1    2    0    0 -0.46841336989E+01 -0.44986205487E+02  0.17391692210E+02  0.48457927634E+02  0.00000000000E+00 0.  1.
</event>
<event>
 6    1  0.1293624E-005  0.1515499E+03  0.7818608E-02  0.1214708E+00
          2   -1    0    0  502    0  0.00000000000E+00  0.00000000000E+00  0.48610568104E+03  0.48610568104E+03  0.00000000000E+00 0.  1.
          1   -1    0    0  501    0 -0.00000000000E+00 -0.00000000000E+00 -0.21277817788E+03  0.21277817788E+03  0.00000000000E+00 0.  1.
          2    1    1    2  501    0  0.32121421989E+02  0.10919421821E+03  0.12406688089E+03  0.16836791254E+03  0.00000000000E+00 0.  1.
          1    1    1    2  502    0 -0.10839780392E+03 -0.93786417954E+02 -0.14460827270E+03  0.20361121929E+03  0.00000000000E+00 0.  1.
         22    1    1    2    0    0 -0.21882056335E+02  0.27649994108E+02  0.59010010259E+02  0.68742475038E+02  0.00000000000E+00 0.  1.
         22    1    1    2    0    0  0.98158438264E+02 -0.43057794362E+02  0.23485888471E+03  0.25816225205E+03  0.00000000000E+00 0.  1.
</event>
<event>
 6    1  0.1293624E-005  0.6160218E+03  0.7818608E-02  0.9872712E-01
          2   -1    0    0  502    0  0.00000000000E+00  0.00000000000E+00  0.46098508706E+02  0.46098508706E+02  0.00000000000E+00 0.  1.
          1   -1    0    0  501    0 -0.00000000000E+00 -0.00000000000E+00 -0.40973103778E+04  0.40973103778E+04  0.00000000000E+00 0.  1.
          2    1    1    2  501    0 -0.10969732949E+03 -0.10152756520E+03 -0.16869288436E+04  0.16935377982E+04  0.00000000000E+00 0.  1.
          1    1    1    2  502    0 -0.78370426670E+02 -0.28147709180E+02 -0.19990039267E+04  0.20007375930E+04  0.00000000000E+00 0.  1.
         22    1    1    2    0    0  0.19928612056E+03  0.13505040924E+03 -0.31013230647E+03  0.39260109322E+03  0.00000000000E+00 0.  1.
         22    1    1    2    0    0 -0.11218364396E+02 -0.53751348627E+01 -0.55146792359E+02  0.56532402054E+02  0.00000000000E+00 0. -1.
</event>
<event>
 6    1  0.1293624E-005  0.5188850E+02  0.7818608E-02  0.1445469E+00
          2   -1    0    0  502    0  0.00000000000E+00  0.00000000000E+00  0.18117038169E+03  0.18117038169E+03  0.00000000000E+00 0. -1.
          1   -1    0    0  501    0 -0.00000000000E+00 -0.00000000000E+00 -0.19181607136E+03  0.19181607136E+03  0.00000000000E+00 0.  1.
          2    1    1    2  501    0  0.18143864947E+02  0.10006319982E+02  0.31545313617E+01  0.20958944222E+02  0.00000000000E+00 0. -1.
          1    1    1    2  502    0 -0.22467465141E+02  0.68030036879E+00 -0.15993095020E+03  0.16150281307E+03  0.00000000000E+00 0.  1.
         22    1    1    2    0    0  0.22069388464E+01  0.34036547404E+02 -0.35488207463E+01  0.34292145849E+02  0.00000000000E+00 0.  1.
         22    1    1    2    0    0  0.21166613475E+01 -0.44723167755E+02  0.14967954991E+03  0.15623254991E+03  0.00000000000E+00 0. -1.
</event>
<event>
 6    1  0.1293624E-005  0.1788992E+03  0.7818608E-02  0.1168873E+00
          2   -1    0    0  502    0  0.00000000000E+00  0.00000000000E+00  0.92040620124E+02  0.92040620124E+02  0.00000000000E+00 0.  1.
          1   -1    0    0  501    0 -0.00000000000E+00 -0.00000000000E+00 -0.55699128049E+03  0.55699128049E+03  0.00000000000E+00 0.  1.
          2    1    1    2  501    0 -0.91663061797E+01  0.23468068820E+02 -0.36513169560E+02  0.44361954132E+02  0.00000000000E+00 0.  1.
          1    1    1    2  502    0 -0.69723582905E+00 -0.24937810687E+02 -0.46941456029E+03  0.47007702556E+03  0.00000000000E+00 0.  1.
         22    1    1    2    0    0  0.22397902245E+02  0.37965441319E+02 -0.30335359166E+02  0.53509576481E+02  0.00000000000E+00 0.  1.
         22    1    1    2    0    0 -0.12534360236E+02 -0.36495699452E+02  0.71312428656E+02  0.81083344442E+02  0.00000000000E+00 0.  1.
</event>
<event>
 6    1  0.1293624E-005  0.2577752E+03  0.7818608E-02  0.1108487E+00
          2   -1    0    0  502    0  0.00000000000E+00  0.00000000000E+00  0.59612832230E+03  0.59612832230E+03  0.00000000000E+00 0. -1.
          1   -1    0    0  501    0 -0.00000000000E+00 -0.00000000000E+00 -0.77161278609E+03  0.77161278609E+03  0.00000000000E+00 0.  1.
          2    1    1    2  501    0  0.29549481201E+01 -0.24807361219E+02 -0.67438981246E+01  0.25876959848E+02  0.00000000000E+00 0. -1.
          1    1    1    2  502    0  0.97572968188E+02 -0.16844235468E+02 -0.74029510030E+03  0.74688757382E+03  0.00000000000E+00 0.  1.
         22    1    1    2    0    0  0.46943979603E+01 -0.15122430489E+02  0.60173963905E+01  0.16939136207E+02  0.00000000000E+00 0.  1.
         22    1    1    2    0    0 -0.10522231427E+03  0.56774027176E+02  0.56553713825E+03  0.57803743851E+03  0.00000000000E+00 0. -1.
</event>
<event>
 6    1  0.1293624E-005  0.9417040E+02  0.7818608E-02  0.1297772E+00
          2   -1    0    0  502    0  0.00000000000E+00  0.00000000000E+00  0.16361905881E+03  0.16361905881E+03  0.00000000000E+00 0. -1.
          1   -1    0    0  501    0 -0.00000000000E+00 -0.00000000000E+00 -0.17135996120E+03  0.17135996120E+03  0.00000000000E+00 0. -1.
          2    1    1    2  501    0 -0.48659595059E+02  0.31040853677E+02  0.85957139948E+02  0.10353704987E+03  0.00000000000E+00 0. -1.
          1    1    1    2  502    0  0.65490225776E+02  0.22351977479E+02 -0.65192490098E+02  0.95071769388E+02  0.00000000000E+00 0. -1.
         22    1    1    2    0    0 -0.21841199559E+02  0.29667366480E+02  0.18046153988E+02  0.41022607253E+02  0.00000000000E+00 0. -1.
         22    1    1    2    0    0  0.50105688424E+01 -0.83060197636E+02 -0.46551706232E+02  0.95347593491E+02  0.00000000000E+00 0. -1.
</event>
<event>
 6    1  0.1293624E-005  0.1716100E+03  0.7818608E-02  0.1176179E+00
          2   -1    0    0  502    0  0.00000000000E+00  0.00000000000E+00  0.48700911399E+02  0.48700911399E+02  0.00000000000E+00 0. -1.
          1   -1    0    0  501    0 -0.00000000000E+00 -0.00000000000E+00 -0.29816304609E+03  0.29816304609E+03  0.00000000000E+00 0. -1.
          2    1    1    2  501    0 -0.19313579148E+02 -0.52295171764E+01 -0.71425237424E+02  0.74174973748E+02  0.00000000000E+00 0. -1.
          1    1    1    2  502    0  0.35860370710E+02  0.52591050381E+02 -0.10383252398E+03  0.12179071313E+03  0.00000000000E+00 0. -1.
         22    1    1    2    0    0 -0.68471225619E+02 -0.34622170858E+02 -0.53629583000E+02  0.93611621209E+02  0.00000000000E+00 0. -1.
         22    1    1    2    0    0  0.51924434056E+02 -0.12739362347E+02 -0.20574790290E+02  0.57286649409E+02  0.00000000000E+00 0. -1.
</event>
<event>
 6    1  0.1293624E-005  0.8857600E+02  0.7818608E-02  0.1315241E+00
          2   -1    0    0  502    0  0.00000000000E+00  0.00000000000E+00  0.23864317007E+02  0.23864317007E+02  0.00000000000E+00 0. -1.
          1   -1    0    0  501    0 -0.00000000000E+00 -0.00000000000E+00 -0.82888211136E+03  0.82888211136E+03  0.00000000000E+00 0. -1.
          2    1    1    2  501    0  0.35415873630E+02  0.37518742418E+02 -0.18890579977E+03  0.19582477199E+03  0.00000000000E+00 0. -1.
          1    1    1    2  502    0 -0.14254225997E+02 -0.86824071452E+02 -0.27371355488E+03  0.28750776071E+03  0.00000000000E+00 0. -1.
         22    1    1    2    0    0  0.44750398222E+02  0.12742770642E+02 -0.22601587558E+03  0.23075561176E+03  0.00000000000E+00 0. -1.
         22    1    1    2    0    0 -0.65912045856E+02  0.36562558392E+02 -0.11638256413E+03  0.13865828391E+03  0.00000000000E+00 0. -1.
</event>
<event>
 6    1  0.1293624E-005  0.9376222E+02  0.7818608E-02  0.1295781E+00
          2   -1    0    0  502    0  0.00000000000E+00  0.00000000000E+00  0.21604445317E+03  0.21604445317E+03  0.00000000000E+00 0. -1.
          1   -1    0    0  501    0 -0.00000000000E+00 -0.00000000000E+00 -0.20921672956E+04  0.20921672956E+04  0.00000000000E+00 0.  1.
          2    1    1    2  501    0  0.55401078177E+02  0.38414987520E+02 -0.18880555196E+03  0.20048074017E+03  0.00000000000E+00 0. -1.
          1    1    1    2  502    0 -0.18636340834E+02  0.37259224042E+02 -0.18689668872E+04  0.18694311403E+04  0.00000000000E+00 0.  1.
         22    1    1    2    0    0 -0.49003674539E+02 -0.77450489669E+02  0.19777439452E+03  0.21797855307E+03  0.00000000000E+00 0. -1.
         22    1    1    2    0    0  0.12238937195E+02  0.17762781076E+01 -0.16124797750E+02  0.20321315166E+02  0.00000000000E+00 0.  1.
</event>
<event>
 6    1  0.1293624E-005  0.2553405E+03  0.7818608E-02  0.1109975E+00
          2   -1    0    0  502    0  0.00000000000E+00  0.00000000000E+00  0.44930291783E+02  0.44930291783E+02  0.00000000000E+00 0.  1.
          1   -1    0    0  501    0 -0.00000000000E+00 -0.00000000000E+00 -0.12738873383E+04  0.12738873383E+04  0.00000000000E+00 0. -1.
          2    1    1    2  501    0 -0.55551580951E+02  0.30156350646E+02 -0.22803446152E+03  0.23663283642E+03  0.00000000000E+00 0.  1.
          1    1    1    2  502    0 -0.68467552886E+01 -0.91037722246E+02 -0.88885732817E+03  0.89353348834E+03  0.00000000000E+00 0. -1.
         22    1    1    2    0    0  0.25468783681E+02 -0.26733803769E+01 -0.11226212250E+03  0.11514595109E+03  0.00000000000E+00 0.  1.
         22    1    1    2    0    0  0.36929552558E+02  0.63554751977E+02  0.19686563839E+00  0.73505354275E+02  0.00000000000E+00 0.  1.
</event>
<event>
 6    1  0.1293624E-005  0.1138077E+03  0.7818608E-02  0.1254584E+00
          2   -1    0    0  502    0  0.00000000000E+00  0.00000000000E+00  0.54075516191E+03  0.54075516191E+03  0.00000000000E+00 0.  1.
          1   -1    0    0  501    0 -0.00000000000E+00 -0.00000000000E+00 -0.55550784312E+02  0.55550784312E+02  0.00000000000E+00 0.  1.
          2    1    1    2  501    0  0.47405443172E+02  0.74448489376E+02  0.29768412079E+03  0.31049265592E+03  0.00000000000E+00 0.  1.
          1    1    1    2  502    0  0.21317233767E+02  0.15339020385E+01 -0.14172064157E+02  0.25644194536E+02  0.00000000000E+00 0.  1.
         22    1    1    2    0    0  0.18707862014E+02  0.11777967092E+02  0.92278161719E+02  0.94889218251E+02  0.00000000000E+00 0.  1.
         22    1    1    2    0    0 -0.87430538954E+02 -0.87760358507E+02  0.10941415925E+03  0.16527987752E+03  0.00000000000E+00 0.  1.
</event>
<event>
 6    1  0.1293624E-005  0.1932909E+03  0.7818608E-02  0.1155526E+00
          2   -1    0    0  502    0  0.00000000000E+00  0.00000000000E+00  0.28841529371E+03  0.28841529371E+03  0.00000000000E+00 0.  1.
          1   -1    0    0  501    0 -0.00000000000E+00 -0.00000000000E+00 -0.43296936525E+03  0.43296936525E+03  0.00000000000E+00 0.  1.
          2    1    1    2  501    0  0.45121151739E+02  0.10728408659E+02  0.30303170720E+02  0.55401256685E+02  0.00000000000E+00 0.  1.
          1    1    1    2  502    0 -0.16738744727E+01  0.31271507900E+02 -0.39990328731E+03  0.40112759599E+03  0.00000000000E+00 0.  1.
         22    1    1    2    0    0 -0.51556538567E+02 -0.48808096434E+02  0.23786240828E+03  0.24823140860E+03  0.00000000000E+00 0.  1.
         22    1    1    2    0    0  0.81092613004E+01  0.68081798750E+01 -0.12816363221E+02  0.16624397681E+02  0.00000000000E+00 0.  1.
</event>
<event>
 6    1  0.1293624E-005  0.1880653E+03  0.7818608E-02  0.1160218E+00
          2   -1    0    0  502    0  0.00000000000E+00  0.00000000000E+00  0.16703656618E+03  0.16703656618E+03  0.00000000000E+00 0.  1.
          1   -1    0    0  501    0 -0.00000000000E+00 -0.00000000000E+00 -0.23140999712E+03  0.23140999712E+03  0.00000000000E+00 0.  1.
          2    1    1    2  501    0 -0.27724745677E+02  0.38676817666E+01  0.59278341820E+02  0.65555642732E+02  0.00000000000E+00 0.  1.
          1    1    1    2  502    0  0.95505193039E+02  0.77186398330E+01 -0.16073824247E+03  0.18712990645E+03  0.00000000000E+00 0.  1.
         22    1    1    2    0    0 -0.62739790016E+02  0.14266874920E+01  0.79399728278E+02  0.10120589676E+03  0.00000000000E+00 0.  1.
         22    1    1    2    0    0 -0.50406573468E+01 -0.13013009092E+02 -0.42313258565E+02  0.44555117355E+02  0.00000000000E+00 0. -1.
</event>
<event>
 6    1  0.1293624E-005  0.2187662E+03  0.7818608E-02  0.1134806E+00
          2   -1    0    0  502    0  0.00000000000E+00  0.00000000000E+00  0.71713034174E+02  0.71713034174E+02  0.00000000000E+00 0.  1.
          1   -1    0    0  501    0 -0.00000000000E+00 -0.00000000000E+00 -0.48087202519E+03  0.48087202519E+03  0.00000000000E+00 0.  1.
          2    1    1    2  501    0 -0.59678801913E+01 -0.26680552635E+02 -0.16303546821E+02  0.31831951272E+02  0.00000000000E+00 0.  1.
          1    1    1    2  502    0 -0.97445736991E+02 -0.79624664469E+02 -0.25685005288E+03  0.28602046870E+03  0.00000000000E+00 0.  1.
         22    1    1    2    0    0 -0.12565835328E+02 -0.17551006406E+02 -0.17073115661E+02  0.27521433860E+02  0.00000000000E+00 0.  1.
         22    1    1    2    0    0  0.11597945251E+03  0.12385622351E+03 -0.11893227565E+03  0.20721120553E+03  0.00000000000E+00 0.  1.
</event>
<event>
 6    1  0.1293624E-005  0.2178710E+03  0.7818608E-02  0.1135480E+00
          2   -1    0    0  502    0  0.00000000000E+00  0.00000000000E+00  0.16651041933E+02  0.16651041933E+02  0.00000000000E+00 0.  1.
          1   -1    0    0  501    0 -0.00000000000E+00 -0.00000000000E+00 -0.31603958190E+04  0.31603958190E+04  0.00000000000E+00 0.  1.
          2    1    1    2  501    0 -0.35730748183E+02  0.63680848226E+02 -0.39454607251E+03  0.40124623379E+03  0.00000000000E+00 0.  1.
          1    1    1    2  502    0  0.63034316812E+02 -0.33165376835E+02 -0.24240724029E+04  0.24251186120E+04  0.00000000000E+00 0.  1.
         22    1    1    2    0    0 -0.52971788900E+02 -0.67859246179E+02 -0.21029877848E+03  0.22723658143E+03  0.00000000000E+00 0.  1.
         22    1    1    2    0    0  0.25668220271E+02  0.37343774788E+02 -0.11482752311E+03  0.12344543374E+03  0.00000000000E+00 0. -1.
</event>
<event>
 6    1  0.1293624E-005  0.2486505E+03  0.7818608E-02  0.1114161E+00
          2   -1    0    0  502    0  0.00000000000E+00  0.00000000000E+00  0.34558473946E+03  0.34558473946E+03  0.00000000000E+00 0.  1.
          1   -1    0    0  501    0 -0.00000000000E+00 -0.00000000000E+00 -0.11646495545E+03  0.11646495545E+03  0.00000000000E+00 0.  1.
          2    1    1    2  501    0 -0.23281816607E+02  0.10261347718E+02 -0.13821795897E+02  0.28954797242E+02  0.00000000000E+00 0.  1.
          1    1    1    2  502    0 -0.10299509040E+03 -0.85763714694E+02  0.16786128792E+02  0.13507471090E+03  0.00000000000E+00 0.  1.
         22    1    1    2    0    0  0.14891521007E+03  0.49283074672E+02  0.16449259860E+03  0.22729359039E+03  0.00000000000E+00 0.  1.
         22    1    1    2    0    0 -0.22638303062E+02  0.26219292303E+02  0.61662852511E+02  0.70726596371E+02  0.00000000000E+00 0. -1.
</event>
<event>
 6    1  0.1293624E-005  0.2349974E+03  0.7818608E-02  0.1123171E+00
          2   -1    0    0  502    0  0.00000000000E+00  0.00000000000E+00  0.90267866345E+02  0.90267866345E+02  0.00000000000E+00 0.  1.
          1   -1    0    0  501    0 -0.00000000000E+00 -0.00000000000E+00 -0.56369901460E+03  0.56369901460E+03  0.00000000000E+00 0.  1.
          2    1    1    2  501    0  0.21870984488E+02 -0.19586480638E+02 -0.95914526701E+02  0.10030736074E+03  0.00000000000E+00 0.  1.
          1    1    1    2  502    0 -0.90053472046E+02  0.72470689410E+02 -0.38648460687E+03  0.40340052057E+03  0.00000000000E+00 0.  1.
         22    1    1    2    0    0  0.58957896936E+02 -0.33366275958E+02  0.62728090229E+02  0.92326352068E+02  0.00000000000E+00 0.  1.
         22    1    1    2    0    0  0.92245906224E+01 -0.19517932813E+02 -0.53760104916E+02  0.57932647567E+02  0.00000000000E+00 0.  1.
</event>
<event>
 6    1  0.1293624E-005  0.2862008E+03  0.7818608E-02  0.1092350E+00
          2   -1    0    0  502    0  0.00000000000E+00  0.00000000000E+00  0.76184447902E+02  0.76184447902E+02  0.00000000000E+00 0. -1.
          1   -1    0    0  501    0 -0.00000000000E+00 -0.00000000000E+00 -0.62967889634E+03  0.62967889634E+03  0.00000000000E+00 0.  1.
          2    1    1    2  501    0 -0.12473803862E+01 -0.51668586510E+02 -0.16957484374E+02  0.54394439661E+02  0.00000000000E+00 0. -1.
          1    1    1    2  502    0  0.80369844580E+02 -0.11760338120E+03 -0.25658966841E+03  0.29347593619E+03  0.00000000000E+00 0.  1.
         22    1    1    2    0    0 -0.94576920397E+00 -0.13517032575E+02  0.12594888949E+01  0.13608488575E+02  0.00000000000E+00 0. -1.
         22    1    1    2    0    0 -0.78176694990E+02  0.18278900028E+03 -0.28120678455E+03  0.34438447982E+03  0.00000000000E+00 0. -1.
</event>
<event>
 6    1  0.1293624E-005  0.2086120E+03  0.7818608E-02  0.1142670E+00
          2   -1    0    0  502    0  0.00000000000E+00  0.00000000000E+00  0.39295479976E+02  0.39295479976E+02  0.00000000000E+00 0. -1.
          1   -1    0    0  501    0 -0.00000000000E+00 -0.00000000000E+00 -0.12841038061E+04  0.12841038061E+04  0.00000000000E+00 0.  1.
          2    1    1    2  501    0  0.10632093546E+02 -0.31287875513E+02 -0.43585878066E+02  0.54696447180E+02  0.00000000000E+00 0. -1.
          1    1    1    2  502    0 -0.12811381301E+03  0.73187051075E+02 -0.95492342744E+03  0.96625475202E+03  0.00000000000E+00 0.  1.
         22    1    1    2    0    0 -0.21866840795E+02 -0.14699088787E+02 -0.77621174611E+02  0.81971145445E+02  0.00000000000E+00 0. -1.
         22    1    1    2    0    0  0.13934856026E+03 -0.27200086774E+02 -0.16867784598E+03  0.22047694140E+03  0.00000000000E+00 0. -1.
</event>
<event>
 6    1  0.1293624E-005  0.1895026E+03  0.7818608E-02  0.1158911E+00
          2   -1    0    0  502    0  0.00000000000E+00  0.00000000000E+00  0.18993347451E+03  0.18993347451E+03  0.00000000000E+00 0. -1.
          1   -1    0    0  501    0 -0.00000000000E+00 -0.00000000000E+00 -0.13433809231E+03  0.13433809231E+03  0.00000000000E+00 0. -1.
          2    1    1    2  501    0 -0.17658675243E+02 -0.48660153829E+02 -0.19779853229E+02  0.55415539119E+02  0.00000000000E+00 0. -1.
          1    1    1    2  502    0 -0.24934186542E+02  0.78793124821E+02  0.99905114026E+02  0.12965763374E+03  0.00000000000E+00 0. -1.
         22    1    1    2    0    0  0.73645644903E+02 -0.37646165422E+02 -0.51461733304E+02  0.97412652047E+02  0.00000000000E+00 0.  1.
         22    1    1    2    0    0 -0.31052783117E+02  0.75131944293E+01  0.26931854705E+02  0.41785741919E+02  0.00000000000E+00 0.  1.
</event>
<event>
 6    1  0.1293624E-005  0.8065517E+02  0.7818608E-02  0.1385908E+00
          2   -1    0    0  502    0  0.00000000000E+00  0.00000000000E+00  0.12225046430E+03  0.12225046430E+03  0.00000000000E+00 0.  1.
          1   -1    0    0  501    0 -0.00000000000E+00 -0.00000000000E+00 -0.58594879900E+03  0.58594879900E+03  0.00000000000E+00 0.  1.
          2    1    1    2  501    0 -0.11701424337E+02  0.22647758247E+02 -0.31767700887E+02  0.40731205540E+02  0.00000000000E+00 0.  1.
          1    1    1    2  502    0 -0.10513286433E+02 -0.80055183996E+02 -0.50226472663E+03  0.50871329577E+03  0.00000000000E+00 0.  1.
         22    1    1    2    0    0 -0.50700758733E+01  0.45173395976E+02 -0.29731677106E+02  0.54316792955E+02  0.00000000000E+00 0.  1.
         22    1    1    2    0    0  0.27284786643E+02  0.12234029773E+02  0.10006576992E+03  0.10443796904E+03  0.00000000000E+00 0.  1.
</event>
<event>
 6    1  0.1293624E-005  0.8506828E+02  0.7818608E-02  0.1317077E+00
          2   -1    0    0  502    0  0.00000000000E+00  0.00000000000E+00  0.16822288015E+02  0.16822288015E+02  0.00000000000E+00 0.  1.
          1   -1    0    0  501    0 -0.00000000000E+00 -0.00000000000E+00 -0.18412177917E+04  0.18412177917E+04  0.00000000000E+00 0.  1.
          2    1    1    2  501    0  0.92917575773E+01 -0.34329365529E+02 -0.82789077235E+02  0.90104791248E+02  0.00000000000E+00 0.  1.
          1    1    1    2  502    0 -0.17268581688E+02 -0.17539447525E+02 -0.14129454548E+04  0.14131598262E+04  0.00000000000E+00 0.  1.
         22    1    1    2    0    0 -0.88810516637E+01 -0.38703663464E+02 -0.12707862625E+03  0.13313836372E+03  0.00000000000E+00 0.  1.
         22    1    1    2    0    0  0.16857875774E+02  0.90572476517E+02 -0.20158234542E+03  0.22163709857E+03  0.00000000000E+00 0.  1.
</event>
<event>
 6    1  0.1293624E-005  0.2341035E+03  0.7818608E-02  0.1123784E+00
          2   -1    0    0  502    0  0.00000000000E+00  0.00000000000E+00  0.53670100507E+02  0.53670100507E+02  0.00000000000E+00 0. -1.
          1   -1    0    0  501    0 -0.00000000000E+00 -0.00000000000E+00 -0.82364877250E+03  0.82364877250E+03  0.00000000000E+00 0. -1.
          2    1    1    2  501    0 -0.65463886505E+02 -0.12686227781E+01 -0.12244753538E+03  0.13885434369E+03  0.00000000000E+00 0. -1.
          1    1    1    2  502    0 -0.60185512200E+01 -0.28120577618E+02 -0.56625258275E+03  0.56698234303E+03  0.00000000000E+00 0. -1.
         22    1    1    2    0    0  0.55193096712E+01  0.67115555535E+02 -0.65356266395E+02  0.93842432466E+02  0.00000000000E+00 0. -1.
         22    1    1    2    0    0  0.65963128054E+02 -0.37726355139E+02 -0.15922287468E+02  0.77639753818E+02  0.00000000000E+00 0. -1.
</event>
<event>
 6    1  0.1293624E-005  0.2053369E+03  0.7818608E-02  0.1146480E+00
          2   -1    0    0  502    0  0.00000000000E+00  0.00000000000E+00  0.28906074482E+03  0.28906074482E+03  0.00000000000E+00 0.  1.
          1   -1    0    0  501    0 -0.00000000000E+00 -0.00000000000E+00 -0.74224798766E+03  0.74224798766E+03  0.00000000000E+00 0.  1.
          2    1    1    2  501    0  0.17918210730E+03  0.10049184403E+03 -0.98133480337E+01  0.20567240965E+03  0.00000000000E+00 0.  1.
          1    1    1    2  502    0 -0.30237085412E+02  0.53112423878E+01 -0.56974927881E+03  0.57057578930E+03  0.00000000000E+00 0.  1.
         22    1    1    2    0    0 -0.16037300121E+03 -0.10779098763E+03  0.13891187596E+03  0.23798089380E+03  0.00000000000E+00 0.  1.
         22    1    1    2    0    0  0.11427979322E+02  0.19879012056E+01 -0.12536491952E+02  0.17079639722E+02  0.00000000000E+00 0.  1.
</event>
<event>
 6    1  0.1293624E-005  0.6435777E+02  0.7818608E-02  0.1383183E+00
          2   -1    0    0  502    0  0.00000000000E+00  0.00000000000E+00  0.19846564075E+03  0.19846564075E+03  0.00000000000E+00 0.  1.
          1   -1    0    0  501    0 -0.00000000000E+00 -0.00000000000E+00 -0.84976413759E+03  0.84976413759E+03  0.00000000000E+00 0.  1.
          2    1    1    2  501    0  0.22353289552E+02  0.16932213532E+02  0.27042079675E+00  0.28043582800E+02  0.00000000000E+00 0.  1.
          1    1    1    2  502    0  0.54652420856E+01  0.21417257696E+02 -0.80987281109E+03  0.81017438736E+03  0.00000000000E+00 0.  1.
         22    1    1    2    0    0 -0.43779391198E+02 -0.47090927416E+02  0.17430105125E+03  0.18578225697E+03  0.00000000000E+00 0.  1.
         22    1    1    2    0    0  0.15960859560E+02  0.87414561872E+01 -0.15997157795E+02  0.24229551207E+02  0.00000000000E+00 0.  1.
</event>
<event>
 6    1  0.1293624E-005  0.1618133E+03  0.7818608E-02  0.1186665E+00
          2   -1    0    0  502    0  0.00000000000E+00  0.00000000000E+00  0.82884134217E+02  0.82884134217E+02  0.00000000000E+00 0.  1.
          1   -1    0    0  501    0 -0.00000000000E+00 -0.00000000000E+00 -0.10395844525E+03  0.10395844525E+03  0.00000000000E+00 0.  1.
          2    1    1    2  501    0  0.14097576184E+01 -0.31361486909E+02  0.91725777760E+01  0.32705755774E+02  0.00000000000E+00 0.  1.
          1    1    1    2  502    0  0.49820799802E+00  0.23770293280E+02 -0.43126057455E+01  0.24163477030E+02  0.00000000000E+00 0.  1.
         22    1    1    2    0    0 -0.35490257793E+02 -0.38595425642E+02  0.20575028052E+02  0.56324923951E+02  0.00000000000E+00 0.  1.
         22    1    1    2    0    0  0.33582292177E+02  0.46186619271E+02 -0.46509311115E+02  0.73648422711E+02  0.00000000000E+00 0.  1.
</event>
<event>
 6    1  0.1293624E-005  0.7440454E+02  0.7818608E-02  0.1347479E+00
          2   -1    0    0  502    0  0.00000000000E+00  0.00000000000E+00  0.17700760879E+03  0.17700760879E+03  0.00000000000E+00 0. -1.
          1   -1    0    0  501    0 -0.00000000000E+00 -0.00000000000E+00 -0.64113514095E+03  0.64113514095E+03  0.00000000000E+00 0. -1.
          2    1    1    2  501    0  0.42581891140E+02 -0.41838455728E+02  0.10290534923E+03  0.11896715820E+03  0.00000000000E+00 0. -1.
          1    1    1    2  502    0 -0.38807978664E+02 -0.16113366406E+02 -0.56088567620E+03  0.56245750200E+03  0.00000000000E+00 0. -1.
         22    1    1    2    0    0 -0.14975559471E+02  0.66978118336E+02 -0.53632112089E+02  0.87101889557E+02  0.00000000000E+00 0.  1.
         22    1    1    2    0    0  0.11201646995E+02 -0.90262962021E+01  0.47484906896E+02  0.49616199990E+02  0.00000000000E+00 0.  1.
</event>
<event>
 6    1  0.1293624E-005  0.8396917E+02  0.7818608E-02  0.1448384E+00
          2   -1    0    0  502    0  0.00000000000E+00  0.00000000000E+00  0.48012700534E+02  0.48012700534E+02  0.00000000000E+00 0. -1.
          1   -1    0    0  501    0 -0.00000000000E+00 -0.00000000000E+00 -0.35246400948E+03  0.35246400948E+03  0.00000000000E+00 0. -1.
          2    1    1    2  501    0 -0.28679063894E+02  0.81781897047E+01 -0.80685632781E+02  0.86020595383E+02  0.00000000000E+00 0. -1.
          1    1    1    2  502    0  0.68588056260E+02 -0.34984819055E+02 -0.13544157245E+03  0.15579691452E+03  0.00000000000E+00 0. -1.
         22    1    1    2    0    0 -0.48659582054E+02  0.31833551003E+02 -0.11569596576E+03  0.12948624015E+03  0.00000000000E+00 0. -1.
         22    1    1    2    0    0  0.87505896878E+01 -0.50269216524E+01  0.27371862045E+02  0.29172959963E+02  0.00000000000E+00 0. -1.
</event>
<event>
 6    1  0.1293624E-005  0.3208294E+03  0.7818608E-02  0.1150666E+00
          2   -1    0    0  502    0  0.00000000000E+00  0.00000000000E+00  0.69467114863E+03  0.69467114863E+03  0.00000000000E+00 0. -1.
          1   -1    0    0  501    0 -0.00000000000E+00 -0.00000000000E+00 -0.35520944853E+03  0.35520944853E+03  0.00000000000E+00 0. -1.
          2    1    1    2  501    0  0.98022899804E+02  0.23049959621E+02  0.18370875159E+03  0.20949628860E+03  0.00000000000E+00 0. -1.
          1    1    1    2  502    0 -0.20737469246E+03 -0.21659133459E+03 -0.22982114183E+03  0.37780130562E+03  0.00000000000E+00 0. -1.
         22    1    1    2    0    0  0.67675621532E+02  0.17096492429E+03  0.36916995662E+03  0.41242629882E+03  0.00000000000E+00 0. -1.
         22    1    1    2    0    0  0.41676171128E+02  0.22576450675E+02  0.16404133717E+02  0.50156704118E+02  0.00000000000E+00 0. -1.
</event>
<event>
 6    1  0.1293624E-005  0.2448584E+03  0.7818608E-02  0.1116598E+00
          2   -1    0    0  502    0  0.00000000000E+00  0.00000000000E+00  0.38412065452E+02  0.38412065452E+02  0.00000000000E+00 0. -1.
          1   -1    0    0  501    0 -0.00000000000E+00 -0.00000000000E+00 -0.36676140074E+04  0.36676140074E+04  0.00000000000E+00 0. -1.
          2    1    1    2  501    0  0.40845540828E-03  0.66731338911E+02 -0.21038946658E+03  0.22071882394E+03  0.00000000000E+00 0. -1.
          1    1    1    2  502    0 -0.85636731424E+02 -0.76674591499E+02 -0.32658400773E+04  0.32678623064E+04  0.00000000000E+00 0. -1.
         22    1    1    2    0    0  0.62936456295E+02  0.38843722956E+02 -0.16330400118E+03  0.17927082625E+03  0.00000000000E+00 0. -1.
         22    1    1    2    0    0  0.22699866674E+02 -0.28900470368E+02  0.10331603100E+02  0.38174116324E+02  0.00000000000E+00 0. -1.
</event>
<event>
 6    1  0.1293624E-005  0.7236402E+02  0.7818608E-02  0.1353445E+00
          2   -1    0    0  502    0  0.00000000000E+00  0.00000000000E+00  0.43367902712E+03  0.43367902712E+03  0.00000000000E+00 0.  1.
          1   -1    0    0  501    0 -0.00000000000E+00 -0.00000000000E+00 -0.75872179405E+03  0.75872179405E+03  0.00000000000E+00 0. -1.
          2    1    1    2  501    0  0.16079543516E+02  0.40004755155E+02  0.25315851036E+03  0.25680374515E+03  0.00000000000E+00 0.  1.
          1    1    1    2  502    0 -0.32168500995E+02  0.15934243313E+02 -0.73114943899E+03  0.73203020068E+03  0.00000000000E+00 0. -1.
         22    1    1    2    0    0  0.22212022211E+01 -0.79901430148E+02  0.44177768925E+02  0.91328240682E+02  0.00000000000E+00 0.  1.
         22    1    1    2    0    0  0.13867755258E+02  0.23962431680E+02  0.10877039277E+03  0.11223863466E+03  0.00000000000E+00 0.  1.
</event>
<event>
 6    1  0.1293624E-005  0.1978078E+03  0.7818608E-02  0.1151602E+00
          2   -1    0    0  502    0  0.00000000000E+00  0.00000000000E+00  0.67834494932E+03  0.67834494932E+03  0.00000000000E+00 0. -1.
          1   -1    0    0  501    0 -0.00000000000E+00 -0.00000000000E+00 -0.37181311301E+02  0.37181311301E+02  0.00000000000E+00 0.  1.
          2    1    1    2  501    0  0.53557142902E+02 -0.40788490420E+01  0.10570441061E+03  0.11856823768E+03  0.00000000000E+00 0. -1.
          1    1    1    2  502    0 -0.19890696409E+02  0.18349922284E+02 -0.14480399432E+02  0.30692693253E+02  0.00000000000E+00 0.  1.
         22    1    1    2    0    0 -0.59250146654E+02 -0.50635486118E+02  0.45246938168E+03  0.45913295862E+03  0.00000000000E+00 0.  1.
         22    1    1    2    0    0  0.25583700161E+02  0.36364412877E+02  0.97470245164E+02  0.10713237107E+03  0.00000000000E+00 0. -1.
</event>
<event>
 6    1  0.1293624E-005  0.4170007E+03  0.7818608E-02  0.1038047E+00
          2   -1    0    0  502    0  0.00000000000E+00  0.00000000000E+00  0.14720500382E+04  0.14720500382E+04  0.00000000000E+00 0. -1.
          1   -1    0    0  501    0 -0.00000000000E+00 -0.00000000000E+00 -0.15847051696E+03  0.15847051696E+03  0.00000000000E+00 0. -1.
          2    1    1    2  501    0  0.96898415157E+02 -0.40359477542E+01 -0.37596337231E+02  0.10401478889E+03  0.00000000000E+00 0. -1.
          1    1    1    2  502    0 -0.28794406642E+03 -0.14773435819E+03  0.11290463618E+04  0.11745139051E+04  0.00000000000E+00 0. -1.
         22    1    1    2    0    0  0.12953091179E+03  0.13613352317E+03  0.21882425701E+03  0.28843482573E+03  0.00000000000E+00 0. -1.
         22    1    1    2    0    0  0.61514739479E+02  0.15636782771E+02  0.33052395966E+01  0.63557035468E+02  0.00000000000E+00 0. -1.
</event>
<event>
 6    1  0.1293624E-005  0.4846518E+03  0.7818608E-02  0.1017864E+00
          2   -1    0    0  502    0  0.00000000000E+00  0.00000000000E+00  0.47847737371E+03  0.47847737371E+03  0.00000000000E+00 0. -1.
          1   -1    0    0  501    0 -0.00000000000E+00 -0.00000000000E+00 -0.29120945856E+03  0.29120945856E+03  0.00000000000E+00 0. -1.
          2    1    1    2  501    0  0.16535529909E+03  0.12966480136E+03  0.13892321378E+03  0.25190274904E+03  0.00000000000E+00 0. -1.
          1    1    1    2  502    0  0.27033768474E+02  0.23155653032E+02 -0.16611199176E+03  0.16988290883E+03  0.00000000000E+00 0. -1.
         22    1    1    2    0    0 -0.19536873869E+03 -0.16484388511E+03  0.21693809880E+03  0.33526793647E+03  0.00000000000E+00 0. -1.
         22    1    1    2    0    0  0.29796711219E+01  0.12023430722E+02 -0.24814056585E+01  0.12633237921E+02  0.00000000000E+00 0.  1.
</event>
<event>
 6    1  0.1293624E-005  0.1480600E+03  0.7818608E-02  0.1202877E+00
          2   -1    0    0  502    0  0.00000000000E+00  0.00000000000E+00  0.99096579053E+02  0.99096579053E+02  0.00000000000E+00 0. -1.
          1   -1    0    0  501    0 -0.00000000000E+00 -0.00000000000E+00 -0.11924470070E+04  0.11924470070E+04  0.00000000000E+00 0. -1.
          2    1    1    2  501    0  0.58180983298E+01 -0.21964197178E+02  0.87459694850E+01  0.24346831582E+02  0.00000000000E+00 0. -1.
          1    1    1    2  502    0  0.29401895473E+02  0.15927679765E+02 -0.11367595352E+04  0.11372512490E+04  0.00000000000E+00 0. -1.
         22    1    1    2    0    0 -0.72239483669E+02 -0.59383095705E+01 -0.71440805591E+01  0.72834362826E+02  0.00000000000E+00 0. -1.
         22    1    1    2    0    0  0.37019489866E+02  0.11974826983E+02  0.41807218332E+02  0.57111142659E+02  0.00000000000E+00 0. -1.
</event>
<event>
 6    1  0.1293624E-005  0.7230028E+02  0.7818608E-02  0.1356181E+00
          2   -1    0    0  502    0  0.00000000000E+00  0.00000000000E+00  0.29638017928E+02  0.29638017928E+02  0.00000000000E+00 0.  1.
          1   -1    0    0  501    0 -0.00000000000E+00 -0.00000000000E+00 -0.23658128272E+04  0.23658128272E+04  0.00000000000E+00 0. -1.
          2    1    1    2  501    0  0.87933685616E+01  0.32599408492E+02 -0.40855196197E+02  0.53001809601E+02  0.00000000000E+00 0.  1.
          1    1    1    2  502    0 -0.38843557218E+02 -0.27126735177E+02 -0.21435255472E+04  0.21440490790E+04  0.00000000000E+00 0. -1.
         22    1    1    2    0    0  0.35090870408E+02 -0.55830606088E+02 -0.43880145628E+02  0.79207909595E+02  0.00000000000E+00 0.  1.
         22    1    1    2    0    0 -0.50406817514E+01  0.50357932774E+02 -0.10791392021E+03  0.11919204688E+03  0.00000000000E+00 0. -1.
</event>
<event>
 6    1  0.1293624E-005  0.9976817E+02  0.7818608E-02  0.1309645E+00
          2   -1    0    0  502    0  0.00000000000E+00  0.00000000000E+00  0.77148599331E+03  0.77148599331E+03  0.00000000000E+00 0. -1.
          1   -1    0    0  501    0 -0.00000000000E+00 -0.00000000000E+00 -0.30109610329E+02  0.30109610329E+02  0.00000000000E+00 0.  1.
          2    1    1    2  501    0  0.28615896354E+02 -0.31994869851E+02  0.10203608681E+03  0.11069735422E+03  0.00000000000E+00 0. -1.
          1    1    1    2  502    0 -0.28563441739E+02  0.86633857166E+02  0.99483892972E+02  0.13497533246E+03  0.00000000000E+00 0.  1.
         22    1    1    2    0    0 -0.57807491187E+02 -0.80334641606E+01  0.22656864715E+03  0.23396494279E+03  0.00000000000E+00 0.  1.
         22    1    1    2    0    0  0.57755036572E+02 -0.46605523155E+02  0.31328775605E+03  0.32195797417E+03  0.00000000000E+00 0. -1.
</event>
<event>
 6    1  0.1293624E-005  0.3000898E+03  0.7818608E-02  0.1085196E+00
          2   -1    0    0  502    0  0.00000000000E+00  0.00000000000E+00  0.97887590568E+02  0.97887590568E+02  0.00000000000E+00 0. -1.
          1   -1    0    0  501    0 -0.00000000000E+00 -0.00000000000E+00 -0.46831782714E+03  0.46831782714E+03  0.00000000000E+00 0. -1.
          2    1    1    2  501    0  0.17790940534E+02 -0.95677486446E+02 -0.19862861789E+03  0.22118776373E+03  0.00000000000E+00 0. -1.
          1    1    1    2  502    0 -0.10988378819E+03 -0.25792648211E+01 -0.33268131606E+02  0.11483844346E+03  0.00000000000E+00 0. -1.
         22    1    1    2    0    0  0.51924699728E+02  0.12361713288E+03 -0.11729122359E+03  0.17814208126E+03  0.00000000000E+00 0. -1.
         22    1    1    2    0    0  0.40168147932E+02 -0.25360381614E+02 -0.21242263478E+02  0.52037129259E+02  0.00000000000E+00 0. -1.
</event>
<event>
 6    1  0.1293624E-005  0.7490882E+02  0.7818608E-02  0.1346365E+00
          2   -1    0    0  502    0  0.00000000000E+00  0.00000000000E+00  0.26659518770E+03  0.26659518770E+03  0.00000000000E+00 0.  1.
          1   -1    0    0  501    0 -0.00000000000E+00 -0.00000000000E+00 -0.67333891022E+02  0.67333891022E+02  0.00000000000E+00 0.  1.
          2    1    1    2  501    0 -0.13927518911E+02  0.14413955547E+02  0.11065980021E+02  0.22895279238E+02  0.00000000000E+00 0.  1.
          1    1    1    2  502    0 -0.14955555334E+02  0.17202791489E+02 -0.42019703283E+02  0.47804394509E+02  0.00000000000E+00 0.  1.
         22    1    1    2    0    0 -0.62128732135E+01  0.40361775690E+02  0.41481033039E+02  0.58209525272E+02  0.00000000000E+00 0.  1.
         22    1    1    2    0    0  0.35095947459E+02 -0.71978522725E+02  0.18873398690E+03  0.20501987970E+03  0.00000000000E+00 0.  1.
</event>
<event>
 6    1  0.1293624E-005  0.3367176E+03  0.7818608E-02  0.1068203E+00
          2   -1    0    0  502    0  0.00000000000E+00  0.00000000000E+00  0.12345592744E+04  0.12345592744E+04  0.00000000000E+00 0.  1.
          1   -1    0    0  501    0 -0.00000000000E+00 -0.00000000000E+00 -0.17837339158E+04  0.17837339158E+04  0.00000000000E+00 0. -1.
          2    1    1    2  501    0 -0.98047510759E+02 -0.11129556518E+03  0.60215431477E+03  0.62015307465E+03  0.00000000000E+00 0.  1.
          1    1    1    2  502    0  0.51044518464E+02 -0.22767686328E+02 -0.17603227661E+04  0.17612098544E+04  0.00000000000E+00 0. -1.
         22    1    1    2    0    0  0.61932866397E+02  0.14627094816E+03  0.58481155047E+03  0.60599952127E+03  0.00000000000E+00 0.  1.
         22    1    1    2    0    0 -0.14929874102E+02 -0.12207696653E+02  0.24182259433E+02  0.30930739880E+02  0.00000000000E+00 0.  1.
</event>
<event>
 6    1  0.1293624E-005  0.2164201E+03  0.7818608E-02  0.1159331E+00
          2   -1    0    0  502    0  0.00000000000E+00  0.00000000000E+00  0.70146678964E+03  0.70146678964E+03  0.00000000000E+00 0. -1.
          1   -1    0    0  501    0 -0.00000000000E+00 -0.00000000000E+00 -0.76226825388E+03  0.76226825388E+03  0.00000000000E+00 0.  1.
          2    1    1    2  501    0  0.69894779919E+01 -0.15536250908E+03  0.51543400214E+03  0.53838515265E+03  0.00000000000E+00 0. -1.
          1    1    1    2  502    0 -0.14378574525E+03  0.16156267962E+03 -0.68010127928E+03  0.71366279857E+03  0.00000000000E+00 0.  1.
         22    1    1    2    0    0  0.12300257650E+02 -0.25502272094E+02  0.78129687340E+02  0.83101806623E+02  0.00000000000E+00 0.  1.
         22    1    1    2    0    0  0.12449600961E+03  0.19302101553E+02  0.25736125565E+02  0.12858528568E+03  0.00000000000E+00 0. -1.
</event>
<event>
 6    1  0.1293624E-005  0.2040055E+03  0.7818608E-02  0.1146403E+00
          2   -1    0    0  502    0  0.00000000000E+00  0.00000000000E+00  0.19775353350E+03  0.19775353350E+03  0.00000000000E+00 0.  1.
          1   -1    0    0  501    0 -0.00000000000E+00 -0.00000000000E+00 -0.15285399927E+03  0.15285399927E+03  0.00000000000E+00 0.  1.
          2    1    1    2  501    0  0.84313491006E+01  0.73729020757E+02  0.60674185823E+02  0.95856209892E+02  0.00000000000E+00 0.  1.
          1    1    1    2  502    0 -0.18170767276E+02 -0.28032273699E+02 -0.96678869983E+02  0.10228777568E+03  0.00000000000E+00 0.  1.
         22    1    1    2    0    0 -0.21153468486E+02 -0.18717827297E+02  0.10235287885E+03  0.10617880248E+03  0.00000000000E+00 0.  1.
         22    1    1    2    0    0  0.30892886662E+02 -0.26978919761E+02 -0.21448660460E+02  0.46284744715E+02  0.00000000000E+00 0.  1.
</event>
<event>
 6    1  0.1293624E-005  0.1353670E+03  0.7818608E-02  0.1233391E+00
          2   -1    0    0  502    0  0.00000000000E+00  0.00000000000E+00  0.11417639796E+03  0.11417639796E+03  0.00000000000E+00 0.  1.
          1   -1    0    0  501    0 -0.00000000000E+00 -0.00000000000E+00 -0.12652009561E+04  0.12652009561E+04  0.00000000000E+00 0.  1.
          2    1    1    2  501    0 -0.14195048680E+03 -0.50785334337E+02 -0.70281992253E+02  0.16633895912E+03  0.00000000000E+00 0.  1.
          1    1    1    2  502    0  0.84469660230E+02  0.94100639728E+02 -0.10549098751E+04  0.10624617163E+04  0.00000000000E+00 0.  1.
         22    1    1    2    0    0  0.91226844547E+02 -0.45335713610E+02  0.87115500364E+01  0.10224262907E+03  0.00000000000E+00 0.  1.
         22    1    1    2    0    0 -0.33746017976E+02  0.20204082189E+01 -0.34544240773E+02  0.48334049584E+02  0.00000000000E+00 0. -1.
</event>
<event>
 6    1  0.1293624E-005  0.4966546E+03  0.7818608E-02  0.1014656E+00
          2   -1    0    0  502    0  0.00000000000E+00  0.00000000000E+00  0.37879492130E+03  0.37879492130E+03  0.00000000000E+00 0.  1.
          1   -1    0    0  501    0 -0.00000000000E+00 -0.00000000000E+00 -0.21279680155E+03  0.21279680155E+03  0.00000000000E+00 0.  1.
          2    1    1    2  501    0  0.42065701017E+02  0.18628435972E+03  0.18414126814E+03  0.26529114669E+03  0.00000000000E+00 0.  1.
          1    1    1    2  502    0  0.61072260728E+02  0.17038917617E+02 -0.10977232246E+02  0.64347846676E+02  0.00000000000E+00 0.  1.
         22    1    1    2    0    0 -0.11726224729E+03 -0.19604189458E+03 -0.33815609701E+02  0.23092499763E+03  0.00000000000E+00 0.  1.
         22    1    1    2    0    0  0.14124285548E+02 -0.72813827530E+01  0.26649693561E+02  0.31027731853E+02  0.00000000000E+00 0. -1.
</event>
<event>
 6    1  0.1293624E-005  0.3417721E+03  0.7818608E-02  0.1066044E+00
          2   -1    0    0  502    0  0.00000000000E+00  0.00000000000E+00  0.17506676398E+03  0.17506676398E+03  0.00000000000E+00 0. -1.
          1   -1    0    0  501    0 -0.00000000000E+00 -0.00000000000E+00 -0.80132065928E+03  0.80132065928E+03  0.00000000000E+00 0. -1.
          2    1    1    2  501    0  0.60612727829E+02  0.16436082063E+03  0.67700726555E+02  0.18780780204E+03  0.00000000000E+00 0. -1.
          1    1    1    2  502    0 -0.74290676433E+02 -0.17300073632E+03 -0.60537596692E+03  0.63397824938E+03  0.00000000000E+00 0. -1.
         22    1    1    2    0    0 -0.10600152717E+02  0.28646114852E+02  0.23278990581E+02  0.38404095305E+02  0.00000000000E+00 0. -1.
         22    1    1    2    0    0  0.24278101321E+02 -0.20006199165E+02 -0.11185764552E+03  0.11619727652E+03  0.00000000000E+00 0. -1.
</event>
<event>
 6    1  0.1293624E-005  0.9633950E+02  0.7818608E-02  0.1289074E+00
          2   -1    0    0  502    0  0.00000000000E+00  0.00000000000E+00  0.18760889163E+03  0.18760889163E+03  0.00000000000E+00 0. -1.
          1   -1    0    0  501    0 -0.00000000000E+00 -0.00000000000E+00 -0.14974619614E+04  0.14974619614E+04  0.00000000000E+00 0.  1.
          2    1    1    2  501    0 -0.14964476972E+02  0.30677554903E+02 -0.67168534651E+02  0.75343612822E+02  0.00000000000E+00 0. -1.
          1    1    1    2  502    0  0.44273233299E+01  0.53629319506E+02 -0.13927754798E+04  0.13938146370E+04  0.00000000000E+00 0.  1.
         22    1    1    2    0    0  0.14295698612E+02 -0.10105935021E+03  0.16443774487E+03  0.19353844890E+03  0.00000000000E+00 0. -1.
         22    1    1    2    0    0 -0.37585449703E+01  0.16752475802E+02 -0.14346800171E+02  0.22374154307E+02  0.00000000000E+00 0.  1.
</event>
<event>
 6    1  0.1293624E-005  0.8511569E+02  0.7818608E-02  0.1317043E+00
          2   -1    0    0  502    0  0.00000000000E+00  0.00000000000E+00  0.76840444794E+02  0.76840444794E+02  0.00000000000E+00 0. -1.
          1   -1    0    0  501    0 -0.00000000000E+00 -0.00000000000E+00 -0.30760803650E+03  0.30760803650E+03  0.00000000000E+00 0. -1.
          2    1    1    2  501    0 -0.30082053339E+02 -0.42109833707E+02 -0.99739761481E+01  0.52703398639E+02  0.00000000000E+00 0. -1.
          1    1    1    2  502    0  0.54411838087E+02  0.29354233817E+02 -0.19205259094E+03  0.20175856079E+03  0.00000000000E+00 0. -1.
         22    1    1    2    0    0 -0.15335839619E+02 -0.53959676063E+02  0.16606581887E+01  0.56121229524E+02  0.00000000000E+00 0. -1.
         22    1    1    2    0    0 -0.89939451287E+01  0.66715275953E+02 -0.30401682806E+02  0.73865292336E+02  0.00000000000E+00 0.  1.
</event>
<event>
 6    1  0.1293624E-005  0.8910567E+02  0.7818608E-02  0.1309569E+00
          2   -1    0    0  502    0  0.00000000000E+00  0.00000000000E+00  0.49833144940E+03  0.49833144940E+03  0.00000000000E+00 0.  1.
          1   -1    0    0  501    0 -0.00000000000E+00 -0.00000000000E+00 -0.15068183156E+03  0.15068183156E+03  0.00000000000E+00 0. -1.
          2    1    1    2  501    0 -0.47911068531E+02 -0.23221974594E+02  0.11791936358E+03  0.12938201923E+03  0.00000000000E+00 0.  1.
          1    1    1    2  502    0  0.11403314401E+02  0.76421962746E+02 -0.12076896580E+03  0.14337187684E+03  0.00000000000E+00 0. -1.
         22    1    1    2    0    0 -0.38371885223E+02  0.69170942496E+00  0.16079558202E+03  0.16531212671E+03  0.00000000000E+00 0.  1.
         22    1    1    2    0    0  0.74879639353E+02 -0.53891697577E+02  0.18970363802E+03  0.21094725819E+03  0.00000000000E+00 0.  1.
</event>
<event>
 6    1  0.1293624E-005  0.1434423E+03  0.7818608E-02  0.1212004E+00
          2   -1    0    0  502    0  0.00000000000E+00  0.00000000000E+00  0.61520993840E+03  0.61520993840E+03  0.00000000000E+00 0.  1.
          1   -1    0    0  501    0 -0.00000000000E+00 -0.00000000000E+00 -0.26568235873E+03  0.26568235873E+03  0.00000000000E+00 0.  1.
          2    1    1    2  501    0  0.10052186827E+03 -0.27692531780E+02  0.22734892852E+03  0.25011808734E+03  0.00000000000E+00 0.  1.
          1    1    1    2  502    0  0.89237069457E+01 -0.18436962399E+02 -0.23325527377E+03  0.23415289208E+03  0.00000000000E+00 0.  1.
         22    1    1    2    0    0  0.28267766499E+02  0.19271040703E+02  0.91946656873E+02  0.98105185096E+02  0.00000000000E+00 0. -1.
         22    1    1    2    0    0 -0.13771334172E+03  0.26858453476E+02  0.26348726805E+03  0.29851613262E+03  0.00000000000E+00 0.  1.
</event>
<event>
 6    1  0.1293624E-005  0.8594405E+02  0.7818608E-02  0.1320193E+00
          2   -1    0    0  502    0  0.00000000000E+00  0.00000000000E+00  0.39648696182E+03  0.39648696182E+03  0.00000000000E+00 0. -1.
          1   -1    0    0  501    0 -0.00000000000E+00 -0.00000000000E+00 -0.77419506401E+02  0.77419506401E+02  0.00000000000E+00 0. -1.
          2    1    1    2  501    0 -0.57537544275E+02  0.32131155006E+01  0.10492433514E+03  0.11970801651E+03  0.00000000000E+00 0. -1.
          1    1    1    2  502    0  0.53399756456E+02  0.24900504008E+02 -0.39243865263E+02  0.70793008484E+02  0.00000000000E+00 0. -1.
         22    1    1    2    0    0  0.58504535029E+02  0.10587289274E+02  0.13482959803E+03  0.14735634299E+03  0.00000000000E+00 0. -1.
         22    1    1    2    0    0 -0.54366747209E+02 -0.38700908783E+02  0.11855738752E+03  0.13604910024E+03  0.00000000000E+00 0. -1.
</event>
<event>
 6    1  0.1293624E-005  0.1589208E+03  0.7818608E-02  0.1189921E+00
          2   -1    0    0  502    0  0.00000000000E+00  0.00000000000E+00  0.69188148842E+02  0.69188148842E+02  0.00000000000E+00 0. -1.
          1   -1    0    0  501    0 -0.00000000000E+00 -0.00000000000E+00 -0.27833187978E+03  0.27833187978E+03  0.00000000000E+00 0. -1.
          2    1    1    2  501    0  0.32624756495E+01 -0.21895347777E+02 -0.53611948224E+02  0.58002508515E+02  0.00000000000E+00 0. -1.
          1    1    1    2  502    0 -0.56437343377E+02 -0.31592020013E+01  0.27188129759E+02  0.62724386681E+02  0.00000000000E+00 0. -1.
         22    1    1    2    0    0  0.68663407183E+02 -0.46493996683E+01 -0.18055206386E+03  0.19322351867E+03  0.00000000000E+00 0. -1.
         22    1    1    2    0    0 -0.15488539456E+02  0.29703949447E+02 -0.21678486127E+01  0.33569614755E+02  0.00000000000E+00 0.  1.
</event>
<event>
 6    1  0.1293624E-005  0.1669077E+03  0.7818608E-02  0.1181112E+00
          2   -1    0    0  502    0  0.00000000000E+00  0.00000000000E+00  0.95543451072E+03  0.95543451072E+03  0.00000000000E+00 0. -1.
          1   -1    0    0  501    0 -0.00000000000E+00 -0.00000000000E+00 -0.14475284597E+02  0.14475284597E+02  0.00000000000E+00 0. -1.
          2    1    1    2  501    0 -0.20791954496E+02  0.18126610184E+02  0.27257760585E+02  0.38779696758E+02  0.00000000000E+00 0. -1.
          1    1    1    2  502    0  0.20669425504E+02  0.13534746993E+02  0.46276313333E+03  0.46342219637E+03  0.00000000000E+00 0. -1.
         22    1    1    2    0    0  0.44780703805E+02 -0.55865384580E+02  0.22443299292E+03  0.23557678353E+03  0.00000000000E+00 0. -1.
         22    1    1    2    0    0 -0.44658174813E+02  0.24204027402E+02  0.22650533929E+03  0.23213111865E+03  0.00000000000E+00 0.  1.
</event>
<event>
 6    1  0.1293624E-005  0.2202150E+03  0.7818608E-02  0.1189462E+00
          2   -1    0    0  502    0  0.00000000000E+00  0.00000000000E+00  0.13113916616E+03  0.13113916616E+03  0.00000000000E+00 0.  1.
          1   -1    0    0  501    0 -0.00000000000E+00 -0.00000000000E+00 -0.20712447955E+04  0.20712447955E+04  0.00000000000E+00 0.  1.
          2    1    1    2  501    0 -0.12755263127E+03 -0.42278808596E+02 -0.56508192292E+02  0.14577498824E+03  0.00000000000E+00 0.  1.
          1    1    1    2  502    0  0.19439160434E+03  0.10253900546E+03 -0.18923886337E+04  0.19051081556E+04  0.00000000000E+00 0.  1.
         22    1    1    2    0    0 -0.41985760148E+02 -0.52794251655E+01 -0.51194401423E+02  0.66419448374E+02  0.00000000000E+00 0. -1.
         22    1    1    2    0    0 -0.24853212919E+02 -0.54980771699E+02  0.59985598090E+02  0.85081369448E+02  0.00000000000E+00 0.  1.
</event>
<event>
 6    1  0.1293624E-005  0.4772546E+02  0.7818608E-02  0.1461515E+00
          2   -1    0    0  502    0  0.00000000000E+00  0.00000000000E+00  0.20962955451E+03  0.20962955451E+03  0.00000000000E+00 0. -1.
          1   -1    0    0  501    0 -0.00000000000E+00 -0.00000000000E+00 -0.22932265659E+03  0.22932265659E+03  0.00000000000E+00 0.  1.
          2    1    1    2  501    0 -0.16920158906E+02 -0.32609296613E+02  0.10774644212E+02  0.38285127150E+02  0.00000000000E+00 0. -1.
          1    1    1    2  502    0 -0.32407798916E+01  0.34878122736E+02 -0.19225285908E+03  0.19541788025E+03  0.00000000000E+00 0.  1.
         22    1    1    2    0    0 -0.98024510570E+01 -0.33765350849E+02 -0.25592038224E+01  0.35252467841E+02  0.00000000000E+00 0.  1.
         22    1    1    2    0    0  0.29963389854E+02  0.31496524725E+02  0.16434431660E+03  0.16999673586E+03  0.00000000000E+00 0. -1.
</event>
<event>
 6    1  0.1293624E-005  0.1981254E+03  0.7818608E-02  0.1151330E+00
          2   -1    0    0  502    0  0.00000000000E+00  0.00000000000E+00  0.99017160231E+02  0.99017160231E+02  0.00000000000E+00 0. -1.
          1   -1    0    0  501    0 -0.00000000000E+00 -0.00000000000E+00 -0.26752715085E+03  0.26752715085E+03  0.00000000000E+00 0. -1.
          2    1    1    2  501    0 -0.21643216166E+02  0.67542510303E+01  0.49429348234E+02  0.54381147283E+02  0.00000000000E+00 0. -1.
          1    1    1    2  502    0 -0.19777821962E+02 -0.15392505738E+02 -0.16653384839E+03  0.16840906785E+03  0.00000000000E+00 0. -1.
         22    1    1    2    0    0  0.27769334771E+02  0.59498616918E+02 -0.61695527421E+02  0.90097499813E+02  0.00000000000E+00 0. -1.
         22    1    1    2    0    0  0.13651703358E+02 -0.50860362210E+02  0.10290036954E+02  0.53656596139E+02  0.00000000000E+00 0. -1.
</event>
<event>
 6    1  0.1360087E-005  0.4149081E+03  0.7818608E-02  0.1038736E+00
          2   -1    0    0  502    0  0.00000000000E+00  0.00000000000E+00  0.39721651662E+04  0.39721651662E+04  0.00000000000E+00 0. -1.
          1   -1    0    0  501    0 -0.00000000000E+00 -0.00000000000E+00 -0.81691016070E+02  0.81691016070E+02  0.00000000000E+00 0. -1.
          2    1    1    2  501    0 -0.84318592220E+02  0.24800456293E+03  0.32258531869E+03  0.41554443331E+03  0.00000000000E+00 0. -1.
          1    1    1    2  502    0  0.13613314505E+03 -0.31832632406E+03  0.33723643518E+04  0.33900892619E+04  0.00000000000E+00 0. -1.
         22    1    1    2    0    0 -0.74233753572E+02  0.42486653351E+01  0.59065390571E+02  0.94960105780E+02  0.00000000000E+00 0.  1.
         22    1    1    2    0    0  0.22419200743E+02  0.66073095800E+02  0.13645908907E+03  0.15326238136E+03  0.00000000000E+00 0.  1.
</event>
<event>
 6    1  0.1293624E-005  0.2376335E+03  0.7818608E-02  0.1121379E+00
          2   -1    0    0  502    0  0.00000000000E+00  0.00000000000E+00  0.45792105458E+03  0.45792105458E+03  0.00000000000E+00 0. -1.
          1   -1    0    0  501    0 -0.00000000000E+00 -0.00000000000E+00 -0.77647081500E+02  0.77647081500E+02  0.00000000000E+00 0. -1.
          2    1    1    2  501    0 -0.58155185841E+02  0.86814741434E+02  0.66014827297E+02  0.12359928152E+03  0.00000000000E+00 0. -1.
          1    1    1    2  502    0  0.66975230685E+02 -0.11534796658E+03  0.18457050974E+03  0.22772155801E+03  0.00000000000E+00 0. -1.
         22    1    1    2    0    0  0.33767801073E+02  0.53264244732E+02  0.23693733670E+02  0.67370150448E+02  0.00000000000E+00 0. -1.
         22    1    1    2    0    0 -0.42587845917E+02 -0.24731019589E+02  0.10599490237E+03  0.11687714609E+03  0.00000000000E+00 0. -1.
</event>
<event>
 6    1  0.1293624E-005  0.3771317E+03  0.7818608E-02  0.1051999E+00
          2   -1    0    0  502    0  0.00000000000E+00  0.00000000000E+00  0.26721338599E+03  0.26721338599E+03  0.00000000000E+00 0.  1.
          1   -1    0    0  501    0 -0.00000000000E+00 -0.00000000000E+00 -0.98193745708E+03  0.98193745708E+03  0.00000000000E+00 0.  1.
          2    1    1    2  501    0 -0.19754384673E+03  0.68173000513E+02  0.93621494036E+02  0.22898933059E+03  0.00000000000E+00 0.  1.
          1    1    1    2  502    0  0.94358645994E+02 -0.10540422593E+03 -0.83994373943E+03  0.85177408409E+03  0.00000000000E+00 0.  1.
         22    1    1    2    0    0 -0.18506960445E+02 -0.87757872586E+01  0.32347373680E+02  0.38286741973E+02  0.00000000000E+00 0.  1.
         22    1    1    2    0    0  0.12169216118E+03  0.46007012678E+02 -0.74919937778E+00  0.13010068642E+03  0.00000000000E+00 0. -1.
</event>
<event>
 6    1  0.1293624E-005  0.3346660E+03  0.7818608E-02  0.1069091E+00
          2   -1    0    0  502    0  0.00000000000E+00  0.00000000000E+00  0.62430875981E+03  0.62430875981E+03  0.00000000000E+00 0.  1.
          1   -1    0    0  501    0 -0.00000000000E+00 -0.00000000000E+00 -0.16977678785E+03  0.16977678785E+03  0.00000000000E+00 0.  1.
          2    1    1    2  501    0 -0.23692455610E+02 -0.62526557147E+02  0.36236656126E+03  0.36848395830E+03  0.00000000000E+00 0.  1.
          1    1    1    2  502    0 -0.85513835406E+02 -0.57109477473E+02 -0.10189784101E+03  0.14476628912E+03  0.00000000000E+00 0.  1.
         22    1    1    2    0    0 -0.11065251982E+02 -0.56063729461E+01  0.60528166864E+02  0.61786165141E+02  0.00000000000E+00 0.  1.
         22    1    1    2    0    0  0.12027154300E+03  0.12524240757E+03  0.13353508484E+03  0.21904913511E+03  0.00000000000E+00 0.  1.
</event>
<event>
 6    1  0.1293624E-005  0.1301426E+03  0.7818608E-02  0.1227886E+00
          2   -1    0    0  502    0  0.00000000000E+00  0.00000000000E+00  0.57310425358E+03  0.57310425358E+03  0.00000000000E+00 0.  1.
          1   -1    0    0  501    0 -0.00000000000E+00 -0.00000000000E+00 -0.11147360052E+03  0.11147360052E+03  0.00000000000E+00 0. -1.
          2    1    1    2  501    0 -0.91149898444E+02  0.62786071907E+01  0.13732555436E+03  0.16494251355E+03  0.00000000000E+00 0.  1.
          1    1    1    2  502    0 -0.16617281146E+02  0.13671692969E+02 -0.80184784619E+02  0.83021978450E+02  0.00000000000E+00 0. -1.
         22    1    1    2    0    0 -0.27585988283E+02 -0.49129629544E+01  0.61841810251E+02  0.67893544978E+02  0.00000000000E+00 0. -1.
         22    1    1    2    0    0  0.13535316787E+03 -0.15037337205E+02  0.34264807306E+03  0.36871981712E+03  0.00000000000E+00 0.  1.
</event>
<event>
 6    1  0.1293624E-005  0.1087397E+03  0.7818608E-02  0.1290023E+00
          2   -1    0    0  502    0  0.00000000000E+00  0.00000000000E+00  0.27095071184E+02  0.27095071184E+02  0.00000000000E+00 0. -1.
          1   -1    0    0  501    0 -0.00000000000E+00 -0.00000000000E+00 -0.13181808611E+04  0.13181808611E+04  0.00000000000E+00 0. -1.
          2    1    1    2  501    0 -0.65820119578E+02 -0.21427672587E+02 -0.14813806747E+03  0.16351244701E+03  0.00000000000E+00 0. -1.
          1    1    1    2  502    0  0.79445258630E+02  0.65170650541E+02 -0.89664552163E+03  0.90251424048E+03  0.00000000000E+00 0. -1.
         22    1    1    2    0    0 -0.64029920749E+02 -0.31320308533E+01 -0.94174506562E+02  0.11392312344E+03  0.00000000000E+00 0.  1.
         22    1    1    2    0    0  0.50404781697E+02 -0.40610947101E+02 -0.15212769426E+03  0.16532612135E+03  0.00000000000E+00 0. -1.
</event>
<event>
 6    1  0.1293624E-005  0.5700472E+02  0.7818608E-02  0.1416487E+00
          2   -1    0    0  502    0  0.00000000000E+00  0.00000000000E+00  0.41983653365E+02  0.41983653365E+02  0.00000000000E+00 0.  1.
          1   -1    0    0  501    0 -0.00000000000E+00 -0.00000000000E+00 -0.49625234881E+03  0.49625234881E+03  0.00000000000E+00 0.  1.
          2    1    1    2  501    0  0.35920058951E+02 -0.75502331587E+01 -0.92148994793E+02  0.99190190529E+02  0.00000000000E+00 0.  1.
          1    1    1    2  502    0 -0.13340769925E+02 -0.21379878252E+02 -0.29373322258E+03  0.29481228161E+03  0.00000000000E+00 0.  1.
         22    1    1    2    0    0  0.11500220261E+02 -0.11534481007E+02 -0.86725228755E+02  0.88241513024E+02  0.00000000000E+00 0.  1.
         22    1    1    2    0    0 -0.34079509287E+02  0.40464592417E+02  0.18338750687E+02  0.55992017016E+02  0.00000000000E+00 0.  1.
</event>
<event>
 6    1  0.1293624E-005  0.7421465E+02  0.7818608E-02  0.1349563E+00
          2   -1    0    0  502    0  0.00000000000E+00  0.00000000000E+00  0.20415676127E+03  0.20415676127E+03  0.00000000000E+00 0. -1.
          1   -1    0    0  501    0 -0.00000000000E+00 -0.00000000000E+00 -0.23600268476E+03  0.23600268476E+03  0.00000000000E+00 0. -1.
          2    1    1    2  501    0 -0.18022627745E+02  0.35793456704E+02  0.14567366543E+01  0.40101231095E+02  0.00000000000E+00 0. -1.
          1    1    1    2  502    0  0.54946088030E+02 -0.23239057016E+02 -0.18713870984E+03  0.19641798054E+03  0.00000000000E+00 0. -1.
         22    1    1    2    0    0 -0.77819623257E+01  0.50633998286E+02  0.24526897536E+02  0.56797265980E+02  0.00000000000E+00 0.  1.
         22    1    1    2    0    0 -0.29141497959E+02 -0.63188397974E+02  0.12930915216E+03  0.14684296842E+03  0.00000000000E+00 0. -1.
</event>
<event>
 6    1  0.1293624E-005  0.2270660E+03  0.7818608E-02  0.1128722E+00
          2   -1    0    0  502    0  0.00000000000E+00  0.00000000000E+00  0.86227299071E+02  0.86227299071E+02  0.00000000000E+00 0.  1.
          1   -1    0    0  501    0 -0.00000000000E+00 -0.00000000000E+00 -0.71900881188E+03  0.71900881188E+03  0.00000000000E+00 0.  1.
          2    1    1    2  501    0  0.51536284054E+02  0.10581501397E+02  0.37778878718E+02  0.64770366859E+02  0.00000000000E+00 0.  1.
          1    1    1    2  502    0  0.12532346752E+02 -0.24664157799E+02 -0.56860147350E+03  0.56927411329E+03  0.00000000000E+00 0.  1.
         22    1    1    2    0    0  0.13019705130E+02 -0.28788063965E+02  0.56017121480E+01  0.32088074537E+02  0.00000000000E+00 0.  1.
         22    1    1    2    0    0 -0.77088335936E+02  0.42870720367E+02 -0.10756063017E+03  0.13910355626E+03  0.00000000000E+00 0.  1.
</event>
<event>
 6    1  0.1293624E-005  0.2462703E+03  0.7818608E-02  0.1115685E+00
          2   -1    0    0  502    0  0.00000000000E+00  0.00000000000E+00  0.59694694966E+03  0.59694694966E+03  0.00000000000E+00 0.  1.
          1   -1    0    0  501    0 -0.00000000000E+00 -0.00000000000E+00 -0.62283374886E+03  0.62283374886E+03  0.00000000000E+00 0.  1.
          2    1    1    2  501    0 -0.10905491955E+02  0.49113080838E+02  0.37643134659E+03  0.37977833424E+03  0.00000000000E+00 0.  1.
          1    1    1    2  502    0 -0.87454317909E+01  0.18301328301E+02 -0.59725457940E+03  0.59759890713E+03  0.00000000000E+00 0.  1.
         22    1    1    2    0    0 -0.43685426595E+02  0.11054158047E+01  0.10077019090E+03  0.10983747000E+03  0.00000000000E+00 0.  1.
         22    1    1    2    0    0  0.63336350341E+02 -0.68519824943E+02  0.94166242704E+02  0.13256598715E+03  0.00000000000E+00 0.  1.
</event>
<event>
 6    1  0.1293624E-005  0.2184149E+03  0.7818608E-02  0.1135070E+00
          2   -1    0    0  502    0  0.00000000000E+00  0.00000000000E+00  0.12257355915E+03  0.12257355915E+03  0.00000000000E+00 0.  1.
          1   -1    0    0  501    0 -0.00000000000E+00 -0.00000000000E+00 -0.18778120899E+03  0.18778120899E+03  0.00000000000E+00 0.  1.
          2    1    1    2  501    0  0.19321083389E+02 -0.46283182172E+02 -0.41579225061E+02  0.65148055780E+02  0.00000000000E+00 0.  1.
          1    1    1    2  502    0  0.26857709841E+02  0.26662339083E+01 -0.86777067081E+02  0.90877416074E+02  0.00000000000E+00 0.  1.
         22    1    1    2    0    0 -0.83345763621E+01  0.73741232379E+02  0.73952517563E+02  0.10476740605E+03  0.00000000000E+00 0.  1.
         22    1    1    2    0    0 -0.37844216867E+02 -0.30124284116E+02 -0.10803875263E+02  0.49561890243E+02  0.00000000000E+00 0.  1.
</event>
<event>
 6    1  0.1293624E-005  0.1001988E+03  0.7818608E-02  0.1285056E+00
          2   -1    0    0  502    0  0.00000000000E+00  0.00000000000E+00  0.50222632213E+02  0.50222632213E+02  0.00000000000E+00 0.  1.
          1   -1    0    0  501    0 -0.00000000000E+00 -0.00000000000E+00 -0.12218280440E+04  0.12218280440E+04  0.00000000000E+00 0. -1.
          2    1    1    2  501    0  0.60432887899E+02 -0.48031522234E+01 -0.52009610787E+02  0.79876178084E+02  0.00000000000E+00 0.  1.
          1    1    1    2  502    0 -0.28737140408E+01  0.50295557063E+02 -0.10043208047E+04  0.10055835023E+04  0.00000000000E+00 0. -1.
         22    1    1    2    0    0  0.28806943866E+02  0.81807109395E+01  0.35962608443E+01  0.30161185958E+02  0.00000000000E+00 0.  1.
         22    1    1    2    0    0 -0.86366117724E+02 -0.53673115779E+02 -0.11887125713E+03  0.15642980988E+03  0.00000000000E+00 0.  1.
</event>
<event>
 6    1  0.1293624E-005  0.7493977E+02  0.7818608E-02  0.1346575E+00
          2   -1    0    0  502    0  0.00000000000E+00  0.00000000000E+00  0.28520639348E+03  0.28520639348E+03  0.00000000000E+00 0. -1.
          1   -1    0    0  501    0 -0.00000000000E+00 -0.00000000000E+00 -0.11114962491E+03  0.11114962491E+03  0.00000000000E+00 0. -1.
          2    1    1    2  501    0 -0.35656777931E+02 -0.31875569357E+02  0.11069428619E+03  0.12058475330E+03  0.00000000000E+00 0. -1.
          1    1    1    2  502    0  0.19386194729E+02 -0.35647741724E+02 -0.68693447067E+02  0.79783304683E+02  0.00000000000E+00 0. -1.
         22    1    1    2    0    0  0.35344680259E+02  0.79670221528E+02  0.31116277772E+02  0.92546276875E+02  0.00000000000E+00 0. -1.
         22    1    1    2    0    0 -0.19074097057E+02 -0.12146910447E+02  0.10093965168E+03  0.10344168353E+03  0.00000000000E+00 0. -1.
</event>
<event>
 6    1  0.1293624E-005  0.6297247E+02  0.7818608E-02  0.1390409E+00
          2   -1    0    0  502    0  0.00000000000E+00  0.00000000000E+00  0.17446519543E+03  0.17446519543E+03  0.00000000000E+00 0. -1.
          1   -1    0    0  501    0 -0.00000000000E+00 -0.00000000000E+00 -0.62442484512E+02  0.62442484512E+02  0.00000000000E+00 0.  1.
          2    1    1    2  501    0  0.16986039003E+02  0.18753074559E+02  0.35415919462E+02  0.43525747297E+02  0.00000000000E+00 0. -1.
          1    1    1    2  502    0  0.35810812364E+02 -0.21822981445E+02  0.28857280513E+02  0.50905789847E+02  0.00000000000E+00 0.  1.
         22    1    1    2    0    0  0.33029722781E+02 -0.52638906608E-01  0.45930359444E+02  0.56573520983E+02  0.00000000000E+00 0.  1.
         22    1    1    2    0    0 -0.85826574148E+02  0.31225457936E+01  0.18191514967E+01  0.85902621813E+02  0.00000000000E+00 0.  1.
</event>
<event>
 6    1  0.1293624E-005  0.1073918E+03  0.7818608E-02  0.1267540E+00
          2   -1    0    0  502    0  0.00000000000E+00  0.00000000000E+00  0.38708772622E+03  0.38708772622E+03  0.00000000000E+00 0. -1.
          1   -1    0    0  501    0 -0.00000000000E+00 -0.00000000000E+00 -0.87813581886E+03  0.87813581886E+03  0.00000000000E+00 0.  1.
          2    1    1    2  501    0  0.15749637497E+02 -0.77570483806E+02  0.14526667409E+03  0.16543167061E+03  0.00000000000E+00 0. -1.
          1    1    1    2  502    0 -0.51859798925E+02  0.11234396121E+02 -0.84509922918E+03  0.84676346022E+03  0.00000000000E+00 0.  1.
         22    1    1    2    0    0  0.15076354955E+02 -0.29462942392E+02  0.10560704089E+03  0.11067162481E+03  0.00000000000E+00 0. -1.
         22    1    1    2    0    0  0.21033806473E+02  0.95799030077E+02  0.10317742156E+03  0.14235678944E+03  0.00000000000E+00 0. -1.
</event>
<event>
 6    1  0.1293624E-005  0.1974062E+03  0.7818608E-02  0.1151946E+00
          2   -1    0    0  502    0  0.00000000000E+00  0.00000000000E+00  0.72943399741E+02  0.72943399741E+02  0.00000000000E+00 0. -1.
          1   -1    0    0  501    0 -0.00000000000E+00 -0.00000000000E+00 -0.19805780070E+04  0.19805780070E+04  0.00000000000E+00 0. -1.
          2    1    1    2  501    0  0.32669295415E+02 -0.19435840300E+02 -0.69915029219E+02  0.79581065975E+02  0.00000000000E+00 0. -1.
          1    1    1    2  502    0 -0.40829243862E+02  0.37112444900E+02 -0.18458469613E+04  0.18466714286E+04  0.00000000000E+00 0. -1.
         22    1    1    2    0    0 -0.27472736159E+02  0.34024777911E+02 -0.30710302912E+02  0.53437434901E+02  0.00000000000E+00 0.  1.
         22    1    1    2    0    0  0.35632684606E+02 -0.51701382510E+02  0.38837686172E+02  0.73831477250E+02  0.00000000000E+00 0. -1.
</event>
<event>
 6    1  0.1293624E-005  0.2439676E+03  0.7818608E-02  0.1117178E+00
          2   -1    0    0  502    0  0.00000000000E+00  0.00000000000E+00  0.42483835619E+03  0.42483835619E+03  0.00000000000E+00 0.  1.
          1   -1    0    0  501    0 -0.00000000000E+00 -0.00000000000E+00 -0.49689134588E+03  0.49689134588E+03  0.00000000000E+00 0.  1.
          2    1    1    2  501    0 -0.78634193781E+02  0.34115527488E+02  0.10862649387E+03  0.13837239905E+03  0.00000000000E+00 0.  1.
          1    1    1    2  502    0  0.62295859675E+02  0.55917800444E+02 -0.45775471383E+03  0.46534605680E+03  0.00000000000E+00 0.  1.
         22    1    1    2    0    0  0.26573486999E+02  0.11471352690E+02  0.16054441178E+03  0.16313261568E+03  0.00000000000E+00 0.  1.
         22    1    1    2    0    0 -0.10235152893E+02 -0.10150468062E+03  0.11653081849E+03  0.15487863055E+03  0.00000000000E+00 0.  1.
</event>
<event>
 6    1  0.1293624E-005  0.1817642E+03  0.7818608E-02  0.1166327E+00
          2   -1    0    0  502    0  0.00000000000E+00  0.00000000000E+00  0.79919333705E+03  0.79919333705E+03  0.00000000000E+00 0. -1.
          1   -1    0    0  501    0 -0.00000000000E+00 -0.00000000000E+00 -0.40249954326E+03  0.40249954326E+03  0.00000000000E+00 0.  1.
          2    1    1    2  501    0  0.83137587106E+02 -0.90477127720E+02  0.14129667932E+03  0.18725042221E+03  0.00000000000E+00 0. -1.
          1    1    1    2  502    0 -0.28808184497E+02 -0.11244587130E+03 -0.34638319340E+03  0.36531534616E+03  0.00000000000E+00 0.  1.
         22    1    1    2    0    0 -0.69118511811E+02  0.20995421239E+03  0.58634064727E+03  0.62662069437E+03  0.00000000000E+00 0. -1.
         22    1    1    2    0    0  0.14789109202E+02 -0.70312133673E+01  0.15439660595E+02  0.22506417567E+02  0.00000000000E+00 0. -1.
</event>
<event>
 6    1  0.1293624E-005  0.3057580E+03  0.7818608E-02  0.1181385E+00
          2   -1    0    0  502    0  0.00000000000E+00  0.00000000000E+00  0.41831023721E+03  0.41831023721E+03  0.00000000000E+00 0. -1.
          1   -1    0    0  501    0 -0.00000000000E+00 -0.00000000000E+00 -0.26042395123E+03  0.26042395123E+03  0.00000000000E+00 0. -1.
          2    1    1    2  501    0  0.61347696238E+02 -0.36923652685E+02 -0.49937906003E+02  0.87296565896E+02  0.00000000000E+00 0. -1.
          1    1    1    2  502    0 -0.17705423163E+03  0.23220304082E+03  0.14815727568E+03  0.32744011887E+03  0.00000000000E+00 0. -1.
         22    1    1    2    0    0  0.26981455087E+02 -0.37523559702E+00  0.40937895847E+02  0.49031123144E+02  0.00000000000E+00 0.  1.
         22    1    1    2    0    0  0.88725080304E+02 -0.19490415254E+03  0.18729020455E+02  0.21496638054E+03  0.00000000000E+00 0.  1.
</event>
<event>
 6    1  0.1293624E-005  0.2096009E+03  0.7818608E-02  0.1141882E+00
          2   -1    0    0  502    0  0.00000000000E+00  0.00000000000E+00  0.16458843869E+03  0.16458843869E+03  0.00000000000E+00 0. -1.
          1   -1    0    0  501    0 -0.00000000000E+00 -0.00000000000E+00 -0.26990671049E+03  0.26990671049E+03  0.00000000000E+00 0. -1.
          2    1    1    2  501    0 -0.63292437666E+02 -0.43016209613E+02  0.53629750412E+01  0.76714330190E+02  0.00000000000E+00 0. -1.
          1    1    1    2  502    0  0.53668465649E+02  0.13121671128E+02 -0.19781977216E+03  0.20539022547E+03  0.00000000000E+00 0. -1.
         22    1    1    2    0    0  0.33722407824E+02  0.55529186505E+02  0.75899261265E+01  0.65408702188E+02  0.00000000000E+00 0. -1.
         22    1    1    2    0    0 -0.24098435808E+02 -0.25634648020E+02  0.79548599190E+02  0.86981891337E+02  0.00000000000E+00 0. -1.
</event>
<event>
 6    1  0.1293624E-005  0.3563197E+03  0.7818608E-02  0.1060051E+00
          2   -1    0    0  502    0  0.00000000000E+00  0.00000000000E+00  0.30685693094E+03  0.30685693094E+03  0.00000000000E+00 0. -1.
          1   -1    0    0  501    0 -0.00000000000E+00 -0.00000000000E+00 -0.43399576637E+03  0.43399576637E+03  0.00000000000E+00 0.  1.
          2    1    1    2  501    0  0.10690199787E+03 -0.16381530623E+03  0.10408826481E+03  0.22158036595E+03  0.00000000000E+00 0. -1.
          1    1    1    2  502    0 -0.14193804170E+03  0.24432169249E+03 -0.23613184398E+03  0.36823599070E+03  0.00000000000E+00 0.  1.
         22    1    1    2    0    0  0.53117709937E+02 -0.11780655307E+02  0.43958855586E+02  0.69947522707E+02  0.00000000000E+00 0. -1.
         22    1    1    2    0    0 -0.18081666105E+02 -0.68725730956E+02 -0.39054111847E+02  0.81088817951E+02  0.00000000000E+00 0.  1.
</event>
<event>
 6    1  0.1293624E-005  0.2434422E+03  0.7818608E-02  0.1117521E+00
          2   -1    0    0  502    0  0.00000000000E+00  0.00000000000E+00  0.24904548497E+03  0.24904548497E+03  0.00000000000E+00 0.  1.
          1   -1    0    0  501    0 -0.00000000000E+00 -0.00000000000E+00 -0.91236902374E+03  0.91236902374E+03  0.00000000000E+00 0. -1.
          2    1    1    2  501    0 -0.38110000764E+02 -0.69609210353E+02  0.22025009156E+02  0.82358456473E+02  0.00000000000E+00 0.  1.
          1    1    1    2  502    0  0.65497724894E+02  0.14736999228E+03 -0.84335447150E+03  0.85863533073E+03  0.00000000000E+00 0. -1.
         22    1    1    2    0    0  0.79286387964E+01  0.29050734905E+02  0.50270010028E+01  0.30529972990E+02  0.00000000000E+00 0.  1.
         22    1    1    2    0    0 -0.35316362927E+02 -0.10681151684E+03  0.15297892257E+03  0.18989074851E+03  0.00000000000E+00 0.  1.
</event>
<event>
 6    1  0.1293624E-005  0.1929529E+03  0.7818608E-02  0.1176872E+00
          2   -1    0    0  502    0  0.00000000000E+00  0.00000000000E+00  0.19569872735E+03  0.19569872735E+03  0.00000000000E+00 0.  1.
          1   -1    0    0  501    0 -0.00000000000E+00 -0.00000000000E+00 -0.36272977673E+04  0.36272977673E+04  0.00000000000E+00 0. -1.
          2    1    1    2  501    0  0.12917386305E+03 -0.19849281507E+03 -0.21335878259E+03  0.31875892872E+03  0.00000000000E+00 0.  1.
          1    1    1    2  502    0 -0.21970292432E+02  0.18615997794E+03 -0.33112470442E+04  0.33165486909E+04  0.00000000000E+00 0. -1.
         22    1    1    2    0    0 -0.11755721708E+03  0.17499272423E+02  0.11338015446E+03  0.16425889092E+03  0.00000000000E+00 0.  1.
         22    1    1    2    0    0  0.10353646458E+02 -0.51664352871E+01 -0.20373367609E+02  0.23429984129E+02  0.00000000000E+00 0.  1.
</event>
<event>
 6    1  0.1293624E-005  0.1627188E+03  0.7818608E-02  0.1187265E+00
          2   -1    0    0  502    0  0.00000000000E+00  0.00000000000E+00  0.13026824377E+04  0.13026824377E+04  0.00000000000E+00 0. -1.
          1   -1    0    0  501    0 -0.00000000000E+00 -0.00000000000E+00 -0.26056048425E+03  0.26056048425E+03  0.00000000000E+00 0. -1.
          2    1    1    2  501    0 -0.12823935507E+03 -0.14345015290E+02  0.56422242887E+03  0.57879017001E+03  0.00000000000E+00 0. -1.
          1    1    1    2  502    0 -0.25894262110E+02  0.39791656968E+02 -0.23708366191E+03  0.24179030484E+03  0.00000000000E+00 0. -1.
         22    1    1    2    0    0 -0.17566445351E+02 -0.18617602552E+02  0.14852226383E+03  0.15071183756E+03  0.00000000000E+00 0. -1.
         22    1    1    2    0    0  0.17170006253E+03 -0.68290391254E+01  0.56646092269E+03  0.59195060958E+03  0.00000000000E+00 0. -1.
</event>
<event>
 6    1  0.1293624E-005  0.1602158E+03  0.7818608E-02  0.1188453E+00
          2   -1    0    0  502    0  0.00000000000E+00  0.00000000000E+00  0.52216286506E+03  0.52216286506E+03  0.00000000000E+00 0. -1.
          1   -1    0    0  501    0 -0.00000000000E+00 -0.00000000000E+00 -0.12391075690E+03  0.12391075690E+03  0.00000000000E+00 0.  1.
          2    1    1    2  501    0  0.28509121635E+02  0.49665192232E+01  0.43936539060E+02  0.52610415263E+02  0.00000000000E+00 0. -1.
          1    1    1    2  502    0 -0.28916967580E+02  0.20755063563E+00 -0.10970303359E+03  0.11345038417E+03  0.00000000000E+00 0.  1.
         22    1    1    2    0    0  0.31503097995E+02 -0.53359072854E+02  0.29783578900E+03  0.30421340051E+03  0.00000000000E+00 0. -1.
         22    1    1    2    0    0 -0.31095252050E+02  0.48185002995E+02  0.16618281369E+03  0.17579942201E+03  0.00000000000E+00 0. -1.
</event>
<event>
 6    1  0.1293624E-005  0.1914173E+03  0.7818608E-02  0.1157652E+00
          2   -1    0    0  502    0  0.00000000000E+00  0.00000000000E+00  0.31185559829E+03  0.31185559829E+03  0.00000000000E+00 0.  1.
          1   -1    0    0  501    0 -0.00000000000E+00 -0.00000000000E+00 -0.92781390801E+03  0.92781390801E+03  0.00000000000E+00 0.  1.
          2    1    1    2  501    0  0.13408436419E+03 -0.13648383076E+03 -0.13511057847E+03  0.23422493717E+03  0.00000000000E+00 0.  1.
          1    1    1    2  502    0 -0.25924550240E+02 -0.42096563645E+01 -0.69833720185E+03  0.69883091731E+03  0.00000000000E+00 0.  1.
         22    1    1    2    0    0 -0.12036318243E+03  0.14355467312E+03  0.22438498867E+03  0.29230782234E+03  0.00000000000E+00 0.  1.
         22    1    1    2    0    0  0.12203368483E+02 -0.28611859979E+01 -0.68955180703E+01  0.14305829480E+02  0.00000000000E+00 0. -1.
</event>
<event>
 6    1  0.1293624E-005  0.1836652E+03  0.7818608E-02  0.1164990E+00
          2   -1    0    0  502    0  0.00000000000E+00  0.00000000000E+00  0.13139053377E+03  0.13139053377E+03  0.00000000000E+00 0.  1.
          1   -1    0    0  501    0 -0.00000000000E+00 -0.00000000000E+00 -0.79486207309E+03  0.79486207309E+03  0.00000000000E+00 0.  1.
          2    1    1    2  501    0 -0.16358202137E+03  0.10525340933E+03 -0.22102994468E+03  0.29443436337E+03  0.00000000000E+00 0.  1.
          1    1    1    2  502    0  0.18437454472E+02 -0.38015780032E+02 -0.42537851727E+03  0.42747166247E+03  0.00000000000E+00 0.  1.
         22    1    1    2    0    0 -0.14112002621E+02  0.17164133086E+01 -0.27005383044E+02  0.30518607537E+02  0.00000000000E+00 0.  1.
         22    1    1    2    0    0  0.15925656952E+03 -0.68954042607E+02  0.99423056682E+01  0.17382797349E+03  0.00000000000E+00 0.  1.
</event>
<event>
 6    1  0.1293624E-005  0.2796344E+03  0.7818608E-02  0.1095889E+00
          2   -1    0    0  502    0  0.00000000000E+00  0.00000000000E+00  0.70892524333E+03  0.70892524333E+03  0.00000000000E+00 0. -1.
          1   -1    0    0  501    0 -0.00000000000E+00 -0.00000000000E+00 -0.76587559216E+02  0.76587559216E+02  0.00000000000E+00 0. -1.
          2    1    1    2  501    0 -0.12745005473E+02 -0.54739234326E+02  0.26503396842E+02  0.62138949004E+02  0.00000000000E+00 0. -1.
          1    1    1    2  502    0 -0.55944418215E+01 -0.47102456154E+02 -0.36969434188E+02  0.60138824558E+02  0.00000000000E+00 0. -1.
         22    1    1    2    0    0 -0.35305801717E+02 -0.25290993398E+01  0.68943375157E+02  0.77498935195E+02  0.00000000000E+00 0. -1.
         22    1    1    2    0    0  0.53645249012E+02  0.10437078982E+03  0.57386034630E+03  0.58573609379E+03  0.00000000000E+00 0. -1.
</event>
<event>
 6    1  0.1293624E-005  0.8466891E+02  0.7818608E-02  0.1318288E+00
          2   -1    0    0  502    0  0.00000000000E+00  0.00000000000E+00  0.17846608820E+03  0.17846608820E+03  0.00000000000E+00 0.  1.
          1   -1    0    0  501    0 -0.00000000000E+00 -0.00000000000E+00 -0.60610188409E+02  0.60610188409E+02  0.00000000000E+00 0.  1.
          2    1    1    2  501    0  0.29098366747E+02  0.35013378331E+02  0.29905231059E+01  0.45624498221E+02  0.00000000000E+00 0.  1.
          1    1    1    2  502    0 -0.23695833576E+02  0.10097892908E+02  0.12527111896E+02  0.28642424871E+02  0.00000000000E+00 0.  1.
         22    1    1    2    0    0 -0.44942549606E+02 -0.66011090831E+02  0.85571310745E+02  0.11704591450E+03  0.00000000000E+00 0.  1.
         22    1    1    2    0    0  0.39540016436E+02  0.20899819592E+02  0.16766954040E+02  0.47763439015E+02  0.00000000000E+00 0.  1.
</event>
<event>
 6    1  0.1293624E-005  0.1813015E+03  0.7818608E-02  0.1166549E+00
          2   -1    0    0  502    0  0.00000000000E+00  0.00000000000E+00  0.70932054895E+02  0.70932054895E+02  0.00000000000E+00 0.  1.
          1   -1    0    0  501    0 -0.00000000000E+00 -0.00000000000E+00 -0.21804729514E+04  0.21804729514E+04  0.00000000000E+00 0. -1.
          2    1    1    2  501    0 -0.27674716622E+02  0.37313207303E+02 -0.37508207879E+02  0.59707880867E+02  0.00000000000E+00 0.  1.
          1    1    1    2  502    0  0.23879307746E+02 -0.54093437005E+02 -0.20635024392E+04  0.20643494466E+04  0.00000000000E+00 0. -1.
         22    1    1    2    0    0 -0.32747027769E+02 -0.31861272368E+02  0.30619855179E+02  0.55000763956E+02  0.00000000000E+00 0.  1.
         22    1    1    2    0    0  0.36542436645E+02  0.48641502069E+02 -0.39150104674E+02  0.72346914899E+02  0.00000000000E+00 0.  1.
</event>
<event>
 6    1  0.1293624E-005  0.2361023E+03  0.7818608E-02  0.1122417E+00
          2   -1    0    0  502    0  0.00000000000E+00  0.00000000000E+00  0.18069531507E+02  0.18069531507E+02  0.00000000000E+00 0. -1.
          1   -1    0    0  501    0 -0.00000000000E+00 -0.00000000000E+00 -0.10540630976E+04  0.10540630976E+04  0.00000000000E+00 0. -1.
          2    1    1    2  501    0 -0.34366702353E+02 -0.70670365787E+02 -0.46104467526E+03  0.46769387789E+03  0.00000000000E+00 0. -1.
          1    1    1    2  502    0 -0.20785131262E+02  0.29878255943E+02 -0.20688745128E+03  0.21006463138E+03  0.00000000000E+00 0. -1.
         22    1    1    2    0    0 -0.85906264772E+01 -0.18799606533E+02 -0.54007603318E+01  0.21363339655E+02  0.00000000000E+00 0. -1.
         22    1    1    2    0    0  0.63742460092E+02  0.59591716376E+02 -0.36266067926E+03  0.37301078022E+03  0.00000000000E+00 0. -1.
</event>
<event>
 6    1  0.1293624E-005  0.8436796E+02  0.7818608E-02  0.1318047E+00
          2   -1    0    0  502    0  0.00000000000E+00  0.00000000000E+00  0.12789536016E+03  0.12789536016E+03  0.00000000000E+00 0.  1.
          1   -1    0    0  501    0 -0.00000000000E+00 -0.00000000000E+00 -0.94531619941E+02  0.94531619941E+02  0.00000000000E+00 0.  1.
          2    1    1    2  501    0 -0.23855509170E+02 -0.18584630622E+02 -0.14523973847E+02  0.33547274545E+02  0.00000000000E+00 0.  1.
          1    1    1    2  502    0 -0.30763788005E+02  0.30102659610E+02  0.15215745197E+02  0.45651940484E+02  0.00000000000E+00 0.  1.
         22    1    1    2    0    0 -0.38689425587E+02 -0.17251500473E+02 -0.45507274091E+01  0.42605105807E+02  0.00000000000E+00 0.  1.
         22    1    1    2    0    0  0.93308722762E+02  0.57334714847E+01  0.37222696273E+02  0.10062265926E+03  0.00000000000E+00 0.  1.
</event>
<event>
 6    1  0.1293624E-005  0.3236155E+03  0.7818608E-02  0.1073997E+00
          2   -1    0    0  502    0  0.00000000000E+00  0.00000000000E+00  0.75404935237E+02  0.75404935237E+02  0.00000000000E+00 0. -1.
          1   -1    0    0  501    0 -0.00000000000E+00 -0.00000000000E+00 -0.20049102265E+04  0.20049102265E+04  0.00000000000E+00 0. -1.
          2    1    1    2  501    0  0.88339688387E+02 -0.27869441733E+02 -0.82174500630E+02  0.12382752069E+03  0.00000000000E+00 0. -1.
          1    1    1    2  502    0 -0.11942458132E+02 -0.14712869285E+03 -0.16383948038E+04  0.16450310050E+04  0.00000000000E+00 0. -1.
         22    1    1    2    0    0  0.19720326788E+02  0.72795515163E+01  0.65043524784E+01  0.22004312306E+02  0.00000000000E+00 0. -1.
         22    1    1    2    0    0 -0.96117557043E+02  0.16771858307E+03 -0.21544033939E+03  0.28945232374E+03  0.00000000000E+00 0. -1.
</event>
<event>
 6    1  0.1293624E-005  0.5983152E+02  0.7818608E-02  0.1403977E+00
          2   -1    0    0  502    0  0.00000000000E+00  0.00000000000E+00  0.11049485318E+03  0.11049485318E+03  0.00000000000E+00 0. -1.
          1   -1    0    0  501    0 -0.00000000000E+00 -0.00000000000E+00 -0.10931578112E+04  0.10931578112E+04  0.00000000000E+00 0. -1.
          2    1    1    2  501    0 -0.40377413963E+02 -0.11907109306E+02 -0.93655702416E+02  0.10268157286E+03  0.00000000000E+00 0. -1.
          1    1    1    2  502    0  0.81555762264E+01  0.19721834297E+02 -0.95599754178E+03  0.95623572620E+03  0.00000000000E+00 0. -1.
         22    1    1    2    0    0 -0.21761187417E+02 -0.14035432405E+02 -0.26213859440E+02  0.36847103920E+02  0.00000000000E+00 0.  1.
         22    1    1    2    0    0  0.53983025153E+02  0.62207074134E+01  0.93204145576E+02  0.10788826145E+03  0.00000000000E+00 0. -1.
</event>
<event>
 6    1  0.1293624E-005  0.9128789E+02  0.7818608E-02  0.1305403E+00
          2   -1    0    0  502    0  0.00000000000E+00  0.00000000000E+00  0.26877006663E+02  0.26877006663E+02  0.00000000000E+00 0.  1.
          1   -1    0    0  501    0 -0.00000000000E+00 -0.00000000000E+00 -0.58676183166E+03  0.58676183166E+03  0.00000000000E+00 0.  1.
          2    1    1    2  501    0 -0.23534673387E+02 -0.22109433349E+02 -0.20621336515E+03  0.20872627976E+03  0.00000000000E+00 0.  1.
          1    1    1    2  502    0  0.64343398967E+01 -0.31213901510E+02 -0.61526583419E+01  0.32458644180E+02  0.00000000000E+00 0.  1.
         22    1    1    2    0    0 -0.15413084602E+02 -0.35645479711E+02 -0.87986514652E+02  0.96175829403E+02  0.00000000000E+00 0.  1.
         22    1    1    2    0    0  0.32513418092E+02  0.88968814570E+02 -0.25953228685E+03  0.27627808497E+03  0.00000000000E+00 0.  1.
</event>
<event>
 6    1  0.1293624E-005  0.3047342E+03  0.7818608E-02  0.1082898E+00
          2   -1    0    0  502    0  0.00000000000E+00  0.00000000000E+00  0.63985417022E+03  0.63985417022E+03  0.00000000000E+00 0. -1.
          1   -1    0    0  501    0 -0.00000000000E+00 -0.00000000000E+00 -0.84925490627E+02  0.84925490627E+02  0.00000000000E+00 0. -1.
          2    1    1    2  501    0 -0.10256551797E+03 -0.15354502441E+02  0.39503021732E+02  0.11097718210E+03  0.00000000000E+00 0. -1.
          1    1    1    2  502    0  0.14126748018E+03  0.25775597221E+02  0.91961941620E+02  0.17052237705E+03  0.00000000000E+00 0. -1.
         22    1    1    2    0    0 -0.36611531624E+02  0.45117446581E+02  0.32553232907E+03  0.33067701084E+03  0.00000000000E+00 0. -1.
         22    1    1    2    0    0 -0.20904305863E+01 -0.55538541360E+02  0.97931387176E+02  0.11260309086E+03  0.00000000000E+00 0.  1.
</event>
<event>
 6    1  0.1293624E-005  0.3177225E+03  0.7818608E-02  0.1097643E+00
          2   -1    0    0  502    0  0.00000000000E+00  0.00000000000E+00  0.12739781825E+04  0.12739781825E+04  0.00000000000E+00 0. -1.
          1   -1    0    0  501    0 -0.00000000000E+00 -0.00000000000E+00 -0.14058758461E+03  0.14058758461E+03  0.00000000000E+00 0. -1.
          2    1    1    2  501    0 -0.98168289812E+01 -0.22038607247E+03  0.39322264397E+03  0.45087740995E+03  0.00000000000E+00 0. -1.
          1    1    1    2  502    0 -0.12104346860E+03  0.35491911331E+03  0.35156083994E+03  0.51401762855E+03  0.00000000000E+00 0. -1.
         22    1    1    2    0    0  0.15402221500E+03 -0.97164276151E+02  0.31984084781E+03  0.36805150075E+03  0.00000000000E+00 0. -1.
         22    1    1    2    0    0 -0.23161917425E+02 -0.37368764691E+02  0.68766266140E+02  0.81619227834E+02  0.00000000000E+00 0.  1.
</event>
<event>
 6    1  0.1293624E-005  0.8418195E+02  0.7818608E-02  0.1319871E+00
          2   -1    0    0  502    0  0.00000000000E+00  0.00000000000E+00  0.34424587343E+03  0.34424587343E+03  0.00000000000E+00 0.  1.
          1   -1    0    0  501    0 -0.00000000000E+00 -0.00000000000E+00 -0.86349391123E+02  0.86349391123E+02  0.00000000000E+00 0.  1.
          2    1    1    2  501    0 -0.20346879675E+02  0.14494234866E+02 -0.18132906225E+00  0.24982218418E+02  0.00000000000E+00 0.  1.
          1    1    1    2  502    0 -0.39262809684E+02 -0.40794521071E+02 -0.44512718470E+02  0.72021825020E+02  0.00000000000E+00 0.  1.
         22    1    1    2    0    0  0.91161256164E+02  0.17137816358E+02  0.27647755552E+03  0.29162290391E+03  0.00000000000E+00 0.  1.
         22    1    1    2    0    0 -0.31551566805E+02  0.91624698463E+01  0.26112974311E+02  0.41968317203E+02  0.00000000000E+00 0.  1.
</event>
<event>
 6    1  0.1293624E-005  0.1722960E+03  0.7818608E-02  0.1175474E+00
          2   -1    0    0  502    0  0.00000000000E+00  0.00000000000E+00  0.30845385078E+02  0.30845385078E+02  0.00000000000E+00 0. -1.
          1   -1    0    0  501    0 -0.00000000000E+00 -0.00000000000E+00 -0.96320749160E+03  0.96320749160E+03  0.00000000000E+00 0. -1.
          2    1    1    2  501    0  0.28205157739E+02 -0.23840327776E+02 -0.28739402380E+03  0.28975716914E+03  0.00000000000E+00 0. -1.
          1    1    1    2  502    0 -0.48620179087E+02  0.37331219335E+02 -0.18412184929E+02  0.64004299116E+02  0.00000000000E+00 0. -1.
         22    1    1    2    0    0 -0.39309963123E+02  0.36786768870E+02 -0.25819325996E+03  0.26374665695E+03  0.00000000000E+00 0. -1.
         22    1    1    2    0    0  0.59724984471E+02 -0.50277660428E+02 -0.36836263783E+03  0.37654475147E+03  0.00000000000E+00 0. -1.
</event>
<event>
 6    1  0.1293624E-005  0.2143331E+03  0.7818608E-02  0.1138180E+00
          2   -1    0    0  502    0  0.00000000000E+00  0.00000000000E+00  0.97583813446E+02  0.97583813446E+02  0.00000000000E+00 0.  1.
          1   -1    0    0  501    0 -0.00000000000E+00 -0.00000000000E+00 -0.13035859123E+04  0.13035859123E+04  0.00000000000E+00 0. -1.
          2    1    1    2  501    0 -0.33084847390E+02  0.24755631866E+02 -0.58486783612E+02  0.71611118503E+02  0.00000000000E+00 0.  1.
          1    1    1    2  502    0  0.21848672669E+02  0.25376932531E+02 -0.11853732620E+04  0.11858461635E+04  0.00000000000E+00 0. -1.
         22    1    1    2    0    0 -0.47453671240E+02  0.14716918674E+02  0.23931433527E+02  0.55146641965E+02  0.00000000000E+00 0. -1.
         22    1    1    2    0    0  0.58689845961E+02 -0.64849483071E+02  0.13926513241E+02  0.88565801777E+02  0.00000000000E+00 0.  1.
</event>
<event>
 6    1  0.1293624E-005  0.7698394E+03  0.7818608E-02  0.9604730E-01
          2   -1    0    0  502    0  0.00000000000E+00  0.00000000000E+00  0.53628295841E+03  0.53628295841E+03  0.00000000000E+00 0.  1.
          1   -1    0    0  501    0 -0.00000000000E+00 -0.00000000000E+00 -0.58091439576E+03  0.58091439576E+03  0.00000000000E+00 0.  1.
          2    1    1    2  501    0 -0.16756450539E+03  0.71403190985E+02 -0.22771581345E+03  0.29160036153E+03  0.00000000000E+00 0.  1.
          1    1    1    2  502    0  0.78610818918E+02  0.68337177688E+02 -0.29085257374E+03  0.30894149990E+03  0.00000000000E+00 0.  1.
         22    1    1    2    0    0  0.51286581271E+01 -0.10651385465E+02 -0.55574347837E+01  0.13062933357E+02  0.00000000000E+00 0. -1.
         22    1    1    2    0    0  0.83825028349E+02 -0.12908898321E+03  0.47949438463E+03  0.50359255937E+03  0.00000000000E+00 0.  1.
</event>
<event>
 6    1  0.1293624E-005  0.7962474E+02  0.7818608E-02  0.1331395E+00
          2   -1    0    0  502    0  0.00000000000E+00  0.00000000000E+00  0.63685618773E+02  0.63685618773E+02  0.00000000000E+00 0. -1.
          1   -1    0    0  501    0 -0.00000000000E+00 -0.00000000000E+00 -0.11677934619E+04  0.11677934619E+04  0.00000000000E+00 0. -1.
          2    1    1    2  501    0 -0.55721597420E+01  0.38520306692E+02 -0.53759405495E+01  0.39290758820E+02  0.00000000000E+00 0. -1.
          1    1    1    2  502    0 -0.17042060632E+01  0.30249120375E+02 -0.10305123734E+04  0.10309576448E+04  0.00000000000E+00 0. -1.
         22    1    1    2    0    0  0.12072566998E+02 -0.99936722654E+02 -0.78939749915E+02  0.12792411628E+03  0.00000000000E+00 0.  1.
         22    1    1    2    0    0 -0.47962011932E+01  0.31167295587E+02  0.10720220729E+02  0.33306560803E+02  0.00000000000E+00 0. -1.
</event>
<event>
 6    1  0.1293624E-005  0.6461479E+02  0.7818608E-02  0.1381277E+00
          2   -1    0    0  502    0  0.00000000000E+00  0.00000000000E+00  0.23654274968E+03  0.23654274968E+03  0.00000000000E+00 0. -1.
          1   -1    0    0  501    0 -0.00000000000E+00 -0.00000000000E+00 -0.20830707959E+03  0.20830707959E+03  0.00000000000E+00 0. -1.
          2    1    1    2  501    0 -0.24577321809E+02  0.11416651635E+02 -0.25650222969E+02  0.37313785928E+02  0.00000000000E+00 0. -1.
          1    1    1    2  502    0  0.20801281678E+02  0.37434879209E+02 -0.15533178503E+03  0.16112736249E+03  0.00000000000E+00 0. -1.
         22    1    1    2    0    0 -0.10651528421E+02  0.15293139146E+02 -0.73854943219E+01  0.20046962090E+02  0.00000000000E+00 0.  1.
         22    1    1    2    0    0  0.14427568553E+02 -0.64144669991E+02  0.21660317241E+03  0.22636171876E+03  0.00000000000E+00 0. -1.
</event>
<event>
 6    1  0.1293624E-005  0.1094012E+03  0.7818608E-02  0.1263054E+00
          2   -1    0    0  502    0  0.00000000000E+00  0.00000000000E+00  0.62908860831E+03  0.62908860831E+03  0.00000000000E+00 0. -1.
          1   -1    0    0  501    0 -0.00000000000E+00 -0.00000000000E+00 -0.55696654388E+02  0.55696654388E+02  0.00000000000E+00 0.  1.
          2    1    1    2  501    0  0.25875735608E+02  0.33572377832E+02  0.97662158458E+01  0.43497554167E+02  0.00000000000E+00 0. -1.
          1    1    1    2  502    0 -0.97371743529E+02  0.15655234046E+02  0.59624745794E+02  0.11524518689E+03  0.00000000000E+00 0.  1.
         22    1    1    2    0    0  0.81991489090E+02 -0.51774981614E+02  0.50587130641E+03  0.51508157767E+03  0.00000000000E+00 0. -1.
         22    1    1    2    0    0 -0.10495481169E+02  0.25473697360E+01 -0.18703141368E+01  0.10960943961E+02  0.00000000000E+00 0. -1.
</event>
<event>
 6    1  0.1293624E-005  0.3239395E+03  0.7818608E-02  0.1073850E+00
          2   -1    0    0  502    0  0.00000000000E+00  0.00000000000E+00  0.49076220687E+03  0.49076220687E+03  0.00000000000E+00 0. -1.
          1   -1    0    0  501    0 -0.00000000000E+00 -0.00000000000E+00 -0.25715415258E+03  0.25715415258E+03  0.00000000000E+00 0. -1.
          2    1    1    2  501    0  0.10305830596E+03 -0.90478875263E+02  0.28936038252E+03  0.32021379150E+03  0.00000000000E+00 0. -1.
          1    1    1    2  502    0 -0.32497645920E+02  0.81918351515E+01 -0.20216791025E+03  0.20492697990E+03  0.00000000000E+00 0. -1.
         22    1    1    2    0    0 -0.26875937749E+01 -0.21864511155E+02  0.77638203432E+02  0.80702977891E+02  0.00000000000E+00 0. -1.
         22    1    1    2    0    0 -0.67873066262E+02  0.10415155127E+03  0.68777378594E+02  0.14207261017E+03  0.00000000000E+00 0. -1.
</event>
<event>
 6    1  0.1293624E-005  0.7559431E+02  0.7818608E-02  0.1347771E+00
          2   -1    0    0  502    0  0.00000000000E+00  0.00000000000E+00  0.39434944117E+03  0.39434944117E+03  0.00000000000E+00 0. -1.
          1   -1    0    0  501    0 -0.00000000000E+00 -0.00000000000E+00 -0.51476648350E+03  0.51476648350E+03  0.00000000000E+00 0. -1.
          2    1    1    2  501    0  0.25847527072E+01  0.33943991248E+02  0.38600650467E+02  0.51467326576E+02  0.00000000000E+00 0. -1.
          1    1    1    2  502    0  0.10304099429E+02 -0.20940054673E+02 -0.49588228281E+03  0.49643116215E+03  0.00000000000E+00 0. -1.
         22    1    1    2    0    0 -0.50177381041E+02 -0.44368113272E+02  0.27179593153E+03  0.27992736101E+03  0.00000000000E+00 0. -1.
         22    1    1    2    0    0  0.37288528905E+02  0.31364176697E+02  0.65068658477E+02  0.81290074940E+02  0.00000000000E+00 0.  1.
</event>
<event>
 6    1  0.1293624E-005  0.8231483E+02  0.7818608E-02  0.1324370E+00
          2   -1    0    0  502    0  0.00000000000E+00  0.00000000000E+00  0.37444785295E+03  0.37444785295E+03  0.00000000000E+00 0.  1.
          1   -1    0    0  501    0 -0.00000000000E+00 -0.00000000000E+00 -0.35921372093E+03  0.35921372093E+03  0.00000000000E+00 0. -1.
          2    1    1    2  501    0  0.32687357024E+02 -0.45441224270E+01  0.11185340585E+02  0.34845719993E+02  0.00000000000E+00 0.  1.
          1    1    1    2  502    0 -0.26871783985E+02 -0.64691377333E+02 -0.32860205850E+03  0.33598568411E+03  0.00000000000E+00 0. -1.
         22    1    1    2    0    0 -0.46261320916E+02  0.75586555404E+02  0.29193613852E+03  0.30509039013E+03  0.00000000000E+00 0.  1.
         22    1    1    2    0    0  0.40445747876E+02 -0.63510556436E+01  0.40714711408E+02  0.57739779651E+02  0.00000000000E+00 0. -1.
</event>
<event>
 6    1  0.1293624E-005  0.2807099E+03  0.7818608E-02  0.1095302E+00
          2   -1    0    0  502    0  0.00000000000E+00  0.00000000000E+00  0.93309153119E+03  0.93309153119E+03  0.00000000000E+00 0. -1.
          1   -1    0    0  501    0 -0.00000000000E+00 -0.00000000000E+00 -0.39484846903E+03  0.39484846903E+03  0.00000000000E+00 0.  1.
          2    1    1    2  501    0  0.46992188567E+02 -0.13989401339E+03  0.44657069082E+03  0.47032327464E+03  0.00000000000E+00 0. -1.
          1    1    1    2  502    0 -0.77665404721E+02  0.17635227421E+03 -0.34828121251E+03  0.39803497672E+03  0.00000000000E+00 0.  1.
         22    1    1    2    0    0 -0.37779580828E+02 -0.38988902779E+02  0.11092125142E+03  0.12349475813E+03  0.00000000000E+00 0.  1.
         22    1    1    2    0    0  0.68452796982E+02  0.25306419576E+01  0.32903233242E+03  0.33608699074E+03  0.00000000000E+00 0.  1.
</event>
<event>
 6    1  0.1293624E-005  0.1830474E+03  0.7818608E-02  0.1164886E+00
          2   -1    0    0  502    0  0.00000000000E+00  0.00000000000E+00  0.10980769399E+04  0.10980769399E+04  0.00000000000E+00 0. -1.
          1   -1    0    0  501    0 -0.00000000000E+00 -0.00000000000E+00 -0.20921754062E+02  0.20921754062E+02  0.00000000000E+00 0. -1.
          2    1    1    2  501    0  0.19492554643E+02  0.84268367030E+01  0.49487527452E+02  0.53851523996E+02  0.00000000000E+00 0. -1.
          1    1    1    2  502    0 -0.72649549819E+02 -0.93816547931E+02  0.37154741793E+03  0.39003459529E+03  0.00000000000E+00 0. -1.
         22    1    1    2    0    0  0.64165737424E+02  0.10355668733E+03  0.62886906132E+03  0.64056032162E+03  0.00000000000E+00 0. -1.
         22    1    1    2    0    0 -0.11008742247E+02 -0.18166976104E+02  0.27251179130E+02  0.34552253047E+02  0.00000000000E+00 0. -1.
</event>
<event>
 6    1  0.1293624E-005  0.1949281E+03  0.7818608E-02  0.1154090E+00
          2   -1    0    0  502    0  0.00000000000E+00  0.00000000000E+00  0.12998737476E+03  0.12998737476E+03  0.00000000000E+00 0.  1.
          1   -1    0    0  501    0 -0.00000000000E+00 -0.00000000000E+00 -0.13701040306E+03  0.13701040306E+03  0.00000000000E+00 0.  1.
          2    1    1    2  501    0 -0.20284283333E+02 -0.15702082113E+02 -0.57846129969E+02  0.63278608435E+02  0.00000000000E+00 0.  1.
          1    1    1    2  502    0 -0.38921946557E+02  0.75493599410E+01  0.50083346155E+02  0.63876852782E+02  0.00000000000E+00 0.  1.
         22    1    1    2    0    0  0.90862938195E+02 -0.15748489930E+02  0.22045664341E+02  0.94816136753E+02  0.00000000000E+00 0.  1.
         22    1    1    2    0    0 -0.31656708305E+02  0.23901212102E+02 -0.21305908823E+02  0.45026179845E+02  0.00000000000E+00 0. -1.
</event>
<event>
 6    1  0.1293624E-005  0.1112319E+03  0.7818608E-02  0.1262719E+00
          2   -1    0    0  502    0  0.00000000000E+00  0.00000000000E+00  0.95157181560E+02  0.95157181560E+02  0.00000000000E+00 0. -1.
          1   -1    0    0  501    0 -0.00000000000E+00 -0.00000000000E+00 -0.71383354861E+03  0.71383354861E+03  0.00000000000E+00 0. -1.
          2    1    1    2  501    0  0.35479602781E+02 -0.67598571870E+02 -0.20398165210E+02  0.79021859484E+02  0.00000000000E+00 0. -1.
          1    1    1    2  502    0 -0.30096319874E+02  0.44643637351E+01 -0.58463436775E+03  0.58542554007E+03  0.00000000000E+00 0. -1.
         22    1    1    2    0    0  0.68704027472E+01  0.10027350849E+03  0.61780354475E+01  0.10069829721E+03  0.00000000000E+00 0. -1.
         22    1    1    2    0    0 -0.12253685655E+02 -0.37139300351E+02 -0.19821869535E+02  0.43845033408E+02  0.00000000000E+00 0. -1.
</event>
<event>
 6    1  0.1293624E-005  0.1747799E+03  0.7818608E-02  0.1172953E+00
          2   -1    0    0  502    0  0.00000000000E+00  0.00000000000E+00  0.63034344443E+02  0.63034344443E+02  0.00000000000E+00 0. -1.
          1   -1    0    0  501    0 -0.00000000000E+00 -0.00000000000E+00 -0.32822903301E+03  0.32822903301E+03  0.00000000000E+00 0.  1.
          2    1    1    2  501    0 -0.18867599211E+02  0.21945313324E+02  0.74495760233E+01  0.29884431729E+02  0.00000000000E+00 0. -1.
          1    1    1    2  502    0 -0.20488576083E+02  0.16504680204E+02 -0.20458943493E+03  0.20627414551E+03  0.00000000000E+00 0.  1.
         22    1    1    2    0    0  0.46282658810E+02 -0.63071261834E+02  0.43134207782E+01  0.78349691605E+02  0.00000000000E+00 0. -1.
         22    1    1    2    0    0 -0.69264835162E+01  0.24621268306E+02 -0.72368250437E+02  0.76755108613E+02  0.00000000000E+00 0. -1.
</event>
<event>
 6    1  0.1293624E-005  0.2544741E+03  0.7818608E-02  0.1110844E+00
          2   -1    0    0  502    0  0.00000000000E+00  0.00000000000E+00  0.15288937139E+04  0.15288937139E+04  0.00000000000E+00 0.  1.
          1   -1    0    0  501    0 -0.00000000000E+00 -0.00000000000E+00 -0.26577432046E+03  0.26577432046E+03  0.00000000000E+00 0. -1.
          2    1    1    2  501    0  0.48974149911E+02 -0.28572935958E+03  0.95962337041E+03  0.10024553593E+04  0.00000000000E+00 0.  1.
          1    1    1    2  502    0  0.86426651800E+02  0.14587894155E+03 -0.18504672234E+03  0.25098310935E+03  0.00000000000E+00 0. -1.
         22    1    1    2    0    0 -0.50820606792E+01 -0.22706680020E+02  0.68705681002E+02  0.72538894810E+02  0.00000000000E+00 0.  1.
         22    1    1    2    0    0 -0.13031874103E+03  0.16255709805E+03  0.41983706438E+03  0.46869067093E+03  0.00000000000E+00 0.  1.
</event>
<event>
 6    1  0.1293624E-005  0.4042076E+03  0.7818608E-02  0.1042332E+00
          2   -1    0    0  502    0  0.00000000000E+00  0.00000000000E+00  0.61905221486E+03  0.61905221486E+03  0.00000000000E+00 0.  1.
          1   -1    0    0  501    0 -0.00000000000E+00 -0.00000000000E+00 -0.25573770161E+03  0.25573770161E+03  0.00000000000E+00 0.  1.
          2    1    1    2  501    0  0.15652930162E+02  0.16478037854E+03  0.99108863535E+02  0.19292525549E+03  0.00000000000E+00 0.  1.
          1    1    1    2  502    0 -0.10468801441E+03 -0.34625020908E+03  0.53842333170E+02  0.36571544196E+03  0.00000000000E+00 0.  1.
         22    1    1    2    0    0  0.30888395015E+02  0.15490291433E+03  0.19398084312E+03  0.25015509851E+03  0.00000000000E+00 0. -1.
         22    1    1    2    0    0  0.58146689229E+02  0.26566916202E+02  0.16382473435E+02  0.65994120500E+02  0.00000000000E+00 0. -1.
</event>
<event>
 6    1  0.1293624E-005  0.1076519E+03  0.7818608E-02  0.1265649E+00
          2   -1    0    0  502    0  0.00000000000E+00  0.00000000000E+00  0.48814448917E+02  0.48814448917E+02  0.00000000000E+00 0. -1.
          1   -1    0    0  501    0 -0.00000000000E+00 -0.00000000000E+00 -0.70793170027E+03  0.70793170027E+03  0.00000000000E+00 0.  1.
          2    1    1    2  501    0 -0.14279422198E+02  0.65623822097E+02 -0.11142769968E+03  0.13010196071E+03  0.00000000000E+00 0. -1.
          1    1    1    2  502    0  0.49753887074E+01  0.22364509076E+02 -0.43310765806E+03  0.43371323386E+03  0.00000000000E+00 0.  1.
         22    1    1    2    0    0 -0.78780308433E+01  0.23652185327E+02 -0.64917647923E+02  0.69539846509E+02  0.00000000000E+00 0. -1.
         22    1    1    2    0    0  0.17182064334E+02 -0.11164051650E+03 -0.49664245693E+02  0.12339110810E+03  0.00000000000E+00 0. -1.
</event>
<event>
 6    1  0.1293624E-005  0.1835862E+03  0.7818608E-02  0.1164377E+00
          2   -1    0    0  502    0  0.00000000000E+00  0.00000000000E+00  0.86962291700E+02  0.86962291700E+02  0.00000000000E+00 0. -1.
          1   -1    0    0  501    0 -0.00000000000E+00 -0.00000000000E+00 -0.15768189751E+03  0.15768189751E+03  0.00000000000E+00 0. -1.
          2    1    1    2  501    0 -0.16622630429E+02  0.15928820602E+02 -0.54339090357E+02  0.59015048157E+02  0.00000000000E+00 0. -1.
          1    1    1    2  502    0 -0.44207027283E+02 -0.13538898947E+02  0.40612451492E+01  0.46411817009E+02  0.00000000000E+00 0. -1.
         22    1    1    2    0    0  0.16927990095E+02 -0.45646039658E+02  0.32029166703E+02  0.58275083053E+02  0.00000000000E+00 0.  1.
         22    1    1    2    0    0  0.43901667617E+02  0.43256118004E+02 -0.52470927307E+02  0.80942240992E+02  0.00000000000E+00 0. -1.
</event>
<event>
 6    1  0.1293624E-005  0.7759169E+02  0.7818608E-02  0.1339160E+00
          2   -1    0    0  502    0  0.00000000000E+00  0.00000000000E+00  0.73396008959E+02  0.73396008959E+02  0.00000000000E+00 0.  1.
          1   -1    0    0  501    0 -0.00000000000E+00 -0.00000000000E+00 -0.16019336212E+04  0.16019336212E+04  0.00000000000E+00 0.  1.
          2    1    1    2  501    0  0.22064006233E+02  0.28435474396E+02 -0.25342534635E+01  0.36080729147E+02  0.00000000000E+00 0.  1.
          1    1    1    2  502    0  0.44159197623E+01 -0.33708525186E+02 -0.15128279308E+04  0.15132098709E+04  0.00000000000E+00 0.  1.
         22    1    1    2    0    0 -0.60036358142E+02 -0.24784168711E+02 -0.37338329836E+02  0.74918423586E+02  0.00000000000E+00 0.  1.
         22    1    1    2    0    0  0.33556432147E+02  0.30057219502E+02  0.24162901914E+02  0.51120606525E+02  0.00000000000E+00 0.  1.
</event>
<event>
 6    1  0.1293624E-005  0.2285758E+03  0.7818608E-02  0.1127646E+00
          2   -1    0    0  502    0  0.00000000000E+00  0.00000000000E+00  0.16971930419E+03  0.16971930419E+03  0.00000000000E+00 0.  1.
          1   -1    0    0  501    0 -0.00000000000E+00 -0.00000000000E+00 -0.10716471481E+03  0.10716471481E+03  0.00000000000E+00 0.  1.
          2    1    1    2  501    0  0.75652047420E+00 -0.41064430973E+02 -0.40527784213E+02  0.57700616181E+02  0.00000000000E+00 0.  1.
          1    1    1    2  502    0  0.26581399811E+02 -0.58350586981E+01 -0.20089953715E+02  0.33826394519E+02  0.00000000000E+00 0.  1.
         22    1    1    2    0    0 -0.11632725279E+01 -0.41964923681E+02  0.19389507498E+02  0.46242415849E+02  0.00000000000E+00 0. -1.
         22    1    1    2    0    0 -0.26174647757E+02  0.88864413352E+02  0.10378281981E+03  0.13911459245E+03  0.00000000000E+00 0.  1.
</event>
<event>
 6    1  0.1293624E-005  0.2293403E+03  0.7818608E-02  0.1127105E+00
          2   -1    0    0  502    0  0.00000000000E+00  0.00000000000E+00  0.25038678168E+03  0.25038678168E+03  0.00000000000E+00 0. -1.
          1   -1    0    0  501    0 -0.00000000000E+00 -0.00000000000E+00 -0.66598132704E+03  0.66598132704E+03  0.00000000000E+00 0.  1.
          2    1    1    2  501    0 -0.14647192796E+02  0.40787515200E+02 -0.13584048041E+02  0.45416825232E+02  0.00000000000E+00 0. -1.
          1    1    1    2  502    0  0.12665960773E+02  0.39435381775E+02 -0.61261921467E+03  0.61401781577E+03  0.00000000000E+00 0.  1.
         22    1    1    2    0    0  0.36137242800E+02  0.10426340377E+02  0.18793794439E+02  0.42045399276E+02  0.00000000000E+00 0.  1.
         22    1    1    2    0    0 -0.34156010777E+02 -0.90649237352E+02  0.19181492291E+03  0.21488806844E+03  0.00000000000E+00 0. -1.
</event>
<event>
 6    1  0.1293624E-005  0.8588391E+02  0.7818608E-02  0.1349689E+00
          2   -1    0    0  502    0  0.00000000000E+00  0.00000000000E+00  0.24639137364E+03  0.24639137364E+03  0.00000000000E+00 0. -1.
          1   -1    0    0  501    0 -0.00000000000E+00 -0.00000000000E+00 -0.10531131011E+03  0.10531131011E+03  0.00000000000E+00 0. -1.
          2    1    1    2  501    0  0.97932115904E+01 -0.26909087317E+02  0.12540678468E+02  0.31261391363E+02  0.00000000000E+00 0. -1.
          1    1    1    2  502    0 -0.36923500997E+02  0.65287987455E+02 -0.53877478106E+02  0.92350684236E+02  0.00000000000E+00 0. -1.
         22    1    1    2    0    0 -0.12072910101E+02  0.43562758361E+02  0.73228375632E+02  0.86057330147E+02  0.00000000000E+00 0.  1.
         22    1    1    2    0    0  0.39203199507E+02 -0.81941658498E+02  0.10918848754E+03  0.14203327801E+03  0.00000000000E+00 0. -1.
</event>
<event>
 6    1  0.1293624E-005  0.1930534E+03  0.7818608E-02  0.1155736E+00
          2   -1    0    0  502    0  0.00000000000E+00  0.00000000000E+00  0.40925516563E+02  0.40925516563E+02  0.00000000000E+00 0.  1.
          1   -1    0    0  501    0 -0.00000000000E+00 -0.00000000000E+00 -0.41459080529E+03  0.41459080529E+03  0.00000000000E+00 0.  1.
          2    1    1    2  501    0  0.37733961463E+02 -0.63524255897E+01 -0.10508886239E+03  0.11183860764E+03  0.00000000000E+00 0.  1.
          1    1    1    2  502    0  0.12447339894E+01 -0.24497346910E+02 -0.18141188372E+03  0.18306266939E+03  0.00000000000E+00 0.  1.
         22    1    1    2    0    0 -0.28713538712E+02 -0.37725747230E+02  0.22520511253E+01  0.47463365280E+02  0.00000000000E+00 0.  1.
         22    1    1    2    0    0 -0.10265156741E+02  0.68575519730E+02 -0.89416593737E+02  0.11315167955E+03  0.00000000000E+00 0.  1.
</event>
<event>
 6    1  0.1293624E-005  0.8264687E+02  0.7818608E-02  0.1325469E+00
          2   -1    0    0  502    0  0.00000000000E+00  0.00000000000E+00  0.49785517899E+03  0.49785517899E+03  0.00000000000E+00 0. -1.
          1   -1    0    0  501    0 -0.00000000000E+00 -0.00000000000E+00 -0.14856868364E+04  0.14856868364E+04  0.00000000000E+00 0.  1.
          2    1    1    2  501    0  0.20657746896E+02  0.30667095810E+02  0.10209562850E+03  0.10858513080E+03  0.00000000000E+00 0. -1.
          1    1    1    2  502    0 -0.11476466061E+02 -0.24865020666E+02 -0.14717309569E+04  0.14719857295E+04  0.00000000000E+00 0.  1.
         22    1    1    2    0    0 -0.29538956007E+02 -0.53575680330E+02  0.10657895717E+03  0.12289010357E+03  0.00000000000E+00 0. -1.
         22    1    1    2    0    0  0.20357675172E+02  0.47773605186E+02  0.27522471382E+03  0.28008105146E+03  0.00000000000E+00 0. -1.
</event>
<event>
 6    1  0.1293624E-005  0.1018865E+03  0.7818608E-02  0.1277818E+00
          2   -1    0    0  502    0  0.00000000000E+00  0.00000000000E+00  0.12768545387E+03  0.12768545387E+03  0.00000000000E+00 0.  1.
          1   -1    0    0  501    0 -0.00000000000E+00 -0.00000000000E+00 -0.19734689988E+03  0.19734689988E+03  0.00000000000E+00 0. -1.
          2    1    1    2  501    0  0.55112374009E+02 -0.12421808337E+02 -0.41085179429E+02  0.69854613734E+02  0.00000000000E+00 0.  1.
          1    1    1    2  502    0 -0.37620634561E+02 -0.71122930081E+02 -0.55307664963E+02  0.97635655023E+02  0.00000000000E+00 0. -1.
         22    1    1    2    0    0 -0.44328424061E+02  0.10490251883E+03  0.40090060336E+02  0.12073425601E+03  0.00000000000E+00 0.  1.
         22    1    1    2    0    0  0.26836684613E+02 -0.21357780409E+02 -0.13358661955E+02  0.36807828980E+02  0.00000000000E+00 0. -1.
</event>
<event>
 6    1  0.1293624E-005  0.1385214E+03  0.7818608E-02  0.1217036E+00
          2   -1    0    0  502    0  0.00000000000E+00  0.00000000000E+00  0.32564831195E+02  0.32564831195E+02  0.00000000000E+00 0.  1.
          1   -1    0    0  501    0 -0.00000000000E+00 -0.00000000000E+00 -0.32923583163E+04  0.32923583163E+04  0.00000000000E+00 0.  1.
          2    1    1    2  501    0  0.44788905796E+02  0.11414134974E+03 -0.45876694955E+03  0.47486988512E+03  0.00000000000E+00 0.  1.
          1    1    1    2  502    0  0.58821478963E+02 -0.53448552173E+02 -0.25181494974E+04  0.25194034225E+04  0.00000000000E+00 0.  1.
         22    1    1    2    0    0 -0.97627573730E+02 -0.91275069527E+02 -0.18710769358E+03  0.22993818836E+03  0.00000000000E+00 0.  1.
         22    1    1    2    0    0 -0.59828110293E+01  0.30582271959E+02 -0.95769344574E+02  0.10071165149E+03  0.00000000000E+00 0. -1.
</event>
<event>
 6    1  0.1293624E-005  0.1864096E+03  0.7818608E-02  0.1161740E+00
          2   -1    0    0  502    0  0.00000000000E+00  0.00000000000E+00  0.50753792627E+03  0.50753792627E+03  0.00000000000E+00 0. -1.
          1   -1    0    0  501    0 -0.00000000000E+00 -0.00000000000E+00 -0.11509148730E+03  0.11509148730E+03  0.00000000000E+00 0. -1.
          2    1    1    2  501    0  0.20711948712E+02  0.50285167730E+02  0.12490971346E+03  0.13623516224E+03  0.00000000000E+00 0. -1.
          1    1    1    2  502    0  0.32439247537E+02 -0.49456602992E+02 -0.88713365422E+02  0.10662233145E+03  0.00000000000E+00 0. -1.
         22    1    1    2    0    0 -0.86387294766E+02  0.14498528546E+02  0.18548159536E+03  0.20512531351E+03  0.00000000000E+00 0. -1.
         22    1    1    2    0    0  0.33236098517E+02 -0.15327093284E+02  0.17076849557E+03  0.17464660636E+03  0.00000000000E+00 0. -1.
</event>
<event>
 6    1  0.1293624E-005  0.1870159E+03  0.7818608E-02  0.1181402E+00
          2   -1    0    0  502    0  0.00000000000E+00  0.00000000000E+00  0.90790380892E+02  0.90790380892E+02  0.00000000000E+00 0.  1.
          1   -1    0    0  501    0 -0.00000000000E+00 -0.00000000000E+00 -0.23345875322E+04  0.23345875322E+04  0.00000000000E+00 0.  1.
          2    1    1    2  501    0  0.34878017723E+02  0.29428146567E+02 -0.20807568129E+02  0.50154230352E+02  0.00000000000E+00 0.  1.
          1    1    1    2  502    0 -0.13264894850E+03  0.12240915786E+03 -0.21275154278E+04  0.21351584581E+04  0.00000000000E+00 0.  1.
         22    1    1    2    0    0  0.21554929051E+01 -0.11785902246E+03 -0.40399989423E+02  0.12460960826E+03  0.00000000000E+00 0.  1.
         22    1    1    2    0    0  0.95615437871E+02 -0.33978281967E+02 -0.55074165918E+02  0.11545561639E+03  0.00000000000E+00 0.  1.
</event>
<event>
 6    1  0.1293624E-005  0.6363928E+02  0.7818608E-02  0.1388228E+00
          2   -1    0    0  502    0  0.00000000000E+00  0.00000000000E+00  0.68384621425E+02  0.68384621425E+02  0.00000000000E+00 0.  1.
          1   -1    0    0  501    0 -0.00000000000E+00 -0.00000000000E+00 -0.10453095648E+04  0.10453095648E+04  0.00000000000E+00 0.  1.
          2    1    1    2  501    0  0.18246778675E+01 -0.36642053419E+02 -0.14490568630E+02  0.39445482724E+02  0.00000000000E+00 0.  1.
          1    1    1    2  502    0  0.81157819516E+01  0.26554832917E+02 -0.94992522680E+03  0.95033097476E+03  0.00000000000E+00 0.  1.
         22    1    1    2    0    0 -0.17261037767E+02 -0.43404904236E+02 -0.41633860658E+02  0.62572417963E+02  0.00000000000E+00 0. -1.
         22    1    1    2    0    0  0.73205779477E+01  0.53492124738E+02  0.29124712680E+02  0.61345310816E+02  0.00000000000E+00 0.  1.
</event>
<event>
 6    1  0.1293624E-005  0.1714475E+03  0.7818608E-02  0.1176347E+00
          2   -1    0    0  502    0  0.00000000000E+00  0.00000000000E+00  0.93443447176E+02  0.93443447176E+02  0.00000000000E+00 0. -1.
          1   -1    0    0  501    0 -0.00000000000E+00 -0.00000000000E+00 -0.43184718332E+03  0.43184718332E+03  0.00000000000E+00 0.  1.
          2    1    1    2  501    0 -0.19476975260E+02  0.34454537977E+02 -0.14858046730E+02  0.42275634887E+02  0.00000000000E+00 0. -1.
          1    1    1    2  502    0  0.41459964723E+02 -0.17150592679E+02 -0.35055354547E+03  0.35341315729E+03  0.00000000000E+00 0.  1.
         22    1    1    2    0    0  0.13515590674E+02  0.18471304657E+02  0.63421357761E+02  0.67424987262E+02  0.00000000000E+00 0. -1.
         22    1    1    2    0    0 -0.35498580137E+02 -0.35775249956E+02 -0.36413501710E+02  0.62176851061E+02  0.00000000000E+00 0.  1.
</event>
<event>
 6    1  0.1293624E-005  0.2369996E+03  0.7818608E-02  0.1121808E+00
          2   -1    0    0  502    0  0.00000000000E+00  0.00000000000E+00  0.14714279073E+03  0.14714279073E+03  0.00000000000E+00 0. -1.
          1   -1    0    0  501    0 -0.00000000000E+00 -0.00000000000E+00 -0.24459488473E+03  0.24459488473E+03  0.00000000000E+00 0. -1.
          2    1    1    2  501    0  0.69790001449E+02  0.18090000599E+01 -0.27166606127E+02  0.74912891227E+02  0.00000000000E+00 0. -1.
          1    1    1    2  502    0 -0.88810619249E+02  0.10569409842E+03 -0.64782491348E+02  0.15249701544E+03  0.00000000000E+00 0. -1.
         22    1    1    2    0    0  0.11783736932E+02  0.19486417606E+02 -0.27007914627E+02  0.35327105453E+02  0.00000000000E+00 0. -1.
         22    1    1    2    0    0  0.72368808683E+01 -0.12698951608E+03  0.21504918108E+02  0.12900066334E+03  0.00000000000E+00 0. -1.
</event>
<event>
 6    1  0.1293624E-005  0.1349956E+03  0.7818608E-02  0.1221727E+00
          2   -1    0    0  502    0  0.00000000000E+00  0.00000000000E+00  0.20767749485E+03  0.20767749485E+03  0.00000000000E+00 0.  1.
          1   -1    0    0  501    0 -0.00000000000E+00 -0.00000000000E+00 -0.10559255407E+04  0.10559255407E+04  0.00000000000E+00 0. -1.
          2    1    1    2  501    0  0.96026029275E+02 -0.13184916529E+03 -0.15216976651E+03  0.22307137541E+03  0.00000000000E+00 0.  1.
          1    1    1    2  502    0 -0.37240491133E+02  0.42160238663E+02 -0.82615473801E+03  0.82806762468E+03  0.00000000000E+00 0. -1.
         22    1    1    2    0    0 -0.60731729825E+02  0.10941043412E+03  0.14205257518E+03  0.18930906005E+03  0.00000000000E+00 0.  1.
         22    1    1    2    0    0  0.19461916834E+01 -0.19721507493E+02 -0.11976116478E+02  0.23154975400E+02  0.00000000000E+00 0.  1.
</event>
<event>
 6    1  0.1293624E-005  0.6625608E+02  0.7818608E-02  0.1386533E+00
          2   -1    0    0  502    0  0.00000000000E+00  0.00000000000E+00  0.15224946601E+03  0.15224946601E+03  0.00000000000E+00 0.  1.
          1   -1    0    0  501    0 -0.00000000000E+00 -0.00000000000E+00 -0.25829561599E+03  0.25829561599E+03  0.00000000000E+00 0.  1.
          2    1    1    2  501    0  0.23042154703E+01  0.30663821600E+02  0.12419224766E+02  0.33163481540E+02  0.00000000000E+00 0.  1.
          1    1    1    2  502    0  0.46293424290E+02 -0.42241509420E+02 -0.20933638388E+03  0.21851578402E+03  0.00000000000E+00 0.  1.
         22    1    1    2    0    0 -0.39953289625E+02 -0.35428904778E+02  0.96952733348E+02  0.11068561401E+03  0.00000000000E+00 0.  1.
         22    1    1    2    0    0 -0.86443501349E+01  0.47006592598E+02 -0.60817242126E+01  0.48180202431E+02  0.00000000000E+00 0.  1.
</event>
<event>
 6    1  0.1293624E-005  0.1596889E+03  0.7818608E-02  0.1271460E+00
          2   -1    0    0  502    0  0.00000000000E+00  0.00000000000E+00  0.18260213546E+03  0.18260213546E+03  0.00000000000E+00 0. -1.
          1   -1    0    0  501    0 -0.00000000000E+00 -0.00000000000E+00 -0.36807482272E+03  0.36807482272E+03  0.00000000000E+00 0. -1.
          2    1    1    2  501    0 -0.25464763536E+02 -0.30576701448E+02 -0.78174586571E+01  0.40552453850E+02  0.00000000000E+00 0. -1.
          1    1    1    2  502    0  0.10581422228E+03  0.11573420928E+03 -0.27245898623E+03  0.31436436823E+03  0.00000000000E+00 0. -1.
         22    1    1    2    0    0 -0.98211506999E+02 -0.62201537751E+02  0.23296208540E+02  0.11856325205E+03  0.00000000000E+00 0. -1.
         22    1    1    2    0    0  0.17862048254E+02 -0.22955970083E+02  0.71507549082E+02  0.77196884043E+02  0.00000000000E+00 0. -1.
</event>
<event>
 6    1  0.1293624E-005  0.1601303E+03  0.7818608E-02  0.1188550E+00
          2   -1    0    0  502    0  0.00000000000E+00  0.00000000000E+00  0.18547731521E+03  0.18547731521E+03  0.00000000000E+00 0. -1.
          1   -1    0    0  501    0 -0.00000000000E+00 -0.00000000000E+00 -0.19915246730E+04  0.19915246730E+04  0.00000000000E+00 0. -1.
          2    1    1    2  501    0 -0.29537132785E+02  0.94178773839E+01  0.41886735565E+02  0.52111776441E+02  0.00000000000E+00 0. -1.
          1    1    1    2  502    0  0.17892952384E+02  0.19874038284E+02 -0.19568545030E+04  0.19570372201E+04  0.00000000000E+00 0. -1.
         22    1    1    2    0    0  0.42297699602E+02 -0.24667914254E+02 -0.55317502447E+01  0.49276786076E+02  0.00000000000E+00 0.  1.
         22    1    1    2    0    0 -0.30653519202E+02 -0.46240014145E+01  0.11445215987E+03  0.11857620557E+03  0.00000000000E+00 0. -1.
</event>
<event>
 6    1  0.1293624E-005  0.7583443E+02  0.7818608E-02  0.1347064E+00
          2   -1    0    0  502    0  0.00000000000E+00  0.00000000000E+00  0.47163495628E+03  0.47163495628E+03  0.00000000000E+00 0.  1.
          1   -1    0    0  501    0 -0.00000000000E+00 -0.00000000000E+00 -0.22626301333E+03  0.22626301333E+03  0.00000000000E+00 0.  1.
          2    1    1    2  501    0  0.22350283551E+02 -0.73310601111E+00  0.32223627470E+02  0.39222886005E+02  0.00000000000E+00 0.  1.
          1    1    1    2  502    0 -0.42113589810E+02 -0.19132010240E+02 -0.21056656845E+03  0.21558726310E+03  0.00000000000E+00 0.  1.
         22    1    1    2    0    0 -0.52760513840E+02  0.21352247595E+02  0.17651486404E+03  0.18546451824E+03  0.00000000000E+00 0.  1.
         22    1    1    2    0    0  0.72523820099E+02 -0.14871313441E+01  0.24720001989E+03  0.25762330228E+03  0.00000000000E+00 0.  1.
</event>
<event>
 6    1  0.1293624E-005  0.6582832E+02  0.7818608E-02  0.1377146E+00
          2   -1    0    0  502    0  0.00000000000E+00  0.00000000000E+00  0.47972978928E+02  0.47972978928E+02  0.00000000000E+00 0. -1.
          1   -1    0    0  501    0 -0.00000000000E+00 -0.00000000000E+00 -0.10176009860E+04  0.10176009860E+04  0.00000000000E+00 0. -1.
          2    1    1    2  501    0 -0.23121550345E+02 -0.99622248819E+01 -0.85361977297E+02  0.88997298740E+02  0.00000000000E+00 0. -1.
          1    1    1    2  502    0 -0.78416920839E+01  0.24465371619E+02 -0.83710413838E+03  0.83749828957E+03  0.00000000000E+00 0. -1.
         22    1    1    2    0    0  0.64482488379E+02 -0.57539947883E+01  0.16315808512E+02  0.66763053937E+02  0.00000000000E+00 0. -1.
         22    1    1    2    0    0 -0.33519245951E+02 -0.87491519491E+01 -0.63477699922E+02  0.72315322694E+02  0.00000000000E+00 0. -1.
</event>
<event>
 6    1  0.1293624E-005  0.1662136E+03  0.7818608E-02  0.1181855E+00
          2   -1    0    0  502    0  0.00000000000E+00  0.00000000000E+00  0.18697604439E+02  0.18697604439E+02  0.00000000000E+00 0.  1.
          1   -1    0    0  501    0 -0.00000000000E+00 -0.00000000000E+00 -0.84448809357E+03  0.84448809357E+03  0.00000000000E+00 0. -1.
          2    1    1    2  501    0 -0.15062366950E+02 -0.22693082466E+02 -0.51473312980E+02  0.58235322950E+02  0.00000000000E+00 0.  1.
          1    1    1    2  502    0  0.58302240325E+02 -0.16129623203E+02 -0.42519335279E+03  0.42947491572E+03  0.00000000000E+00 0. -1.
         22    1    1    2    0    0 -0.51645616014E+02  0.68833030349E+02 -0.32461488939E+03  0.33582745888E+03  0.00000000000E+00 0.  1.
         22    1    1    2    0    0  0.84057426400E+01 -0.30010324680E+02 -0.24508933967E+02  0.39648000466E+02  0.00000000000E+00 0. -1.
</event>
<event>
 6    1  0.1293624E-005  0.9421954E+02  0.7818608E-02  0.1294819E+00
          2   -1    0    0  502    0  0.00000000000E+00  0.00000000000E+00  0.45747266673E+03  0.45747266673E+03  0.00000000000E+00 0.  1.
          1   -1    0    0  501    0 -0.00000000000E+00 -0.00000000000E+00 -0.40472889495E+02  0.40472889495E+02  0.00000000000E+00 0.  1.
          2    1    1    2  501    0 -0.14246530715E+02 -0.41256178224E+02  0.15739053192E+02  0.46397776610E+02  0.00000000000E+00 0.  1.
          1    1    1    2  502    0 -0.13435736851E+02 -0.15954722018E+02 -0.49015914568E+01  0.21426567112E+02  0.00000000000E+00 0.  1.
         22    1    1    2    0    0  0.40026655193E+02  0.86655331519E+02  0.36891094282E+03  0.38105978972E+03  0.00000000000E+00 0.  1.
         22    1    1    2    0    0 -0.12344387628E+02 -0.29444431278E+02  0.37251372680E+02  0.49061422785E+02  0.00000000000E+00 0.  1.
</event>
<event>
 6    1  0.1293624E-005  0.1795379E+03  0.7818608E-02  0.1214261E+00
          2   -1    0    0  502    0  0.00000000000E+00  0.00000000000E+00  0.65639721774E+03  0.65639721774E+03  0.00000000000E+00 0. -1.
          1   -1    0    0  501    0 -0.00000000000E+00 -0.00000000000E+00 -0.32876832606E+03  0.32876832606E+03  0.00000000000E+00 0. -1.
          2    1    1    2  501    0  0.89593077652E+01  0.74112548573E+02  0.18386481055E+03  0.19844195023E+03  0.00000000000E+00 0. -1.
          1    1    1    2  502    0 -0.30921129352E+02 -0.16968015347E+03 -0.28321314606E+03  0.33159788423E+03  0.00000000000E+00 0. -1.
         22    1    1    2    0    0 -0.40530680410E+02  0.77394509727E+02  0.29970326034E+03  0.31217733815E+03  0.00000000000E+00 0. -1.
         22    1    1    2    0    0  0.62492501996E+02  0.18173095173E+02  0.12727396684E+03  0.14294837120E+03  0.00000000000E+00 0.  1.
</event>
<event>
 6    1  0.1293624E-005  0.2407285E+03  0.7818608E-02  0.1119308E+00
          2   -1    0    0  502    0  0.00000000000E+00  0.00000000000E+00  0.23380188128E+04  0.23380188128E+04  0.00000000000E+00 0. -1.
          1   -1    0    0  501    0 -0.00000000000E+00 -0.00000000000E+00 -0.27190780525E+02  0.27190780525E+02  0.00000000000E+00 0. -1.
          2    1    1    2  501    0  0.52953413764E+02 -0.35649663180E+02  0.94872312315E+02  0.11434910650E+03  0.00000000000E+00 0. -1.
          1    1    1    2  502    0 -0.16256781411E+03  0.49871441041E+01  0.17134444404E+04  0.17211464249E+04  0.00000000000E+00 0. -1.
         22    1    1    2    0    0  0.98458447333E+02  0.72746725936E+02  0.40073977140E+03  0.41902090207E+03  0.00000000000E+00 0. -1.
         22    1    1    2    0    0  0.11155953009E+02 -0.42084206860E+02  0.10177150817E+03  0.11069315981E+03  0.00000000000E+00 0. -1.
</event>
<event>
 6    1  0.1293624E-005  0.2445594E+03  0.7818608E-02  0.1116792E+00
          2   -1    0    0  502    0  0.00000000000E+00  0.00000000000E+00  0.65481757418E+03  0.65481757418E+03  0.00000000000E+00 0. -1.
          1   -1    0    0  501    0 -0.00000000000E+00 -0.00000000000E+00 -0.95161447060E+02  0.95161447060E+02  0.00000000000E+00 0. -1.
          2    1    1    2  501    0 -0.14594094650E+02  0.36303038676E+02  0.18024732724E+01  0.39168190227E+02  0.00000000000E+00 0. -1.
          1    1    1    2  502    0 -0.14018320190E+03 -0.59350917277E+02  0.46236041674E+03  0.48677614613E+03  0.00000000000E+00 0. -1.
         22    1    1    2    0    0  0.13591887095E+03  0.19621356565E+02  0.11417341315E+02  0.13780164294E+03  0.00000000000E+00 0. -1.
         22    1    1    2    0    0  0.18858425599E+02  0.34265220362E+01  0.84075895789E+02  0.86233041939E+02  0.00000000000E+00 0. -1.
</event>
<event>
 6    1  0.1293624E-005  0.7983803E+02  0.7818608E-02  0.1332678E+00
          2   -1    0    0  502    0  0.00000000000E+00  0.00000000000E+00  0.25109491995E+02  0.25109491995E+02  0.00000000000E+00 0. -1.
          1   -1    0    0  501    0 -0.00000000000E+00 -0.00000000000E+00 -0.13940229772E+04  0.13940229772E+04  0.00000000000E+00 0. -1.
          2    1    1    2  501    0 -0.38320324190E+02  0.20532184997E+02 -0.72759730971E+02  0.84758458679E+02  0.00000000000E+00 0. -1.
          1    1    1    2  502    0  0.50129606110E+02  0.23233209650E+02 -0.10872618198E+04  0.10886647897E+04  0.00000000000E+00 0. -1.
         22    1    1    2    0    0  0.16964544826E+02 -0.75347412193E+02 -0.85937777656E+02  0.11554362784E+03  0.00000000000E+00 0. -1.
         22    1    1    2    0    0 -0.28773826746E+02  0.31582017545E+02 -0.12295415674E+03  0.13016559298E+03  0.00000000000E+00 0. -1.
</event>
<event>
 6    1  0.1293624E-005  0.2019495E+03  0.7818608E-02  0.1148105E+00
          2   -1    0    0  502    0  0.00000000000E+00  0.00000000000E+00  0.10426175261E+04  0.10426175261E+04  0.00000000000E+00 0. -1.
          1   -1    0    0  501    0 -0.00000000000E+00 -0.00000000000E+00 -0.26709302419E+02  0.26709302419E+02  0.00000000000E+00 0. -1.
          2    1    1    2  501    0 -0.33697174626E+02  0.12658586144E+02  0.12844451919E+03  0.13339315534E+03  0.00000000000E+00 0. -1.
          1    1    1    2  502    0  0.90218518473E+02  0.85231962769E+02  0.28125335902E+03  0.30742042957E+03  0.00000000000E+00 0. -1.
         22    1    1    2    0    0 -0.47238053719E+02 -0.12609816148E+03  0.52663125575E+03  0.54357396882E+03  0.00000000000E+00 0. -1.
         22    1    1    2    0    0 -0.92832901277E+01  0.28207612563E+02  0.79579089705E+02  0.84939274781E+02  0.00000000000E+00 0.  1.
</event>
<event>
 6    1  0.1293624E-005  0.9289055E+02  0.7818608E-02  0.1297097E+00
          2   -1    0    0  502    0  0.00000000000E+00  0.00000000000E+00  0.35795681508E+03  0.35795681508E+03  0.00000000000E+00 0. -1.
          1   -1    0    0  501    0 -0.00000000000E+00 -0.00000000000E+00 -0.14342775329E+03  0.14342775329E+03  0.00000000000E+00 0.  1.
          2    1    1    2  501    0 -0.61153522568E+02  0.11922472624E+02  0.17989283075E+02  0.64849926611E+02  0.00000000000E+00 0. -1.
          1    1    1    2  502    0 -0.15373567707E+01 -0.26263939110E+02 -0.10328536084E+03  0.10658341207E+03  0.00000000000E+00 0.  1.
         22    1    1    2    0    0 -0.28613284759E+02  0.10465432765E+02  0.22270380792E+02  0.37738775925E+02  0.00000000000E+00 0.  1.
         22    1    1    2    0    0  0.91304164097E+02  0.38760337210E+01  0.27755475877E+03  0.29221245377E+03  0.00000000000E+00 0. -1.
</event>
<event>
 6    1  0.1293624E-005  0.1927060E+03  0.7818608E-02  0.1156043E+00
          2   -1    0    0  502    0  0.00000000000E+00  0.00000000000E+00  0.71109989321E+03  0.71109989321E+03  0.00000000000E+00 0.  1.
          1   -1    0    0  501    0 -0.00000000000E+00 -0.00000000000E+00 -0.22196047689E+03  0.22196047689E+03  0.00000000000E+00 0.  1.
          2    1    1    2  501    0  0.19490347211E+02  0.99522697821E+01  0.87322744297E+02  0.90023235777E+02  0.00000000000E+00 0.  1.
          1    1    1    2  502    0  0.87283804186E+02 -0.57364270636E+02 -0.19558989546E+03  0.22173075841E+03  0.00000000000E+00 0.  1.
         22    1    1    2    0    0  0.26124570567E+02  0.33359885512E+01  0.53006512389E+02  0.59188785784E+02  0.00000000000E+00 0.  1.
         22    1    1    2    0    0 -0.13289872196E+03  0.44076012302E+02  0.54440005509E+03  0.56211759013E+03  0.00000000000E+00 0.  1.
</event>
<event>
 6    1  0.1293624E-005  0.2293679E+03  0.7818608E-02  0.1127085E+00
          2   -1    0    0  502    0  0.00000000000E+00  0.00000000000E+00  0.10040993559E+03  0.10040993559E+03  0.00000000000E+00 0.  1.
          1   -1    0    0  501    0 -0.00000000000E+00 -0.00000000000E+00 -0.84178246724E+03  0.84178246724E+03  0.00000000000E+00 0. -1.
          2    1    1    2  501    0 -0.61035381635E+02  0.13780657553E+02 -0.78455094455E+02  0.10035151309E+03  0.00000000000E+00 0.  1.
          1    1    1    2  502    0  0.84113257658E+02 -0.30987561271E+02 -0.70413928133E+03  0.70982208797E+03  0.00000000000E+00 0. -1.
         22    1    1    2    0    0 -0.59061216645E+02  0.31824332502E+02  0.58964804833E+02  0.89318887475E+02  0.00000000000E+00 0.  1.
         22    1    1    2    0    0  0.35983340622E+02 -0.14617428784E+02 -0.17742960699E+02  0.42699914297E+02  0.00000000000E+00 0. -1.
</event>
<event>
 6    1  0.1293624E-005  0.1438967E+03  0.7818608E-02  0.1208506E+00
          2   -1    0    0  502    0  0.00000000000E+00  0.00000000000E+00  0.81617600047E+03  0.81617600047E+03  0.00000000000E+00 0.  1.
          1   -1    0    0  501    0 -0.00000000000E+00 -0.00000000000E+00 -0.51547845628E+02  0.51547845628E+02  0.00000000000E+00 0.  1.
          2    1    1    2  501    0  0.79331649359E+02  0.44665326857E+02  0.13395442857E+03  0.16196385691E+03  0.00000000000E+00 0.  1.
          1    1    1    2  502    0  0.35885107625E+02  0.54072103081E+02  0.25195318212E+02  0.69615640058E+02  0.00000000000E+00 0.  1.
         22    1    1    2    0    0 -0.12938075288E+03 -0.10578134829E+03  0.59269624909E+03  0.61580672012E+03  0.00000000000E+00 0.  1.
         22    1    1    2    0    0  0.14163995897E+02  0.70439183557E+01  0.12782158979E+02  0.20337629010E+02  0.00000000000E+00 0. -1.
</event>
<event>
 6    1  0.1293624E-005  0.2875797E+03  0.7818608E-02  0.1091869E+00
          2   -1    0    0  502    0  0.00000000000E+00  0.00000000000E+00  0.30310524141E+04  0.30310524141E+04  0.00000000000E+00 0.  1.
          1   -1    0    0  501    0 -0.00000000000E+00 -0.00000000000E+00 -0.26207806764E+03  0.26207806764E+03  0.00000000000E+00 0.  1.
          2    1    1    2  501    0 -0.36678680092E+02  0.27902710635E+03  0.18961742221E+04  0.19169449998E+04  0.00000000000E+00 0.  1.
          1    1    1    2  502    0 -0.22648192986E+02 -0.24272334555E+02 -0.23202746791E+03  0.23439034267E+03  0.00000000000E+00 0.  1.
         22    1    1    2    0    0  0.67088968720E+02 -0.26570379590E+03  0.10334769616E+04  0.10691931851E+04  0.00000000000E+00 0.  1.
         22    1    1    2    0    0 -0.77620956411E+01  0.10949024102E+02  0.71350630672E+02  0.72601954208E+02  0.00000000000E+00 0. -1.
</event>
<event>
 6    1  0.1293624E-005  0.3817249E+03  0.7818608E-02  0.1050298E+00
          2   -1    0    0  502    0  0.00000000000E+00  0.00000000000E+00  0.11999178681E+04  0.11999178681E+04  0.00000000000E+00 0.  1.
          1   -1    0    0  501    0 -0.00000000000E+00 -0.00000000000E+00 -0.54262513671E+02  0.54262513671E+02  0.00000000000E+00 0.  1.
          2    1    1    2  501    0 -0.13608537608E+02 -0.17317644342E+03  0.38916922724E+03  0.42617831981E+03  0.00000000000E+00 0.  1.
          1    1    1    2  502    0  0.27281960584E+02  0.22438387298E+02 -0.10326817767E+02  0.36802578212E+02  0.00000000000E+00 0.  1.
         22    1    1    2    0    0 -0.42589411058E+02  0.19592265398E+01  0.14168203518E+03  0.14795774936E+03  0.00000000000E+00 0.  1.
         22    1    1    2    0    0  0.28915988082E+02  0.14877882958E+03  0.62513090983E+03  0.64324173444E+03  0.00000000000E+00 0.  1.
</event>
<event>
 6    1  0.1293624E-005  0.1906696E+03  0.7818608E-02  0.1157859E+00
          2   -1    0    0  502    0  0.00000000000E+00  0.00000000000E+00  0.20390616953E+03  0.20390616953E+03  0.00000000000E+00 0.  1.
          1   -1    0    0  501    0 -0.00000000000E+00 -0.00000000000E+00 -0.11862298010E+03  0.11862298010E+03  0.00000000000E+00 0. -1.
          2    1    1    2  501    0  0.12728917825E+02  0.23794394532E+02  0.55035683857E+02  0.61295391815E+02  0.00000000000E+00 0.  1.
          1    1    1    2  502    0  0.94183041653E+01 -0.99881836182E+02 -0.23457785868E+02  0.10303083699E+03  0.00000000000E+00 0. -1.
         22    1    1    2    0    0 -0.38469556528E+02  0.79569609801E+02 -0.13097937926E+02  0.89346435639E+02  0.00000000000E+00 0.  1.
         22    1    1    2    0    0  0.16322334538E+02 -0.34821681508E+01  0.66803229364E+02  0.68856485194E+02  0.00000000000E+00 0.  1.
</event>
<event>
 6    1  0.1293624E-005  0.2683385E+03  0.7818608E-02  0.1102234E+00
          2   -1    0    0  502    0  0.00000000000E+00  0.00000000000E+00  0.46717861786E+03  0.46717861786E+03  0.00000000000E+00 0.  1.
          1   -1    0    0  501    0 -0.00000000000E+00 -0.00000000000E+00 -0.15529195368E+04  0.15529195368E+04  0.00000000000E+00 0.  1.
          2    1    1    2  501    0 -0.48995168498E+02  0.56939607423E+02  0.40542699411E+02  0.85360154084E+02  0.00000000000E+00 0.  1.
          1    1    1    2  502    0 -0.31199840381E+02  0.77175610568E+01 -0.15142028134E+04  0.15145438755E+04  0.00000000000E+00 0.  1.
         22    1    1    2    0    0 -0.16878542649E+02 -0.52970511433E+01  0.19441081225E+01  0.17796727485E+02  0.00000000000E+00 0. -1.
         22    1    1    2    0    0  0.97073551528E+02 -0.59360117337E+02  0.38597508686E+03  0.40239739763E+03  0.00000000000E+00 0.  1.
</event>
<event>
 6    1  0.1293624E-005  0.1546127E+03  0.7818608E-02  0.1210798E+00
          2   -1    0    0  502    0  0.00000000000E+00  0.00000000000E+00  0.10887885568E+03  0.10887885568E+03  0.00000000000E+00 0.  1.
          1   -1    0    0  501    0 -0.00000000000E+00 -0.00000000000E+00 -0.87683382892E+03  0.87683382892E+03  0.00000000000E+00 0. -1.
          2    1    1    2  501    0 -0.25309366212E+02  0.73072330487E+02 -0.82387013281E+02  0.11299446649E+03  0.00000000000E+00 0.  1.
          1    1    1    2  502    0  0.11823804963E+03 -0.13426907014E+03 -0.68339242752E+03  0.70642312361E+03  0.00000000000E+00 0. -1.
         22    1    1    2    0    0  0.13378898185E+02  0.34169607787E+02 -0.36103551740E+02  0.51478378580E+02  0.00000000000E+00 0. -1.
         22    1    1    2    0    0 -0.10630758160E+03  0.27027131864E+02  0.33928019298E+02  0.11481671593E+03  0.00000000000E+00 0.  1.
</event>
<event>
 6    1  0.1293624E-005  0.1071845E+03  0.7818608E-02  0.1315730E+00
          2   -1    0    0  502    0  0.00000000000E+00  0.00000000000E+00  0.13746946068E+03  0.13746946068E+03  0.00000000000E+00 0. -1.
          1   -1    0    0  501    0 -0.00000000000E+00 -0.00000000000E+00 -0.25764936720E+03  0.25764936720E+03  0.00000000000E+00 0. -1.
          2    1    1    2  501    0  0.13576454050E+02  0.47752303495E+02 -0.91145647290E+02  0.10378888001E+03  0.00000000000E+00 0. -1.
          1    1    1    2  502    0 -0.49114492386E+02 -0.12827386532E+03 -0.83986331207E+01  0.13761160898E+03  0.00000000000E+00 0. -1.
         22    1    1    2    0    0  0.34326705284E+01  0.42025047998E+02  0.51071000726E+02  0.66227901985E+02  0.00000000000E+00 0. -1.
         22    1    1    2    0    0  0.32105367807E+02  0.38496513832E+02 -0.71706626827E+02  0.87490436907E+02  0.00000000000E+00 0. -1.
</event>
<event>
 6    1  0.1293624E-005  0.4679620E+02  0.7818608E-02  0.1465315E+00
          2   -1    0    0  502    0  0.00000000000E+00  0.00000000000E+00  0.21520857339E+03  0.21520857339E+03  0.00000000000E+00 0.  1.
          1   -1    0    0  501    0 -0.00000000000E+00 -0.00000000000E+00 -0.13005143864E+03  0.13005143864E+03  0.00000000000E+00 0.  1.
          2    1    1    2  501    0  0.22366015848E+02  0.31057530597E+01 -0.16735734884E+02  0.28106390539E+02  0.00000000000E+00 0.  1.
          1    1    1    2  502    0 -0.19892480580E+02  0.27900486244E+02 -0.85246348362E+02  0.91875392926E+02  0.00000000000E+00 0.  1.
         22    1    1    2    0    0 -0.19265578531E+02 -0.42457711477E+02  0.19717363161E+03  0.20261110725E+03  0.00000000000E+00 0.  1.
         22    1    1    2    0    0  0.16792043263E+02  0.11451472173E+02 -0.10034413618E+02  0.22667121311E+02  0.00000000000E+00 0.  1.
</event>
<event>
 6    1  0.1293624E-005  0.9527087E+02  0.7818608E-02  0.1292933E+00
          2   -1    0    0  502    0  0.00000000000E+00  0.00000000000E+00  0.43751916813E+02  0.43751916813E+02  0.00000000000E+00 0.  1.
          1   -1    0    0  501    0 -0.00000000000E+00 -0.00000000000E+00 -0.11416750334E+04  0.11416750334E+04  0.00000000000E+00 0.  1.
          2    1    1    2  501    0 -0.26759859810E+02  0.29224673892E+02 -0.91496815839E+02  0.99708770776E+02  0.00000000000E+00 0.  1.
          1    1    1    2  502    0 -0.21517504524E+02  0.11480430325E+02 -0.91552093635E+03  0.91584572291E+03  0.00000000000E+00 0.  1.
         22    1    1    2    0    0  0.59193822214E+02 -0.78550712736E+02 -0.41669344766E+02  0.10681974234E+03  0.00000000000E+00 0.  1.
         22    1    1    2    0    0 -0.10916457880E+02  0.37845608520E+02 -0.49236019617E+02  0.63052714173E+02  0.00000000000E+00 0.  1.
</event>
<event>
 6    1  0.1293624E-005  0.9589165E+02  0.7818608E-02  0.1293082E+00
          2   -1    0    0  502    0  0.00000000000E+00  0.00000000000E+00  0.78390304343E+03  0.78390304343E+03  0.00000000000E+00 0.  1.
          1   -1    0    0  501    0 -0.00000000000E+00 -0.00000000000E+00 -0.25612139548E+03  0.25612139548E+03  0.00000000000E+00 0. -1.
          2    1    1    2  501    0  0.38383745131E+02  0.46755973664E+02  0.17827280449E+03  0.18825680807E+03  0.00000000000E+00 0.  1.
          1    1    1    2  502    0 -0.22856809322E+02 -0.25581578121E+02 -0.24276879228E+03  0.24518062195E+03  0.00000000000E+00 0. -1.
         22    1    1    2    0    0  0.48767467736E+02  0.22030326399E+02  0.24368174659E+03  0.24948826588E+03  0.00000000000E+00 0.  1.
         22    1    1    2    0    0 -0.64294403546E+02 -0.43204721941E+02  0.34859588915E+03  0.35709874301E+03  0.00000000000E+00 0.  1.
</event>
<event>
 6    1  0.1293624E-005  0.5520203E+02  0.7818608E-02  0.1421248E+00
          2   -1    0    0  502    0  0.00000000000E+00  0.00000000000E+00  0.13984699795E+03  0.13984699795E+03  0.00000000000E+00 0. -1.
          1   -1    0    0  501    0 -0.00000000000E+00 -0.00000000000E+00 -0.51599618163E+03  0.51599618163E+03  0.00000000000E+00 0. -1.
          2    1    1    2  501    0 -0.21239323901E+02  0.32434511004E+02 -0.84432694563E+02  0.92908483439E+02  0.00000000000E+00 0. -1.
          1    1    1    2  502    0 -0.18413071929E+02 -0.13490569514E+02 -0.39299211675E+03  0.39365446842E+03  0.00000000000E+00 0. -1.
         22    1    1    2    0    0  0.40835419070E+02 -0.34825736123E+02  0.12764836990E+03  0.13847190937E+03  0.00000000000E+00 0. -1.
         22    1    1    2    0    0 -0.11830232403E+01  0.15881794633E+02 -0.26372742268E+02  0.30808318349E+02  0.00000000000E+00 0.  1.
</event>
<event>
 6    1  0.1293624E-005  0.2198809E+03  0.7818608E-02  0.1133972E+00
          2   -1    0    0  502    0  0.00000000000E+00  0.00000000000E+00  0.21094837831E+03  0.21094837831E+03  0.00000000000E+00 0.  1.
          1   -1    0    0  501    0 -0.00000000000E+00 -0.00000000000E+00 -0.84667633879E+03  0.84667633879E+03  0.00000000000E+00 0. -1.
          2    1    1    2  501    0  0.10538919465E+02  0.36076573890E+02  0.53835292835E+02  0.65656886628E+02  0.00000000000E+00 0.  1.
          1    1    1    2  502    0 -0.12871816185E+03 -0.25358473308E+02 -0.78239407542E+03  0.79331702781E+03  0.00000000000E+00 0. -1.
         22    1    1    2    0    0  0.31966407232E+02  0.54482476150E+02  0.56117051258E+02  0.84494466332E+02  0.00000000000E+00 0. -1.
         22    1    1    2    0    0  0.86212835156E+02 -0.65200576732E+02  0.36713770854E+02  0.11415633632E+03  0.00000000000E+00 0. -1.
</event>
<event>
 6    1  0.1293624E-005  0.1205657E+03  0.7818608E-02  0.1243951E+00
          2   -1    0    0  502    0  0.00000000000E+00  0.00000000000E+00  0.22235996551E+03  0.22235996551E+03  0.00000000000E+00 0. -1.
          1   -1    0    0  501    0 -0.00000000000E+00 -0.00000000000E+00 -0.15886599890E+04  0.15886599890E+04  0.00000000000E+00 0.  1.
          2    1    1    2  501    0 -0.95490230854E+02 -0.48231819942E+02  0.11784819167E+03  0.15916308907E+03  0.00000000000E+00 0. -1.
          1    1    1    2  502    0  0.59060579988E+02  0.36183434170E+02 -0.15145320485E+04  0.15161150085E+04  0.00000000000E+00 0.  1.
         22    1    1    2    0    0  0.58690089141E+02  0.43965380448E+02 -0.16143231069E+02  0.75087183664E+02  0.00000000000E+00 0.  1.
         22    1    1    2    0    0 -0.22260438275E+02 -0.31916994676E+02  0.46527064447E+02  0.60654673253E+02  0.00000000000E+00 0. -1.
</event>
<event>
 6    1  0.1293624E-005  0.1932304E+03  0.7818608E-02  0.1155580E+00
          2   -1    0    0  502    0  0.00000000000E+00  0.00000000000E+00  0.15722302262E+03  0.15722302262E+03  0.00000000000E+00 0.  1.
          1   -1    0    0  501    0 -0.00000000000E+00 -0.00000000000E+00 -0.36003341300E+03  0.36003341300E+03  0.00000000000E+00 0. -1.
          2    1    1    2  501    0  0.10854168469E+02 -0.41476011099E+02  0.34563131807E+02  0.55069797078E+02  0.00000000000E+00 0.  1.
          1    1    1    2  502    0 -0.94301128833E+02  0.21726151668E+02 -0.28966580319E+03  0.30540302242E+03  0.00000000000E+00 0. -1.
         22    1    1    2    0    0 -0.49883454214E+01 -0.33359893525E+02 -0.11331938506E+02  0.35583407880E+02  0.00000000000E+00 0. -1.
         22    1    1    2    0    0  0.88435305786E+02  0.53109752957E+02  0.63624219514E+02  0.12120020824E+03  0.00000000000E+00 0.  1.
</event>
<event>
 6    1  0.1293624E-005  0.2920537E+03  0.7818608E-02  0.1103448E+00
          2   -1    0    0  502    0  0.00000000000E+00  0.00000000000E+00  0.67031697293E+03  0.67031697293E+03  0.00000000000E+00 0.  1.
          1   -1    0    0  501    0 -0.00000000000E+00 -0.00000000000E+00 -0.94491529960E+03  0.94491529960E+03  0.00000000000E+00 0. -1.
          2    1    1    2  501    0  0.17478350819E+03  0.53911730343E+02  0.16530820467E+03  0.24654117696E+03  0.00000000000E+00 0.  1.
          1    1    1    2  502    0 -0.26148461202E+03  0.14823622282E+03 -0.84176867706E+03  0.89382475115E+03  0.00000000000E+00 0. -1.
         22    1    1    2    0    0  0.37831450624E+02 -0.19813493738E+03  0.34627348892E+03  0.40074181364E+03  0.00000000000E+00 0.  1.
         22    1    1    2    0    0  0.48869653206E+02 -0.40130157898E+01  0.55588656800E+02  0.74124530792E+02  0.00000000000E+00 0. -1.
</event>
<event>
 6    1  0.1293624E-005  0.4189095E+02  0.7818608E-02  0.1501944E+00
          2   -1    0    0  502    0  0.00000000000E+00  0.00000000000E+00  0.57832219273E+02  0.57832219273E+02  0.00000000000E+00 0.  1.
          1   -1    0    0  501    0 -0.00000000000E+00 -0.00000000000E+00 -0.83866963926E+03  0.83866963926E+03  0.00000000000E+00 0. -1.
          2    1    1    2  501    0 -0.25711369827E+02  0.54428121056E+01  0.29197592570E+02  0.39283560860E+02  0.00000000000E+00 0.  1.
          1    1    1    2  502    0 -0.14556389152E+02  0.16444321355E+02 -0.64456902711E+03  0.64494304778E+03  0.00000000000E+00 0. -1.
         22    1    1    2    0    0 -0.61655632448E+01  0.13487114677E+02  0.15902812194E+02  0.21744329563E+02  0.00000000000E+00 0. -1.
         22    1    1    2    0    0  0.46433322224E+02 -0.35374248138E+02 -0.18136879764E+03  0.19053092033E+03  0.00000000000E+00 0. -1.
</event>
<event>
 6    1  0.1293624E-005  0.3267247E+03  0.7818608E-02  0.1072595E+00
          2   -1    0    0  502    0  0.00000000000E+00  0.00000000000E+00  0.58190487741E+02  0.58190487741E+02  0.00000000000E+00 0.  1.
          1   -1    0    0  501    0 -0.00000000000E+00 -0.00000000000E+00 -0.62529028814E+03  0.62529028814E+03  0.00000000000E+00 0.  1.
          2    1    1    2  501    0  0.53048856164E+02 -0.14663485096E+02 -0.37975481460E+03  0.38372244936E+03  0.00000000000E+00 0.  1.
          1    1    1    2  502    0  0.18172905162E+02  0.29622967999E+02 -0.14825904617E+03  0.15227777082E+03  0.00000000000E+00 0.  1.
         22    1    1    2    0    0  0.20672780873E+02 -0.67011611921E+01 -0.50052067189E+02  0.54566279517E+02  0.00000000000E+00 0. -1.
         22    1    1    2    0    0 -0.91894542199E+02 -0.82583217108E+01  0.10966127562E+02  0.92914276175E+02  0.00000000000E+00 0.  1.
</event>
<event>
 6    1  0.1293624E-005  0.7775569E+02  0.7818608E-02  0.1337082E+00
          2   -1    0    0  502    0  0.00000000000E+00  0.00000000000E+00  0.35188261769E+03  0.35188261769E+03  0.00000000000E+00 0. -1.
          1   -1    0    0  501    0 -0.00000000000E+00 -0.00000000000E+00 -0.71995322252E+03  0.71995322252E+03  0.00000000000E+00 0.  1.
          2    1    1    2  501    0 -0.18455618718E+02 -0.13944991538E+02  0.47612827057E+02  0.52934430682E+02  0.00000000000E+00 0. -1.
          1    1    1    2  502    0 -0.16129035340E+02  0.43164501189E+02 -0.70091685609E+03  0.70242989622E+03  0.00000000000E+00 0.  1.
         22    1    1    2    0    0  0.64939444665E+02  0.28417093050E+02  0.12880599960E+03  0.14702261113E+03  0.00000000000E+00 0. -1.
         22    1    1    2    0    0 -0.30354790606E+02 -0.57636602701E+02  0.15642742460E+03  0.16944890218E+03  0.00000000000E+00 0. -1.
</event>
<event>
 6    1  0.1293624E-005  0.1206390E+03  0.7818608E-02  0.1244280E+00
          2   -1    0    0  502    0  0.00000000000E+00  0.00000000000E+00  0.36731254121E+03  0.36731254121E+03  0.00000000000E+00 0.  1.
          1   -1    0    0  501    0 -0.00000000000E+00 -0.00000000000E+00 -0.80973703767E+02  0.80973703767E+02  0.00000000000E+00 0.  1.
          2    1    1    2  501    0 -0.47059028749E+02  0.63422650780E+02  0.43084249503E+02  0.89962422011E+02  0.00000000000E+00 0.  1.
          1    1    1    2  502    0 -0.72149267457E+02 -0.49943523594E+02  0.58656385828E+02  0.10554830146E+03  0.00000000000E+00 0.  1.
         22    1    1    2    0    0  0.11862306041E+03 -0.52032897128E+02  0.16423740883E+03  0.20917165033E+03  0.00000000000E+00 0.  1.
         22    1    1    2    0    0  0.58523579972E+00  0.38553769942E+02  0.20360793281E+02  0.43603871167E+02  0.00000000000E+00 0.  1.
</event>
<event>
 6    1  0.1293624E-005  0.2159863E+03  0.7818608E-02  0.1136911E+00
          2   -1    0    0  502    0  0.00000000000E+00  0.00000000000E+00  0.33091668631E+03  0.33091668631E+03  0.00000000000E+00 0. -1.
          1   -1    0    0  501    0 -0.00000000000E+00 -0.00000000000E+00 -0.51020116557E+03  0.51020116557E+03  0.00000000000E+00 0.  1.
          2    1    1    2  501    0 -0.46281455366E+02  0.18766645202E+02  0.69626682577E+02  0.85685675638E+02  0.00000000000E+00 0. -1.
          1    1    1    2  502    0  0.43891722753E+02 -0.12665452815E+03 -0.46444051975E+03  0.48339719611E+03  0.00000000000E+00 0.  1.
         22    1    1    2    0    0 -0.20700065315E+02  0.27695138578E+02  0.17659597218E+03  0.17994902277E+03  0.00000000000E+00 0. -1.
         22    1    1    2    0    0  0.23089797928E+02  0.80192744366E+02  0.38933385726E+02  0.92085957352E+02  0.00000000000E+00 0. -1.
</event>
<event>
 6    1  0.1293624E-005  0.2568056E+03  0.7818608E-02  0.1109078E+00
          2   -1    0    0  502    0  0.00000000000E+00  0.00000000000E+00  0.65076520123E+03  0.65076520123E+03  0.00000000000E+00 0.  1.
          1   -1    0    0  501    0 -0.00000000000E+00 -0.00000000000E+00 -0.12032485403E+03  0.12032485403E+03  0.00000000000E+00 0. -1.
          2    1    1    2  501    0 -0.18781985378E+02 -0.43762345794E+02  0.74047050524E+02  0.88039034385E+02  0.00000000000E+00 0.  1.
          1    1    1    2  502    0 -0.11938653680E+03  0.14029506468E+03  0.27597845922E+01  0.18423752808E+03  0.00000000000E+00 0. -1.
         22    1    1    2    0    0  0.13817106895E+02  0.41864571478E+01 -0.31789677889E+01  0.14783257510E+02  0.00000000000E+00 0.  1.
         22    1    1    2    0    0  0.12435141528E+03 -0.10071917604E+03  0.45681247987E+03  0.48403023529E+03  0.00000000000E+00 0.  1.
</event>
<event>
 6    1  0.1293624E-005  0.2351921E+03  0.7818608E-02  0.1123038E+00
          2   -1    0    0  502    0  0.00000000000E+00  0.00000000000E+00  0.91360317630E+02  0.91360317630E+02  0.00000000000E+00 0. -1.
          1   -1    0    0  501    0 -0.00000000000E+00 -0.00000000000E+00 -0.68623106531E+03  0.68623106531E+03  0.00000000000E+00 0. -1.
          2    1    1    2  501    0 -0.61250683773E+02  0.34615161474E+02  0.16019530318E+02  0.72155949292E+02  0.00000000000E+00 0. -1.
          1    1    1    2  502    0  0.95437173441E+02  0.37069056482E+02 -0.52115637105E+03  0.53111800205E+03  0.00000000000E+00 0. -1.
         22    1    1    2    0    0 -0.26602417907E+01  0.28165871108E+02 -0.58609812232E+02  0.65080744245E+02  0.00000000000E+00 0. -1.
         22    1    1    2    0    0 -0.31526247877E+02 -0.99850089065E+02 -0.31124094723E+02  0.10923668735E+03  0.00000000000E+00 0. -1.
</event>
<event>
 6    1  0.1293624E-005  0.3055250E+02  0.7818608E-02  0.1596204E+00
          2   -1    0    0  502    0  0.00000000000E+00  0.00000000000E+00  0.10952068359E+03  0.10952068359E+03  0.00000000000E+00 0.  1.
          1   -1    0    0  501    0 -0.00000000000E+00 -0.00000000000E+00 -0.76577252359E+03  0.76577252359E+03  0.00000000000E+00 0. -1.
          2    1    1    2  501    0 -0.20831459594E+02  0.12003658079E+02 -0.26730655491E+02  0.35952266397E+02  0.00000000000E+00 0.  1.
          1    1    1    2  502    0  0.60912006342E+01 -0.25665152930E+02 -0.69830912121E+03  0.69880714905E+03  0.00000000000E+00 0. -1.
         22    1    1    2    0    0 -0.13765785590E+02  0.17463707251E+02 -0.30171317036E+02  0.37480478860E+02  0.00000000000E+00 0.  1.
         22    1    1    2    0    0  0.28506044550E+02 -0.38022123996E+01  0.98959253738E+02  0.10305331288E+03  0.00000000000E+00 0.  1.
</event>
<event>
 6    1  0.1293624E-005  0.4123340E+03  0.7818608E-02  0.1039591E+00
          2   -1    0    0  502    0  0.00000000000E+00  0.00000000000E+00  0.60628683447E+03  0.60628683447E+03  0.00000000000E+00 0.  1.
          1   -1    0    0  501    0 -0.00000000000E+00 -0.00000000000E+00 -0.15658139896E+03  0.15658139896E+03  0.00000000000E+00 0.  1.
          2    1    1    2  501    0 -0.92555396173E+01  0.17590935395E+03  0.11205321397E+03  0.20877185773E+03  0.00000000000E+00 0.  1.
          1    1    1    2  502    0  0.65837508383E+01 -0.19876432152E+02 -0.85057854432E+02  0.87597128553E+02  0.00000000000E+00 0.  1.
         22    1    1    2    0    0 -0.14103908501E+02  0.17779805063E+02  0.47028232648E+02  0.52217778285E+02  0.00000000000E+00 0. -1.
         22    1    1    2    0    0  0.16775697280E+02 -0.17381272686E+03  0.37568184332E+03  0.41428146886E+03  0.00000000000E+00 0.  1.
</event>
<event>
 6    1  0.1293624E-005  0.1218645E+03  0.7818608E-02  0.1240587E+00
          2   -1    0    0  502    0  0.00000000000E+00  0.00000000000E+00  0.58310779094E+03  0.58310779094E+03  0.00000000000E+00 0. -1.
          1   -1    0    0  501    0 -0.00000000000E+00 -0.00000000000E+00 -0.36983564380E+03  0.36983564380E+03  0.00000000000E+00 0. -1.
          2    1    1    2  501    0  0.18820443871E+02 -0.84374874154E+02  0.46374235081E+02  0.98101468773E+02  0.00000000000E+00 0. -1.
          1    1    1    2  502    0 -0.83340900725E+01 -0.26683888120E+02 -0.33000481247E+03  0.33118674973E+03  0.00000000000E+00 0. -1.
         22    1    1    2    0    0 -0.69292056442E+01  0.12562437316E+03  0.49207297942E+03  0.50790285892E+03  0.00000000000E+00 0. -1.
         22    1    1    2    0    0 -0.35571481546E+01 -0.14565610884E+02  0.48297451041E+01  0.15752357322E+02  0.00000000000E+00 0.  1.
</event>
<event>
 6    1  0.1293624E-005  0.6956346E+02  0.7818608E-02  0.1365577E+00
          2   -1    0    0  502    0  0.00000000000E+00  0.00000000000E+00  0.90654810083E+02  0.90654810083E+02  0.00000000000E+00 0. -1.
          1   -1    0    0  501    0 -0.00000000000E+00 -0.00000000000E+00 -0.50542493715E+03  0.50542493715E+03  0.00000000000E+00 0. -1.
          2    1    1    2  501    0 -0.43716296336E+02 -0.16811762293E+01 -0.11483229541E+03  0.12288367258E+03  0.00000000000E+00 0. -1.
          1    1    1    2  502    0 -0.15820462110E+02  0.12594621714E+02 -0.33009097772E+03  0.33070978983E+03  0.00000000000E+00 0. -1.
         22    1    1    2    0    0  0.66196030298E+02  0.12943959281E+01  0.72341189180E+02  0.98065475780E+02  0.00000000000E+00 0. -1.
         22    1    1    2    0    0 -0.66592718517E+01 -0.12207841412E+02 -0.42188043122E+02  0.44420809043E+02  0.00000000000E+00 0.  1.
</event>
<event>
 6    1  0.1293624E-005  0.2260631E+03  0.7818608E-02  0.1129442E+00
          2   -1    0    0  502    0  0.00000000000E+00  0.00000000000E+00  0.94336032019E+03  0.94336032019E+03  0.00000000000E+00 0. -1.
          1   -1    0    0  501    0 -0.00000000000E+00 -0.00000000000E+00 -0.59981304488E+02  0.59981304488E+02  0.00000000000E+00 0. -1.
          2    1    1    2  501    0 -0.87453520536E+02  0.23741874521E+02  0.35642682439E+02  0.97376566336E+02  0.00000000000E+00 0. -1.
          1    1    1    2  502    0  0.82475630111E+02 -0.52899828835E+02  0.71443913661E+03  0.72112682753E+03  0.00000000000E+00 0. -1.
         22    1    1    2    0    0  0.46081257095E+02  0.58747625591E+02  0.60202237841E+02  0.95911809539E+02  0.00000000000E+00 0.  1.
         22    1    1    2    0    0 -0.41103366671E+02 -0.29589671277E+02  0.73094958812E+02  0.88926421280E+02  0.00000000000E+00 0. -1.
</event>
<event>
 6    1  0.1293624E-005  0.7722057E+02  0.7818608E-02  0.1339961E+00
          2   -1    0    0  502    0  0.00000000000E+00  0.00000000000E+00  0.25959429416E+03  0.25959429416E+03  0.00000000000E+00 0.  1.
          1   -1    0    0  501    0 -0.00000000000E+00 -0.00000000000E+00 -0.21151769698E+03  0.21151769698E+03  0.00000000000E+00 0.  1.
          2    1    1    2  501    0  0.44091987212E+02 -0.10149382343E+02  0.87747374846E+01  0.46088060452E+02  0.00000000000E+00 0.  1.
          1    1    1    2  502    0 -0.10249203997E+02 -0.37638401400E+02 -0.17072852933E+03  0.17512831344E+03  0.00000000000E+00 0.  1.
         22    1    1    2    0    0  0.12616858326E+02 -0.14244664790E+02 -0.63452426547E+01  0.20058855734E+02  0.00000000000E+00 0. -1.
         22    1    1    2    0    0 -0.46459641541E+02  0.62032448533E+02  0.21637563167E+03  0.22983676151E+03  0.00000000000E+00 0.  1.
</event>
<event>
 6    1  0.1293624E-005  0.1451709E+03  0.7818608E-02  0.1206536E+00
          2   -1    0    0  502    0  0.00000000000E+00  0.00000000000E+00  0.19816338668E+02  0.19816338668E+02  0.00000000000E+00 0.  1.
          1   -1    0    0  501    0 -0.00000000000E+00 -0.00000000000E+00 -0.18931147642E+04  0.18931147642E+04  0.00000000000E+00 0.  1.
          2    1    1    2  501    0 -0.20717933327E+02  0.95721914064E+01 -0.35377011732E+02  0.42099792977E+02  0.00000000000E+00 0.  1.
          1    1    1    2  502    0  0.20129809448E+02 -0.17842442210E+02 -0.16256281839E+04  0.16258507171E+04  0.00000000000E+00 0.  1.
         22    1    1    2    0    0 -0.98606702084E+01 -0.49150364638E+02 -0.15614002397E+03  0.16398993337E+03  0.00000000000E+00 0. -1.
         22    1    1    2    0    0  0.10448794088E+02  0.57420615441E+02 -0.56153205862E+02  0.80990659364E+02  0.00000000000E+00 0.  1.
</event>
<event>
 6    1  0.1293624E-005  0.1479985E+03  0.7818608E-02  0.1214509E+00
          2   -1    0    0  502    0  0.00000000000E+00  0.00000000000E+00  0.61093641962E+02  0.61093641962E+02  0.00000000000E+00 0.  1.
          1   -1    0    0  501    0 -0.00000000000E+00 -0.00000000000E+00 -0.10913077575E+04  0.10913077575E+04  0.00000000000E+00 0. -1.
          2    1    1    2  501    0  0.71531028139E+02 -0.98619164331E+02 -0.32733481032E+03  0.34927139248E+03  0.00000000000E+00 0.  1.
          1    1    1    2  502    0  0.10036274510E+02  0.16844922520E+03 -0.55661510704E+03  0.58163239736E+03  0.00000000000E+00 0. -1.
         22    1    1    2    0    0 -0.10058111303E+03 -0.56934305836E+02 -0.56138483333E+02  0.12848970694E+03  0.00000000000E+00 0.  1.
         22    1    1    2    0    0  0.19013810382E+02 -0.12895755028E+02 -0.90125714806E+02  0.93007902634E+02  0.00000000000E+00 0.  1.
</event>
<event>
 6    1  0.1293624E-005  0.1577030E+03  0.7818608E-02  0.1192233E+00
          2   -1    0    0  502    0  0.00000000000E+00  0.00000000000E+00  0.49003761722E+03  0.49003761722E+03  0.00000000000E+00 0.  1.
          1   -1    0    0  501    0 -0.00000000000E+00 -0.00000000000E+00 -0.11253111009E+04  0.11253111009E+04  0.00000000000E+00 0. -1.
          2    1    1    2  501    0 -0.14574840098E+03  0.90024100864E+02 -0.18753303529E+02  0.17233287997E+03  0.00000000000E+00 0.  1.
          1    1    1    2  502    0  0.39254601823E+02 -0.54710705027E+01 -0.10088356118E+04  0.10096138608E+04  0.00000000000E+00 0. -1.
         22    1    1    2    0    0 -0.16683447137E+02  0.15022708194E+01  0.42794910111E+01  0.17288963801E+02  0.00000000000E+00 0.  1.
         22    1    1    2    0    0  0.12317724629E+03 -0.86055301181E+02  0.38803594059E+03  0.41611301356E+03  0.00000000000E+00 0.  1.
</event>
<event>
 6    1  0.1293624E-005  0.1092795E+03  0.7818608E-02  0.1263830E+00
          2   -1    0    0  502    0  0.00000000000E+00  0.00000000000E+00  0.35306553194E+03  0.35306553194E+03  0.00000000000E+00 0.  1.
          1   -1    0    0  501    0 -0.00000000000E+00 -0.00000000000E+00 -0.27187883992E+03  0.27187883992E+03  0.00000000000E+00 0.  1.
          2    1    1    2  501    0 -0.80492842567E+02  0.14142025068E+02  0.11168673299E+03  0.13839443957E+03  0.00000000000E+00 0.  1.
          1    1    1    2  502    0  0.27497505206E+02 -0.68360385865E+02 -0.22905275172E+03  0.24061258949E+03  0.00000000000E+00 0.  1.
         22    1    1    2    0    0  0.86204242003E+02  0.67371013046E+02  0.14924575087E+03  0.18505220585E+03  0.00000000000E+00 0.  1.
         22    1    1    2    0    0 -0.33208904643E+02 -0.13152652249E+02  0.49306959883E+02  0.60885136952E+02  0.00000000000E+00 0.  1.
</event>
<event>
 6    1  0.1293624E-005  0.3275048E+03  0.7818608E-02  0.1072246E+00
          2   -1    0    0  502    0  0.00000000000E+00  0.00000000000E+00  0.86885005074E+03  0.86885005074E+03  0.00000000000E+00 0. -1.
          1   -1    0    0  501    0 -0.00000000000E+00 -0.00000000000E+00 -0.40089762995E+03  0.40089762995E+03  0.00000000000E+00 0. -1.
          2    1    1    2  501    0  0.20281775674E+02  0.73259651191E+02  0.28813531410E+03  0.29799376864E+03  0.00000000000E+00 0. -1.
          1    1    1    2  502    0 -0.72539691941E+01  0.13636561689E+03 -0.35696605148E+03  0.38219492860E+03  0.00000000000E+00 0. -1.
         22    1    1    2    0    0 -0.36077494703E+02 -0.21102484660E+03  0.51536639536E+03  0.55806414772E+03  0.00000000000E+00 0. -1.
         22    1    1    2    0    0  0.23049688224E+02  0.13995785187E+01  0.21416762822E+02  0.31494835720E+02  0.00000000000E+00 0. -1.
</event>
<event>
 6    1  0.1293624E-005  0.9754537E+02  0.7818608E-02  0.1287497E+00
          2   -1    0    0  502    0  0.00000000000E+00  0.00000000000E+00  0.86369147802E+02  0.86369147802E+02  0.00000000000E+00 0. -1.
          1   -1    0    0  501    0 -0.00000000000E+00 -0.00000000000E+00 -0.76997023137E+03  0.76997023137E+03  0.00000000000E+00 0. -1.
          2    1    1    2  501    0 -0.38726810273E+02 -0.15732661865E+01 -0.49878922980E+02  0.63167617955E+02  0.00000000000E+00 0. -1.
          1    1    1    2  502    0 -0.37820008638E+02 -0.18801030258E+02 -0.64184354214E+03  0.64323165685E+03  0.00000000000E+00 0. -1.
         22    1    1    2    0    0 -0.22939140027E+02 -0.19883186386E+02 -0.23124835738E+02  0.38161541818E+02  0.00000000000E+00 0.  1.
         22    1    1    2    0    0  0.99485958938E+02  0.40257482831E+02  0.31246217289E+02  0.11177856254E+03  0.00000000000E+00 0. -1.
</event>
<event>
 6    1  0.1293624E-005  0.2002642E+03  0.7818608E-02  0.1199525E+00
          2   -1    0    0  502    0  0.00000000000E+00  0.00000000000E+00  0.33947913824E+03  0.33947913824E+03  0.00000000000E+00 0. -1.
          1   -1    0    0  501    0 -0.00000000000E+00 -0.00000000000E+00 -0.37353843179E+03  0.37353843179E+03  0.00000000000E+00 0. -1.
          2    1    1    2  501    0 -0.11836810967E+03 -0.12615278645E+02 -0.19781202272E+03  0.23086738829E+03  0.00000000000E+00 0. -1.
          1    1    1    2  502    0  0.21011110686E+03  0.80693497515E+02  0.20744595086E+03  0.30609139206E+03  0.00000000000E+00 0. -1.
         22    1    1    2    0    0 -0.17257323107E+02 -0.61984236635E+02  0.30097688214E+02  0.71033313508E+02  0.00000000000E+00 0.  1.
         22    1    1    2    0    0 -0.74485674079E+02 -0.60939822347E+01 -0.73790909901E+02  0.10502547618E+03  0.00000000000E+00 0. -1.
</event>
<event>
 6    1  0.1293624E-005  0.2390719E+03  0.7818608E-02  0.1120413E+00
          2   -1    0    0  502    0  0.00000000000E+00  0.00000000000E+00  0.20292619679E+03  0.20292619679E+03  0.00000000000E+00 0. -1.
          1   -1    0    0  501    0 -0.00000000000E+00 -0.00000000000E+00 -0.29492010736E+03  0.29492010736E+03  0.00000000000E+00 0.  1.
          2    1    1    2  501    0  0.38386105330E+02  0.29233724144E+02 -0.35175396327E+02  0.59711072813E+02  0.00000000000E+00 0. -1.
          1    1    1    2  502    0 -0.25204280827E+02 -0.20090013463E+01 -0.22354530592E+03  0.22497065510E+03  0.00000000000E+00 0.  1.
         22    1    1    2    0    0  0.14172703234E+00 -0.75363225617E+02  0.13308918278E+03  0.15294563228E+03  0.00000000000E+00 0. -1.
         22    1    1    2    0    0 -0.13323551535E+02  0.48138502819E+02  0.33637608893E+02  0.60218943957E+02  0.00000000000E+00 0. -1.
</event>
<event>
 6    1  0.1293624E-005  0.2310206E+03  0.7818608E-02  0.1125923E+00
          2   -1    0    0  502    0  0.00000000000E+00  0.00000000000E+00  0.44084971526E+03  0.44084971526E+03  0.00000000000E+00 0.  1.
          1   -1    0    0  501    0 -0.00000000000E+00 -0.00000000000E+00 -0.21272002832E+03  0.21272002832E+03  0.00000000000E+00 0. -1.
          2    1    1    2  501    0  0.64822424909E+02 -0.67198166872E+02  0.17763659394E+03  0.20067959515E+03  0.00000000000E+00 0.  1.
          1    1    1    2  502    0 -0.12805874440E+02  0.39409725074E+02 -0.17993688335E+03  0.18464668651E+03  0.00000000000E+00 0. -1.
         22    1    1    2    0    0  0.14478690303E+02 -0.17489833037E+02 -0.15029726246E+01  0.22754904071E+02  0.00000000000E+00 0.  1.
         22    1    1    2    0    0 -0.66495240772E+02  0.45278274835E+02  0.23193294897E+03  0.24548855785E+03  0.00000000000E+00 0.  1.
</event>
<event>
 6    1  0.1293624E-005  0.1884334E+03  0.7818608E-02  0.1159882E+00
          2   -1    0    0  502    0  0.00000000000E+00  0.00000000000E+00  0.62840131101E+02  0.62840131101E+02  0.00000000000E+00 0. -1.
          1   -1    0    0  501    0 -0.00000000000E+00 -0.00000000000E+00 -0.11032156545E+04  0.11032156545E+04  0.00000000000E+00 0.  1.
          2    1    1    2  501    0  0.28501105684E+02  0.32614501939E+02  0.69837363286E+01  0.43872443914E+02  0.00000000000E+00 0. -1.
          1    1    1    2  502    0 -0.73362083240E+02 -0.55052490225E+02 -0.95463762424E+03  0.95903376663E+03  0.00000000000E+00 0.  1.
         22    1    1    2    0    0 -0.38642153325E+02  0.29495309747E+02 -0.21430333936E+02  0.53126721367E+02  0.00000000000E+00 0. -1.
         22    1    1    2    0    0  0.83503130881E+02 -0.70573214600E+01 -0.71291301527E+02  0.11002285366E+03  0.00000000000E+00 0.  1.
</event>
<event>
 6    1  0.1293624E-005  0.8073525E+02  0.7818608E-02  0.1328633E+00
          2   -1    0    0  502    0  0.00000000000E+00  0.00000000000E+00  0.96870058040E+02  0.96870058040E+02  0.00000000000E+00 0.  1.
          1   -1    0    0  501    0 -0.00000000000E+00 -0.00000000000E+00 -0.13025204284E+04  0.13025204284E+04  0.00000000000E+00 0.  1.
          2    1    1    2  501    0 -0.13187404788E+03 -0.37516931646E+02 -0.73685953030E+03  0.74950667245E+03  0.00000000000E+00 0.  1.
          1    1    1    2  502    0  0.65074383549E+02  0.34772512008E+02 -0.50006520623E+03  0.50547899409E+03  0.00000000000E+00 0.  1.
         22    1    1    2    0    0  0.76990135203E+02  0.16360427124E+01  0.70169190254E+02  0.10418192173E+03  0.00000000000E+00 0.  1.
         22    1    1    2    0    0 -0.10190470875E+02  0.11083769262E+01 -0.38894824115E+02  0.40222898193E+02  0.00000000000E+00 0. -1.
</event>
<event>
 6    1  0.1293624E-005  0.2799953E+03  0.7818608E-02  0.1095692E+00
          2   -1    0    0  502    0  0.00000000000E+00  0.00000000000E+00  0.49244740653E+02  0.49244740653E+02  0.00000000000E+00 0.  1.
          1   -1    0    0  501    0 -0.00000000000E+00 -0.00000000000E+00 -0.12648120843E+04  0.12648120843E+04  0.00000000000E+00 0.  1.
          2    1    1    2  501    0  0.10687579349E+03 -0.55896376698E+02 -0.43265752952E+03  0.44915406934E+03  0.00000000000E+00 0.  1.
          1    1    1    2  502    0 -0.79404899730E+02  0.15389061925E+03 -0.22063542001E+03  0.28047718153E+03  0.00000000000E+00 0.  1.
         22    1    1    2    0    0 -0.68052794116E+02 -0.96363695664E+02 -0.44233102300E+03  0.45779239677E+03  0.00000000000E+00 0.  1.
         22    1    1    2    0    0  0.40581900357E+02 -0.16305468918E+01 -0.11994337108E+03  0.12663317727E+03  0.00000000000E+00 0.  1.
</event>
<event>
 6    1  0.1293624E-005  0.2806527E+03  0.7818608E-02  0.1095333E+00
          2   -1    0    0  502    0  0.00000000000E+00  0.00000000000E+00  0.82502944018E+03  0.82502944018E+03  0.00000000000E+00 0.  1.
          1   -1    0    0  501    0 -0.00000000000E+00 -0.00000000000E+00 -0.20208200500E+03  0.20208200500E+03  0.00000000000E+00 0. -1.
          2    1    1    2  501    0 -0.64469117563E+02 -0.59633721866E+02  0.93490026714E+02  0.12826859708E+03  0.00000000000E+00 0.  1.
          1    1    1    2  502    0  0.10338558833E+03  0.12558909121E+03 -0.13972522292E+03  0.21443958969E+03  0.00000000000E+00 0. -1.
         22    1    1    2    0    0  0.42898529062E+02 -0.10238397520E+02  0.18212544766E+03  0.18738940009E+03  0.00000000000E+00 0.  1.
         22    1    1    2    0    0 -0.81814999832E+02 -0.55716971820E+02  0.48705718372E+03  0.49701385832E+03  0.00000000000E+00 0.  1.
</event>
<event>
 6    1  0.1293624E-005  0.8809666E+02  0.7818608E-02  0.1308950E+00
          2   -1    0    0  502    0  0.00000000000E+00  0.00000000000E+00  0.40770480907E+03  0.40770480907E+03  0.00000000000E+00 0. -1.
          1   -1    0    0  501    0 -0.00000000000E+00 -0.00000000000E+00 -0.83352931274E+02  0.83352931274E+02  0.00000000000E+00 0. -1.
          2    1    1    2  501    0  0.12307431954E+02  0.49043155211E+02  0.97642047345E+02  0.10995759803E+03  0.00000000000E+00 0. -1.
          1    1    1    2  502    0 -0.50417595693E+02 -0.15250929656E+02 -0.49597996441E+02  0.72349748181E+02  0.00000000000E+00 0. -1.
         22    1    1    2    0    0  0.56133277247E+01  0.45374051399E+02  0.55296668546E+02  0.71749812131E+02  0.00000000000E+00 0. -1.
         22    1    1    2    0    0  0.32496836015E+02 -0.79166276954E+02  0.22101115835E+03  0.23700058201E+03  0.00000000000E+00 0. -1.
</event>
<event>
 6    1  0.1293624E-005  0.2798985E+03  0.7818608E-02  0.1096083E+00
          2   -1    0    0  502    0  0.00000000000E+00  0.00000000000E+00  0.39737723545E+03  0.39737723545E+03  0.00000000000E+00 0.  1.
          1   -1    0    0  501    0 -0.00000000000E+00 -0.00000000000E+00 -0.57670402016E+03  0.57670402016E+03  0.00000000000E+00 0. -1.
          2    1    1    2  501    0 -0.93568376856E+02  0.25469225434E+03  0.18813119626E+03  0.33017651730E+03  0.00000000000E+00 0.  1.
          1    1    1    2  502    0  0.23860839219E+02 -0.14255827928E+02 -0.36434223060E+03  0.36540091581E+03  0.00000000000E+00 0. -1.
         22    1    1    2    0    0  0.72173358340E+02 -0.25429904283E+03 -0.42630106854E+01  0.26437694699E+03  0.00000000000E+00 0. -1.
         22    1    1    2    0    0 -0.24658207025E+01  0.13862616413E+02  0.11472603256E+01  0.14126875514E+02  0.00000000000E+00 0. -1.
</event>
<event>
 6    1  0.1293624E-005  0.2592076E+03  0.7818608E-02  0.1107620E+00
          2   -1    0    0  502    0  0.00000000000E+00  0.00000000000E+00  0.19006898344E+04  0.19006898344E+04  0.00000000000E+00 0. -1.
          1   -1    0    0  501    0 -0.00000000000E+00 -0.00000000000E+00 -0.72196371249E+02  0.72196371249E+02  0.00000000000E+00 0. -1.
          2    1    1    2  501    0  0.52522016547E+02 -0.60860246571E+02  0.15396963137E+03  0.17369277250E+03  0.00000000000E+00 0. -1.
          1    1    1    2  502    0 -0.99675720191E+02  0.52230375001E+02  0.16598196016E+04  0.16636298780E+04  0.00000000000E+00 0. -1.
         22    1    1    2    0    0 -0.14013632625E+00  0.40024360238E+02 -0.40102126223E+02  0.56658181918E+02  0.00000000000E+00 0. -1.
         22    1    1    2    0    0  0.47293839971E+02 -0.31394488667E+02  0.54806356463E+02  0.78905373243E+02  0.00000000000E+00 0.  1.
</event>
<event>
 6    1  0.1293624E-005  0.1486963E+03  0.7818608E-02  0.1202872E+00
          2   -1    0    0  502    0  0.00000000000E+00  0.00000000000E+00  0.56445249995E+02  0.56445249995E+02  0.00000000000E+00 0. -1.
          1   -1    0    0  501    0 -0.00000000000E+00 -0.00000000000E+00 -0.94664118109E+03  0.94664118109E+03  0.00000000000E+00 0. -1.
          2    1    1    2  501    0  0.11059733113E+03 -0.30467163537E+02 -0.18620854139E+03  0.21870902724E+03  0.00000000000E+00 0. -1.
          1    1    1    2  502    0  0.10084971367E+01 -0.23927978629E+02 -0.54461562354E+03  0.54514194723E+03  0.00000000000E+00 0. -1.
         22    1    1    2    0    0  0.21621669036E+02 -0.16441519328E+02 -0.30090045761E+02  0.40536785561E+02  0.00000000000E+00 0. -1.
         22    1    1    2    0    0 -0.13322749730E+03  0.70836661493E+02 -0.12928172040E+03  0.19869867105E+03  0.00000000000E+00 0. -1.
</event>
<event>
 6    1  0.1293624E-005  0.2042939E+03  0.7818608E-02  0.1146166E+00
          2   -1    0    0  502    0  0.00000000000E+00  0.00000000000E+00  0.92755803309E+02  0.92755803309E+02  0.00000000000E+00 0. -1.
          1   -1    0    0  501    0 -0.00000000000E+00 -0.00000000000E+00 -0.81602851549E+03  0.81602851549E+03  0.00000000000E+00 0. -1.
          2    1    1    2  501    0  0.21107349802E+02  0.19373782897E+02 -0.63062610975E+02  0.69265839939E+02  0.00000000000E+00 0. -1.
          1    1    1    2  502    0 -0.13084911364E+02  0.27165915660E+02 -0.70282289422E+03  0.70346941833E+03  0.00000000000E+00 0. -1.
         22    1    1    2    0    0 -0.11145284186E+02 -0.76198784260E+02  0.63355650235E+02  0.99721665143E+02  0.00000000000E+00 0. -1.
         22    1    1    2    0    0  0.31228457481E+01  0.29659085702E+02 -0.20742857220E+02  0.36327395391E+02  0.00000000000E+00 0.  1.
</event>
<event>
 6    1  0.1293624E-005  0.5607142E+02  0.7818608E-02  0.1419284E+00
          2   -1    0    0  502    0  0.00000000000E+00  0.00000000000E+00  0.35626892762E+02  0.35626892762E+02  0.00000000000E+00 0.  1.
          1   -1    0    0  501    0 -0.00000000000E+00 -0.00000000000E+00 -0.96678119121E+03  0.96678119121E+03  0.00000000000E+00 0.  1.
          2    1    1    2  501    0 -0.26709813038E+02 -0.27409341411E+02 -0.24546258711E+01  0.38349853941E+02  0.00000000000E+00 0.  1.
          1    1    1    2  502    0  0.12480609456E+02 -0.16725258501E+02 -0.70081646129E+03  0.70112710139E+03  0.00000000000E+00 0.  1.
         22    1    1    2    0    0  0.28119200201E+02  0.49919159657E+02 -0.23800048623E+03  0.24479959838E+03  0.00000000000E+00 0.  1.
         22    1    1    2    0    0 -0.13889996619E+02 -0.57845597442E+01  0.10117274943E+02  0.18131530266E+02  0.00000000000E+00 0.  1.
</event>
<event>
 6    1  0.1293624E-005  0.3977515E+03  0.7818608E-02  0.1044561E+00
          2   -1    0    0  502    0  0.00000000000E+00  0.00000000000E+00  0.60897325278E+02  0.60897325278E+02  0.00000000000E+00 0. -1.
          1   -1    0    0  501    0 -0.00000000000E+00 -0.00000000000E+00 -0.77380213006E+03  0.77380213006E+03  0.00000000000E+00 0. -1.
          2    1    1    2  501    0 -0.30663787429E+02  0.21737005174E+02 -0.59055462142E+03  0.59174954680E+03  0.00000000000E+00 0. -1.
          1    1    1    2  502    0  0.13310953252E+02  0.18811841343E+02 -0.11016028737E+03  0.11254490555E+03  0.00000000000E+00 0. -1.
         22    1    1    2    0    0 -0.20718487503E+01  0.28862526696E+02 -0.43153697479E+02  0.51957478872E+02  0.00000000000E+00 0.  1.
         22    1    1    2    0    0  0.19424682927E+02 -0.69411373214E+02  0.30963801489E+02  0.78447524122E+02  0.00000000000E+00 0. -1.
</event>
<event>
 6    1  0.1293624E-005  0.9697072E+02  0.7818608E-02  0.1287502E+00
          2   -1    0    0  502    0  0.00000000000E+00  0.00000000000E+00  0.33237033629E+02  0.33237033629E+02  0.00000000000E+00 0.  1.
          1   -1    0    0  501    0 -0.00000000000E+00 -0.00000000000E+00 -0.52183490702E+03  0.52183490702E+03  0.00000000000E+00 0.  1.
          2    1    1    2  501    0 -0.31110147665E+02  0.29560177324E+02 -0.11236261775E+03  0.12027885616E+03  0.00000000000E+00 0.  1.
          1    1    1    2  502    0 -0.51926301183E+01  0.45025422077E+02 -0.19020255342E+03  0.19552816515E+03  0.00000000000E+00 0.  1.
         22    1    1    2    0    0 -0.31704762849E+02  0.13460495485E+02 -0.72729703581E+02  0.80473515575E+02  0.00000000000E+00 0.  1.
         22    1    1    2    0    0  0.68007540632E+02 -0.88046094887E+02 -0.11330299864E+03  0.15879140376E+03  0.00000000000E+00 0.  1.
</event>
<event>
 6    1  0.1293624E-005  0.6985225E+02  0.7818608E-02  0.1361645E+00
          2   -1    0    0  502    0  0.00000000000E+00  0.00000000000E+00  0.67788591521E+02  0.67788591521E+02  0.00000000000E+00 0. -1.
          1   -1    0    0  501    0 -0.00000000000E+00 -0.00000000000E+00 -0.55234862028E+03  0.55234862028E+03  0.00000000000E+00 0. -1.
          2    1    1    2  501    0 -0.57611073619E+02  0.61193925225E+01  0.31479556961E+02  0.65935159625E+02  0.00000000000E+00 0. -1.
          1    1    1    2  502    0  0.17292508664E+02 -0.24067545708E+02 -0.31025363118E+03  0.31166583591E+03  0.00000000000E+00 0. -1.
         22    1    1    2    0    0  0.52772775014E+02  0.21237360012E+02 -0.21768812985E+03  0.22499802915E+03  0.00000000000E+00 0. -1.
         22    1    1    2    0    0 -0.12454210059E+02 -0.32892068268E+01  0.11902175320E+02  0.17538187109E+02  0.00000000000E+00 0. -1.
</event>
<event>
 6    1  0.1293624E-005  0.4495128E+03  0.7818608E-02  0.1035795E+00
          2   -1    0    0  502    0  0.00000000000E+00  0.00000000000E+00  0.18338949208E+04  0.18338949208E+04  0.00000000000E+00 0. -1.
          1   -1    0    0  501    0 -0.00000000000E+00 -0.00000000000E+00 -0.26278762246E+03  0.26278762246E+03  0.00000000000E+00 0.  1.
          2    1    1    2  501    0  0.36690587133E+03  0.23682758641E+03  0.42818811134E+03  0.61159813831E+03  0.00000000000E+00 0. -1.
          1    1    1    2  502    0 -0.49942103929E+03  0.85525608124E+02  0.36947778627E+03  0.62709635518E+03  0.00000000000E+00 0.  1.
         22    1    1    2    0    0  0.12209977725E+03 -0.33396585227E+03  0.74629961896E+03  0.82668293036E+03  0.00000000000E+00 0. -1.
         22    1    1    2    0    0  0.10415390705E+02  0.11612657740E+02  0.27141781782E+02  0.31305119416E+02  0.00000000000E+00 0.  1.
</event>
<event>
 6    1  0.1293624E-005  0.2072790E+03  0.7818608E-02  0.1143739E+00
          2   -1    0    0  502    0  0.00000000000E+00  0.00000000000E+00  0.91593648089E+02  0.91593648089E+02  0.00000000000E+00 0. -1.
          1   -1    0    0  501    0 -0.00000000000E+00 -0.00000000000E+00 -0.73636251709E+03  0.73636251709E+03  0.00000000000E+00 0.  1.
          2    1    1    2  501    0  0.24355772464E+01 -0.30017880956E+02 -0.41939965364E+02  0.51632992440E+02  0.00000000000E+00 0. -1.
          1    1    1    2  502    0  0.23760875634E+02 -0.62523570409E+02 -0.61491061821E+03  0.61853766616E+03  0.00000000000E+00 0.  1.
         22    1    1    2    0    0 -0.18195606395E+02  0.10927632915E+03  0.45343309614E+02  0.11970134473E+03  0.00000000000E+00 0. -1.
         22    1    1    2    0    0 -0.80008464853E+01 -0.16734877785E+02 -0.33261595040E+02  0.38084161847E+02  0.00000000000E+00 0.  1.
</event>
<event>
 6    1  0.1293624E-005  0.2635314E+03  0.7818608E-02  0.1105040E+00
          2   -1    0    0  502    0  0.00000000000E+00  0.00000000000E+00  0.17864860044E+03  0.17864860044E+03  0.00000000000E+00 0.  1.
          1   -1    0    0  501    0 -0.00000000000E+00 -0.00000000000E+00 -0.33847469461E+03  0.33847469461E+03  0.00000000000E+00 0.  1.
          2    1    1    2  501    0  0.20526202038E+01 -0.28817922898E+02 -0.47080101020E+02  0.55237866015E+02  0.00000000000E+00 0.  1.
          1    1    1    2  502    0  0.12895118338E+03  0.10702023992E+03 -0.18828764212E+03  0.25205946843E+03  0.00000000000E+00 0.  1.
         22    1    1    2    0    0 -0.97853301427E+02 -0.29837894539E+01  0.81538839935E+02  0.12740782557E+03  0.00000000000E+00 0.  1.
         22    1    1    2    0    0 -0.33150502162E+02 -0.75218527566E+02 -0.59971909602E+01  0.82418135032E+02  0.00000000000E+00 0. -1.
</event>
<event>
 6    1  0.1293624E-005  0.1884898E+03  0.7818608E-02  0.1160252E+00
          2   -1    0    0  502    0  0.00000000000E+00  0.00000000000E+00  0.13981865589E+03  0.13981865589E+03  0.00000000000E+00 0.  1.
          1   -1    0    0  501    0 -0.00000000000E+00 -0.00000000000E+00 -0.74144751910E+03  0.74144751910E+03  0.00000000000E+00 0.  1.
          2    1    1    2  501    0  0.54445390951E+02 -0.17296074805E+03  0.29286897751E+02  0.18367755264E+03  0.00000000000E+00 0.  1.
          1    1    1    2  502    0 -0.12843692067E+02  0.27597554751E+02 -0.36351582770E+03  0.36478807881E+03  0.00000000000E+00 0.  1.
         22    1    1    2    0    0  0.90778661896E+01 -0.94769754849E+01  0.60842089561E+01  0.14465072330E+02  0.00000000000E+00 0.  1.
         22    1    1    2    0    0 -0.50679565074E+02  0.15484016879E+03 -0.27348414221E+03  0.31833547121E+03  0.00000000000E+00 0.  1.
</event>
<event>
 6    1  0.1293624E-005  0.1354586E+03  0.7818608E-02  0.1251776E+00
          2   -1    0    0  502    0  0.00000000000E+00  0.00000000000E+00  0.26815085940E+03  0.26815085940E+03  0.00000000000E+00 0.  1.
          1   -1    0    0  501    0 -0.00000000000E+00 -0.00000000000E+00 -0.24406633463E+03  0.24406633463E+03  0.00000000000E+00 0. -1.
          2    1    1    2  501    0 -0.17446805161E+02 -0.17324188454E+02  0.37099024203E+02  0.44506809734E+02  0.00000000000E+00 0.  1.
          1    1    1    2  502    0  0.11583914061E+03  0.75248806281E+02 -0.18222964020E+03  0.22866729349E+03  0.00000000000E+00 0. -1.
         22    1    1    2    0    0 -0.34342566968E+02 -0.86401421326E+02  0.12637799803E+03  0.15689491992E+03  0.00000000000E+00 0.  1.
         22    1    1    2    0    0 -0.64049768483E+02  0.28476803500E+02  0.42837142750E+02  0.82148170882E+02  0.00000000000E+00 0. -1.
</event>
<event>
 6    1  0.1293624E-005  0.2358546E+03  0.7818608E-02  0.1122586E+00
          2   -1    0    0  502    0  0.00000000000E+00  0.00000000000E+00  0.36446015072E+03  0.36446015072E+03  0.00000000000E+00 0.  1.
          1   -1    0    0  501    0 -0.00000000000E+00 -0.00000000000E+00 -0.54091690347E+02  0.54091690347E+02  0.00000000000E+00 0.  1.
          2    1    1    2  501    0  0.16734006674E+02 -0.44890743107E+02 -0.43237265301E+01  0.48103018691E+02  0.00000000000E+00 0.  1.
          1    1    1    2  502    0  0.23308704263E+02  0.20364472633E+02  0.29654034084E+01  0.31093424665E+02  0.00000000000E+00 0.  1.
         22    1    1    2    0    0 -0.51672066451E+02  0.19301209429E+02  0.31963047032E+03  0.32435501645E+03  0.00000000000E+00 0.  1.
         22    1    1    2    0    0  0.11629355514E+02  0.52250610449E+01 -0.79036868264E+01  0.15000381263E+02  0.00000000000E+00 0. -1.
</event>
<event>
 6    1  0.1293624E-005  0.1386232E+03  0.7818608E-02  0.1262632E+00
          2   -1    0    0  502    0  0.00000000000E+00  0.00000000000E+00  0.94696772273E+02  0.94696772273E+02  0.00000000000E+00 0.  1.
          1   -1    0    0  501    0 -0.00000000000E+00 -0.00000000000E+00 -0.68903426023E+03  0.68903426023E+03  0.00000000000E+00 0.  1.
          2    1    1    2  501    0  0.62118742350E+02 -0.19410038413E+02 -0.62892420547E+02  0.90503835856E+02  0.00000000000E+00 0.  1.
          1    1    1    2  502    0 -0.15040270606E+03  0.69461401160E+01 -0.51939043261E+03  0.54077319121E+03  0.00000000000E+00 0.  1.
         22    1    1    2    0    0  0.52581049506E+02 -0.46290366255E+01  0.53958100977E+02  0.75482921302E+02  0.00000000000E+00 0.  1.
         22    1    1    2    0    0  0.35702914204E+02  0.17092934922E+02 -0.66012735779E+02  0.76971084129E+02  0.00000000000E+00 0.  1.
</event>
<event>
 6    1  0.1293624E-005  0.2730858E+03  0.7818608E-02  0.1099526E+00
          2   -1    0    0  502    0  0.00000000000E+00  0.00000000000E+00  0.48370035001E+03  0.48370035001E+03  0.00000000000E+00 0. -1.
          1   -1    0    0  501    0 -0.00000000000E+00 -0.00000000000E+00 -0.12692903948E+03  0.12692903948E+03  0.00000000000E+00 0. -1.
          2    1    1    2  501    0 -0.29869009168E+01 -0.23105154411E+02 -0.21846362248E+02  0.31937959874E+02  0.00000000000E+00 0. -1.
          1    1    1    2  502    0 -0.91229342160E+02  0.55523332691E+02 -0.52193798564E+02  0.11886894444E+03  0.00000000000E+00 0. -1.
         22    1    1    2    0    0  0.10804766230E+03 -0.18044915444E+02  0.42522377031E+03  0.43910724333E+03  0.00000000000E+00 0. -1.
         22    1    1    2    0    0 -0.13831419222E+02 -0.14373262837E+02  0.55877010240E+01  0.20715241853E+02  0.00000000000E+00 0. -1.
</event>
<event>
 6    1  0.1293624E-005  0.3462428E+03  0.7818608E-02  0.1064168E+00
          2   -1    0    0  502    0  0.00000000000E+00  0.00000000000E+00  0.12486403627E+03  0.12486403627E+03  0.00000000000E+00 0. -1.
          1   -1    0    0  501    0 -0.00000000000E+00 -0.00000000000E+00 -0.33218236734E+03  0.33218236734E+03  0.00000000000E+00 0. -1.
          2    1    1    2  501    0  0.48273832085E+02  0.11067222373E+03 -0.17440717286E+03  0.21212393999E+03  0.00000000000E+00 0. -1.
          1    1    1    2  502    0 -0.60546219000E+02  0.35691220356E+01 -0.38514125041E+02  0.71846510667E+02  0.00000000000E+00 0. -1.
         22    1    1    2    0    0 -0.20958484402E+02  0.16710203276E+02 -0.22600931818E+02  0.35061247567E+02  0.00000000000E+00 0. -1.
         22    1    1    2    0    0  0.33230871317E+02 -0.13095154905E+03  0.28203898646E+02  0.13801470539E+03  0.00000000000E+00 0. -1.
</event>
<event>
 6    1  0.1293624E-005  0.1693708E+03  0.7818608E-02  0.1178506E+00
          2   -1    0    0  502    0  0.00000000000E+00  0.00000000000E+00  0.36021652633E+03  0.36021652633E+03  0.00000000000E+00 0. -1.
          1   -1    0    0  501    0 -0.00000000000E+00 -0.00000000000E+00 -0.32282671495E+02  0.32282671495E+02  0.00000000000E+00 0. -1.
          2    1    1    2  501    0 -0.14244289448E+01 -0.26754110454E+02  0.12954869708E+02  0.29759705529E+02  0.00000000000E+00 0. -1.
          1    1    1    2  502    0  0.97451294603E+01 -0.22018591467E+02  0.12901305370E+03  0.13124082423E+03  0.00000000000E+00 0. -1.
         22    1    1    2    0    0 -0.67071112657E+02  0.35985613996E+02  0.86014128877E+02  0.11485612275E+03  0.00000000000E+00 0. -1.
         22    1    1    2    0    0  0.58750412141E+02  0.12787087925E+02  0.99951802544E+02  0.11664254531E+03  0.00000000000E+00 0.  1.
</event>
<event>
 6    1  0.1293624E-005  0.1698385E+03  0.7818608E-02  0.1178016E+00
          2   -1    0    0  502    0  0.00000000000E+00  0.00000000000E+00  0.10192621895E+02  0.10192621895E+02  0.00000000000E+00 0. -1.
          1   -1    0    0  501    0 -0.00000000000E+00 -0.00000000000E+00 -0.18880855202E+04  0.18880855202E+04  0.00000000000E+00 0. -1.
          2    1    1    2  501    0 -0.13423057940E+02  0.18652824056E+02 -0.27195951539E+03  0.27292871660E+03  0.00000000000E+00 0. -1.
          1    1    1    2  502    0  0.62300586677E+02  0.81972434360E+01 -0.11122789269E+04  0.11140524983E+04  0.00000000000E+00 0. -1.
         22    1    1    2    0    0  0.16165638996E+02 -0.58148899550E+02 -0.20051220209E+03  0.20939858068E+03  0.00000000000E+00 0. -1.
         22    1    1    2    0    0 -0.65043167733E+02  0.31298832057E+02 -0.29314225398E+03  0.30189834651E+03  0.00000000000E+00 0. -1.
</event>
<event>
 6    1  0.1293624E-005  0.1903110E+03  0.7818608E-02  0.1158181E+00
          2   -1    0    0  502    0  0.00000000000E+00  0.00000000000E+00  0.28517512014E+03  0.28517512014E+03  0.00000000000E+00 0.  1.
          1   -1    0    0  501    0 -0.00000000000E+00 -0.00000000000E+00 -0.96252967605E+02  0.96252967605E+02  0.00000000000E+00 0. -1.
          2    1    1    2  501    0 -0.75072313964E+00  0.23123895018E+02  0.82588505325E+02  0.85767938752E+02  0.00000000000E+00 0.  1.
          1    1    1    2  502    0  0.22148549614E+02  0.66516713481E+02 -0.42361055611E+02  0.81911479383E+02  0.00000000000E+00 0. -1.
         22    1    1    2    0    0 -0.60533958126E+02 -0.28771843823E+02  0.11680618810E+03  0.13466946447E+03  0.00000000000E+00 0.  1.
         22    1    1    2    0    0  0.39136131652E+02 -0.60868764675E+02  0.31888514722E+02  0.79079205136E+02  0.00000000000E+00 0.  1.
</event>
<event>
 6    1  0.1293624E-005  0.8647666E+02  0.7818608E-02  0.1313809E+00
          2   -1    0    0  502    0  0.00000000000E+00  0.00000000000E+00  0.66980606988E+03  0.66980606988E+03  0.00000000000E+00 0.  1.
          1   -1    0    0  501    0 -0.00000000000E+00 -0.00000000000E+00 -0.23096707868E+02  0.23096707868E+02  0.00000000000E+00 0. -1.
          2    1    1    2  501    0 -0.33874108643E+02 -0.20330423238E+02  0.20345964038E+03  0.20725975637E+03  0.00000000000E+00 0.  1.
          1    1    1    2  502    0  0.30962032237E+02 -0.24743911420E+02  0.24840575852E+02  0.46775664627E+02  0.00000000000E+00 0. -1.
         22    1    1    2    0    0 -0.53863452176E+02 -0.67329742821E+01  0.20398969248E+03  0.21108860476E+03  0.00000000000E+00 0.  1.
         22    1    1    2    0    0  0.56775528581E+02  0.51807308940E+02  0.21441945330E+03  0.22777875199E+03  0.00000000000E+00 0. -1.
</event>
<event>
 6    1  0.1293624E-005  0.5416932E+02  0.7818608E-02  0.1426111E+00
          2   -1    0    0  502    0  0.00000000000E+00  0.00000000000E+00  0.11547498957E+03  0.11547498957E+03  0.00000000000E+00 0. -1.
          1   -1    0    0  501    0 -0.00000000000E+00 -0.00000000000E+00 -0.45528583971E+03  0.45528583971E+03  0.00000000000E+00 0. -1.
          2    1    1    2  501    0 -0.24904293019E+02 -0.31625752853E+02  0.64250962754E+02  0.75819511137E+02  0.00000000000E+00 0. -1.
          1    1    1    2  502    0  0.29916105765E+02 -0.31417269182E+02 -0.33534381808E+03  0.33813827720E+03  0.00000000000E+00 0. -1.
         22    1    1    2    0    0 -0.23849977997E+01 -0.12396814357E+02  0.29990657111E+02  0.32539341337E+02  0.00000000000E+00 0.  1.
         22    1    1    2    0    0 -0.26268149463E+01  0.75439836392E+02 -0.98708651930E+02  0.12426369960E+03  0.00000000000E+00 0. -1.
</event>
<event>
 6    1  0.1293624E-005  0.6889667E+02  0.7818608E-02  0.1366851E+00
          2   -1    0    0  502    0  0.00000000000E+00  0.00000000000E+00  0.69710810144E+02  0.69710810144E+02  0.00000000000E+00 0.  1.
          1   -1    0    0  501    0 -0.00000000000E+00 -0.00000000000E+00 -0.29143817293E+03  0.29143817293E+03  0.00000000000E+00 0. -1.
          2    1    1    2  501    0  0.41205191024E+02  0.38646657923E+01 -0.57481684620E+02  0.70830413495E+02  0.00000000000E+00 0.  1.
          1    1    1    2  502    0  0.71646739428E+01  0.18763377663E+02 -0.15629586043E+03  0.15758106765E+03  0.00000000000E+00 0. -1.
         22    1    1    2    0    0  0.14316409521E+02  0.21557775171E+01 -0.50826801036E+02  0.52848563479E+02  0.00000000000E+00 0.  1.
         22    1    1    2    0    0 -0.62686274488E+02 -0.24783820973E+02  0.42876983295E+02  0.79888938456E+02  0.00000000000E+00 0.  1.
</event>
<event>
 6    1  0.1293624E-005  0.1925313E+03  0.7818608E-02  0.1156198E+00
          2   -1    0    0  502    0  0.00000000000E+00  0.00000000000E+00  0.29073208968E+03  0.29073208968E+03  0.00000000000E+00 0. -1.
          1   -1    0    0  501    0 -0.00000000000E+00 -0.00000000000E+00 -0.96449941213E+02  0.96449941213E+02  0.00000000000E+00 0. -1.
          2    1    1    2  501    0  0.31039004126E+02  0.26788586713E+02  0.80808985956E+02  0.90615342886E+02  0.00000000000E+00 0. -1.
          1    1    1    2  502    0 -0.10317250807E+03 -0.30444413496E+02 -0.80675577796E+01  0.10787267598E+03  0.00000000000E+00 0. -1.
         22    1    1    2    0    0  0.78420018865E+02 -0.19806441082E+02  0.18689915605E+02  0.83013898911E+02  0.00000000000E+00 0. -1.
         22    1    1    2    0    0 -0.62865149186E+01  0.23462267866E+02  0.10285080468E+03  0.10568011311E+03  0.00000000000E+00 0. -1.
</event>
<event>
 6    1  0.1293624E-005  0.1261352E+03  0.7818608E-02  0.1266161E+00
          2   -1    0    0  502    0  0.00000000000E+00  0.00000000000E+00  0.20644746225E+02  0.20644746225E+02  0.00000000000E+00 0.  1.
          1   -1    0    0  501    0 -0.00000000000E+00 -0.00000000000E+00 -0.18354852686E+04  0.18354852686E+04  0.00000000000E+00 0. -1.
          2    1    1    2  501    0 -0.42765540250E+01 -0.24088333326E+02 -0.77917774702E+02  0.81668331262E+02  0.00000000000E+00 0.  1.
          1    1    1    2  502    0 -0.59069234702E+01  0.13892999074E+03 -0.12530117229E+04  0.12607040937E+04  0.00000000000E+00 0. -1.
         22    1    1    2    0    0  0.50870150405E+02 -0.41106385411E+02 -0.91864662898E+02  0.11276800705E+03  0.00000000000E+00 0. -1.
         22    1    1    2    0    0 -0.40686672910E+02 -0.73735272004E+02 -0.39204636181E+03  0.40098958278E+03  0.00000000000E+00 0.  1.
</event>
<event>
 6    1  0.1293624E-005  0.2806707E+03  0.7818608E-02  0.1095323E+00
          2   -1    0    0  502    0  0.00000000000E+00  0.00000000000E+00  0.20417763464E+03  0.20417763464E+03  0.00000000000E+00 0.  1.
          1   -1    0    0  501    0 -0.00000000000E+00 -0.00000000000E+00 -0.82927995464E+03  0.82927995464E+03  0.00000000000E+00 0.  1.
          2    1    1    2  501    0  0.47784533213E+02  0.82209930003E+02 -0.34339360665E+02  0.10109908949E+03  0.00000000000E+00 0.  1.
          1    1    1    2  502    0 -0.29630631301E+02 -0.18776900203E+02 -0.73220599073E+03  0.73304580973E+03  0.00000000000E+00 0.  1.
         22    1    1    2    0    0 -0.65947887026E+01  0.37250686467E+02  0.27182327812E+02  0.46583085187E+02  0.00000000000E+00 0.  1.
         22    1    1    2    0    0 -0.11559113209E+02 -0.10068371627E+03  0.11426070359E+03  0.15272960487E+03  0.00000000000E+00 0.  1.
</event>
<event>
 6    1  0.1293624E-005  0.8773508E+02  0.7818608E-02  0.1310260E+00
          2   -1    0    0  502    0  0.00000000000E+00  0.00000000000E+00  0.30077795150E+02  0.30077795150E+02  0.00000000000E+00 0. -1.
          1   -1    0    0  501    0 -0.00000000000E+00 -0.00000000000E+00 -0.65301100354E+03  0.65301100354E+03  0.00000000000E+00 0. -1.
          2    1    1    2  501    0  0.26670100132E+02 -0.23785368004E+02 -0.25686768988E+03  0.25934156642E+03  0.00000000000E+00 0. -1.
          1    1    1    2  502    0  0.36954277473E+02  0.20362278247E+02 -0.19954733459E+03  0.20395926000E+03  0.00000000000E+00 0. -1.
         22    1    1    2    0    0 -0.89066152578E+02  0.17138188113E+02 -0.58404829928E+02  0.10787780673E+03  0.00000000000E+00 0. -1.
         22    1    1    2    0    0  0.25441774973E+02 -0.13715098355E+02 -0.10811335400E+03  0.11191016553E+03  0.00000000000E+00 0.  1.
</event>
<event>
 6    1  0.1293624E-005  0.1962952E+03  0.7818608E-02  0.1152903E+00
          2   -1    0    0  502    0  0.00000000000E+00  0.00000000000E+00  0.34584829021E+02  0.34584829021E+02  0.00000000000E+00 0. -1.
          1   -1    0    0  501    0 -0.00000000000E+00 -0.00000000000E+00 -0.50506990354E+03  0.50506990354E+03  0.00000000000E+00 0. -1.
          2    1    1    2  501    0 -0.41999692536E+02 -0.26378040858E+02 -0.35645317918E+02  0.61076705069E+02  0.00000000000E+00 0. -1.
          1    1    1    2  502    0 -0.27419119951E+02  0.20919310555E+02 -0.21354909835E+03  0.21631607221E+03  0.00000000000E+00 0. -1.
         22    1    1    2    0    0  0.22813389987E+02 -0.20816093197E+02  0.36024805788E+01  0.31092416519E+02  0.00000000000E+00 0. -1.
         22    1    1    2    0    0  0.46605422500E+02  0.26274823500E+02 -0.22489313883E+03  0.23116953876E+03  0.00000000000E+00 0. -1.
</event>
<event>
 6    1  0.1293624E-005  0.7084537E+02  0.7818608E-02  0.1366457E+00
          2   -1    0    0  502    0  0.00000000000E+00  0.00000000000E+00  0.39091566623E+02  0.39091566623E+02  0.00000000000E+00 0.  1.
          1   -1    0    0  501    0 -0.00000000000E+00 -0.00000000000E+00 -0.12471860893E+04  0.12471860893E+04  0.00000000000E+00 0.  1.
          2    1    1    2  501    0  0.55635391400E+02  0.45408659091E+01 -0.19015591058E+03  0.19817968253E+03  0.00000000000E+00 0.  1.
          1    1    1    2  502    0 -0.36851469870E+02 -0.15301796755E+02 -0.93964328266E+03  0.94049012460E+03  0.00000000000E+00 0.  1.
         22    1    1    2    0    0  0.30155318825E+02 -0.21454880071E+02 -0.80895471857E+02  0.88959161975E+02  0.00000000000E+00 0.  1.
         22    1    1    2    0    0 -0.48939240355E+02  0.32215810917E+02  0.26001424664E+01  0.58648686774E+02  0.00000000000E+00 0.  1.
</event>
<event>
 6    1  0.1293624E-005  0.9196428E+02  0.7818608E-02  0.1303873E+00
          2   -1    0    0  502    0  0.00000000000E+00  0.00000000000E+00  0.20402927164E+03  0.20402927164E+03  0.00000000000E+00 0. -1.
          1   -1    0    0  501    0 -0.00000000000E+00 -0.00000000000E+00 -0.11293382893E+03  0.11293382893E+03  0.00000000000E+00 0. -1.
          2    1    1    2  501    0  0.39925556357E+02  0.44898765233E+02  0.72070023663E+02  0.93829832573E+02  0.00000000000E+00 0. -1.
          1    1    1    2  502    0 -0.55890166353E+02 -0.92606746250E+01 -0.45717350838E+02  0.72797987315E+02  0.00000000000E+00 0. -1.
         22    1    1    2    0    0 -0.34133411036E+01  0.38366225416E+02  0.62969017895E+02  0.73815414141E+02  0.00000000000E+00 0. -1.
         22    1    1    2    0    0  0.19377951100E+02 -0.74004316024E+02  0.17737519863E+01  0.76519866539E+02  0.00000000000E+00 0. -1.
</event>
<event>
 6    1  0.1293624E-005  0.2536240E+03  0.7818608E-02  0.1111036E+00
          2   -1    0    0  502    0  0.00000000000E+00  0.00000000000E+00  0.63948440396E+03  0.63948440396E+03  0.00000000000E+00 0.  1.
          1   -1    0    0  501    0 -0.00000000000E+00 -0.00000000000E+00 -0.17761060985E+03  0.17761060985E+03  0.00000000000E+00 0.  1.
          2    1    1    2  501    0  0.11633600449E+03 -0.16494937711E+02  0.24036349634E+03  0.26754580782E+03  0.00000000000E+00 0.  1.
          1    1    1    2  502    0 -0.14434545926E+03  0.57670649491E+02 -0.11072256394E+03  0.19084287146E+03  0.00000000000E+00 0.  1.
         22    1    1    2    0    0 -0.16048352407E+01  0.44456387215E+02  0.11753829299E+03  0.12567496242E+03  0.00000000000E+00 0.  1.
         22    1    1    2    0    0  0.29614290009E+02 -0.85632098994E+02  0.21469456872E+03  0.23303137211E+03  0.00000000000E+00 0.  1.
</event>
<event>
 6    1  0.1293624E-005  0.1846506E+03  0.7818608E-02  0.1163377E+00
          2   -1    0    0  502    0  0.00000000000E+00  0.00000000000E+00  0.11699278005E+03  0.11699278005E+03  0.00000000000E+00 0.  1.
          1   -1    0    0  501    0 -0.00000000000E+00 -0.00000000000E+00 -0.19549537942E+03  0.19549537942E+03  0.00000000000E+00 0.  1.
          2    1    1    2  501    0  0.23473331867E+02  0.26184372479E+02 -0.77164694577E+01  0.36002257872E+02  0.00000000000E+00 0.  1.
          1    1    1    2  502    0  0.28636209337E+02  0.14840940288E+02 -0.11913159816E+03  0.12342051562E+03  0.00000000000E+00 0.  1.
         22    1    1    2    0    0 -0.74702162354E+02 -0.45686832003E+02 -0.12072071929E+02  0.88393634384E+02  0.00000000000E+00 0.  1.
         22    1    1    2    0    0  0.22592621150E+02  0.46615192371E+01  0.60417540184E+02  0.64671751591E+02  0.00000000000E+00 0.  1.
</event>
<event>
 6    1  0.1293624E-005  0.5022021E+03  0.7818608E-02  0.1013206E+00
          2   -1    0    0  502    0  0.00000000000E+00  0.00000000000E+00  0.30926337216E+03  0.30926337216E+03  0.00000000000E+00 0. -1.
          1   -1    0    0  501    0 -0.00000000000E+00 -0.00000000000E+00 -0.52546973435E+03  0.52546973435E+03  0.00000000000E+00 0. -1.
          2    1    1    2  501    0 -0.72486217065E+02  0.28398184770E+03 -0.13082038336E+03  0.32095780750E+03  0.00000000000E+00 0. -1.
          1    1    1    2  502    0  0.21913043146E+03 -0.19809024634E+03 -0.21736957850E+02  0.29619315830E+03  0.00000000000E+00 0. -1.
         22    1    1    2    0    0 -0.49739279943E+02  0.10296391630E+02  0.23117642994E+02  0.55807141725E+02  0.00000000000E+00 0. -1.
         22    1    1    2    0    0 -0.96904934455E+02 -0.96187992992E+02 -0.86766663970E+02  0.16177499898E+03  0.00000000000E+00 0. -1.
</event>
<event>
 6    1  0.1293624E-005  0.2732757E+03  0.7818608E-02  0.1099419E+00
          2   -1    0    0  502    0  0.00000000000E+00  0.00000000000E+00  0.31685685182E+03  0.31685685182E+03  0.00000000000E+00 0. -1.
          1   -1    0    0  501    0 -0.00000000000E+00 -0.00000000000E+00 -0.18786894845E+03  0.18786894845E+03  0.00000000000E+00 0. -1.
          2    1    1    2  501    0  0.44612458714E+02 -0.14527018119E+02  0.49236480929E+02  0.68011298930E+02  0.00000000000E+00 0. -1.
          1    1    1    2  502    0 -0.71769640961E+02  0.19479829149E+03  0.13463653816E+02  0.20803491463E+03  0.00000000000E+00 0. -1.
         22    1    1    2    0    0 -0.40809239744E+02 -0.11983361045E+03  0.26145667841E+02  0.12926362283E+03  0.00000000000E+00 0. -1.
         22    1    1    2    0    0  0.67966421991E+02 -0.60437662925E+02  0.40142100787E+02  0.99415963878E+02  0.00000000000E+00 0. -1.
</event>
<event>
 6    1  0.1293624E-005  0.1699972E+03  0.7818608E-02  0.1177851E+00
          2   -1    0    0  502    0  0.00000000000E+00  0.00000000000E+00  0.84038665401E+03  0.84038665401E+03  0.00000000000E+00 0. -1.
          1   -1    0    0  501    0 -0.00000000000E+00 -0.00000000000E+00 -0.24813282060E+02  0.24813282060E+02  0.00000000000E+00 0. -1.
          2    1    1    2  501    0 -0.43651178970E+01  0.38445411445E+02  0.19418079229E+03  0.19799819194E+03  0.00000000000E+00 0. -1.
          1    1    1    2  502    0 -0.23806046917E+02 -0.44208582562E+02  0.24135106927E+02  0.55710232708E+02  0.00000000000E+00 0. -1.
         22    1    1    2    0    0 -0.51088010192E+02 -0.15117686892E+01  0.25916547948E+03  0.26415718045E+03  0.00000000000E+00 0. -1.
         22    1    1    2    0    0  0.79259175006E+02  0.72749398069E+01  0.33809199325E+03  0.34733433097E+03  0.00000000000E+00 0. -1.
</event>
<event>
 6    1  0.1293624E-005  0.5901572E+02  0.7818608E-02  0.1409055E+00
          2   -1    0    0  502    0  0.00000000000E+00  0.00000000000E+00  0.27216585872E+03  0.27216585872E+03  0.00000000000E+00 0.  1.
          1   -1    0    0  501    0 -0.00000000000E+00 -0.00000000000E+00 -0.35987073336E+03  0.35987073336E+03  0.00000000000E+00 0. -1.
          2    1    1    2  501    0  0.22772563468E+02  0.49657314643E+01  0.69252282943E+02  0.73069328919E+02  0.00000000000E+00 0.  1.
          1    1    1    2  502    0 -0.20632127937E+02 -0.13900813745E+02 -0.33846174300E+03  0.33937482052E+03  0.00000000000E+00 0. -1.
         22    1    1    2    0    0  0.30590892901E+02 -0.20779131396E+02  0.16991304480E+03  0.17389082156E+03  0.00000000000E+00 0.  1.
         22    1    1    2    0    0 -0.32731328432E+02  0.29714213677E+02  0.11591540618E+02  0.45701621079E+02  0.00000000000E+00 0. -1.
</event>
<event>
 6    1  0.1293624E-005  0.6345876E+02  0.7818608E-02  0.1388420E+00
          2   -1    0    0  502    0  0.00000000000E+00  0.00000000000E+00  0.32191228250E+03  0.32191228250E+03  0.00000000000E+00 0.  1.
          1   -1    0    0  501    0 -0.00000000000E+00 -0.00000000000E+00 -0.72441017830E+02  0.72441017830E+02  0.00000000000E+00 0.  1.
          2    1    1    2  501    0 -0.20331569845E+02 -0.58261924140E+01  0.38129751732E+02  0.43602697365E+02  0.00000000000E+00 0.  1.
          1    1    1    2  502    0  0.17071667272E+02  0.45979668147E+02 -0.41954232443E+02  0.64542461421E+02  0.00000000000E+00 0.  1.
         22    1    1    2    0    0  0.51656130155E+02  0.10668208494E+02  0.16612945270E+03  0.17430192630E+03  0.00000000000E+00 0.  1.
         22    1    1    2    0    0 -0.48396227583E+02 -0.50821684227E+02  0.87166292676E+02  0.11190621525E+03  0.00000000000E+00 0.  1.
</event>
<event>
 6    1  0.1293624E-005  0.9541699E+02  0.7818608E-02  0.1291430E+00
          2   -1    0    0  502    0  0.00000000000E+00  0.00000000000E+00  0.43247612935E+03  0.43247612935E+03  0.00000000000E+00 0. -1.
          1   -1    0    0  501    0 -0.00000000000E+00 -0.00000000000E+00 -0.91005067854E+03  0.91005067854E+03  0.00000000000E+00 0. -1.
          2    1    1    2  501    0  0.27985571636E+01 -0.70260685240E+02  0.79713894778E+01  0.70766792091E+02  0.00000000000E+00 0. -1.
          1    1    1    2  502    0  0.23891895280E+02 -0.12680168723E+02 -0.86428107314E+03  0.86470421690E+03  0.00000000000E+00 0. -1.
         22    1    1    2    0    0 -0.51101822599E+01 -0.10155544437E+02 -0.43937220711E+01  0.12188266455E+02  0.00000000000E+00 0. -1.
         22    1    1    2    0    0 -0.21580270184E+02  0.93096398401E+02  0.38312885655E+03  0.39486753244E+03  0.00000000000E+00 0. -1.
</event>
<event>
 6    1  0.1293624E-005  0.6751975E+02  0.7818608E-02  0.1372131E+00
          2   -1    0    0  502    0  0.00000000000E+00  0.00000000000E+00  0.29183352596E+03  0.29183352596E+03  0.00000000000E+00 0.  1.
          1   -1    0    0  501    0 -0.00000000000E+00 -0.00000000000E+00 -0.62540078547E+02  0.62540078547E+02  0.00000000000E+00 0.  1.
          2    1    1    2  501    0 -0.11697612267E+02 -0.20517246401E+02  0.60855023910E+01  0.24389031797E+02  0.00000000000E+00 0.  1.
          1    1    1    2  502    0  0.47737632631E+02  0.65096953334E+00 -0.21718050455E+02  0.52449776417E+02  0.00000000000E+00 0.  1.
         22    1    1    2    0    0 -0.29748499705E+02 -0.43746115811E+02  0.51541953458E+02  0.73859791832E+02  0.00000000000E+00 0.  1.
         22    1    1    2    0    0 -0.62915206595E+01  0.63612392678E+02  0.19338404202E+03  0.20367500447E+03  0.00000000000E+00 0.  1.
</event>
<event>
 6    1  0.1293624E-005  0.2123744E+03  0.7818608E-02  0.1139699E+00
          2   -1    0    0  502    0  0.00000000000E+00  0.00000000000E+00  0.94479735552E+02  0.94479735552E+02  0.00000000000E+00 0. -1.
          1   -1    0    0  501    0 -0.00000000000E+00 -0.00000000000E+00 -0.32421145539E+03  0.32421145539E+03  0.00000000000E+00 0. -1.
          2    1    1    2  501    0 -0.32582514496E+01  0.29366478711E+02 -0.43446840911E+02  0.52541738261E+02  0.00000000000E+00 0. -1.
          1    1    1    2  502    0  0.98312326883E+02  0.65311973507E+02 -0.19075773984E+02  0.11956108336E+03  0.00000000000E+00 0. -1.
         22    1    1    2    0    0 -0.97266684357E+02 -0.11913523228E+03 -0.15762879341E+03  0.22022908066E+03  0.00000000000E+00 0. -1.
         22    1    1    2    0    0  0.22126089230E+01  0.24456780066E+02 -0.95803115270E+01  0.26359288655E+02  0.00000000000E+00 0.  1.
</event>
<event>
 6    1  0.1293624E-005  0.2358951E+03  0.7818608E-02  0.1122558E+00
          2   -1    0    0  502    0  0.00000000000E+00  0.00000000000E+00  0.20659823018E+03  0.20659823018E+03  0.00000000000E+00 0.  1.
          1   -1    0    0  501    0 -0.00000000000E+00 -0.00000000000E+00 -0.88587813437E+03  0.88587813437E+03  0.00000000000E+00 0. -1.
          2    1    1    2  501    0  0.46958639566E+02  0.26689746722E+02 -0.19686826379E+02  0.57489368955E+02  0.00000000000E+00 0.  1.
          1    1    1    2  502    0 -0.10171339849E+03  0.39934908501E+02 -0.81367746426E+03  0.82098199018E+03  0.00000000000E+00 0. -1.
         22    1    1    2    0    0  0.59509305945E+02 -0.90855739681E+02  0.15503525581E+03  0.18929356426E+03  0.00000000000E+00 0.  1.
         22    1    1    2    0    0 -0.47545470212E+01  0.24231084457E+02 -0.95086935070E+00  0.24711441154E+02  0.00000000000E+00 0. -1.
</event>
<event>
 6    1  0.1293624E-005  0.6221888E+02  0.7818608E-02  0.1393073E+00
          2   -1    0    0  502    0  0.00000000000E+00  0.00000000000E+00  0.38783618996E+02  0.38783618996E+02  0.00000000000E+00 0. -1.
          1   -1    0    0  501    0 -0.00000000000E+00 -0.00000000000E+00 -0.71440831888E+03  0.71440831888E+03  0.00000000000E+00 0.  1.
          2    1    1    2  501    0  0.11603929733E+02 -0.30855964523E+02 -0.53552201806E+02  0.62885451816E+02  0.00000000000E+00 0. -1.
          1    1    1    2  502    0  0.92973619599E+01  0.20155104652E+02 -0.54183157489E+03  0.54228601746E+03  0.00000000000E+00 0.  1.
         22    1    1    2    0    0  0.27253192534E+02 -0.20620396331E+02 -0.83764631080E+02  0.90467953818E+02  0.00000000000E+00 0. -1.
         22    1    1    2    0    0 -0.48154484227E+02  0.31321256202E+02  0.35237078856E+01  0.57552514789E+02  0.00000000000E+00 0. -1.
</event>
<event>
 6    1  0.1293624E-005  0.7738984E+02  0.7818608E-02  0.1337156E+00
          2   -1    0    0  502    0  0.00000000000E+00  0.00000000000E+00  0.45327030601E+03  0.45327030601E+03  0.00000000000E+00 0.  1.
          1   -1    0    0  501    0 -0.00000000000E+00 -0.00000000000E+00 -0.10805579992E+03  0.10805579992E+03  0.00000000000E+00 0.  1.
          2    1    1    2  501    0 -0.31068440750E+02  0.24039451355E+02 -0.18173069665E+02  0.43282833701E+02  0.00000000000E+00 0.  1.
          1    1    1    2  502    0 -0.34133614675E+02 -0.14343990656E+02 -0.61078831836E+02  0.71424627526E+02  0.00000000000E+00 0.  1.
         22    1    1    2    0    0  0.77825450840E+02 -0.15485017639E+02  0.42536383147E+03  0.43270194787E+03  0.00000000000E+00 0.  1.
         22    1    1    2    0    0 -0.12623395415E+02  0.57895569398E+01 -0.89742387479E+00  0.13916696841E+02  0.00000000000E+00 0.  1.
</event>
<event>
 6    1  0.1293624E-005  0.4569084E+02  0.7818608E-02  0.1473163E+00
          2   -1    0    0  502    0  0.00000000000E+00  0.00000000000E+00  0.18956764209E+03  0.18956764209E+03  0.00000000000E+00 0.  1.
          1   -1    0    0  501    0 -0.00000000000E+00 -0.00000000000E+00 -0.10068121647E+04  0.10068121647E+04  0.00000000000E+00 0. -1.
          2    1    1    2  501    0 -0.47670747571E+01 -0.37193458326E+02 -0.20936051321E+02  0.42946438606E+02  0.00000000000E+00 0.  1.
          1    1    1    2  502    0 -0.11357482551E+02  0.28797163159E+02 -0.95263018372E+03  0.95313301063E+03  0.00000000000E+00 0. -1.
         22    1    1    2    0    0 -0.13163172405E+02 -0.23110668945E+02 -0.10069257401E+02  0.28438742438E+02  0.00000000000E+00 0.  1.
         22    1    1    2    0    0  0.29287729713E+02  0.31506964112E+02  0.16639096985E+03  0.17186161511E+03  0.00000000000E+00 0.  1.
</event>
<event>
 6    1  0.1293624E-005  0.2970814E+03  0.7818608E-02  0.1086709E+00
          2   -1    0    0  502    0  0.00000000000E+00  0.00000000000E+00  0.81612761179E+02  0.81612761179E+02  0.00000000000E+00 0.  1.
          1   -1    0    0  501    0 -0.00000000000E+00 -0.00000000000E+00 -0.45007094227E+03  0.45007094227E+03  0.00000000000E+00 0.  1.
          2    1    1    2  501    0 -0.59170489602E+01 -0.56889014730E+02 -0.21316184496E+03  0.22070193386E+03  0.00000000000E+00 0.  1.
          1    1    1    2  502    0 -0.21354171634E+02  0.17114590983E+02 -0.17508662785E+03  0.17721240680E+03  0.00000000000E+00 0.  1.
         22    1    1    2    0    0  0.19977774956E+02 -0.96624420374E+01 -0.46046658102E+02  0.51115252133E+02  0.00000000000E+00 0.  1.
         22    1    1    2    0    0  0.72934456378E+01  0.49436865784E+02  0.65836949815E+02  0.82654110658E+02  0.00000000000E+00 0.  1.
</event>
<event>
 6    1  0.1293624E-005  0.2163833E+03  0.7818608E-02  0.1136609E+00
          2   -1    0    0  502    0  0.00000000000E+00  0.00000000000E+00  0.42017795601E+03  0.42017795601E+03  0.00000000000E+00 0.  1.
          1   -1    0    0  501    0 -0.00000000000E+00 -0.00000000000E+00 -0.89843826573E+02  0.89843826573E+02  0.00000000000E+00 0.  1.
          2    1    1    2  501    0  0.33579079046E+02  0.27296985893E+02  0.46357730451E+02  0.63417025798E+02  0.00000000000E+00 0.  1.
          1    1    1    2  502    0 -0.12163482325E+03 -0.84825314163E+02  0.22472233184E+03  0.26924058122E+03  0.00000000000E+00 0.  1.
         22    1    1    2    0    0  0.33669530979E+02 -0.41803656141E+02  0.23622195172E+02  0.58644616871E+02  0.00000000000E+00 0. -1.
         22    1    1    2    0    0  0.54386213222E+02  0.99331984411E+02  0.35631871974E+02  0.11871955869E+03  0.00000000000E+00 0.  1.
</event>
<event>
 6    1  0.1293624E-005  0.1051817E+03  0.7818608E-02  0.1276658E+00
          2   -1    0    0  502    0  0.00000000000E+00  0.00000000000E+00  0.33542927384E+03  0.33542927384E+03  0.00000000000E+00 0.  1.
          1   -1    0    0  501    0 -0.00000000000E+00 -0.00000000000E+00 -0.14545733468E+03  0.14545733468E+03  0.00000000000E+00 0.  1.
          2    1    1    2  501    0 -0.11976733939E+02  0.71861548317E+02  0.91834075725E+02  0.11722210434E+03  0.00000000000E+00 0.  1.
          1    1    1    2  502    0  0.53473875139E+02 -0.50921791537E+02 -0.98825751662E+02  0.12336536535E+03  0.00000000000E+00 0.  1.
         22    1    1    2    0    0 -0.67886102826E+02 -0.57358857188E+02  0.10242421598E+03  0.13560708489E+03  0.00000000000E+00 0.  1.
         22    1    1    2    0    0  0.26388961625E+02  0.36419100409E+02  0.94539399123E+02  0.10469205393E+03  0.00000000000E+00 0.  1.
</event>
<event>
 6    1  0.1293624E-005  0.2468042E+03  0.7818608E-02  0.1115341E+00
          2   -1    0    0  502    0  0.00000000000E+00  0.00000000000E+00  0.55387167954E+02  0.55387167954E+02  0.00000000000E+00 0.  1.
          1   -1    0    0  501    0 -0.00000000000E+00 -0.00000000000E+00 -0.12045225425E+04  0.12045225425E+04  0.00000000000E+00 0.  1.
          2    1    1    2  501    0 -0.58180336765E+02 -0.80816926546E+01 -0.17555088124E+03  0.18511719868E+03  0.00000000000E+00 0.  1.
          1    1    1    2  502    0  0.12932599115E+03  0.34221158153E+02 -0.89760104281E+03  0.90751525150E+03  0.00000000000E+00 0.  1.
         22    1    1    2    0    0 -0.26254845586E+01  0.25785460029E+02 -0.77056140514E+02  0.81298412708E+02  0.00000000000E+00 0. -1.
         22    1    1    2    0    0 -0.68520169825E+02 -0.51924925528E+02  0.10726900246E+01  0.85978847560E+02  0.00000000000E+00 0.  1.
</event>
<event>
 6    1  0.1293624E-005  0.1615974E+03  0.7818608E-02  0.1189234E+00
          2   -1    0    0  502    0  0.00000000000E+00  0.00000000000E+00  0.88869959987E+03  0.88869959987E+03  0.00000000000E+00 0. -1.
          1   -1    0    0  501    0 -0.00000000000E+00 -0.00000000000E+00 -0.44804637450E+02  0.44804637450E+02  0.00000000000E+00 0. -1.
          2    1    1    2  501    0  0.42700779378E+02 -0.12564932387E+02  0.29126719778E+02  0.53193983592E+02  0.00000000000E+00 0. -1.
          1    1    1    2  502    0 -0.12439594313E+03 -0.75826451144E+02  0.49467084959E+03  0.51567746780E+03  0.00000000000E+00 0. -1.
         22    1    1    2    0    0 -0.29855724185E+02 -0.34858496705E+01  0.51806757801E+02  0.59895371844E+02  0.00000000000E+00 0. -1.
         22    1    1    2    0    0  0.11155088794E+03  0.91877233202E+02  0.26829063525E+03  0.30473741409E+03  0.00000000000E+00 0. -1.
</event>
<event>
 6    1  0.1293624E-005  0.7277951E+02  0.7818608E-02  0.1355363E+00
          2   -1    0    0  502    0  0.00000000000E+00  0.00000000000E+00  0.35154037963E+03  0.35154037963E+03  0.00000000000E+00 0.  1.
          1   -1    0    0  501    0 -0.00000000000E+00 -0.00000000000E+00 -0.43560584575E+03  0.43560584575E+03  0.00000000000E+00 0. -1.
          2    1    1    2  501    0  0.21287408037E+02 -0.49210588290E+01  0.40698473088E+02  0.46192383275E+02  0.00000000000E+00 0.  1.
          1    1    1    2  502    0 -0.24230166357E+02 -0.32274456526E+01 -0.41959982500E+03  0.42031123053E+03  0.00000000000E+00 0. -1.
         22    1    1    2    0    0  0.51392918383E+02 -0.16403226564E+02  0.22912040896E+03  0.23538576785E+03  0.00000000000E+00 0.  1.
         22    1    1    2    0    0 -0.48450160063E+02  0.24551731046E+02  0.65715476829E+02  0.85256843727E+02  0.00000000000E+00 0.  1.
</event>
<event>
 6    1  0.1293624E-005  0.1846888E+03  0.7818608E-02  0.1223513E+00
          2   -1    0    0  502    0  0.00000000000E+00  0.00000000000E+00  0.35805583453E+02  0.35805583453E+02  0.00000000000E+00 0.  1.
          1   -1    0    0  501    0 -0.00000000000E+00 -0.00000000000E+00 -0.20417020261E+04  0.20417020261E+04  0.00000000000E+00 0.  1.
          2    1    1    2  501    0 -0.20844779640E+02 -0.11263858413E+03 -0.24310044580E+03  0.26873738523E+03  0.00000000000E+00 0.  1.
          1    1    1    2  502    0  0.74454358529E+01  0.17062189566E+03 -0.15257860598E+04  0.15353144193E+04  0.00000000000E+00 0.  1.
         22    1    1    2    0    0 -0.35788101845E+02 -0.56425934070E+02 -0.60242040062E+02  0.89965424804E+02  0.00000000000E+00 0. -1.
         22    1    1    2    0    0  0.49187445632E+02 -0.15573774589E+01 -0.17676789702E+03  0.18349038026E+03  0.00000000000E+00 0.  1.
</event>
<event>
 6    1  0.1293624E-005  0.3086393E+03  0.7818608E-02  0.1081128E+00
          2   -1    0    0  502    0  0.00000000000E+00  0.00000000000E+00  0.22919671729E+04  0.22919671729E+04  0.00000000000E+00 0.  1.
          1   -1    0    0  501    0 -0.00000000000E+00 -0.00000000000E+00 -0.98765630435E+03  0.98765630435E+03  0.00000000000E+00 0.  1.
          2    1    1    2  501    0  0.81333828869E+01 -0.29991423524E+03  0.10862561958E+04  0.11269282246E+04  0.00000000000E+00 0.  1.
          1    1    1    2  502    0 -0.26991410616E+02  0.77596050707E+01 -0.94589844525E+03  0.94631528385E+03  0.00000000000E+00 0.  1.
         22    1    1    2    0    0 -0.28049787832E+01 -0.11549738891E+02  0.30213428350E+02  0.32467146888E+02  0.00000000000E+00 0.  1.
         22    1    1    2    0    0  0.21663006513E+02  0.30370436906E+03  0.11337396897E+04  0.11739128220E+04  0.00000000000E+00 0.  1.
</event>
<event>
 6    1  0.1293624E-005  0.2078924E+03  0.7818608E-02  0.1143246E+00
          2   -1    0    0  502    0  0.00000000000E+00  0.00000000000E+00  0.44270470093E+02  0.44270470093E+02  0.00000000000E+00 0.  1.
          1   -1    0    0  501    0 -0.00000000000E+00 -0.00000000000E+00 -0.74009881560E+03  0.74009881560E+03  0.00000000000E+00 0. -1.
          2    1    1    2  501    0 -0.40939089861E+02 -0.18296105490E+02 -0.20678701082E+01  0.44889114956E+02  0.00000000000E+00 0.  1.
          1    1    1    2  502    0 -0.62673730876E+01 -0.19771545064E+02 -0.49461359592E+03  0.49504828373E+03  0.00000000000E+00 0. -1.
         22    1    1    2    0    0  0.64229626170E+02  0.29354722215E+02 -0.21061105932E+03  0.22213546070E+03  0.00000000000E+00 0. -1.
         22    1    1    2    0    0 -0.17023163222E+02  0.87129283402E+01  0.11464179839E+02  0.22296426300E+02  0.00000000000E+00 0.  1.
</event>
<event>
 6    1  0.1293624E-005  0.1346625E+03  0.7818608E-02  0.1221135E+00
          2   -1    0    0  502    0  0.00000000000E+00  0.00000000000E+00  0.74642439146E+03  0.74642439146E+03  0.00000000000E+00 0. -1.
          1   -1    0    0  501    0 -0.00000000000E+00 -0.00000000000E+00 -0.67203409721E+03  0.67203409721E+03  0.00000000000E+00 0. -1.
          2    1    1    2  501    0 -0.42534247472E+02 -0.98029050456E+02  0.93864928468E+02  0.14223038261E+03  0.00000000000E+00 0. -1.
          1    1    1    2  502    0 -0.24529350353E+02 -0.26406423436E+01 -0.63555634286E+03  0.63603500452E+03  0.00000000000E+00 0. -1.
         22    1    1    2    0    0 -0.11661070752E+02 -0.11207714127E+02  0.10340878463E+02  0.19197062130E+02  0.00000000000E+00 0. -1.
         22    1    1    2    0    0  0.78724668577E+02  0.11187740693E+03  0.60574083018E+03  0.62099603942E+03  0.00000000000E+00 0. -1.
</event>
<event>
 6    1  0.3309669E-005  0.2216259E+03  0.7818608E-02  0.1132677E+00
          2   -1    0    0  502    0  0.00000000000E+00  0.00000000000E+00  0.26734050655E+03  0.26734050655E+03  0.00000000000E+00 0.  1.
          1   -1    0    0  501    0 -0.00000000000E+00 -0.00000000000E+00 -0.15938631442E+04  0.15938631442E+04  0.00000000000E+00 0. -1.
          2    1    1    2  501    0 -0.48974446561E+02  0.12904964705E+02 -0.93173981597E+01  0.51496101197E+02  0.00000000000E+00 0.  1.
          1    1    1    2  502    0  0.59234923806E+02 -0.79999248840E+01 -0.15472546334E+04  0.15484087560E+04  0.00000000000E+00 0. -1.
         22    1    1    2    0    0  0.15236666499E+02  0.29045530467E+02  0.61021885388E+01  0.33362187444E+02  0.00000000000E+00 0. -1.
         22    1    1    2    0    0 -0.25497143744E+02 -0.33950570288E+02  0.22394720544E+03  0.22793660607E+03  0.00000000000E+00 0.  1.
</event>
<event>
 6    1  0.1293624E-005  0.7224238E+02  0.7818608E-02  0.1358404E+00
          2   -1    0    0  502    0  0.00000000000E+00  0.00000000000E+00  0.38600663150E+03  0.38600663150E+03  0.00000000000E+00 0.  1.
          1   -1    0    0  501    0 -0.00000000000E+00 -0.00000000000E+00 -0.25892909793E+03  0.25892909793E+03  0.00000000000E+00 0.  1.
          2    1    1    2  501    0  0.36063430596E+02 -0.27254752261E+02  0.22803203346E+03  0.23246935461E+03  0.00000000000E+00 0.  1.
          1    1    1    2  502    0 -0.11179186870E+00 -0.25876380232E+02 -0.22239060032E+03  0.22389099728E+03  0.00000000000E+00 0.  1.
         22    1    1    2    0    0 -0.61044385121E+02  0.46693034921E+02  0.14074868864E+02  0.78132953346E+02  0.00000000000E+00 0.  1.
         22    1    1    2    0    0  0.25092746394E+02  0.64380975727E+01  0.10736123156E+03  0.11044242420E+03  0.00000000000E+00 0.  1.
</event>
<event>
 6    1  0.1293624E-005  0.1860769E+03  0.7818608E-02  0.1162048E+00
          2   -1    0    0  502    0  0.00000000000E+00  0.00000000000E+00  0.66038514104E+03  0.66038514104E+03  0.00000000000E+00 0.  1.
          1   -1    0    0  501    0 -0.00000000000E+00 -0.00000000000E+00 -0.34445169767E+02  0.34445169767E+02  0.00000000000E+00 0. -1.
          2    1    1    2  501    0  0.35699955235E+02 -0.15482159517E+02  0.10565715430E+03  0.11259493027E+03  0.00000000000E+00 0.  1.
          1    1    1    2  502    0 -0.32196365940E+02 -0.68433170370E+02  0.52788059082E+02  0.92229517879E+02  0.00000000000E+00 0. -1.
         22    1    1    2    0    0 -0.42420618383E+02  0.51863003530E+02  0.40099769360E+03  0.40655679833E+03  0.00000000000E+00 0.  1.
         22    1    1    2    0    0  0.38917029088E+02  0.32052326356E+02  0.66497064293E+02  0.83449064329E+02  0.00000000000E+00 0.  1.
</event>
<event>
 6    1  0.1293624E-005  0.2011557E+03  0.7818608E-02  0.1148768E+00
          2   -1    0    0  502    0  0.00000000000E+00  0.00000000000E+00  0.25391058787E+03  0.25391058787E+03  0.00000000000E+00 0. -1.
          1   -1    0    0  501    0 -0.00000000000E+00 -0.00000000000E+00 -0.62210826345E+03  0.62210826345E+03  0.00000000000E+00 0. -1.
          2    1    1    2  501    0  0.24486058058E+02 -0.57856809453E+02  0.96804848049E+02  0.11540431554E+03  0.00000000000E+00 0. -1.
          1    1    1    2  502    0  0.24484639597E+02  0.33062723278E+02 -0.58142657713E+03  0.58288035294E+03  0.00000000000E+00 0. -1.
         22    1    1    2    0    0  0.32212626120E+02 -0.36763951458E+00  0.78133226261E+02  0.84513841981E+02  0.00000000000E+00 0. -1.
         22    1    1    2    0    0 -0.81183323775E+02  0.25161725689E+02  0.38290827247E+02  0.93220340860E+02  0.00000000000E+00 0. -1.
</event>
<event>
 6    1  0.1293624E-005  0.1889093E+03  0.7818608E-02  0.1159449E+00
          2   -1    0    0  502    0  0.00000000000E+00  0.00000000000E+00  0.30677616188E+03  0.30677616188E+03  0.00000000000E+00 0.  1.
          1   -1    0    0  501    0 -0.00000000000E+00 -0.00000000000E+00 -0.69538962140E+03  0.69538962140E+03  0.00000000000E+00 0.  1.
          2    1    1    2  501    0  0.21868364218E+02 -0.15611021947E+01  0.95114564918E+01  0.23898330449E+02  0.00000000000E+00 0.  1.
          1    1    1    2  502    0  0.50705684807E+02  0.75526246457E+02 -0.66290380519E+03  0.66911638398E+03  0.00000000000E+00 0.  1.
         22    1    1    2    0    0 -0.45738608316E+02 -0.27208120676E+02  0.17438464757E+02  0.56003590729E+02  0.00000000000E+00 0.  1.
         22    1    1    2    0    0 -0.26835440709E+02 -0.46757023587E+02  0.24734042442E+03  0.25314747813E+03  0.00000000000E+00 0.  1.
</event>
<event>
 6    1  0.1293624E-005  0.2498008E+03  0.7818608E-02  0.1113431E+00
          2   -1    0    0  502    0  0.00000000000E+00  0.00000000000E+00  0.73511187236E+03  0.73511187236E+03  0.00000000000E+00 0.  1.
          1   -1    0    0  501    0 -0.00000000000E+00 -0.00000000000E+00 -0.68978785562E+02  0.68978785562E+02  0.00000000000E+00 0.  1.
          2    1    1    2  501    0 -0.70911765842E+02 -0.29010375479E+02  0.87972299899E+02  0.11665850149E+03  0.00000000000E+00 0.  1.
          1    1    1    2  502    0  0.21688397332E+02  0.16258518473E+02 -0.43790324133E+02  0.51500664941E+02  0.00000000000E+00 0.  1.
         22    1    1    2    0    0 -0.19618063901E+02 -0.38228869406E+02  0.14067040555E+03  0.14708663394E+03  0.00000000000E+00 0.  1.
         22    1    1    2    0    0  0.68841432410E+02  0.50980726413E+02  0.48128070548E+03  0.48884485755E+03  0.00000000000E+00 0.  1.
</event>
<event>
 6    1  0.1293624E-005  0.3807284E+03  0.7818608E-02  0.1050665E+00
          2   -1    0    0  502    0  0.00000000000E+00  0.00000000000E+00  0.10400060767E+04  0.10400060767E+04  0.00000000000E+00 0.  1.
          1   -1    0    0  501    0 -0.00000000000E+00 -0.00000000000E+00 -0.12412219466E+03  0.12412219466E+03  0.00000000000E+00 0.  1.
          2    1    1    2  501    0 -0.62287432637E+02  0.63991668540E+02  0.53014726360E+02  0.10385190955E+03  0.00000000000E+00 0.  1.
          1    1    1    2  502    0 -0.80150981300E+02 -0.12647301983E+02 -0.70075222953E+02  0.10721320312E+03  0.00000000000E+00 0.  1.
         22    1    1    2    0    0  0.16129162011E+03 -0.45616534957E+02  0.89214736726E+03  0.90775700487E+03  0.00000000000E+00 0.  1.
         22    1    1    2    0    0 -0.18853206171E+02 -0.57278316002E+01  0.40797011413E+02  0.45306153864E+02  0.00000000000E+00 0. -1.
</event>
<event>
 6    1  0.1293624E-005  0.2231324E+03  0.7818608E-02  0.1131569E+00
          2   -1    0    0  502    0  0.00000000000E+00  0.00000000000E+00  0.34958263890E+02  0.34958263890E+02  0.00000000000E+00 0. -1.
          1   -1    0    0  501    0 -0.00000000000E+00 -0.00000000000E+00 -0.22747199484E+04  0.22747199484E+04  0.00000000000E+00 0. -1.
          2    1    1    2  501    0 -0.17023780823E+02  0.52102365487E+02 -0.66671502112E+02  0.86310803476E+02  0.00000000000E+00 0. -1.
          1    1    1    2  502    0 -0.93934266608E+02 -0.70756681075E+02 -0.18972838983E+04  0.19009251288E+04  0.00000000000E+00 0. -1.
         22    1    1    2    0    0 -0.21651598445E+02  0.26193192787E+02 -0.49659706484E+02  0.60174425728E+02  0.00000000000E+00 0. -1.
         22    1    1    2    0    0  0.13260964588E+03 -0.75388771990E+01 -0.22614657757E+03  0.26226785429E+03  0.00000000000E+00 0.  1.
</event>
<event>
 6    1  0.1293624E-005  0.1067475E+03  0.7818608E-02  0.1268984E+00
          2   -1    0    0  502    0  0.00000000000E+00  0.00000000000E+00  0.39956732493E+03  0.39956732493E+03  0.00000000000E+00 0. -1.
          1   -1    0    0  501    0 -0.00000000000E+00 -0.00000000000E+00 -0.75803452682E+02  0.75803452682E+02  0.00000000000E+00 0. -1.
          2    1    1    2  501    0  0.32974670847E+02  0.81353548699E+02  0.76594357307E+02  0.11650074839E+03  0.00000000000E+00 0. -1.
          1    1    1    2  502    0  0.28568392005E+02 -0.75481202903E+02  0.93432771178E+01  0.81245688136E+02  0.00000000000E+00 0. -1.
         22    1    1    2    0    0  0.12450860817E+02  0.49281404534E+02  0.79331240016E+02  0.94218503546E+02  0.00000000000E+00 0. -1.
         22    1    1    2    0    0 -0.73993923669E+02 -0.55153750330E+02  0.15849499781E+03  0.18340583755E+03  0.00000000000E+00 0. -1.
</event>
<event>
 6    1  0.1293624E-005  0.8707688E+02  0.7818608E-02  0.1311890E+00
          2   -1    0    0  502    0  0.00000000000E+00  0.00000000000E+00  0.28791798121E+03  0.28791798121E+03  0.00000000000E+00 0. -1.
          1   -1    0    0  501    0 -0.00000000000E+00 -0.00000000000E+00 -0.48457671414E+02  0.48457671414E+02  0.00000000000E+00 0. -1.
          2    1    1    2  501    0 -0.27726259042E+02 -0.65308599641E+01 -0.55731246677E+01  0.29025114830E+02  0.00000000000E+00 0. -1.
          1    1    1    2  502    0 -0.36220699832E+02  0.18210875855E+02  0.30257358281E+02  0.50587378128E+02  0.00000000000E+00 0. -1.
         22    1    1    2    0    0 -0.29918776791E+02 -0.14723209295E+02  0.16143378868E+02  0.37047466552E+02  0.00000000000E+00 0. -1.
         22    1    1    2    0    0  0.93865735665E+02  0.30431934046E+01  0.19863269732E+03  0.21971569312E+03  0.00000000000E+00 0. -1.
</event>
<event>
 6    1  0.1293624E-005  0.8757971E+02  0.7818608E-02  0.1310855E+00
          2   -1    0    0  502    0  0.00000000000E+00  0.00000000000E+00  0.26137154899E+03  0.26137154899E+03  0.00000000000E+00 0. -1.
          1   -1    0    0  501    0 -0.00000000000E+00 -0.00000000000E+00 -0.16523707117E+04  0.16523707117E+04  0.00000000000E+00 0.  1.
          2    1    1    2  501    0 -0.38923453330E+02  0.28855448336E+02  0.68365184394E+02  0.83794215522E+02  0.00000000000E+00 0. -1.
          1    1    1    2  502    0 -0.52635961882E+02  0.34141039423E+02 -0.16048516947E+04  0.16060775564E+04  0.00000000000E+00 0.  1.
         22    1    1    2    0    0 -0.11633508484E+02  0.21352528020E+02  0.62008109919E+02  0.66605365161E+02  0.00000000000E+00 0. -1.
         22    1    1    2    0    0  0.10319292370E+03 -0.84349015779E+02  0.83479237743E+02  0.15726512359E+03  0.00000000000E+00 0.  1.
</event>
<event>
 6    1  0.1293624E-005  0.1902688E+03  0.7818608E-02  0.1158866E+00
          2   -1    0    0  502    0  0.00000000000E+00  0.00000000000E+00  0.46943496066E+02  0.46943496066E+02  0.00000000000E+00 0.  1.
          1   -1    0    0  501    0 -0.00000000000E+00 -0.00000000000E+00 -0.18428731116E+04  0.18428731116E+04  0.00000000000E+00 0. -1.
          2    1    1    2  501    0  0.52928817930E+02  0.94631641791E+02 -0.10317611240E+04  0.10374428295E+04  0.00000000000E+00 0.  1.
          1    1    1    2  502    0  0.10873239715E+03  0.14519474931E+02 -0.44007151340E+03  0.45353774512E+03  0.00000000000E+00 0. -1.
         22    1    1    2    0    0 -0.16648398686E+03 -0.12354066146E+03 -0.25776438181E+03  0.33078949415E+03  0.00000000000E+00 0.  1.
         22    1    1    2    0    0  0.48227717851E+01  0.14389544734E+02 -0.66332596280E+02  0.68046538888E+02  0.00000000000E+00 0. -1.
</event>
<event>
 6    1  0.1293624E-005  0.1522782E+03  0.7818608E-02  0.1198805E+00
          2   -1    0    0  502    0  0.00000000000E+00  0.00000000000E+00  0.76942977473E+03  0.76942977473E+03  0.00000000000E+00 0. -1.
          1   -1    0    0  501    0 -0.00000000000E+00 -0.00000000000E+00 -0.21231784378E+03  0.21231784378E+03  0.00000000000E+00 0.  1.
          2    1    1    2  501    0 -0.77610599041E+02 -0.57869581217E+02  0.11329687491E+03  0.14902508305E+03  0.00000000000E+00 0. -1.
          1    1    1    2  502    0 -0.32070753141E+02 -0.32361334533E+02 -0.17739200314E+03  0.18314942522E+03  0.00000000000E+00 0.  1.
         22    1    1    2    0    0 -0.19466381509E+02 -0.13347047623E+02  0.60664149768E+02  0.65093953302E+02  0.00000000000E+00 0.  1.
         22    1    1    2    0    0  0.12914773369E+03  0.10357796337E+03  0.56054290941E+03  0.58447915694E+03  0.00000000000E+00 0. -1.
</event>
<event>
 6    1  0.1293624E-005  0.1203199E+03  0.7818608E-02  0.1243347E+00
          2   -1    0    0  502    0  0.00000000000E+00  0.00000000000E+00  0.52923711621E+02  0.52923711621E+02  0.00000000000E+00 0.  1.
          1   -1    0    0  501    0 -0.00000000000E+00 -0.00000000000E+00 -0.62043335777E+03  0.62043335777E+03  0.00000000000E+00 0.  1.
          2    1    1    2  501    0  0.55817635740E+02 -0.51260220005E+02 -0.12975941293E+03  0.15026883861E+03  0.00000000000E+00 0.  1.
          1    1    1    2  502    0  0.25481177891E+02 -0.25388158015E+02 -0.31692210967E+03  0.31895685068E+03  0.00000000000E+00 0.  1.
         22    1    1    2    0    0  0.20421575528E+02 -0.64765075519E+01 -0.51095901518E+02  0.55405568755E+02  0.00000000000E+00 0.  1.
         22    1    1    2    0    0 -0.10172038916E+03  0.83124885572E+02 -0.69732222035E+02  0.14872581135E+03  0.00000000000E+00 0.  1.
</event>
<event>
 6    1  0.1293624E-005  0.3423616E+03  0.7818608E-02  0.1065795E+00
          2   -1    0    0  502    0  0.00000000000E+00  0.00000000000E+00  0.36076470597E+02  0.36076470597E+02  0.00000000000E+00 0.  1.
          1   -1    0    0  501    0 -0.00000000000E+00 -0.00000000000E+00 -0.12580895556E+04  0.12580895556E+04  0.00000000000E+00 0.  1.
          2    1    1    2  501    0 -0.24043073557E+02 -0.19817245526E+02 -0.69307458793E+03  0.69377458662E+03  0.00000000000E+00 0.  1.
          1    1    1    2  502    0  0.60958586437E+01 -0.24261980566E+02 -0.43736114995E+03  0.43807599647E+03  0.00000000000E+00 0.  1.
         22    1    1    2    0    0 -0.35920246316E+02 -0.20741492997E+02 -0.58638214585E+02  0.71825579266E+02  0.00000000000E+00 0.  1.
         22    1    1    2    0    0  0.53867461229E+02  0.64820719090E+02 -0.32939132505E+02  0.90489863813E+02  0.00000000000E+00 0.  1.
</event>
<event>
 6    1  0.1293624E-005  0.6624104E+02  0.7818608E-02  0.1402910E+00
          2   -1    0    0  502    0  0.00000000000E+00  0.00000000000E+00  0.10504574804E+03  0.10504574804E+03  0.00000000000E+00 0. -1.
          1   -1    0    0  501    0 -0.00000000000E+00 -0.00000000000E+00 -0.99567913629E+03  0.99567913629E+03  0.00000000000E+00 0.  1.
          2    1    1    2  501    0 -0.32884034835E+02 -0.11772728521E+02  0.29774897207E+02  0.45896638086E+02  0.00000000000E+00 0. -1.
          1    1    1    2  502    0  0.43398395185E+02  0.43055403457E+02 -0.92415271379E+03  0.92617246066E+03  0.00000000000E+00 0.  1.
         22    1    1    2    0    0 -0.48404577316E+02 -0.47321090362E+02  0.35727376386E+02  0.76542368148E+02  0.00000000000E+00 0. -1.
         22    1    1    2    0    0  0.37890216967E+02  0.16038415427E+02 -0.31982948047E+02  0.52113417437E+02  0.00000000000E+00 0. -1.
</event>
<event>
 6    1  0.1293624E-005  0.2375901E+03  0.7818608E-02  0.1121409E+00
          2   -1    0    0  502    0  0.00000000000E+00  0.00000000000E+00  0.59656008194E+03  0.59656008194E+03  0.00000000000E+00 0. -1.
          1   -1    0    0  501    0 -0.00000000000E+00 -0.00000000000E+00 -0.72561197854E+02  0.72561197854E+02  0.00000000000E+00 0.  1.
          2    1    1    2  501    0 -0.61717199311E+01 -0.79359040635E+02  0.89864133970E+02  0.12004794889E+03  0.00000000000E+00 0. -1.
          1    1    1    2  502    0  0.42103254853E+02  0.14382677748E+03  0.91297974138E+02  0.17548260903E+03  0.00000000000E+00 0.  1.
         22    1    1    2    0    0  0.46783209105E+02 -0.41592839546E+02  0.14736245602E+03  0.16010723406E+03  0.00000000000E+00 0. -1.
         22    1    1    2    0    0 -0.82714744027E+02 -0.22874897303E+02  0.19547431996E+03  0.21348348782E+03  0.00000000000E+00 0. -1.
</event>
<event>
 6    1  0.1293624E-005  0.6714616E+02  0.7818608E-02  0.1377643E+00
          2   -1    0    0  502    0  0.00000000000E+00  0.00000000000E+00  0.43455273931E+03  0.43455273931E+03  0.00000000000E+00 0.  1.
          1   -1    0    0  501    0 -0.00000000000E+00 -0.00000000000E+00 -0.39636445260E+02  0.39636445260E+02  0.00000000000E+00 0.  1.
          2    1    1    2  501    0 -0.13314903528E+02 -0.27809818539E+02  0.67410151546E+02  0.74126926245E+02  0.00000000000E+00 0.  1.
          1    1    1    2  502    0  0.32106965449E+02  0.43343973977E+02  0.39893211584E+01  0.54087632540E+02  0.00000000000E+00 0.  1.
         22    1    1    2    0    0  0.16668157834E+02 -0.57601179761E+02  0.10783555792E+03  0.12338651040E+03  0.00000000000E+00 0.  1.
         22    1    1    2    0    0 -0.35460219755E+02  0.42067024323E+02  0.21568126342E+03  0.22258811539E+03  0.00000000000E+00 0.  1.
</event>
<event>
 6    1  0.1293624E-005  0.1143441E+03  0.7818608E-02  0.1253841E+00
          2   -1    0    0  502    0  0.00000000000E+00  0.00000000000E+00  0.87445526744E+02  0.87445526744E+02  0.00000000000E+00 0.  1.
          1   -1    0    0  501    0 -0.00000000000E+00 -0.00000000000E+00 -0.27614986548E+03  0.27614986548E+03  0.00000000000E+00 0. -1.
          2    1    1    2  501    0  0.15480943997E+02 -0.57380814224E+02 -0.40755309353E+02  0.72063948744E+02  0.00000000000E+00 0.  1.
          1    1    1    2  502    0  0.21020489198E+02 -0.54657639527E+02 -0.93243212415E+02  0.11010728943E+03  0.00000000000E+00 0. -1.
         22    1    1    2    0    0 -0.79290872855E+01 -0.28347560090E+02 -0.13267565937E+02  0.32287503683E+02  0.00000000000E+00 0.  1.
         22    1    1    2    0    0 -0.28572345909E+02  0.14038601384E+03 -0.41438251028E+02  0.14913665036E+03  0.00000000000E+00 0.  1.
</event>
<event>
 6    1  0.1293624E-005  0.8705421E+02  0.7818608E-02  0.1311343E+00
          2   -1    0    0  502    0  0.00000000000E+00  0.00000000000E+00  0.76263080218E+02  0.76263080218E+02  0.00000000000E+00 0. -1.
          1   -1    0    0  501    0 -0.00000000000E+00 -0.00000000000E+00 -0.10071766377E+04  0.10071766377E+04  0.00000000000E+00 0. -1.
          2    1    1    2  501    0 -0.24371022567E+02  0.20784653912E+02 -0.37795190120E+02  0.49542153521E+02  0.00000000000E+00 0. -1.
          1    1    1    2  502    0 -0.34407848983E+02  0.78789093726E+01 -0.88829415240E+03  0.88899520723E+03  0.00000000000E+00 0. -1.
         22    1    1    2    0    0 -0.12923550935E+02  0.32951633736E+02 -0.30734443929E+02  0.46876800000E+02  0.00000000000E+00 0. -1.
         22    1    1    2    0    0  0.71702422485E+02 -0.61615197021E+02  0.25910228965E+02  0.98025557174E+02  0.00000000000E+00 0. -1.
</event>
<event>
 6    1  0.1293624E-005  0.2353524E+03  0.7818608E-02  0.1122928E+00
          2   -1    0    0  502    0  0.00000000000E+00  0.00000000000E+00  0.40161540987E+03  0.40161540987E+03  0.00000000000E+00 0.  1.
          1   -1    0    0  501    0 -0.00000000000E+00 -0.00000000000E+00 -0.48827596137E+03  0.48827596137E+03  0.00000000000E+00 0. -1.
          2    1    1    2  501    0  0.12371106069E+02 -0.24461819576E+02  0.19926723481E+02  0.33889514470E+02  0.00000000000E+00 0.  1.
          1    1    1    2  502    0  0.94357504938E+02  0.14589916654E+03 -0.43561442496E+03  0.46898809449E+03  0.00000000000E+00 0. -1.
         22    1    1    2    0    0  0.26780212562E+02 -0.29736215700E+02  0.46466563523E+02  0.61323436259E+02  0.00000000000E+00 0.  1.
         22    1    1    2    0    0 -0.13350882357E+03 -0.91701131268E+02  0.28256058646E+03  0.32569032602E+03  0.00000000000E+00 0.  1.
</event>
<event>
 6    1  0.1293624E-005  0.2415637E+03  0.7818608E-02  0.1118756E+00
          2   -1    0    0  502    0  0.00000000000E+00  0.00000000000E+00  0.24798139972E+02  0.24798139972E+02  0.00000000000E+00 0. -1.
          1   -1    0    0  501    0 -0.00000000000E+00 -0.00000000000E+00 -0.18040373653E+04  0.18040373653E+04  0.00000000000E+00 0.  1.
          2    1    1    2  501    0 -0.28957837709E+02  0.21714908840E+02 -0.42792668079E+03  0.42945469815E+03  0.00000000000E+00 0. -1.
          1    1    1    2  502    0  0.24351670335E+01 -0.20254190115E+02 -0.12136309753E+04  0.12138024166E+04  0.00000000000E+00 0.  1.
         22    1    1    2    0    0 -0.31343680500E+02 -0.19400751894E+01 -0.12149633137E+03  0.12548923753E+03  0.00000000000E+00 0. -1.
         22    1    1    2    0    0  0.57866351175E+02  0.47935646453E+00 -0.16185237803E+02  0.60089152962E+02  0.00000000000E+00 0. -1.
</event>
<event>
 6    1  0.1293624E-005  0.7935463E+02  0.7818608E-02  0.1333523E+00
          2   -1    0    0  502    0  0.00000000000E+00  0.00000000000E+00  0.52682691215E+03  0.52682691215E+03  0.00000000000E+00 0.  1.
          1   -1    0    0  501    0 -0.00000000000E+00 -0.00000000000E+00 -0.32010328923E+02  0.32010328923E+02  0.00000000000E+00 0.  1.
          2    1    1    2  501    0  0.69405859292E+02 -0.64888014491E+01  0.99915245429E+02  0.12182911851E+03  0.00000000000E+00 0.  1.
          1    1    1    2  502    0 -0.29026382607E+02 -0.33326725416E+02  0.63180950975E+02  0.77104047107E+02  0.00000000000E+00 0.  1.
         22    1    1    2    0    0 -0.82912649398E+01 -0.38538750185E+02  0.40063461106E+02  0.56205526916E+02  0.00000000000E+00 0.  1.
         22    1    1    2    0    0 -0.32088211745E+02  0.78354277050E+02  0.29165692572E+03  0.30369854854E+03  0.00000000000E+00 0.  1.
</event>
<event>
 6    1  0.1293624E-005  0.1694339E+03  0.7818608E-02  0.1178439E+00
          2   -1    0    0  502    0  0.00000000000E+00  0.00000000000E+00  0.41610595670E+03  0.41610595670E+03  0.00000000000E+00 0. -1.
          1   -1    0    0  501    0 -0.00000000000E+00 -0.00000000000E+00 -0.91235785754E+03  0.91235785754E+03  0.00000000000E+00 0.  1.
          2    1    1    2  501    0  0.17269391826E+02  0.23211630532E+02  0.26547817348E+02  0.39265739416E+02  0.00000000000E+00 0. -1.
          1    1    1    2  502    0 -0.28672715546E+02 -0.57306326320E+02 -0.89391537663E+03  0.89620914982E+03  0.00000000000E+00 0.  1.
         22    1    1    2    0    0 -0.38554703409E+02  0.58008939331E+02  0.15575050700E+03  0.17061571624E+03  0.00000000000E+00 0. -1.
         22    1    1    2    0    0  0.49958027129E+02 -0.23914243543E+02  0.21536515144E+03  0.22237320875E+03  0.00000000000E+00 0. -1.
</event>
<event>
 6    1  0.1293624E-005  0.2527571E+03  0.7818608E-02  0.1177188E+00
          2   -1    0    0  502    0  0.00000000000E+00  0.00000000000E+00  0.16706736194E+03  0.16706736194E+03  0.00000000000E+00 0. -1.
          1   -1    0    0  501    0 -0.00000000000E+00 -0.00000000000E+00 -0.13038267415E+04  0.13038267415E+04  0.00000000000E+00 0. -1.
          2    1    1    2  501    0 -0.67745366082E+02 -0.24665269630E+03 -0.10782460553E+03  0.27758446062E+03  0.00000000000E+00 0. -1.
          1    1    1    2  502    0  0.54094722756E+02  0.23427522495E+03 -0.10426959838E+04  0.10700588931E+04  0.00000000000E+00 0. -1.
         22    1    1    2    0    0  0.42606034508E+01 -0.39275678029E+02 -0.34116226810E+02  0.52198166234E+02  0.00000000000E+00 0. -1.
         22    1    1    2    0    0  0.93900398745E+01  0.51653149374E+02  0.47877436579E+02  0.71052583504E+02  0.00000000000E+00 0. -1.
</event>
<event>
 6    1  0.1293624E-005  0.4548804E+03  0.7818608E-02  0.1120523E+00
          2   -1    0    0  502    0  0.00000000000E+00  0.00000000000E+00  0.66113742257E+03  0.66113742257E+03  0.00000000000E+00 0.  1.
          1   -1    0    0  501    0 -0.00000000000E+00 -0.00000000000E+00 -0.18634114262E+04  0.18634114262E+04  0.00000000000E+00 0. -1.
          2    1    1    2  501    0  0.22648963289E+03  0.99463406765E+02  0.39761932092E+03  0.46828586083E+03  0.00000000000E+00 0.  1.
          1    1    1    2  502    0 -0.36942157562E+03 -0.19981454141E+03 -0.17473968925E+04  0.17971627782E+04  0.00000000000E+00 0. -1.
         22    1    1    2    0    0  0.26281546733E+02 -0.22522602462E+02  0.57854525738E+02  0.67417605036E+02  0.00000000000E+00 0.  1.
         22    1    1    2    0    0  0.11665039600E+03  0.12287373711E+03  0.89649042233E+02  0.19168260466E+03  0.00000000000E+00 0. -1.
</event>
<event>
 6    1  0.1293624E-005  0.2944590E+03  0.7818608E-02  0.1088044E+00
          2   -1    0    0  502    0  0.00000000000E+00  0.00000000000E+00  0.20672544400E+03  0.20672544400E+03  0.00000000000E+00 0.  1.
          1   -1    0    0  501    0 -0.00000000000E+00 -0.00000000000E+00 -0.23856181690E+04  0.23856181690E+04  0.00000000000E+00 0. -1.
          2    1    1    2  501    0  0.60847268409E+02  0.43559791087E+02 -0.24440961870E+02  0.78722335392E+02  0.00000000000E+00 0.  1.
          1    1    1    2  502    0 -0.18569851291E+03  0.48282473102E+02 -0.22746328897E+04  0.22827110894E+04  0.00000000000E+00 0. -1.
         22    1    1    2    0    0  0.14428609004E+03 -0.67970160991E+02  0.12086939332E+03  0.20011953629E+03  0.00000000000E+00 0.  1.
         22    1    1    2    0    0 -0.19434845536E+02 -0.23872103198E+02 -0.68826675716E+00  0.30790651881E+02  0.00000000000E+00 0. -1.
</event>
<event>
 6    1  0.1293624E-005  0.1078590E+03  0.7818608E-02  0.1265940E+00
          2   -1    0    0  502    0  0.00000000000E+00  0.00000000000E+00  0.17830349923E+03  0.17830349923E+03  0.00000000000E+00 0.  1.
          1   -1    0    0  501    0 -0.00000000000E+00 -0.00000000000E+00 -0.20058217831E+03  0.20058217831E+03  0.00000000000E+00 0. -1.
          2    1    1    2  501    0 -0.23458541602E+02  0.87817476883E+02 -0.36205201609E+02  0.97841857319E+02  0.00000000000E+00 0.  1.
          1    1    1    2  502    0 -0.53378127243E+01 -0.23390862106E+02 -0.97841136736E+02  0.10073982684E+03  0.00000000000E+00 0. -1.
         22    1    1    2    0    0 -0.11422740871E+02  0.28488513371E+02  0.16822280776E+01  0.30739295606E+02  0.00000000000E+00 0. -1.
         22    1    1    2    0    0  0.40219095197E+02 -0.92915128147E+02  0.11008543119E+03  0.14956469776E+03  0.00000000000E+00 0.  1.
</event>
<event>
 6    1  0.1293624E-005  0.8344599E+02  0.7818608E-02  0.1324926E+00
          2   -1    0    0  502    0  0.00000000000E+00  0.00000000000E+00  0.37913037382E+03  0.37913037382E+03  0.00000000000E+00 0. -1.
          1   -1    0    0  501    0 -0.00000000000E+00 -0.00000000000E+00 -0.28059054783E+02  0.28059054783E+02  0.00000000000E+00 0. -1.
          2    1    1    2  501    0 -0.38507714411E+02  0.10185280153E+02  0.50250677616E+02  0.64122652797E+02  0.00000000000E+00 0. -1.
          1    1    1    2  502    0  0.15449635333E+02  0.22635634407E+02  0.82874382679E+02  0.87288180651E+02  0.00000000000E+00 0. -1.
         22    1    1    2    0    0  0.17669163108E+02 -0.81133358330E+02  0.15897332278E+03  0.17935255368E+03  0.00000000000E+00 0. -1.
         22    1    1    2    0    0  0.53889159691E+01  0.48312443770E+02  0.58972935966E+02  0.76426041471E+02  0.00000000000E+00 0. -1.
</event>
<event>
 6    1  0.1293624E-005  0.1843142E+03  0.7818608E-02  0.1163692E+00
          2   -1    0    0  502    0  0.00000000000E+00  0.00000000000E+00  0.20402460716E+03  0.20402460716E+03  0.00000000000E+00 0. -1.
          1   -1    0    0  501    0 -0.00000000000E+00 -0.00000000000E+00 -0.25857103223E+03  0.25857103223E+03  0.00000000000E+00 0. -1.
          2    1    1    2  501    0 -0.82836190320E+01  0.47362253217E+02  0.57303557634E+02  0.74803068731E+02  0.00000000000E+00 0. -1.
          1    1    1    2  502    0 -0.33430609959E+02 -0.12999394379E+02 -0.21515418904E+03  0.21812362320E+03  0.00000000000E+00 0. -1.
         22    1    1    2    0    0  0.53472837652E+02  0.31362854751E+02  0.74588223418E+02  0.96986473786E+02  0.00000000000E+00 0.  1.
         22    1    1    2    0    0 -0.11758608661E+02 -0.65725713589E+02  0.28715982918E+02  0.72682473674E+02  0.00000000000E+00 0. -1.
</event>
<event>
 6    1  0.1293624E-005  0.2732566E+03  0.7818608E-02  0.1099430E+00
          2   -1    0    0  502    0  0.00000000000E+00  0.00000000000E+00  0.92976737748E+02  0.92976737748E+02  0.00000000000E+00 0.  1.
          1   -1    0    0  501    0 -0.00000000000E+00 -0.00000000000E+00 -0.79434766359E+03  0.79434766359E+03  0.00000000000E+00 0. -1.
          2    1    1    2  501    0  0.30343497935E+02 -0.45346531757E+02 -0.13252124154E+03  0.14331404422E+03  0.00000000000E+00 0.  1.
          1    1    1    2  502    0 -0.88613889389E+02 -0.26815772554E+02 -0.58168368127E+03  0.58900544319E+03  0.00000000000E+00 0. -1.
         22    1    1    2    0    0  0.53714299211E+02  0.10073784351E+03  0.34039431328E+02  0.11913027298E+03  0.00000000000E+00 0.  1.
         22    1    1    2    0    0  0.45560922425E+01 -0.28575539203E+02 -0.21205434361E+02  0.35874640955E+02  0.00000000000E+00 0.  1.
</event>
<event>
 6    1  0.1293624E-005  0.1968524E+03  0.7818608E-02  0.1152422E+00
          2   -1    0    0  502    0  0.00000000000E+00  0.00000000000E+00  0.18039900957E+03  0.18039900957E+03  0.00000000000E+00 0. -1.
          1   -1    0    0  501    0 -0.00000000000E+00 -0.00000000000E+00 -0.13357750942E+03  0.13357750942E+03  0.00000000000E+00 0. -1.
          2    1    1    2  501    0 -0.12147183638E+02 -0.56124979762E+02  0.27298531913E+02  0.63582837843E+02  0.00000000000E+00 0. -1.
          1    1    1    2  502    0  0.62111346859E+02  0.95064296350E+02  0.14231651816E+02  0.11444465808E+03  0.00000000000E+00 0. -1.
         22    1    1    2    0    0 -0.78700502646E+02 -0.35955428463E+02  0.36063669055E+02  0.93739800397E+02  0.00000000000E+00 0. -1.
         22    1    1    2    0    0  0.28736339425E+02 -0.29838881252E+01 -0.30772352638E+02  0.42209222674E+02  0.00000000000E+00 0. -1.
</event>
<event>
 6    1  0.1293624E-005  0.6101625E+02  0.7818608E-02  0.1397564E+00
          2   -1    0    0  502    0  0.00000000000E+00  0.00000000000E+00  0.61499248439E+02  0.61499248439E+02  0.00000000000E+00 0. -1.
          1   -1    0    0  501    0 -0.00000000000E+00 -0.00000000000E+00 -0.69056722997E+03  0.69056722997E+03  0.00000000000E+00 0. -1.
          2    1    1    2  501    0  0.24137850516E+02 -0.69433771894E+00 -0.19919635285E+01  0.24229854542E+02  0.00000000000E+00 0. -1.
          1    1    1    2  502    0  0.35686867851E+02  0.31640542695E+02 -0.57301319213E+03  0.57499460418E+03  0.00000000000E+00 0. -1.
         22    1    1    2    0    0  0.27044688211E+02 -0.18499583149E+01  0.21091860342E+02  0.34346820506E+02  0.00000000000E+00 0. -1.
         22    1    1    2    0    0 -0.86869406578E+02 -0.29096246661E+02 -0.75154686210E+02  0.11849519918E+03  0.00000000000E+00 0.  1.
</event>
<event>
 6    1  0.1293624E-005  0.7488892E+02  0.7818608E-02  0.1346191E+00
          2   -1    0    0  502    0  0.00000000000E+00  0.00000000000E+00  0.50857400042E+03  0.50857400042E+03  0.00000000000E+00 0. -1.
          1   -1    0    0  501    0 -0.00000000000E+00 -0.00000000000E+00 -0.68327247877E+03  0.68327247877E+03  0.00000000000E+00 0. -1.
          2    1    1    2  501    0  0.17175808984E+02 -0.21225868586E+02  0.17466223185E+02  0.32413189659E+02  0.00000000000E+00 0. -1.
          1    1    1    2  502    0 -0.27616466721E+02 -0.22254433740E+02 -0.66594776940E+03  0.66689156587E+03  0.00000000000E+00 0. -1.
         22    1    1    2    0    0  0.84602215740E+01 -0.33310164807E+02  0.43412604574E+02  0.55369636665E+02  0.00000000000E+00 0. -1.
         22    1    1    2    0    0  0.19804361629E+01  0.76790467133E+02  0.43037046329E+03  0.43717208699E+03  0.00000000000E+00 0. -1.
</event>
<event>
 6    1  0.1293624E-005  0.3312654E+03  0.7818608E-02  0.1070578E+00
          2   -1    0    0  502    0  0.00000000000E+00  0.00000000000E+00  0.11877678282E+03  0.11877678282E+03  0.00000000000E+00 0.  1.
          1   -1    0    0  501    0 -0.00000000000E+00 -0.00000000000E+00 -0.30646669276E+03  0.30646669276E+03  0.00000000000E+00 0.  1.
          2    1    1    2  501    0 -0.26001295180E+02 -0.11787329703E+03  0.93944987469E+01  0.12107203686E+03  0.00000000000E+00 0.  1.
          1    1    1    2  502    0  0.55913044656E+01 -0.25911777811E+02 -0.68058104998E+02  0.73038267852E+02  0.00000000000E+00 0.  1.
         22    1    1    2    0    0 -0.12438521716E+02 -0.21080399901E+01  0.17628685931E+02  0.21677897101E+02  0.00000000000E+00 0.  1.
         22    1    1    2    0    0  0.32848512430E+02  0.14589311483E+03 -0.14665498963E+03  0.20945527376E+03  0.00000000000E+00 0.  1.
</event>
<event>
 6    1  0.1901201E-005  0.6147143E+02  0.7818608E-02  0.1396866E+00
          2   -1    0    0  502    0  0.00000000000E+00  0.00000000000E+00  0.16078515446E+03  0.16078515446E+03  0.00000000000E+00 0. -1.
          1   -1    0    0  501    0 -0.00000000000E+00 -0.00000000000E+00 -0.18071668256E+04  0.18071668256E+04  0.00000000000E+00 0. -1.
          2    1    1    2  501    0 -0.22777794670E+02  0.48628348505E+01  0.10077964236E+02  0.25377952162E+02  0.00000000000E+00 0. -1.
          1    1    1    2  502    0  0.41289088919E+02  0.40249484227E+02 -0.17658606115E+04  0.17668017741E+04  0.00000000000E+00 0. -1.
         22    1    1    2    0    0  0.15037216786E+02 -0.59157023954E+02  0.12270296581E+03  0.13704630309E+03  0.00000000000E+00 0. -1.
         22    1    1    2    0    0 -0.33548511035E+02  0.14044704877E+02 -0.13301989708E+02  0.38725950704E+02  0.00000000000E+00 0. -1.
</event>
<event>
 6    1  0.1293624E-005  0.2557547E+03  0.7818608E-02  0.1109721E+00
          2   -1    0    0  502    0  0.00000000000E+00  0.00000000000E+00  0.66113327802E+02  0.66113327802E+02  0.00000000000E+00 0.  1.
          1   -1    0    0  501    0 -0.00000000000E+00 -0.00000000000E+00 -0.89686884981E+03  0.89686884981E+03  0.00000000000E+00 0. -1.
          2    1    1    2  501    0 -0.53709495950E+02 -0.97307432123E+02 -0.69364001867E+02  0.13101454521E+03  0.00000000000E+00 0.  1.
          1    1    1    2  502    0  0.12388439871E+02  0.33172688400E+02 -0.64721865881E+03  0.64818661897E+03  0.00000000000E+00 0. -1.
         22    1    1    2    0    0 -0.64564648078E+01 -0.14576770935E+02  0.17136282285E+02  0.23405562571E+02  0.00000000000E+00 0.  1.
         22    1    1    2    0    0  0.47777520887E+02  0.78711514658E+02 -0.13130914361E+03  0.16037545086E+03  0.00000000000E+00 0. -1.
</event>
<event>
 6    1  0.1293624E-005  0.1215214E+03  0.7818608E-02  0.1241477E+00
          2   -1    0    0  502    0  0.00000000000E+00  0.00000000000E+00  0.37635429873E+03  0.37635429873E+03  0.00000000000E+00 0. -1.
          1   -1    0    0  501    0 -0.00000000000E+00 -0.00000000000E+00 -0.13964027380E+03  0.13964027380E+03  0.00000000000E+00 0. -1.
          2    1    1    2  501    0  0.78156495353E+02 -0.41136478328E+02  0.12019725403E+03  0.14915772689E+03  0.00000000000E+00 0. -1.
          1    1    1    2  502    0 -0.13294015994E+02 -0.35955980207E+02 -0.95186050666E+02  0.10261553301E+03  0.00000000000E+00 0. -1.
         22    1    1    2    0    0  0.27556306631E+02 -0.86056588049E+01  0.62940696764E+02  0.69245495938E+02  0.00000000000E+00 0.  1.
         22    1    1    2    0    0 -0.92418785990E+02  0.85698117340E+02  0.14876212480E+03  0.19497581669E+03  0.00000000000E+00 0. -1.
</event>
<event>
 6    1  0.1293624E-005  0.2000164E+03  0.7818608E-02  0.1150346E+00
          2   -1    0    0  502    0  0.00000000000E+00  0.00000000000E+00  0.60508435188E+03  0.60508435188E+03  0.00000000000E+00 0.  1.
          1   -1    0    0  501    0 -0.00000000000E+00 -0.00000000000E+00 -0.45768371719E+03  0.45768371719E+03  0.00000000000E+00 0. -1.
          2    1    1    2  501    0  0.84598799994E+02 -0.16606791978E+03  0.18293826532E+03  0.26115497287E+03  0.00000000000E+00 0.  1.
          1    1    1    2  502    0 -0.23579774123E+02 -0.23236382450E+01 -0.38752139341E+03  0.38824507131E+03  0.00000000000E+00 0. -1.
         22    1    1    2    0    0  0.16094761653E+02 -0.98784451477E+01  0.13854167606E+02  0.23421421632E+02  0.00000000000E+00 0.  1.
         22    1    1    2    0    0 -0.77113787523E+02  0.17827000317E+03  0.33812959517E+03  0.38994660325E+03  0.00000000000E+00 0.  1.
</event>
<event>
 6    1  0.1293624E-005  0.6071676E+02  0.7818608E-02  0.1460912E+00
          2   -1    0    0  502    0  0.00000000000E+00  0.00000000000E+00  0.10441374823E+03  0.10441374823E+03  0.00000000000E+00 0. -1.
          1   -1    0    0  501    0 -0.00000000000E+00 -0.00000000000E+00 -0.50787625162E+03  0.50787625162E+03  0.00000000000E+00 0. -1.
          2    1    1    2  501    0 -0.24044304556E+02 -0.54927240895E+02 -0.14206608374E+03  0.15420085124E+03  0.00000000000E+00 0. -1.
          1    1    1    2  502    0  0.15310927372E+02  0.52226379079E+02 -0.31498437648E+03  0.31965164882E+03  0.00000000000E+00 0. -1.
         22    1    1    2    0    0 -0.11003189167E+02 -0.75082684886E+01 -0.40045802750E+02  0.42203205867E+02  0.00000000000E+00 0.  1.
         22    1    1    2    0    0  0.19736566351E+02  0.10209130305E+02  0.93633759580E+02  0.96234293919E+02  0.00000000000E+00 0. -1.
</event>
<event>
 6    1  0.1293624E-005  0.1306236E+03  0.7818608E-02  0.1262003E+00
          2   -1    0    0  502    0  0.00000000000E+00  0.00000000000E+00  0.38012984047E+03  0.38012984047E+03  0.00000000000E+00 0.  1.
          1   -1    0    0  501    0 -0.00000000000E+00 -0.00000000000E+00 -0.12453024574E+03  0.12453024574E+03  0.00000000000E+00 0.  1.
          2    1    1    2  501    0  0.61975974190E+02  0.11356718708E+02  0.13932134935E+03  0.15290662124E+03  0.00000000000E+00 0.  1.
          1    1    1    2  502    0 -0.79613224252E+02 -0.85902594779E+02 -0.53342178855E+02  0.12869696698E+03  0.00000000000E+00 0.  1.
         22    1    1    2    0    0 -0.51655857502E+02  0.37565396077E+02  0.96648022321E+02  0.11584613423E+03  0.00000000000E+00 0.  1.
         22    1    1    2    0    0  0.69293107564E+02  0.36980479995E+02  0.72972401908E+02  0.10721036376E+03  0.00000000000E+00 0. -1.
</event>
<event>
 6    1  0.1293624E-005  0.2836176E+03  0.7818608E-02  0.1093729E+00
          2   -1    0    0  502    0  0.00000000000E+00  0.00000000000E+00  0.17564567605E+03  0.17564567605E+03  0.00000000000E+00 0.  1.
          1   -1    0    0  501    0 -0.00000000000E+00 -0.00000000000E+00 -0.18631610587E+03  0.18631610587E+03  0.00000000000E+00 0.  1.
          2    1    1    2  501    0 -0.81693456192E+02  0.18333839115E+02 -0.63452974352E+02  0.10505346446E+03  0.00000000000E+00 0.  1.
          1    1    1    2  502    0  0.29919917629E+02  0.18727105936E+01 -0.66460629489E+02  0.72909010335E+02  0.00000000000E+00 0.  1.
         22    1    1    2    0    0  0.45367430416E+02 -0.54052940186E+02  0.12999398174E+03  0.14791335090E+03  0.00000000000E+00 0.  1.
         22    1    1    2    0    0  0.64061081472E+01  0.33846390477E+02 -0.10750807722E+02  0.36085956224E+02  0.00000000000E+00 0.  1.
</event>
<event>
 6    1  0.1293624E-005  0.7097012E+02  0.7818608E-02  0.1357948E+00
          2   -1    0    0  502    0  0.00000000000E+00  0.00000000000E+00  0.65578359738E+03  0.65578359738E+03  0.00000000000E+00 0.  1.
          1   -1    0    0  501    0 -0.00000000000E+00 -0.00000000000E+00 -0.18492710716E+02  0.18492710716E+02  0.00000000000E+00 0.  1.
          2    1    1    2  501    0 -0.19204285822E+02  0.11535185536E+02  0.13547598312E+03  0.13731572052E+03  0.00000000000E+00 0.  1.
          1    1    1    2  502    0  0.23391805553E+02  0.18481384441E+02  0.13965708573E+02  0.32920801233E+02  0.00000000000E+00 0.  1.
         22    1    1    2    0    0  0.24275047744E+02 -0.69383788911E+02  0.22391015606E+03  0.23566744810E+03  0.00000000000E+00 0.  1.
         22    1    1    2    0    0 -0.28462567474E+02  0.39367218934E+02  0.26393903892E+03  0.26837233825E+03  0.00000000000E+00 0.  1.
</event>
<event>
 6    1  0.1293624E-005  0.1047534E+03  0.7818608E-02  0.1272710E+00
          2   -1    0    0  502    0  0.00000000000E+00  0.00000000000E+00  0.13728948893E+03  0.13728948893E+03  0.00000000000E+00 0.  1.
          1   -1    0    0  501    0 -0.00000000000E+00 -0.00000000000E+00 -0.12277740277E+04  0.12277740277E+04  0.00000000000E+00 0. -1.
          2    1    1    2  501    0 -0.50124257696E+02  0.37387435233E+02 -0.70992128798E+01  0.62933777468E+02  0.00000000000E+00 0.  1.
          1    1    1    2  502    0 -0.26415981637E+02 -0.67648700337E+02 -0.11390429609E+04  0.11413557805E+04  0.00000000000E+00 0. -1.
         22    1    1    2    0    0  0.10938457995E+03  0.56426908747E+01  0.36271278357E+02  0.11537951259E+03  0.00000000000E+00 0.  1.
         22    1    1    2    0    0 -0.32844340620E+02  0.24618574229E+02  0.19386356716E+02  0.45394446077E+02  0.00000000000E+00 0.  1.
</event>
<event>
 6    1  0.1293624E-005  0.1815132E+03  0.7818608E-02  0.1166347E+00
          2   -1    0    0  502    0  0.00000000000E+00  0.00000000000E+00  0.49598202480E+02  0.49598202480E+02  0.00000000000E+00 0.  1.
          1   -1    0    0  501    0 -0.00000000000E+00 -0.00000000000E+00 -0.76498536192E+03  0.76498536192E+03  0.00000000000E+00 0.  1.
          2    1    1    2  501    0 -0.15106868125E+02 -0.15189378530E+02 -0.22183576035E+02  0.30839029336E+02  0.00000000000E+00 0.  1.
          1    1    1    2  502    0 -0.79000642211E+02  0.52458933710E+02 -0.58112230609E+03  0.58880911663E+03  0.00000000000E+00 0.  1.
         22    1    1    2    0    0  0.11632141659E+03 -0.45333259851E+00 -0.85779946030E+02  0.14453053867E+03  0.00000000000E+00 0.  1.
         22    1    1    2    0    0 -0.22213906253E+02 -0.36816222581E+02 -0.26301331284E+02  0.50404879759E+02  0.00000000000E+00 0. -1.
</event>
<event>
 6    1  0.1293624E-005  0.8386613E+02  0.7818608E-02  0.1321075E+00
          2   -1    0    0  502    0  0.00000000000E+00  0.00000000000E+00  0.15515369580E+04  0.15515369580E+04  0.00000000000E+00 0. -1.
          1   -1    0    0  501    0 -0.00000000000E+00 -0.00000000000E+00 -0.94369755237E+01  0.94369755237E+01  0.00000000000E+00 0. -1.
          2    1    1    2  501    0 -0.45855865281E+02  0.20062578646E+02  0.27426925119E+03  0.27879901290E+03  0.00000000000E+00 0. -1.
          1    1    1    2  502    0  0.29126548995E+02 -0.39818200732E+02  0.65964812144E+03  0.66149035450E+03  0.00000000000E+00 0. -1.
         22    1    1    2    0    0  0.68381445869E+02  0.21503400961E+02  0.38262871038E+03  0.38928543307E+03  0.00000000000E+00 0. -1.
         22    1    1    2    0    0 -0.51652129583E+02 -0.17477788744E+01  0.22555389950E+03  0.23139913311E+03  0.00000000000E+00 0. -1.
</event>
<event>
 6    1  0.1293624E-005  0.8819274E+02  0.7818608E-02  0.1309208E+00
          2   -1    0    0  502    0  0.00000000000E+00  0.00000000000E+00  0.54470294104E+03  0.54470294104E+03  0.00000000000E+00 0.  1.
          1   -1    0    0  501    0 -0.00000000000E+00 -0.00000000000E+00 -0.56043256268E+02  0.56043256268E+02  0.00000000000E+00 0.  1.
          2    1    1    2  501    0  0.32933592174E+02 -0.11593364211E+02  0.69595863251E+02  0.77862775245E+02  0.00000000000E+00 0.  1.
          1    1    1    2  502    0  0.32247666297E+02 -0.31238112199E+02 -0.28117351347E+02  0.52974683408E+02  0.00000000000E+00 0.  1.
         22    1    1    2    0    0 -0.10026764961E+03  0.42340597234E+02  0.32168264195E+03  0.33959689319E+03  0.00000000000E+00 0.  1.
         22    1    1    2    0    0  0.35086391140E+02  0.49087917628E+00  0.12549853092E+03  0.13031184546E+03  0.00000000000E+00 0.  1.
</event>
<event>
 6    1  0.1293624E-005  0.1216043E+03  0.7818608E-02  0.1242388E+00
          2   -1    0    0  502    0  0.00000000000E+00  0.00000000000E+00  0.19501114586E+02  0.19501114586E+02  0.00000000000E+00 0. -1.
          1   -1    0    0  501    0 -0.00000000000E+00 -0.00000000000E+00 -0.17841154545E+04  0.17841154545E+04  0.00000000000E+00 0.  1.
          2    1    1    2  501    0 -0.27316640710E+02  0.74241148849E+02 -0.18540737560E+03  0.20157837674E+03  0.00000000000E+00 0. -1.
          1    1    1    2  502    0 -0.73705055235E+02  0.16781497491E+02 -0.65421249189E+03  0.65856513601E+03  0.00000000000E+00 0.  1.
         22    1    1    2    0    0  0.12357219015E+03 -0.10209914527E+03 -0.81932112287E+03  0.83485413338E+03  0.00000000000E+00 0.  1.
         22    1    1    2    0    0 -0.22550494203E+02  0.11076498935E+02 -0.10567334952E+03  0.10861892292E+03  0.00000000000E+00 0. -1.
</event>
<event>
 6    1  0.1293624E-005  0.1129400E+03  0.7818608E-02  0.1256193E+00
          2   -1    0    0  502    0  0.00000000000E+00  0.00000000000E+00  0.28785283415E+02  0.28785283415E+02  0.00000000000E+00 0.  1.
          1   -1    0    0  501    0 -0.00000000000E+00 -0.00000000000E+00 -0.16447353284E+04  0.16447353284E+04  0.00000000000E+00 0.  1.
          2    1    1    2  501    0 -0.10460551021E+03  0.29331489584E+02 -0.40085462905E+03  0.41531564223E+03  0.00000000000E+00 0.  1.
          1    1    1    2  502    0  0.31685064026E+02  0.55798394722E+00 -0.98832958556E+03  0.98883751159E+03  0.00000000000E+00 0.  1.
         22    1    1    2    0    0  0.93802521019E+02 -0.46640616131E+02 -0.11998360933E+03  0.15928065334E+03  0.00000000000E+00 0.  1.
         22    1    1    2    0    0 -0.20882074835E+02  0.16751142600E+02 -0.10678222104E+03  0.11008680465E+03  0.00000000000E+00 0. -1.
</event>
<event>
 6    1  0.1293624E-005  0.2331009E+03  0.7818608E-02  0.1124476E+00
          2   -1    0    0  502    0  0.00000000000E+00  0.00000000000E+00  0.17510595878E+03  0.17510595878E+03  0.00000000000E+00 0. -1.
          1   -1    0    0  501    0 -0.00000000000E+00 -0.00000000000E+00 -0.13426595841E+03  0.13426595841E+03  0.00000000000E+00 0. -1.
          2    1    1    2  501    0 -0.32238582650E+02  0.62881989425E+02  0.87246699643E+02  0.11227402818E+03  0.00000000000E+00 0. -1.
          1    1    1    2  502    0  0.27816684709E+02 -0.63343241187E+02 -0.12359635830E+02  0.70277270509E+02  0.00000000000E+00 0. -1.
         22    1    1    2    0    0 -0.25879020051E+02 -0.27568695257E+02 -0.65019680995E+02  0.75215128490E+02  0.00000000000E+00 0. -1.
         22    1    1    2    0    0  0.30300917992E+02  0.28029947020E+02  0.30972617557E+02  0.51605490012E+02  0.00000000000E+00 0. -1.
</event>
<event>
 6    1  0.1293624E-005  0.7069882E+02  0.7818608E-02  0.1359188E+00
          2   -1    0    0  502    0  0.00000000000E+00  0.00000000000E+00  0.46436329098E+02  0.46436329098E+02  0.00000000000E+00 0.  1.
          1   -1    0    0  501    0 -0.00000000000E+00 -0.00000000000E+00 -0.56103056693E+03  0.56103056693E+03  0.00000000000E+00 0.  1.
          2    1    1    2  501    0  0.20938615442E+02  0.17608090983E+02 -0.55608758924E+02  0.61974224915E+02  0.00000000000E+00 0.  1.
          1    1    1    2  502    0  0.18272566729E+02  0.18249389174E+02 -0.38738506003E+03  0.38824491192E+03  0.00000000000E+00 0.  1.
         22    1    1    2    0    0 -0.51577171163E+02 -0.52917188485E+02  0.85374066580E+01  0.74386293998E+02  0.00000000000E+00 0.  1.
         22    1    1    2    0    0  0.12365988992E+02  0.17059708328E+02 -0.80137825538E+02  0.82861465193E+02  0.00000000000E+00 0.  1.
</event>
<event>
 6    1  0.1293624E-005  0.2413311E+03  0.7818608E-02  0.1120915E+00
          2   -1    0    0  502    0  0.00000000000E+00  0.00000000000E+00  0.33243255653E+03  0.33243255653E+03  0.00000000000E+00 0.  1.
          1   -1    0    0  501    0 -0.00000000000E+00 -0.00000000000E+00 -0.10776358486E+04  0.10776358486E+04  0.00000000000E+00 0.  1.
          2    1    1    2  501    0 -0.25686003054E+03 -0.18386240631E+03 -0.26738138930E+02  0.31701322972E+03  0.00000000000E+00 0.  1.
          1    1    1    2  502    0  0.68239340623E+02  0.19586562187E+03 -0.81821351815E+03  0.84409318841E+03  0.00000000000E+00 0.  1.
         22    1    1    2    0    0  0.20773225421E+03 -0.16634637062E+02  0.92504938699E+02  0.22800562333E+03  0.00000000000E+00 0.  1.
         22    1    1    2    0    0 -0.19111564284E+02  0.46314214986E+01  0.72434262940E+01  0.20956363686E+02  0.00000000000E+00 0. -1.
</event>
<event>
 6    1  0.1293624E-005  0.2717923E+03  0.7818608E-02  0.1100258E+00
          2   -1    0    0  502    0  0.00000000000E+00  0.00000000000E+00  0.26857120959E+03  0.26857120959E+03  0.00000000000E+00 0.  1.
          1   -1    0    0  501    0 -0.00000000000E+00 -0.00000000000E+00 -0.25072311857E+03  0.25072311857E+03  0.00000000000E+00 0.  1.
          2    1    1    2  501    0  0.10190493891E+03 -0.64128551753E+01  0.46763446817E+02  0.11230565989E+03  0.00000000000E+00 0.  1.
          1    1    1    2  502    0 -0.17497553919E+03 -0.75600408099E+02 -0.10876515646E+03  0.21945778701E+03  0.00000000000E+00 0.  1.
         22    1    1    2    0    0  0.42189622381E+02 -0.45876547192E+01  0.85460687247E+02  0.95417712597E+02  0.00000000000E+00 0.  1.
         22    1    1    2    0    0  0.30880977893E+02  0.86600917993E+02 -0.56108865966E+01  0.92113168664E+02  0.00000000000E+00 0.  1.
</event>
<event>
 6    1  0.1293624E-005  0.2029262E+03  0.7818608E-02  0.1188653E+00
          2   -1    0    0  502    0  0.00000000000E+00  0.00000000000E+00  0.38406305490E+03  0.38406305490E+03  0.00000000000E+00 0.  1.
          1   -1    0    0  501    0 -0.00000000000E+00 -0.00000000000E+00 -0.66468612970E+03  0.66468612970E+03  0.00000000000E+00 0.  1.
          2    1    1    2  501    0 -0.92406436911E+02  0.50201557890E+02  0.75772893629E+02  0.12961742709E+03  0.00000000000E+00 0.  1.
          1    1    1    2  502    0  0.16339532336E+03 -0.12602824478E+03 -0.59619472494E+03  0.63089563339E+03  0.00000000000E+00 0.  1.
         22    1    1    2    0    0 -0.31824373056E+02  0.77917005183E+01 -0.31536525481E+01  0.32915753702E+02  0.00000000000E+00 0.  1.
         22    1    1    2    0    0 -0.39164513392E+02  0.68034986375E+02  0.24295240907E+03  0.25532037042E+03  0.00000000000E+00 0.  1.
</event>
<event>
 6    1  0.1293624E-005  0.2091361E+03  0.7818608E-02  0.1142252E+00
          2   -1    0    0  502    0  0.00000000000E+00  0.00000000000E+00  0.42716886077E+02  0.42716886077E+02  0.00000000000E+00 0.  1.
          1   -1    0    0  501    0 -0.00000000000E+00 -0.00000000000E+00 -0.75859333896E+03  0.75859333896E+03  0.00000000000E+00 0. -1.
          2    1    1    2  501    0  0.47857916507E+02 -0.31763116346E+02 -0.12927474080E+03  0.14146107005E+03  0.00000000000E+00 0.  1.
          1    1    1    2  502    0 -0.16402233372E+02 -0.13760038162E+02 -0.50101183746E+03  0.50146907500E+03  0.00000000000E+00 0. -1.
         22    1    1    2    0    0  0.18964310801E+02 -0.33054775903E+02 -0.13518160426E+02  0.40435182149E+02  0.00000000000E+00 0.  1.
         22    1    1    2    0    0 -0.50419993937E+02  0.78577930411E+02 -0.72071714194E+02  0.11794489783E+03  0.00000000000E+00 0.  1.
</event>
<event>
 6    1  0.1293624E-005  0.2156168E+03  0.7818608E-02  0.1137194E+00
          2   -1    0    0  502    0  0.00000000000E+00  0.00000000000E+00  0.94252695431E+03  0.94252695431E+03  0.00000000000E+00 0.  1.
          1   -1    0    0  501    0 -0.00000000000E+00 -0.00000000000E+00 -0.31712907099E+02  0.31712907099E+02  0.00000000000E+00 0.  1.
          2    1    1    2  501    0  0.23763610529E+01  0.41810412389E+02  0.76925771700E+02  0.87586140614E+02  0.00000000000E+00 0.  1.
          1    1    1    2  502    0  0.45710272303E+02  0.37817951903E+02  0.28231487017E+02  0.65701166956E+02  0.00000000000E+00 0.  1.
         22    1    1    2    0    0 -0.38059799462E+02 -0.11488288632E+03  0.62768364052E+03  0.63924438088E+03  0.00000000000E+00 0.  1.
         22    1    1    2    0    0 -0.10026833894E+02  0.35254522032E+02  0.17797314797E+03  0.18170817296E+03  0.00000000000E+00 0.  1.
</event>
<event>
 6    1  0.1293624E-005  0.1618551E+03  0.7818608E-02  0.1186618E+00
          2   -1    0    0  502    0  0.00000000000E+00  0.00000000000E+00  0.97652411499E+02  0.97652411499E+02  0.00000000000E+00 0. -1.
          1   -1    0    0  501    0 -0.00000000000E+00 -0.00000000000E+00 -0.78055253065E+03  0.78055253065E+03  0.00000000000E+00 0. -1.
          2    1    1    2  501    0  0.57765952457E+01 -0.25466262887E+02  0.89007375445E+01  0.27588452782E+02  0.00000000000E+00 0. -1.
          1    1    1    2  502    0 -0.46008619967E+02 -0.76368984005E+01 -0.71219471880E+03  0.71372013620E+03  0.00000000000E+00 0. -1.
         22    1    1    2    0    0 -0.10180474425E+02 -0.12880979177E+02  0.57101262403E+02  0.59414778061E+02  0.00000000000E+00 0. -1.
         22    1    1    2    0    0  0.50412499146E+02  0.45984140465E+02 -0.36707400298E+02  0.77481575107E+02  0.00000000000E+00 0. -1.
</event>
<event>
 6    1  0.1293624E-005  0.2152840E+03  0.7818608E-02  0.1137449E+00
          2   -1    0    0  502    0  0.00000000000E+00  0.00000000000E+00  0.23361935710E+03  0.23361935710E+03  0.00000000000E+00 0. -1.
          1   -1    0    0  501    0 -0.00000000000E+00 -0.00000000000E+00 -0.29683398143E+03  0.29683398143E+03  0.00000000000E+00 0. -1.
          2    1    1    2  501    0  0.14858496356E+02  0.15215378516E+02  0.10680691062E+03  0.10890362167E+03  0.00000000000E+00 0. -1.
          1    1    1    2  502    0 -0.63297172704E+02  0.58103322287E+02 -0.23807346005E+03  0.25310373468E+03  0.00000000000E+00 0. -1.
         22    1    1    2    0    0  0.29014541147E+02 -0.90747148865E+02 -0.30893450752E+00  0.95273207491E+02  0.00000000000E+00 0.  1.
         22    1    1    2    0    0  0.19424135201E+02  0.17428448063E+02  0.68360859605E+02  0.73172774692E+02  0.00000000000E+00 0.  1.
</event>
<event>
 6    1  0.1293624E-005  0.7456404E+02  0.7818608E-02  0.1347900E+00
          2   -1    0    0  502    0  0.00000000000E+00  0.00000000000E+00  0.12923361845E+03  0.12923361845E+03  0.00000000000E+00 0.  1.
          1   -1    0    0  501    0 -0.00000000000E+00 -0.00000000000E+00 -0.15228616209E+04  0.15228616209E+04  0.00000000000E+00 0. -1.
          2    1    1    2  501    0 -0.11050340978E+02 -0.44896543327E+02 -0.20675493408E+02  0.50648649203E+02  0.00000000000E+00 0.  1.
          1    1    1    2  502    0 -0.17181279872E+02  0.34641123293E+02 -0.14505510699E+04  0.14510663700E+04  0.00000000000E+00 0. -1.
         22    1    1    2    0    0  0.33899381978E+02  0.58103358199E+02  0.76930281661E+02  0.10219313367E+03  0.00000000000E+00 0.  1.
         22    1    1    2    0    0 -0.56677611276E+01 -0.47847938165E+02  0.66827921381E+00  0.48187086444E+02  0.00000000000E+00 0. -1.
</event>
<event>
 6    1  0.1293624E-005  0.1619795E+03  0.7818608E-02  0.1186480E+00
          2   -1    0    0  502    0  0.00000000000E+00  0.00000000000E+00  0.21355309051E+03  0.21355309051E+03  0.00000000000E+00 0.  1.
          1   -1    0    0  501    0 -0.00000000000E+00 -0.00000000000E+00 -0.11159361990E+03  0.11159361990E+03  0.00000000000E+00 0.  1.
          2    1    1    2  501    0 -0.68858339537E+01  0.22668003189E+02  0.28811858279E+02  0.37301156220E+02  0.00000000000E+00 0.  1.
          1    1    1    2  502    0 -0.39337507228E+02 -0.53214415867E+02 -0.64835109819E+02  0.92643429320E+02  0.00000000000E+00 0.  1.
         22    1    1    2    0    0  0.90006191286E+02  0.24558011039E+02  0.10183239703E+03  0.13810882470E+03  0.00000000000E+00 0.  1.
         22    1    1    2    0    0 -0.43782850104E+02  0.59884016393E+01  0.36150325116E+02  0.57093300163E+02  0.00000000000E+00 0. -1.
</event>
<event>
 6    1  0.1293624E-005  0.1214946E+03  0.7818608E-02  0.1241677E+00
          2   -1    0    0  502    0  0.00000000000E+00  0.00000000000E+00  0.29449577239E+03  0.29449577239E+03  0.00000000000E+00 0. -1.
          1   -1    0    0  501    0 -0.00000000000E+00 -0.00000000000E+00 -0.53035414987E+03  0.53035414987E+03  0.00000000000E+00 0. -1.
          2    1    1    2  501    0  0.67968939269E+02  0.63766383430E+02  0.35111551865E+02  0.99592918601E+02  0.00000000000E+00 0. -1.
          1    1    1    2  502    0 -0.48349060822E+02  0.37622065640E+02 -0.46617335110E+03  0.47018150195E+03  0.00000000000E+00 0. -1.
         22    1    1    2    0    0  0.10026013680E+02  0.20301628557E+02 -0.58794017409E+00  0.22650005431E+02  0.00000000000E+00 0. -1.
         22    1    1    2    0    0 -0.29645892127E+02 -0.12169007763E+03  0.19579136193E+03  0.23242549628E+03  0.00000000000E+00 0. -1.
</event>
<event>
 6    1  0.1293624E-005  0.1841109E+03  0.7818608E-02  0.1163883E+00
          2   -1    0    0  502    0  0.00000000000E+00  0.00000000000E+00  0.81378237168E+02  0.81378237168E+02  0.00000000000E+00 0.  1.
          1   -1    0    0  501    0 -0.00000000000E+00 -0.00000000000E+00 -0.14913184620E+03  0.14913184620E+03  0.00000000000E+00 0.  1.
          2    1    1    2  501    0 -0.21841497933E+02 -0.35490806847E+02 -0.41180172419E+01  0.41876084686E+02  0.00000000000E+00 0.  1.
          1    1    1    2  502    0 -0.17992729083E+02 -0.19472010020E+02 -0.34353332487E+02  0.43394111663E+02  0.00000000000E+00 0.  1.
         22    1    1    2    0    0  0.58548881353E+02  0.55814360025E+02 -0.65750108580E+02  0.10424150359E+03  0.00000000000E+00 0.  1.
         22    1    1    2    0    0 -0.18714654336E+02 -0.85154315812E+00  0.36467849278E+02  0.40998383427E+02  0.00000000000E+00 0.  1.
</event>
<event>
 6    1  0.1293624E-005  0.8796599E+02  0.7818608E-02  0.1312503E+00
          2   -1    0    0  502    0  0.00000000000E+00  0.00000000000E+00  0.66372077834E+03  0.66372077834E+03  0.00000000000E+00 0.  1.
          1   -1    0    0  501    0 -0.00000000000E+00 -0.00000000000E+00 -0.35499006043E+02  0.35499006043E+02  0.00000000000E+00 0. -1.
          2    1    1    2  501    0 -0.44220551027E+02  0.20173499589E+02  0.24866917014E+03  0.25337478840E+03  0.00000000000E+00 0.  1.
          1    1    1    2  502    0  0.24715146203E+02 -0.48893400598E+01 -0.15922796300E+02  0.29804018858E+02  0.00000000000E+00 0. -1.
         22    1    1    2    0    0 -0.44945739505E+02 -0.13811646556E+02  0.27882137724E+03  0.28275827395E+03  0.00000000000E+00 0.  1.
         22    1    1    2    0    0  0.64451144329E+02 -0.14725129731E+01  0.11665402122E+03  0.13328270318E+03  0.00000000000E+00 0. -1.
</event>
<event>
 6    1  0.1293624E-005  0.2389769E+03  0.7818608E-02  0.1120476E+00
          2   -1    0    0  502    0  0.00000000000E+00  0.00000000000E+00  0.28428825725E+02  0.28428825725E+02  0.00000000000E+00 0.  1.
          1   -1    0    0  501    0 -0.00000000000E+00 -0.00000000000E+00 -0.10685508444E+04  0.10685508444E+04  0.00000000000E+00 0.  1.
          2    1    1    2  501    0 -0.34264774884E+02 -0.20439632021E+02 -0.29111963371E+03  0.29384093399E+03  0.00000000000E+00 0.  1.
          1    1    1    2  502    0  0.32751164431E+02 -0.95072972549E+02 -0.43287432030E+03  0.44440036685E+03  0.00000000000E+00 0.  1.
         22    1    1    2    0    0  0.10315291775E+02  0.71151177628E+02 -0.30333349036E+03  0.31173723181E+03  0.00000000000E+00 0.  1.
         22    1    1    2    0    0 -0.88016813219E+01  0.44361426942E+02 -0.12794574331E+02  0.47001137504E+02  0.00000000000E+00 0. -1.
</event>
<event>
 6    1  0.1293624E-005  0.9238486E+02  0.7818608E-02  0.1301045E+00
          2   -1    0    0  502    0  0.00000000000E+00  0.00000000000E+00  0.68565656578E+03  0.68565656578E+03  0.00000000000E+00 0.  1.
          1   -1    0    0  501    0 -0.00000000000E+00 -0.00000000000E+00 -0.37556447539E+02  0.37556447539E+02  0.00000000000E+00 0.  1.
          2    1    1    2  501    0  0.20487288606E+02 -0.57348007987E+02  0.75310193283E+02  0.96851165335E+02  0.00000000000E+00 0.  1.
          1    1    1    2  502    0 -0.68146200848E+02  0.32467279343E+00  0.53411370386E+02  0.86583974204E+02  0.00000000000E+00 0.  1.
         22    1    1    2    0    0  0.56979013796E+02  0.74387063408E+02  0.50890721172E+03  0.51746168298E+03  0.00000000000E+00 0.  1.
         22    1    1    2    0    0 -0.93201015545E+01 -0.17363728214E+02  0.10471342852E+02  0.22316190795E+02  0.00000000000E+00 0.  1.
</event>
<event>
 6    1  0.1293624E-005  0.2153494E+03  0.7818608E-02  0.1138100E+00
          2   -1    0    0  502    0  0.00000000000E+00  0.00000000000E+00  0.37557748528E+02  0.37557748528E+02  0.00000000000E+00 0. -1.
          1   -1    0    0  501    0 -0.00000000000E+00 -0.00000000000E+00 -0.16101928673E+04  0.16101928673E+04  0.00000000000E+00 0. -1.
          2    1    1    2  501    0  0.88446634949E+02  0.15824078125E+03 -0.79127382038E+03  0.81177411322E+03  0.00000000000E+00 0. -1.
          1    1    1    2  502    0 -0.10784223884E+02  0.30993675163E+02 -0.26490003480E+03  0.26692496290E+03  0.00000000000E+00 0. -1.
         22    1    1    2    0    0 -0.92904258562E+02 -0.19963578580E+03 -0.46860093615E+03  0.51775716856E+03  0.00000000000E+00 0. -1.
         22    1    1    2    0    0  0.15241847498E+02  0.10401329386E+02 -0.47860327478E+02  0.51294371177E+02  0.00000000000E+00 0. -1.
</event>
<event>
 6    1  0.1293624E-005  0.8171701E+02  0.7818608E-02  0.1327331E+00
          2   -1    0    0  502    0  0.00000000000E+00  0.00000000000E+00  0.34761110074E+03  0.34761110074E+03  0.00000000000E+00 0. -1.
          1   -1    0    0  501    0 -0.00000000000E+00 -0.00000000000E+00 -0.35452193036E+03  0.35452193036E+03  0.00000000000E+00 0.  1.
          2    1    1    2  501    0 -0.53297965839E+02  0.56697899038E+01 -0.10812258232E+02  0.54678374228E+02  0.00000000000E+00 0. -1.
          1    1    1    2  502    0  0.14383972793E+02 -0.49216014830E+02 -0.30507204725E+03  0.30935104461E+03  0.00000000000E+00 0.  1.
         22    1    1    2    0    0 -0.18242931212E+02 -0.12179220655E+02  0.33035965574E+01  0.22182238507E+02  0.00000000000E+00 0.  1.
         22    1    1    2    0    0  0.57156924258E+02  0.55725445581E+02  0.30566987930E+03  0.31592137375E+03  0.00000000000E+00 0. -1.
</event>
<event>
 6    1  0.1293624E-005  0.1660736E+03  0.7818608E-02  0.1182005E+00
          2   -1    0    0  502    0  0.00000000000E+00  0.00000000000E+00  0.20959949308E+03  0.20959949308E+03  0.00000000000E+00 0.  1.
          1   -1    0    0  501    0 -0.00000000000E+00 -0.00000000000E+00 -0.17222316680E+03  0.17222316680E+03  0.00000000000E+00 0.  1.
          2    1    1    2  501    0 -0.15622423773E+02  0.12926106310E+02  0.28149548091E+02  0.34692094295E+02  0.00000000000E+00 0.  1.
          1    1    1    2  502    0  0.78765482318E+02 -0.51471727877E+02 -0.12036317185E+03  0.15277641543E+03  0.00000000000E+00 0.  1.
         22    1    1    2    0    0 -0.84409953977E+02  0.18424677678E+02  0.13894751962E+03  0.16361822113E+03  0.00000000000E+00 0.  1.
         22    1    1    2    0    0  0.21266895432E+02  0.20120943889E+02 -0.93575695886E+01  0.30735929023E+02  0.00000000000E+00 0. -1.
</event>
<event>
 6    1  0.1293624E-005  0.2056877E+03  0.7818608E-02  0.1145027E+00
          2   -1    0    0  502    0  0.00000000000E+00  0.00000000000E+00  0.28769671176E+03  0.28769671176E+03  0.00000000000E+00 0. -1.
          1   -1    0    0  501    0 -0.00000000000E+00 -0.00000000000E+00 -0.62480716619E+03  0.62480716619E+03  0.00000000000E+00 0.  1.
          2    1    1    2  501    0 -0.46313489538E+02 -0.55206678367E+02  0.60728217954E+02  0.94237111084E+02  0.00000000000E+00 0. -1.
          1    1    1    2  502    0  0.31928588945E+02  0.33595423454E+02 -0.58701275719E+03  0.58883959138E+03  0.00000000000E+00 0.  1.
         22    1    1    2    0    0 -0.48294705977E+02  0.13316082743E+02  0.14189465923E+03  0.15047854001E+03  0.00000000000E+00 0. -1.
         22    1    1    2    0    0  0.62679606571E+02  0.82951721701E+01  0.47279425575E+02  0.78948635478E+02  0.00000000000E+00 0. -1.
</event>
<event>
 6    1  0.2325545E-005  0.2038854E+03  0.7818608E-02  0.1146502E+00
          2   -1    0    0  502    0  0.00000000000E+00  0.00000000000E+00  0.21132442018E+03  0.21132442018E+03  0.00000000000E+00 0. -1.
          1   -1    0    0  501    0 -0.00000000000E+00 -0.00000000000E+00 -0.57952661456E+03  0.57952661456E+03  0.00000000000E+00 0. -1.
          2    1    1    2  501    0  0.27111680650E+02 -0.65694192340E+01 -0.16092816460E+02  0.32205267246E+02  0.00000000000E+00 0. -1.
          1    1    1    2  502    0  0.44689955223E+02  0.53400385780E+01 -0.52917095721E+03  0.53108154747E+03  0.00000000000E+00 0. -1.
         22    1    1    2    0    0 -0.37675945535E+02 -0.68856068023E+01  0.18717880491E+03  0.19105704242E+03  0.00000000000E+00 0. -1.
         22    1    1    2    0    0 -0.34125690338E+02  0.81149874583E+01 -0.10117225625E+02  0.36507177607E+02  0.00000000000E+00 0. -1.
</event>
<event>
 6    1  0.1293624E-005  0.1917916E+03  0.7818608E-02  0.1217810E+00
          2   -1    0    0  502    0  0.00000000000E+00  0.00000000000E+00  0.31856112631E+03  0.31856112631E+03  0.00000000000E+00 0.  1.
          1   -1    0    0  501    0 -0.00000000000E+00 -0.00000000000E+00 -0.65760151324E+03  0.65760151324E+03  0.00000000000E+00 0. -1.
          2    1    1    2  501    0  0.21248729385E+01 -0.88427398069E+02  0.75629183003E+02  0.11637737381E+03  0.00000000000E+00 0.  1.
          1    1    1    2  502    0  0.28542933711E+02  0.18805406376E+03 -0.59147899424E+03  0.62131025309E+03  0.00000000000E+00 0. -1.
         22    1    1    2    0    0 -0.36220911639E+02 -0.33781317154E+02  0.16380396879E+03  0.17112823268E+03  0.00000000000E+00 0.  1.
         22    1    1    2    0    0  0.55531049898E+01 -0.65845348539E+02  0.13005455511E+02  0.67346779969E+02  0.00000000000E+00 0. -1.
</event>
<event>
 6    1  0.1293624E-005  0.2179910E+03  0.7818608E-02  0.1135390E+00
          2   -1    0    0  502    0  0.00000000000E+00  0.00000000000E+00  0.24269102709E+03  0.24269102709E+03  0.00000000000E+00 0.  1.
          1   -1    0    0  501    0 -0.00000000000E+00 -0.00000000000E+00 -0.10829763743E+04  0.10829763743E+04  0.00000000000E+00 0. -1.
          2    1    1    2  501    0 -0.11645218888E+02  0.22729367160E+02 -0.12389953250E+02  0.28385668848E+02  0.00000000000E+00 0.  1.
          1    1    1    2  502    0  0.10978261916E+03 -0.74023328915E+02 -0.10289119790E+04  0.10373965188E+04  0.00000000000E+00 0. -1.
         22    1    1    2    0    0 -0.19796839215E+02  0.41485095163E+02  0.22605704745E+01  0.46022148391E+02  0.00000000000E+00 0.  1.
         22    1    1    2    0    0 -0.78340561060E+02  0.98088665919E+01  0.19875601459E+03  0.21386306532E+03  0.00000000000E+00 0.  1.
</event>
<event>
 6    1  0.1293624E-005  0.1934002E+03  0.7818608E-02  0.1155430E+00
          2   -1    0    0  502    0  0.00000000000E+00  0.00000000000E+00  0.15622903808E+03  0.15622903808E+03  0.00000000000E+00 0.  1.
          1   -1    0    0  501    0 -0.00000000000E+00 -0.00000000000E+00 -0.16000468389E+03  0.16000468389E+03  0.00000000000E+00 0. -1.
          2    1    1    2  501    0 -0.13496655069E+02 -0.43752726440E+02  0.58956597699E+01  0.46165133738E+02  0.00000000000E+00 0.  1.
          1    1    1    2  502    0  0.16156836466E+02 -0.21448150552E+02 -0.97635523358E+02  0.10126086089E+03  0.00000000000E+00 0. -1.
         22    1    1    2    0    0  0.26696448940E+02  0.73954954508E+01  0.99211776992E+02  0.10300665237E+03  0.00000000000E+00 0.  1.
         22    1    1    2    0    0 -0.29356630337E+02  0.57805381541E+02 -0.11247559211E+02  0.65801074976E+02  0.00000000000E+00 0.  1.
</event>
<event>
 6    1  0.1293624E-005  0.1875056E+03  0.7818608E-02  0.1160731E+00
          2   -1    0    0  502    0  0.00000000000E+00  0.00000000000E+00  0.22394741512E+02  0.22394741512E+02  0.00000000000E+00 0. -1.
          1   -1    0    0  501    0 -0.00000000000E+00 -0.00000000000E+00 -0.13439676983E+04  0.13439676983E+04  0.00000000000E+00 0.  1.
          2    1    1    2  501    0  0.19689957267E+02 -0.40293334686E+02 -0.14369381843E+03  0.15052960072E+03  0.00000000000E+00 0. -1.
          1    1    1    2  502    0  0.28795068694E+02  0.31640488913E+02 -0.94230383777E+03  0.94327450893E+03  0.00000000000E+00 0.  1.
         22    1    1    2    0    0 -0.91592203200E+02  0.12594955564E+02 -0.14185015189E+03  0.16931990487E+03  0.00000000000E+00 0. -1.
         22    1    1    2    0    0  0.43107177239E+02 -0.39421097908E+01 -0.93725148673E+02  0.10323842527E+03  0.00000000000E+00 0.  1.
</event>
<event>
 6    1  0.1293624E-005  0.6929014E+02  0.7818608E-02  0.1367064E+00
          2   -1    0    0  502    0  0.00000000000E+00  0.00000000000E+00  0.26234336123E+03  0.26234336123E+03  0.00000000000E+00 0.  1.
          1   -1    0    0  501    0 -0.00000000000E+00 -0.00000000000E+00 -0.18561089381E+03  0.18561089381E+03  0.00000000000E+00 0. -1.
          2    1    1    2  501    0  0.19445173011E+02  0.22903057081E+02  0.53816053592E+02  0.61634668826E+02  0.00000000000E+00 0.  1.
          1    1    1    2  502    0 -0.24884274881E+02  0.12596193843E+02 -0.16011479194E+03  0.16252580667E+03  0.00000000000E+00 0. -1.
         22    1    1    2    0    0 -0.84352081579E+01 -0.67684294750E+02  0.45801003731E+02  0.82158678393E+02  0.00000000000E+00 0. -1.
         22    1    1    2    0    0  0.13874310028E+02  0.32185043826E+02  0.13723020204E+03  0.14163510115E+03  0.00000000000E+00 0.  1.
</event>
<event>
 6    1  0.1293624E-005  0.9051666E+02  0.7818608E-02  0.1324715E+00
          2   -1    0    0  502    0  0.00000000000E+00  0.00000000000E+00  0.42128638984E+02  0.42128638984E+02  0.00000000000E+00 0. -1.
          1   -1    0    0  501    0 -0.00000000000E+00 -0.00000000000E+00 -0.20307026346E+04  0.20307026346E+04  0.00000000000E+00 0. -1.
          2    1    1    2  501    0  0.98139566308E+02 -0.21365779659E+02 -0.53192782858E+03  0.54132715232E+03  0.00000000000E+00 0. -1.
          1    1    1    2  502    0 -0.68637892105E+02  0.44083641962E+02 -0.13754646996E+04  0.13778815869E+04  0.00000000000E+00 0. -1.
         22    1    1    2    0    0  0.26249873277E+02 -0.15621272966E+01 -0.89619627541E+02  0.93397932147E+02  0.00000000000E+00 0.  1.
         22    1    1    2    0    0 -0.55751547480E+02 -0.21155735007E+02  0.84381600646E+01  0.60224602244E+02  0.00000000000E+00 0. -1.
</event>
<event>
 6    1  0.1293624E-005  0.2583364E+03  0.7818608E-02  0.1108147E+00
          2   -1    0    0  502    0  0.00000000000E+00  0.00000000000E+00  0.21555870231E+03  0.21555870231E+03  0.00000000000E+00 0.  1.
          1   -1    0    0  501    0 -0.00000000000E+00 -0.00000000000E+00 -0.63754965199E+03  0.63754965199E+03  0.00000000000E+00 0. -1.
          2    1    1    2  501    0 -0.10258026201E+03  0.13534259767E+02  0.23849143750E+02  0.10618223957E+03  0.00000000000E+00 0.  1.
          1    1    1    2  502    0  0.23999175339E+02 -0.19228991340E+00 -0.55979928658E+03  0.56031351817E+03  0.00000000000E+00 0. -1.
         22    1    1    2    0    0  0.98973534796E+02 -0.16437248577E+02  0.36995126644E+02  0.10693261021E+03  0.00000000000E+00 0.  1.
         22    1    1    2    0    0 -0.20392448121E+02  0.30952787243E+01  0.76964066505E+02  0.79679986344E+02  0.00000000000E+00 0.  1.
</event>
<event>
 6    1  0.1293624E-005  0.2561939E+03  0.7818608E-02  0.1207544E+00
          2   -1    0    0  502    0  0.00000000000E+00  0.00000000000E+00  0.37388460691E+03  0.37388460691E+03  0.00000000000E+00 0. -1.
          1   -1    0    0  501    0 -0.00000000000E+00 -0.00000000000E+00 -0.13286632421E+04  0.13286632421E+04  0.00000000000E+00 0. -1.
          2    1    1    2  501    0  0.31435763574E+02  0.96313817981E+02 -0.64137413903E+03  0.64932683987E+03  0.00000000000E+00 0. -1.
          1    1    1    2  502    0 -0.15926622673E+03 -0.21461892799E+03  0.30050296101E+03  0.40215549829E+03  0.00000000000E+00 0. -1.
         22    1    1    2    0    0  0.10731758629E+03  0.10257884263E+03 -0.60617025041E+03  0.62408481456E+03  0.00000000000E+00 0. -1.
         22    1    1    2    0    0  0.20512876864E+02  0.15726267380E+02 -0.77372067433E+01  0.26980696269E+02  0.00000000000E+00 0. -1.
</event>
<event>
 6    1  0.1293624E-005  0.1902108E+03  0.7818608E-02  0.1158271E+00
          2   -1    0    0  502    0  0.00000000000E+00  0.00000000000E+00  0.17342362227E+03  0.17342362227E+03  0.00000000000E+00 0. -1.
          1   -1    0    0  501    0 -0.00000000000E+00 -0.00000000000E+00 -0.24098958956E+03  0.24098958956E+03  0.00000000000E+00 0.  1.
          2    1    1    2  501    0 -0.46952407550E+01  0.25484844096E+02 -0.20803351491E+02  0.33231039671E+02  0.00000000000E+00 0. -1.
          1    1    1    2  502    0 -0.22542560211E+02 -0.15651168017E+02 -0.18753309143E+03  0.18953043677E+03  0.00000000000E+00 0.  1.
         22    1    1    2    0    0  0.31968045128E+01 -0.37396289201E+02 -0.80641070677E+01  0.38389214995E+02  0.00000000000E+00 0.  1.
         22    1    1    2    0    0  0.24040996453E+02  0.27562613121E+02  0.14883458269E+03  0.15326252039E+03  0.00000000000E+00 0. -1.
</event>
<event>
 6    1  0.1293624E-005  0.2531948E+03  0.7818608E-02  0.1111302E+00
          2   -1    0    0  502    0  0.00000000000E+00  0.00000000000E+00  0.24244432391E+03  0.24244432391E+03  0.00000000000E+00 0. -1.
          1   -1    0    0  501    0 -0.00000000000E+00 -0.00000000000E+00 -0.14650413513E+03  0.14650413513E+03  0.00000000000E+00 0. -1.
          2    1    1    2  501    0  0.14899568072E+02 -0.51368072033E+02 -0.37376990281E+02  0.65251171297E+02  0.00000000000E+00 0. -1.
          1    1    1    2  502    0 -0.30231551030E+02  0.70267502012E+02 -0.54964799593E+02  0.94194467518E+02  0.00000000000E+00 0. -1.
         22    1    1    2    0    0  0.44960134413E+02  0.27950601262E+02  0.15736536515E+03  0.16603164742E+03  0.00000000000E+00 0.  1.
         22    1    1    2    0    0 -0.29628151455E+02 -0.46850031240E+02  0.30916613508E+02  0.63471172800E+02  0.00000000000E+00 0. -1.
</event>
<event>
 6    1  0.1293624E-005  0.4676582E+02  0.7818608E-02  0.1466307E+00
          2   -1    0    0  502    0  0.00000000000E+00  0.00000000000E+00  0.41607172882E+02  0.41607172882E+02  0.00000000000E+00 0. -1.
          1   -1    0    0  501    0 -0.00000000000E+00 -0.00000000000E+00 -0.43164308939E+03  0.43164308939E+03  0.00000000000E+00 0. -1.
          2    1    1    2  501    0 -0.29067248435E+01 -0.20156005610E+02  0.29584953086E+01  0.20578296965E+02  0.00000000000E+00 0. -1.
          1    1    1    2  502    0 -0.44628304703E+02  0.13977001061E+02 -0.26553138170E+03  0.26961816854E+03  0.00000000000E+00 0. -1.
         22    1    1    2    0    0  0.10478232709E+01 -0.25768105723E+02  0.14997223668E+02  0.29833034105E+02  0.00000000000E+00 0. -1.
         22    1    1    2    0    0  0.46487206276E+02  0.31947110273E+02 -0.14246025378E+03  0.15322076266E+03  0.00000000000E+00 0. -1.
</event>
<event>
 6    1  0.1373001E-005  0.7281842E+02  0.7818608E-02  0.1353126E+00
          2   -1    0    0  502    0  0.00000000000E+00  0.00000000000E+00  0.21324112699E+03  0.21324112699E+03  0.00000000000E+00 0.  1.
          1   -1    0    0  501    0 -0.00000000000E+00 -0.00000000000E+00 -0.76570408488E+03  0.76570408488E+03  0.00000000000E+00 0. -1.
          2    1    1    2  501    0  0.88569743983E+01 -0.25549444520E+02 -0.30456663156E+01  0.27212059718E+02  0.00000000000E+00 0.  1.
          1    1    1    2  502    0  0.71815683307E+01 -0.22277560641E+02 -0.72670842441E+03  0.72708527612E+03  0.00000000000E+00 0. -1.
         22    1    1    2    0    0  0.25368129089E+02 -0.13711488435E+02 -0.36763345686E+01  0.29069955700E+02  0.00000000000E+00 0.  1.
         22    1    1    2    0    0 -0.41406671818E+02  0.61538493595E+02  0.18096746740E+03  0.19557792034E+03  0.00000000000E+00 0.  1.
</event>
<event>
 6    1  0.1293624E-005  0.7119831E+02  0.7818608E-02  0.1361302E+00
          2   -1    0    0  502    0  0.00000000000E+00  0.00000000000E+00  0.13645503424E+03  0.13645503424E+03  0.00000000000E+00 0.  1.
          1   -1    0    0  501    0 -0.00000000000E+00 -0.00000000000E+00 -0.13450487392E+04  0.13450487392E+04  0.00000000000E+00 0. -1.
          2    1    1    2  501    0 -0.29946979899E+02  0.19611671699E+02 -0.40945574139E+01  0.36030607437E+02  0.00000000000E+00 0.  1.
          1    1    1    2  502    0  0.20817196828E+02 -0.30605752207E+02 -0.12893072819E+04  0.12898384918E+04  0.00000000000E+00 0. -1.
         22    1    1    2    0    0  0.60585342592E+02  0.15211834706E+02  0.83124414752E+02  0.10397909396E+03  0.00000000000E+00 0.  1.
         22    1    1    2    0    0 -0.51455559521E+02 -0.42177541977E+01  0.16837196261E+01  0.51655580220E+02  0.00000000000E+00 0.  1.
</event>
<event>
 6    1  0.1408990E-005  0.7749707E+02  0.7818608E-02  0.1337421E+00
          2   -1    0    0  502    0  0.00000000000E+00  0.00000000000E+00  0.39285499543E+03  0.39285499543E+03  0.00000000000E+00 0.  1.
          1   -1    0    0  501    0 -0.00000000000E+00 -0.00000000000E+00 -0.29298963087E+03  0.29298963087E+03  0.00000000000E+00 0.  1.
          2    1    1    2  501    0 -0.60921165736E+02 -0.78340732404E+01  0.22336566050E+03  0.23165702974E+03  0.00000000000E+00 0.  1.
          1    1    1    2  502    0  0.10516813619E+01  0.76566061304E+02 -0.24599170702E+03  0.25763421299E+03  0.00000000000E+00 0.  1.
         22    1    1    2    0    0 -0.15147035043E+02 -0.42712697972E+01  0.91588442506E+02  0.92930722675E+02  0.00000000000E+00 0.  1.
         22    1    1    2    0    0  0.75016519417E+02 -0.64460718266E+02  0.30902968576E+02  0.10362266090E+03  0.00000000000E+00 0.  1.
</event>
<event>
 6    1  0.1293624E-005  0.5622127E+02  0.7818608E-02  0.1415660E+00
          2   -1    0    0  502    0  0.00000000000E+00  0.00000000000E+00  0.26617558531E+03  0.26617558531E+03  0.00000000000E+00 0. -1.
          1   -1    0    0  501    0 -0.00000000000E+00 -0.00000000000E+00 -0.59592512597E+02  0.59592512597E+02  0.00000000000E+00 0. -1.
          2    1    1    2  501    0  0.20106676412E+02  0.13842578300E+02 -0.13001748816E+02  0.27657564654E+02  0.00000000000E+00 0. -1.
          1    1    1    2  502    0  0.28477369233E+02 -0.21362620940E+02 -0.39753664097E+01  0.35820743571E+02  0.00000000000E+00 0. -1.
         22    1    1    2    0    0 -0.66591319231E+02  0.14108606914E+02  0.23167550724E+03  0.24146841873E+03  0.00000000000E+00 0. -1.
         22    1    1    2    0    0  0.18007273585E+02 -0.65885642744E+01 -0.81153193028E+01  0.20821370957E+02  0.00000000000E+00 0.  1.
</event>
<event>
 6    1  0.1293624E-005  0.3694605E+03  0.7818608E-02  0.1054899E+00
          2   -1    0    0  502    0  0.00000000000E+00  0.00000000000E+00  0.12322154022E+04  0.12322154022E+04  0.00000000000E+00 0. -1.
          1   -1    0    0  501    0 -0.00000000000E+00 -0.00000000000E+00 -0.71749602475E+03  0.71749602475E+03  0.00000000000E+00 0. -1.
          2    1    1    2  501    0  0.60497609735E+02 -0.68409407384E+02  0.23751561755E+03  0.25446704380E+03  0.00000000000E+00 0. -1.
          1    1    1    2  502    0 -0.14388818927E+03  0.30099110502E+03 -0.64847075687E+03  0.72925563339E+03  0.00000000000E+00 0. -1.
         22    1    1    2    0    0  0.50574082073E+02 -0.12004740813E+02  0.21227838493E+03  0.21854968379E+03  0.00000000000E+00 0. -1.
         22    1    1    2    0    0  0.32816497462E+02 -0.22057695682E+03  0.71339613186E+03  0.74743906597E+03  0.00000000000E+00 0. -1.
</event>
<event>
 6    1  0.1293624E-005  0.1833110E+03  0.7818608E-02  0.1164637E+00
          2   -1    0    0  502    0  0.00000000000E+00  0.00000000000E+00  0.52289517899E+02  0.52289517899E+02  0.00000000000E+00 0. -1.
          1   -1    0    0  501    0 -0.00000000000E+00 -0.00000000000E+00 -0.29821100601E+03  0.29821100601E+03  0.00000000000E+00 0. -1.
          2    1    1    2  501    0 -0.21113828119E+02  0.91557983606E+01 -0.45793066799E+01  0.23464706074E+02  0.00000000000E+00 0. -1.
          1    1    1    2  502    0 -0.63011192545E+02  0.13438565109E+02 -0.84400116444E+02  0.10618090729E+03  0.00000000000E+00 0. -1.
         22    1    1    2    0    0 -0.19196444728E+02  0.28957863291E+01  0.10790798387E+02  0.22211042265E+02  0.00000000000E+00 0.  1.
         22    1    1    2    0    0  0.10332146539E+03 -0.25490149799E+02 -0.16773286337E+03  0.19864386827E+03  0.00000000000E+00 0. -1.
</event>
<event>
 6    1  0.1293624E-005  0.8997858E+02  0.7818608E-02  0.1305251E+00
          2   -1    0    0  502    0  0.00000000000E+00  0.00000000000E+00  0.15249285390E+03  0.15249285390E+03  0.00000000000E+00 0. -1.
          1   -1    0    0  501    0 -0.00000000000E+00 -0.00000000000E+00 -0.80983048279E+03  0.80983048279E+03  0.00000000000E+00 0. -1.
          2    1    1    2  501    0  0.51876211279E+02  0.48239690758E+02  0.72143172239E+02  0.10110809246E+03  0.00000000000E+00 0. -1.
          1    1    1    2  502    0 -0.19925455662E+02 -0.47674038104E+01 -0.72632039806E+03  0.72660929842E+03  0.00000000000E+00 0. -1.
         22    1    1    2    0    0  0.13832375129E+02  0.12793408769E+02  0.44149920975E+02  0.48002306525E+02  0.00000000000E+00 0. -1.
         22    1    1    2    0    0 -0.45783130746E+02 -0.56265695716E+02 -0.47310324050E+02  0.86603639283E+02  0.00000000000E+00 0.  1.
</event>
<event>
 6    1  0.1293624E-005  0.2027306E+03  0.7818608E-02  0.1148424E+00
          2   -1    0    0  502    0  0.00000000000E+00  0.00000000000E+00  0.57598932581E+03  0.57598932581E+03  0.00000000000E+00 0.  1.
          1   -1    0    0  501    0 -0.00000000000E+00 -0.00000000000E+00 -0.10420609864E+04  0.10420609864E+04  0.00000000000E+00 0. -1.
          2    1    1    2  501    0  0.18699818805E+03  0.88284100383E+02  0.31726137457E+03  0.37870461379E+03  0.00000000000E+00 0.  1.
          1    1    1    2  502    0 -0.40822159166E+02 -0.65060598187E+02 -0.96771685878E+03  0.97076013973E+03  0.00000000000E+00 0. -1.
         22    1    1    2    0    0 -0.16923724639E+03 -0.18891691906E+02  0.14984171109E+03  0.22682742332E+03  0.00000000000E+00 0. -1.
         22    1    1    2    0    0  0.23061217506E+02 -0.43318102895E+01  0.34542112519E+02  0.41758135381E+02  0.00000000000E+00 0. -1.
</event>
<event>
 6    1  0.1293624E-005  0.1580466E+03  0.7818608E-02  0.1191802E+00
          2   -1    0    0  502    0  0.00000000000E+00  0.00000000000E+00  0.89086677830E+03  0.89086677830E+03  0.00000000000E+00 0. -1.
          1   -1    0    0  501    0 -0.00000000000E+00 -0.00000000000E+00 -0.25932709407E+03  0.25932709407E+03  0.00000000000E+00 0.  1.
          2    1    1    2  501    0  0.11488167106E+03  0.73165608575E+02  0.37184951540E+03  0.39600892254E+03  0.00000000000E+00 0. -1.
          1    1    1    2  502    0  0.12237244425E+01 -0.21060300260E+02 -0.23115776622E+03  0.23211838926E+03  0.00000000000E+00 0.  1.
         22    1    1    2    0    0 -0.13335135183E+03 -0.69206904546E+02  0.38071387682E+03  0.40928625029E+03  0.00000000000E+00 0.  1.
         22    1    1    2    0    0  0.17245956330E+02  0.17101596231E+02  0.11013405823E+03  0.11278031027E+03  0.00000000000E+00 0. -1.
</event>
<event>
 6    1  0.1293624E-005  0.2398695E+03  0.7818608E-02  0.1119880E+00
          2   -1    0    0  502    0  0.00000000000E+00  0.00000000000E+00  0.15113104989E+03  0.15113104989E+03  0.00000000000E+00 0. -1.
          1   -1    0    0  501    0 -0.00000000000E+00 -0.00000000000E+00 -0.20090005751E+03  0.20090005751E+03  0.00000000000E+00 0. -1.
          2    1    1    2  501    0 -0.12839739628E+02 -0.45166064409E+02 -0.27262809158E+02  0.54296344730E+02  0.00000000000E+00 0. -1.
          1    1    1    2  502    0  0.32166192017E+02 -0.79610385450E+02 -0.70734900785E+02  0.11124703847E+03  0.00000000000E+00 0. -1.
         22    1    1    2    0    0 -0.23671955744E+02  0.15102542199E+03  0.35231995833E+02  0.15687680869E+03  0.00000000000E+00 0. -1.
         22    1    1    2    0    0  0.43455033556E+01 -0.26248972130E+02  0.12996706496E+02  0.29610915505E+02  0.00000000000E+00 0. -1.
</event>
<event>
 6    1  0.1293624E-005  0.1743459E+03  0.7818608E-02  0.1174322E+00
          2   -1    0    0  502    0  0.00000000000E+00  0.00000000000E+00  0.18281611836E+03  0.18281611836E+03  0.00000000000E+00 0.  1.
          1   -1    0    0  501    0 -0.00000000000E+00 -0.00000000000E+00 -0.56146055638E+03  0.56146055638E+03  0.00000000000E+00 0. -1.
          2    1    1    2  501    0  0.24569018048E+02  0.12521930818E+03 -0.12392641116E+03  0.17787992347E+03  0.00000000000E+00 0.  1.
          1    1    1    2  502    0 -0.18691676582E+02  0.33259515194E+02 -0.34245663538E+03  0.34457527660E+03  0.00000000000E+00 0. -1.
         22    1    1    2    0    0 -0.12121199409E+02 -0.17818440061E+03  0.91718450038E+02  0.20077071044E+03  0.00000000000E+00 0.  1.
         22    1    1    2    0    0  0.62438579432E+01  0.19705577236E+02 -0.39798415108E+01  0.21050764230E+02  0.00000000000E+00 0. -1.
</event>
<event>
 6    1  0.1293624E-005  0.3601546E+03  0.7818608E-02  0.1058523E+00
          2   -1    0    0  502    0  0.00000000000E+00  0.00000000000E+00  0.18834879159E+03  0.18834879159E+03  0.00000000000E+00 0. -1.
          1   -1    0    0  501    0 -0.00000000000E+00 -0.00000000000E+00 -0.33620649750E+03  0.33620649750E+03  0.00000000000E+00 0. -1.
          2    1    1    2  501    0 -0.18353973843E+03  0.52083287636E+02 -0.23597190322E+02  0.19224029709E+03  0.00000000000E+00 0. -1.
          1    1    1    2  502    0  0.11285253685E+03 -0.42246742078E+02  0.28072450311E+02  0.12372770408E+03  0.00000000000E+00 0. -1.
         22    1    1    2    0    0  0.91278856403E+02 -0.92912498137E+01 -0.16173261136E+03  0.18594513849E+03  0.00000000000E+00 0. -1.
         22    1    1    2    0    0 -0.20591654826E+02 -0.54529574426E+00  0.93996454652E+01  0.22642149430E+02  0.00000000000E+00 0.  1.
</event>
<event>
 6    1  0.1293624E-005  0.8321448E+02  0.7818608E-02  0.1323271E+00
          2   -1    0    0  502    0  0.00000000000E+00  0.00000000000E+00  0.45336516118E+03  0.45336516118E+03  0.00000000000E+00 0.  1.
          1   -1    0    0  501    0 -0.00000000000E+00 -0.00000000000E+00 -0.58167123472E+02  0.58167123472E+02  0.00000000000E+00 0. -1.
          2    1    1    2  501    0  0.51265905656E+02  0.82042655293E+01  0.30642584072E+03  0.31079301619E+03  0.00000000000E+00 0.  1.
          1    1    1    2  502    0 -0.58445296419E+00 -0.21479616696E+02 -0.20434017487E+02  0.29652396013E+02  0.00000000000E+00 0. -1.
         22    1    1    2    0    0  0.25593269161E+02  0.12118202656E+02  0.87214823831E+02  0.91696737989E+02  0.00000000000E+00 0.  1.
         22    1    1    2    0    0 -0.76274721853E+02  0.11571485099E+01  0.21991390646E+02  0.79390134456E+02  0.00000000000E+00 0. -1.
</event>
<event>
 6    1  0.1293624E-005  0.2053359E+03  0.7818608E-02  0.1145314E+00
          2   -1    0    0  502    0  0.00000000000E+00  0.00000000000E+00  0.15542284542E+03  0.15542284542E+03  0.00000000000E+00 0. -1.
          1   -1    0    0  501    0 -0.00000000000E+00 -0.00000000000E+00 -0.54344977850E+03  0.54344977850E+03  0.00000000000E+00 0. -1.
          2    1    1    2  501    0  0.16375563717E+02 -0.21383270093E+02 -0.88548696640E+01  0.28351579210E+02  0.00000000000E+00 0. -1.
          1    1    1    2  502    0 -0.12286696798E+03  0.59534332950E+02 -0.46112576524E+03  0.48091329779E+03  0.00000000000E+00 0. -1.
         22    1    1    2    0    0  0.11808862064E+03 -0.11898202998E+02  0.10042900168E+03  0.15547499457E+03  0.00000000000E+00 0. -1.
         22    1    1    2    0    0 -0.11597216375E+02 -0.26252859860E+02 -0.18475299856E+02  0.34132752353E+02  0.00000000000E+00 0. -1.
</event>
<event>
 6    1  0.1293624E-005  0.3246632E+03  0.7818608E-02  0.1073523E+00
          2   -1    0    0  502    0  0.00000000000E+00  0.00000000000E+00  0.35691739779E+03  0.35691739779E+03  0.00000000000E+00 0.  1.
          1   -1    0    0  501    0 -0.00000000000E+00 -0.00000000000E+00 -0.19645359226E+03  0.19645359226E+03  0.00000000000E+00 0.  1.
          2    1    1    2  501    0 -0.98790471567E+02  0.33980753326E+02 -0.20383013395E+02  0.10644113915E+03  0.00000000000E+00 0.  1.
          1    1    1    2  502    0  0.18122941241E+03  0.95664761728E+02  0.62983572090E+02  0.21438931156E+03  0.00000000000E+00 0.  1.
         22    1    1    2    0    0 -0.73163493429E+01 -0.11959248194E+03  0.46761228213E+02  0.12861766274E+03  0.00000000000E+00 0. -1.
         22    1    1    2    0    0 -0.75122591500E+02 -0.10053033111E+02  0.71102018617E+02  0.10392287660E+03  0.00000000000E+00 0.  1.
</event>
<event>
 6    1  0.1293624E-005  0.1945126E+03  0.7818608E-02  0.1154453E+00
          2   -1    0    0  502    0  0.00000000000E+00  0.00000000000E+00  0.28293338588E+02  0.28293338588E+02  0.00000000000E+00 0. -1.
          1   -1    0    0  501    0 -0.00000000000E+00 -0.00000000000E+00 -0.86287825196E+03  0.86287825196E+03  0.00000000000E+00 0. -1.
          2    1    1    2  501    0 -0.50616724521E+02  0.12218978707E+02 -0.11371542178E+03  0.12507019386E+03  0.00000000000E+00 0. -1.
          1    1    1    2  502    0  0.45889295638E+01  0.22727348819E+02 -0.52526146990E+03  0.52577295710E+03  0.00000000000E+00 0. -1.
         22    1    1    2    0    0 -0.54657309575E+01 -0.64629894345E+02 -0.15588395675E+03  0.16883928876E+03  0.00000000000E+00 0. -1.
         22    1    1    2    0    0  0.51493525914E+02  0.29683566819E+02 -0.39724064949E+02  0.71489150829E+02  0.00000000000E+00 0.  1.
</event>
<event>
 6    1  0.1293624E-005  0.1661565E+03  0.7818608E-02  0.1181916E+00
          2   -1    0    0  502    0  0.00000000000E+00  0.00000000000E+00  0.43342719710E+03  0.43342719710E+03  0.00000000000E+00 0.  1.
          1   -1    0    0  501    0 -0.00000000000E+00 -0.00000000000E+00 -0.44882115088E+02  0.44882115088E+02  0.00000000000E+00 0.  1.
          2    1    1    2  501    0 -0.17963301013E+02 -0.15759732341E+02  0.36872173912E+02  0.43938668115E+02  0.00000000000E+00 0.  1.
          1    1    1    2  502    0 -0.47700881946E+02  0.39034240789E+02  0.68483396015E+01  0.62015690335E+02  0.00000000000E+00 0.  1.
         22    1    1    2    0    0 -0.30522084627E+02 -0.11910592693E+02  0.35900857973E+02  0.48603821573E+02  0.00000000000E+00 0.  1.
         22    1    1    2    0    0  0.96186267586E+02 -0.11363915755E+02  0.30892371053E+03  0.32375113217E+03  0.00000000000E+00 0.  1.
</event>
<event>
 6    1  0.1293624E-005  0.1446363E+03  0.7818608E-02  0.1208109E+00
          2   -1    0    0  502    0  0.00000000000E+00  0.00000000000E+00  0.34614448534E+03  0.34614448534E+03  0.00000000000E+00 0.  1.
          1   -1    0    0  501    0 -0.00000000000E+00 -0.00000000000E+00 -0.47398700162E+03  0.47398700162E+03  0.00000000000E+00 0.  1.
          2    1    1    2  501    0 -0.71844037721E+02  0.86718582695E+02  0.10579642936E+03  0.15451395667E+03  0.00000000000E+00 0.  1.
          1    1    1    2  502    0 -0.23577116857E+02 -0.22478901104E+01 -0.41374815093E+03  0.41442546477E+03  0.00000000000E+00 0.  1.
         22    1    1    2    0    0  0.11818945720E+03 -0.93242432212E+02  0.15123437983E+03  0.21338869839E+03  0.00000000000E+00 0.  1.
         22    1    1    2    0    0 -0.22768302623E+02  0.87717396282E+01  0.28874825466E+02  0.37803367127E+02  0.00000000000E+00 0. -1.
</event>
<event>
 6    1  0.1293624E-005  0.4744986E+02  0.7818608E-02  0.1462058E+00
          2   -1    0    0  502    0  0.00000000000E+00  0.00000000000E+00  0.17517013452E+03  0.17517013452E+03  0.00000000000E+00 0.  1.
          1   -1    0    0  501    0 -0.00000000000E+00 -0.00000000000E+00 -0.20580824385E+03  0.20580824385E+03  0.00000000000E+00 0. -1.
          2    1    1    2  501    0  0.13785102866E+02 -0.31126034983E+02 -0.32045960155E+02  0.46752568667E+02  0.00000000000E+00 0.  1.
          1    1    1    2  502    0 -0.20870594079E+02  0.94446155539E+01 -0.14210551001E+03  0.14394012100E+03  0.00000000000E+00 0. -1.
         22    1    1    2    0    0  0.23272164811E+01 -0.23474180616E+02 -0.13266009298E+02  0.27063630481E+02  0.00000000000E+00 0. -1.
         22    1    1    2    0    0  0.47582747319E+01  0.45155600045E+02  0.15677937013E+03  0.16322205823E+03  0.00000000000E+00 0.  1.
</event>
<event>
 6    1  0.1293624E-005  0.1007134E+03  0.7818608E-02  0.1279997E+00
          2   -1    0    0  502    0  0.00000000000E+00  0.00000000000E+00  0.12752631029E+03  0.12752631029E+03  0.00000000000E+00 0.  1.
          1   -1    0    0  501    0 -0.00000000000E+00 -0.00000000000E+00 -0.33868174887E+03  0.33868174887E+03  0.00000000000E+00 0. -1.
          2    1    1    2  501    0 -0.48074911567E+02  0.69394057724E+02 -0.72381409861E+02  0.11120162257E+03  0.00000000000E+00 0.  1.
          1    1    1    2  502    0  0.61208901723E+02  0.15220652794E+02 -0.18679645659E+03  0.19715758701E+03  0.00000000000E+00 0. -1.
         22    1    1    2    0    0 -0.47824090627E+01  0.16461660809E+02 -0.26800928517E+02  0.31814265392E+02  0.00000000000E+00 0. -1.
         22    1    1    2    0    0 -0.83515810935E+01 -0.10107637133E+03  0.74823356391E+02  0.12603458418E+03  0.00000000000E+00 0.  1.
</event>
<event>
 6    1  0.1293624E-005  0.2082412E+03  0.7818608E-02  0.1143265E+00
          2   -1    0    0  502    0  0.00000000000E+00  0.00000000000E+00  0.81702400866E+03  0.81702400866E+03  0.00000000000E+00 0. -1.
          1   -1    0    0  501    0 -0.00000000000E+00 -0.00000000000E+00 -0.15667727909E+03  0.15667727909E+03  0.00000000000E+00 0. -1.
          2    1    1    2  501    0  0.14731154550E+03  0.12348223218E+03  0.30425748630E+03  0.35989049872E+03  0.00000000000E+00 0. -1.
          1    1    1    2  502    0  0.32700286261E+02 -0.51718989309E+02 -0.92255720428E+02  0.11070357053E+03  0.00000000000E+00 0. -1.
         22    1    1    2    0    0  0.15283243351E+02  0.55778119568E+01  0.18179988732E+02  0.24396751912E+02  0.00000000000E+00 0. -1.
         22    1    1    2    0    0 -0.19529507511E+03 -0.77341054824E+02  0.43016497497E+03  0.47871046658E+03  0.00000000000E+00 0. -1.
</event>
<event>
 6    1  0.1293624E-005  0.1218151E+03  0.7818608E-02  0.1266122E+00
          2   -1    0    0  502    0  0.00000000000E+00  0.00000000000E+00  0.22404398864E+03  0.22404398864E+03  0.00000000000E+00 0. -1.
          1   -1    0    0  501    0 -0.00000000000E+00 -0.00000000000E+00 -0.79883930117E+03  0.79883930117E+03  0.00000000000E+00 0.  1.
          2    1    1    2  501    0  0.79022174513E+01 -0.47926161411E+02  0.11747411126E+02  0.49973629610E+02  0.00000000000E+00 0. -1.
          1    1    1    2  502    0  0.58978302223E+02  0.10123640811E+03 -0.74398368074E+03  0.75315268549E+03  0.00000000000E+00 0.  1.
         22    1    1    2    0    0 -0.67862871385E+02  0.25978570546E+02  0.89907394258E+02  0.11560101636E+03  0.00000000000E+00 0.  1.
         22    1    1    2    0    0  0.98235171023E+00 -0.79288817243E+02  0.67533562816E+02  0.10415595836E+03  0.00000000000E+00 0. -1.
</event>
<event>
 6    1  0.1293624E-005  0.2045510E+03  0.7818608E-02  0.1145955E+00
          2   -1    0    0  502    0  0.00000000000E+00  0.00000000000E+00  0.13071366111E+03  0.13071366111E+03  0.00000000000E+00 0. -1.
          1   -1    0    0  501    0 -0.00000000000E+00 -0.00000000000E+00 -0.30186632334E+03  0.30186632334E+03  0.00000000000E+00 0. -1.
          2    1    1    2  501    0 -0.23775704804E+02  0.11159432001E+02 -0.28610373800E+02  0.38837746465E+02  0.00000000000E+00 0. -1.
          1    1    1    2  502    0 -0.71039479727E+02 -0.30188949034E+02 -0.21056489882E+03  0.22426670938E+03  0.00000000000E+00 0. -1.
         22    1    1    2    0    0  0.83310880545E+02  0.37039290616E+02  0.97226434016E+02  0.13328762635E+03  0.00000000000E+00 0. -1.
         22    1    1    2    0    0  0.11504303986E+02 -0.18009773583E+02 -0.29203823635E+02  0.36187902255E+02  0.00000000000E+00 0. -1.
</event>
